 Gaussian 16, Revision B.01,
 Gaussian 16:  ES64L-G16RevB.01 20-Dec-2017

 -------------------------
 #P B3LYP/6-311+g(d) force
 -------------------------

 -----
 DPGEN
 -----
 Symbolic Z-matrix:
 Charge =  0 Multiplicity = 2

                         Standard orientation:
 ---------------------------------------------------------------------
 Center     Atomic      Atomic             Coordinates (Angstroms)
 Number     Number       Type             X           Y           Z
 ---------------------------------------------------------------------
      1         11           0        0.752593    2.235015   -0.379302
      2         11           0       -0.095894   -1.044283    1.734002
      3         11           0       -4.131234   -0.287469   -0.777884
      4         11           0        2.798812   -1.627269    0.425180
      5         11           0        4.416491    1.052154   -0.726929
      6         11           0       -2.645047    2.208553    0.673068
      7         11           0       -1.095722   -2.536700   -0.948135
 ---------------------------------------------------------------------

 SCF Done:  E(UB3LYP) =  -1136.11881391     A.U. after   21 cycles

 The electronic state is 2-A.
 Alpha  occ. eigenvalues --  -38.44613 -38.44549 -38.44533 -38.44202 -38.44155
 Alpha  occ. eigenvalues --  -38.43792 -38.43762  -2.20436  -2.20333  -2.20295
 Alpha  occ. eigenvalues --   -2.20022  -2.20016  -2.19599  -2.19571  -1.14150
 Alpha  occ. eigenvalues --   -1.14105  -1.14058  -1.14030  -1.14016  -1.13991
 Alpha  occ. eigenvalues --   -1.13972  -1.13951  -1.13901  -1.13685  -1.13676
 Alpha  occ. eigenvalues --   -1.13675  -1.13668  -1.13639  -1.13624  -1.13272
 Alpha  occ. eigenvalues --   -1.13258  -1.13247  -1.13227  -1.13223  -1.13191
 Alpha  occ. eigenvalues --   -0.17002  -0.13953  -0.12152  -0.10791
 Alpha virt. eigenvalues --   -0.06874  -0.05342  -0.04620  -0.03569  -0.03170
 Alpha virt. eigenvalues --   -0.02421  -0.01910  -0.01614  -0.00805  -0.00629
 Alpha virt. eigenvalues --   -0.00334   0.00045   0.00357   0.00464   0.00633

  Beta  occ. eigenvalues --  -38.44601 -38.44547 -38.44513 -38.44135 -38.44110
  Beta  occ. eigenvalues --  -38.43788 -38.43706  -2.20418  -2.20331  -2.20262
  Beta  occ. eigenvalues --   -2.19940  -2.19891  -2.19595  -2.19468  -1.14127
  Beta  occ. eigenvalues --   -1.14098  -1.14029  -1.14024  -1.14017  -1.13971
  Beta  occ. eigenvalues --   -1.13944  -1.13932  -1.13867  -1.13629  -1.13624
  Beta  occ. eigenvalues --   -1.13596  -1.13584  -1.13562  -1.13553  -1.13272
  Beta  occ. eigenvalues --   -1.13257  -1.13215  -1.13154  -1.13151  -1.13127
  Beta  occ. eigenvalues --   -0.16463  -0.13272  -0.11856
  Beta virt. eigenvalues --   -0.07462  -0.06735  -0.05074  -0.04038  -0.03340
  Beta virt. eigenvalues --   -0.02670  -0.02284  -0.01652  -0.01230  -0.00550
  Beta virt. eigenvalues --   -0.00482  -0.00205   0.00186   0.00493   0.00568

 Mulliken charges and spin densities:
               1          2
     1  Na  -0.448903   0.020376
     2  Na  -0.211069   0.304701
     3  Na   0.017923   0.317945
     4  Na  -0.117316  -0.019019
     5  Na   0.371497   0.367170
     6  Na   0.196561  -0.049474
     7  Na   0.191308   0.058300
 Sum of Mulliken charges =  -0.00000   1.00000

 Dipole moment (field-independent basis, Debye):
    X=              0.1011    Y=             -0.4743    Z=              0.0806  Tot=              0.4916
 Quadrupole moment (field-independent basis, Debye-Ang):
   XX=            -65.9627   YY=            -69.9146   ZZ=            -66.9535
   XY=             -2.1379   XZ=             -1.0366   YZ=              1.2321

 Normal termination of Gaussian 16 at Sun Dec  3 18:47:01 2023.
