 Gaussian 16, Revision B.01,
 Gaussian 16:  ES64L-G16RevB.01 20-Dec-2017

 -------------------------
 #P B3LYP/6-311+g(d) force
 -------------------------

 -----
 DPGEN
 -----
 Symbolic Z-matrix:
 Charge =  0 Multiplicity = 2

                         Standard orientation:
 ---------------------------------------------------------------------
 Center     Atomic      Atomic             Coordinates (Angstroms)
 Number     Number       Type             X           Y           Z
 ---------------------------------------------------------------------
      1         11           0       -0.965562    2.232643   -0.411332
      2         11           0       -2.222284   -1.685378   -0.407023
      3         11           0        1.178470   -2.762647    0.019377
      4         11           0        0.843781    0.209819    1.300171
      5         11           0        1.787442    3.414517   -0.158576
      6         11           0       -4.565918   -0.110785    0.092459
      7         11           0        3.944071   -1.298168   -0.435077
 ---------------------------------------------------------------------

 SCF Done:  E(UB3LYP) =  -1136.11923096     A.U. after   19 cycles

 The electronic state is 2-A.
 Alpha  occ. eigenvalues --  -38.44738 -38.44699 -38.44699 -38.43544 -38.43479
 Alpha  occ. eigenvalues --  -38.43445 -38.43396  -2.20582  -2.20574  -2.20557
 Alpha  occ. eigenvalues --   -2.19431  -2.19365  -2.19306  -2.19239  -1.14363
 Alpha  occ. eigenvalues --   -1.14326  -1.14259  -1.14238  -1.14235  -1.14208
 Alpha  occ. eigenvalues --   -1.14194  -1.14176  -1.14079  -1.13281  -1.13093
 Alpha  occ. eigenvalues --   -1.13073  -1.13060  -1.13037  -1.13020  -1.12925
 Alpha  occ. eigenvalues --   -1.12915  -1.12880  -1.12870  -1.12865  -1.12836
 Alpha  occ. eigenvalues --   -0.17452  -0.13584  -0.13502  -0.10009
 Alpha virt. eigenvalues --   -0.06340  -0.05802  -0.04648  -0.03406  -0.02694
 Alpha virt. eigenvalues --   -0.02464  -0.02032  -0.01286  -0.00996  -0.00710
 Alpha virt. eigenvalues --   -0.00296   0.00060   0.00465   0.00550   0.00639

  Beta  occ. eigenvalues --  -38.44740 -38.44699 -38.44675 -38.43529 -38.43461
  Beta  occ. eigenvalues --  -38.43385 -38.43313  -2.20577  -2.20560  -2.20541
  Beta  occ. eigenvalues --   -2.19410  -2.19339  -2.19193  -2.19082  -1.14358
  Beta  occ. eigenvalues --   -1.14315  -1.14248  -1.14228  -1.14217  -1.14207
  Beta  occ. eigenvalues --   -1.14180  -1.14148  -1.14083  -1.13225  -1.13086
  Beta  occ. eigenvalues --   -1.13046  -1.13038  -1.13022  -1.12959  -1.12847
  Beta  occ. eigenvalues --   -1.12836  -1.12798  -1.12774  -1.12761  -1.12743
  Beta  occ. eigenvalues --   -0.16991  -0.13215  -0.12951
  Beta virt. eigenvalues --   -0.06586  -0.06073  -0.05677  -0.04405  -0.02776
  Beta virt. eigenvalues --   -0.02441  -0.02247  -0.01907  -0.00998  -0.00878
  Beta virt. eigenvalues --   -0.00383   0.00091   0.00266   0.00537   0.00706

 Mulliken charges and spin densities:
               1          2
     1  Na  -0.575333  -0.092391
     2  Na  -0.515099   0.085756
     3  Na   0.046525   0.011016
     4  Na  -0.107401   0.150383
     5  Na   0.550284   0.016361
     6  Na   0.619401   0.316083
     7  Na  -0.018377   0.512793
 Sum of Mulliken charges =  -0.00000   1.00000

 Dipole moment (field-independent basis, Debye):
    X=              0.5185    Y=              1.4542    Z=              0.1562  Tot=              1.5518
 Quadrupole moment (field-independent basis, Debye-Ang):
   XX=            -74.9830   YY=            -60.7374   ZZ=            -69.1208
   XY=              4.8391   XZ=             -0.6371   YZ=              0.3075

 Normal termination of Gaussian 16 at Sun Dec  3 23:17:50 2023.
