 Gaussian 16, Revision B.01,
 Gaussian 16:  ES64L-G16RevB.01 20-Dec-2017

 -------------------------
 #P B3LYP/6-311+g(d) force
 -------------------------

 -----
 DPGEN
 -----
 Symbolic Z-matrix:
 Charge =  0 Multiplicity = 2

                         Standard orientation:
 ---------------------------------------------------------------------
 Center     Atomic      Atomic             Coordinates (Angstroms)
 Number     Number       Type             X           Y           Z
 ---------------------------------------------------------------------
      1         11           0        3.662012   -2.019543   -0.506618
      2         11           0        0.837617    4.062981   -0.287327
      3         11           0       -2.392889   -3.207939   -0.393277
      4         11           0       -2.036838    2.926831    0.776685
      5         11           0        0.695301   -3.038644    1.081651
      6         11           0       -3.986950   -0.038622   -0.575265
      7         11           0        3.221748    1.314936   -0.095848
 ---------------------------------------------------------------------

 SCF Done:  E(UB3LYP) =  -1136.11075350     A.U. after   24 cycles

 The electronic state is 2-A.
 Alpha  occ. eigenvalues --  -38.45481 -38.45277 -38.44871 -38.44306 -38.44003
 Alpha  occ. eigenvalues --  -38.43989 -38.43586  -2.21244  -2.21039  -2.20657
 Alpha  occ. eigenvalues --   -2.20086  -2.19810  -2.19770  -2.19402  -1.14932
 Alpha  occ. eigenvalues --   -1.14915  -1.14866  -1.14726  -1.14712  -1.14674
 Alpha  occ. eigenvalues --   -1.14333  -1.14322  -1.14277  -1.13762  -1.13753
 Alpha  occ. eigenvalues --   -1.13728  -1.13470  -1.13459  -1.13454  -1.13435
 Alpha  occ. eigenvalues --   -1.13419  -1.13394  -1.13056  -1.13052  -1.13043
 Alpha  occ. eigenvalues --   -0.15615  -0.13757  -0.13578  -0.10535
 Alpha virt. eigenvalues --   -0.07702  -0.04954  -0.04391  -0.03602  -0.03260
 Alpha virt. eigenvalues --   -0.02358  -0.02288  -0.01781  -0.01605  -0.00793
 Alpha virt. eigenvalues --   -0.00448   0.00079   0.00103   0.00410   0.00708

  Beta  occ. eigenvalues --  -38.45455 -38.45269 -38.44830 -38.44295 -38.43974
  Beta  occ. eigenvalues --  -38.43933 -38.43545  -2.21201  -2.21028  -2.20585
  Beta  occ. eigenvalues --   -2.20070  -2.19759  -2.19668  -2.19327  -1.14908
  Beta  occ. eigenvalues --   -1.14892  -1.14801  -1.14724  -1.14710  -1.14631
  Beta  occ. eigenvalues --   -1.14287  -1.14276  -1.14209  -1.13754  -1.13743
  Beta  occ. eigenvalues --   -1.13693  -1.13436  -1.13427  -1.13411  -1.13365
  Beta  occ. eigenvalues --   -1.13351  -1.13324  -1.13009  -1.13000  -1.12991
  Beta  occ. eigenvalues --   -0.15107  -0.13158  -0.12904
  Beta virt. eigenvalues --   -0.07838  -0.07254  -0.04646  -0.03858  -0.03456
  Beta virt. eigenvalues --   -0.02801  -0.02135  -0.02012  -0.01645  -0.01482
  Beta virt. eigenvalues --   -0.00450  -0.00230   0.00121   0.00332   0.00399

 Mulliken charges and spin densities:
               1          2
     1  Na   0.295543   0.114231
     2  Na   0.136298   0.167531
     3  Na   0.148084   0.027917
     4  Na  -0.081552   0.054084
     5  Na  -0.257071   0.188504
     6  Na  -0.031498   0.285526
     7  Na  -0.209803   0.162206
 Sum of Mulliken charges =  -0.00000   1.00000

 Dipole moment (field-independent basis, Debye):
    X=              0.6218    Y=             -0.1224    Z=              0.0842  Tot=              0.6393
 Quadrupole moment (field-independent basis, Debye-Ang):
   XX=            -66.4118   YY=            -65.1624   ZZ=            -69.8100
   XY=             -0.1075   XZ=             -0.3038   YZ=              1.6171

 Normal termination of Gaussian 16 at Sun Dec  3 13:07:45 2023.
