 Gaussian 16, Revision B.01,
 Gaussian 16:  ES64L-G16RevB.01 20-Dec-2017

 -------------------------
 #P B3LYP/6-311+g(d) force
 -------------------------

 -----
 DPGEN
 -----
 Symbolic Z-matrix:
 Charge =  0 Multiplicity = 2

                         Standard orientation:
 ---------------------------------------------------------------------
 Center     Atomic      Atomic             Coordinates (Angstroms)
 Number     Number       Type             X           Y           Z
 ---------------------------------------------------------------------
      1         11           0       -2.705106    1.433651    0.684787
      2         11           0       -1.397497   -2.441320    0.463790
      3         11           0       -4.236331   -1.259981   -0.663607
      4         11           0        2.757219    1.852072   -1.003675
      5         11           0       -0.279704    3.627264    0.134087
      6         11           0        3.415869   -1.142843    1.601085
      7         11           0        2.445550   -2.068844   -1.216467
 ---------------------------------------------------------------------

 SCF Done:  E(UB3LYP) =  -1136.10970532     A.U. after   24 cycles

 The electronic state is 2-A.
 Alpha  occ. eigenvalues --  -38.45433 -38.45311 -38.45283 -38.44782 -38.43440
 Alpha  occ. eigenvalues --  -38.43169 -38.43028  -2.21198  -2.21115  -2.21073
 Alpha  occ. eigenvalues --   -2.20599  -2.19274  -2.18973  -2.18809  -1.14885
 Alpha  occ. eigenvalues --   -1.14870  -1.14852  -1.14818  -1.14768  -1.14752
 Alpha  occ. eigenvalues --   -1.14734  -1.14713  -1.14668  -1.14263  -1.14256
 Alpha  occ. eigenvalues --   -1.14232  -1.12955  -1.12940  -1.12889  -1.12640
 Alpha  occ. eigenvalues --   -1.12612  -1.12585  -1.12488  -1.12484  -1.12450
 Alpha  occ. eigenvalues --   -0.16172  -0.14439  -0.12404  -0.09591
 Alpha virt. eigenvalues --   -0.07084  -0.06280  -0.04764  -0.03463  -0.02663
 Alpha virt. eigenvalues --   -0.02564  -0.01845  -0.01655  -0.01492  -0.00785
 Alpha virt. eigenvalues --   -0.00453  -0.00041   0.00167   0.00242   0.00422

  Beta  occ. eigenvalues --  -38.45423 -38.45287 -38.45270 -38.44769 -38.43392
  Beta  occ. eigenvalues --  -38.43081 -38.43032  -2.21181  -2.21085  -2.21039
  Beta  occ. eigenvalues --   -2.20576  -2.19186  -2.18822  -2.18809  -1.14873
  Beta  occ. eigenvalues --   -1.14858  -1.14829  -1.14800  -1.14751  -1.14712
  Beta  occ. eigenvalues --   -1.14711  -1.14678  -1.14644  -1.14242  -1.14239
  Beta  occ. eigenvalues --   -1.14215  -1.12896  -1.12884  -1.12821  -1.12527
  Beta  occ. eigenvalues --   -1.12507  -1.12502  -1.12492  -1.12477  -1.12421
  Beta  occ. eigenvalues --   -0.15814  -0.13963  -0.11787
  Beta virt. eigenvalues --   -0.07053  -0.06326  -0.06084  -0.04460  -0.03314
  Beta virt. eigenvalues --   -0.02407  -0.02080  -0.01553  -0.01443  -0.01155
  Beta virt. eigenvalues --   -0.00709  -0.00226   0.00186   0.00316   0.00331

 Mulliken charges and spin densities:
               1          2
     1  Na  -0.505902   0.227104
     2  Na  -0.310093   0.048743
     3  Na   0.550643   0.044801
     4  Na  -0.599383   0.435583
     5  Na   0.350068  -0.047922
     6  Na   0.091890   0.170232
     7  Na   0.422776   0.121460
 Sum of Mulliken charges =  -0.00000   1.00000

 Dipole moment (field-independent basis, Debye):
    X=             -0.2722    Y=             -2.4717    Z=              0.0803  Tot=              2.4879
 Quadrupole moment (field-independent basis, Debye-Ang):
   XX=            -59.1190   YY=            -76.2822   ZZ=            -66.7746
   XY=             -0.0386   XZ=              5.9109   YZ=              3.6750

 Normal termination of Gaussian 16 at Sun Dec  3 15:53:14 2023.
