 Gaussian 16, Revision B.01,
 Gaussian 16:  ES64L-G16RevB.01 20-Dec-2017

 -------------------------
 #P B3LYP/6-311+g(d) force
 -------------------------

 -----
 DPGEN
 -----
 Symbolic Z-matrix:
 Charge =  0 Multiplicity = 2

                         Standard orientation:
 ---------------------------------------------------------------------
 Center     Atomic      Atomic             Coordinates (Angstroms)
 Number     Number       Type             X           Y           Z
 ---------------------------------------------------------------------
      1         11           0        2.370692    2.169301    0.197707
      2         11           0        2.725533   -1.477846   -0.006031
      3         11           0        0.173666    0.478813   -1.800983
      4         11           0       -0.033092   -2.589577   -0.334802
      5         11           0       -0.346687    0.241358    2.297740
      6         11           0       -2.927599   -1.151967    0.049717
      7         11           0       -1.962514    2.329918   -0.403348
 ---------------------------------------------------------------------

 SCF Done:  E(UB3LYP) =  -1136.13238007     A.U. after   19 cycles

 The electronic state is 2-A.
 Alpha  occ. eigenvalues --  -38.44299 -38.44078 -38.43989 -38.43924 -38.43856
 Alpha  occ. eigenvalues --  -38.43580 -38.42875  -2.20128  -2.19868  -2.19817
 Alpha  occ. eigenvalues --   -2.19752  -2.19708  -2.19512  -2.18792  -1.13779
 Alpha  occ. eigenvalues --   -1.13761  -1.13747  -1.13548  -1.13529  -1.13508
 Alpha  occ. eigenvalues --   -1.13499  -1.13482  -1.13479  -1.13455  -1.13433
 Alpha  occ. eigenvalues --   -1.13402  -1.13369  -1.13361  -1.13332  -1.13181
 Alpha  occ. eigenvalues --   -1.13148  -1.13129  -1.12468  -1.12454  -1.12426
 Alpha  occ. eigenvalues --   -0.18385  -0.12941  -0.12310  -0.11156
 Alpha virt. eigenvalues --   -0.05837  -0.05343  -0.04264  -0.03379  -0.03066
 Alpha virt. eigenvalues --   -0.03021  -0.01489  -0.01217  -0.00399  -0.00109
 Alpha virt. eigenvalues --   -0.00046   0.00360   0.00743   0.00810   0.00865

  Beta  occ. eigenvalues --  -38.44198 -38.44076 -38.43987 -38.43913 -38.43856
  Beta  occ. eigenvalues --  -38.43515 -38.42868  -2.19940  -2.19866  -2.19817
  Beta  occ. eigenvalues --   -2.19736  -2.19710  -2.19395  -2.18781  -1.13655
  Beta  occ. eigenvalues --   -1.13632  -1.13611  -1.13540  -1.13519  -1.13510
  Beta  occ. eigenvalues --   -1.13501  -1.13467  -1.13458  -1.13446  -1.13436
  Beta  occ. eigenvalues --   -1.13378  -1.13363  -1.13347  -1.13335  -1.13105
  Beta  occ. eigenvalues --   -1.13063  -1.13045  -1.12462  -1.12445  -1.12398
  Beta  occ. eigenvalues --   -0.17653  -0.12751  -0.12086
  Beta virt. eigenvalues --   -0.07213  -0.05829  -0.05202  -0.04231  -0.02623
  Beta virt. eigenvalues --   -0.02307  -0.01967  -0.01382  -0.01141  -0.00463
  Beta virt. eigenvalues --   -0.00097   0.00086   0.00394   0.00789   0.00871

 Mulliken charges and spin densities:
               1          2
     1  Na   0.073440  -0.033866
     2  Na   0.018062  -0.006100
     3  Na   0.022787   0.348125
     4  Na   0.056324   0.026271
     5  Na  -0.528842   0.689262
     6  Na   0.158588   0.051951
     7  Na   0.199641  -0.075644
 Sum of Mulliken charges =  -0.00000   1.00000

 Dipole moment (field-independent basis, Debye):
    X=             -0.0494    Y=              0.4972    Z=              0.2781  Tot=              0.5718
 Quadrupole moment (field-independent basis, Debye-Ang):
   XX=            -57.2535   YY=            -66.0873   ZZ=            -72.0920
   XY=              0.4579   XZ=              0.9617   YZ=              0.5166

 Normal termination of Gaussian 16 at Thu Dec  7 14:32:48 2023.
