 Gaussian 16, Revision B.01,
 Gaussian 16:  ES64L-G16RevB.01 20-Dec-2017

 -------------------------
 #P B3LYP/6-311+g(d) force
 -------------------------

 -----
 DPGEN
 -----
 Symbolic Z-matrix:
 Charge =  0 Multiplicity = 2

                         Standard orientation:
 ---------------------------------------------------------------------
 Center     Atomic      Atomic             Coordinates (Angstroms)
 Number     Number       Type             X           Y           Z
 ---------------------------------------------------------------------
      1         11           0        2.720178    1.513703   -0.117332
      2         11           0       -0.164438    3.022843   -0.441754
      3         11           0       -1.284283   -0.044197   -2.304183
      4         11           0       -0.634868    0.707738    2.565919
      5         11           0        0.190260   -1.885684    1.170491
      6         11           0        2.740397   -2.329307   -0.700910
      7         11           0       -3.567246   -0.985097   -0.172232
 ---------------------------------------------------------------------

 SCF Done:  E(UB3LYP) =  -1136.11943686     A.U. after   21 cycles

 The electronic state is 2-A.
 Alpha  occ. eigenvalues --  -38.45373 -38.44889 -38.44347 -38.44336 -38.43495
 Alpha  occ. eigenvalues --  -38.43404 -38.43188  -2.21216  -2.20693  -2.20125
 Alpha  occ. eigenvalues --   -2.20108  -2.19365  -2.19208  -2.19001  -1.14918
 Alpha  occ. eigenvalues --   -1.14825  -1.14800  -1.14344  -1.14338  -1.14325
 Alpha  occ. eigenvalues --   -1.13811  -1.13794  -1.13780  -1.13771  -1.13752
 Alpha  occ. eigenvalues --   -1.13748  -1.13102  -1.13033  -1.12984  -1.12863
 Alpha  occ. eigenvalues --   -1.12852  -1.12835  -1.12674  -1.12660  -1.12647
 Alpha  occ. eigenvalues --   -0.17385  -0.12612  -0.12200  -0.11884
 Alpha virt. eigenvalues --   -0.05971  -0.05004  -0.04614  -0.03642  -0.03559
 Alpha virt. eigenvalues --   -0.03172  -0.01625  -0.00911  -0.00565  -0.00246
 Alpha virt. eigenvalues --   -0.00056   0.00226   0.00426   0.00606   0.00741

  Beta  occ. eigenvalues --  -38.45255 -38.44830 -38.44344 -38.44342 -38.43471
  Beta  occ. eigenvalues --  -38.43388 -38.43187  -2.21001  -2.20583  -2.20122
  Beta  occ. eigenvalues --   -2.20119  -2.19327  -2.19178  -2.19000  -1.14765
  Beta  occ. eigenvalues --   -1.14682  -1.14647  -1.14275  -1.14261  -1.14246
  Beta  occ. eigenvalues --   -1.13802  -1.13790  -1.13784  -1.13775  -1.13756
  Beta  occ. eigenvalues --   -1.13747  -1.13043  -1.13004  -1.12968  -1.12840
  Beta  occ. eigenvalues --   -1.12829  -1.12814  -1.12670  -1.12655  -1.12645
  Beta  occ. eigenvalues --   -0.16575  -0.12358  -0.11845
  Beta virt. eigenvalues --   -0.08206  -0.05832  -0.04707  -0.04105  -0.03177
  Beta virt. eigenvalues --   -0.02831  -0.02757  -0.01532  -0.00812  -0.00341
  Beta virt. eigenvalues --   -0.00161   0.00125   0.00356   0.00542   0.00738

 Mulliken charges and spin densities:
               1          2
     1  Na  -0.197726   0.088286
     2  Na  -0.106760  -0.089631
     3  Na  -0.055335   0.616967
     4  Na   0.439526   0.555388
     5  Na  -0.477183   0.040386
     6  Na   0.317056  -0.002134
     7  Na   0.080422  -0.209262
 Sum of Mulliken charges =  -0.00000   1.00000

 Dipole moment (field-independent basis, Debye):
    X=             -0.5894    Y=              0.3086    Z=             -0.0673  Tot=              0.6687
 Quadrupole moment (field-independent basis, Debye-Ang):
   XX=            -61.0962   YY=            -72.4518   ZZ=            -65.2112
   XY=              0.5481   XZ=             -3.8717   YZ=              2.6165

 Normal termination of Gaussian 16 at Mon Dec  4 05:15:51 2023.
