 Gaussian 16, Revision B.01,
 Gaussian 16:  ES64L-G16RevB.01 20-Dec-2017

 -------------------------
 #P B3LYP/6-311+g(d) force
 -------------------------

 -----
 DPGEN
 -----
 Symbolic Z-matrix:
 Charge =  0 Multiplicity = 2

                         Standard orientation:
 ---------------------------------------------------------------------
 Center     Atomic      Atomic             Coordinates (Angstroms)
 Number     Number       Type             X           Y           Z
 ---------------------------------------------------------------------
      1         11           0       -2.352353   -2.549257   -0.501943
      2         11           0        1.113204   -2.225092    0.459249
      3         11           0       -0.271667    0.374136    2.277634
      4         11           0       -2.541289    1.065386   -0.146219
      5         11           0       -0.055872    3.348007   -0.234432
      6         11           0        0.260363    0.131830   -1.582460
      7         11           0        3.847614   -0.145010   -0.271829
 ---------------------------------------------------------------------

 SCF Done:  E(UB3LYP) =  -1136.13076683     A.U. after   20 cycles

 The electronic state is 2-A.
 Alpha  occ. eigenvalues --  -38.44284 -38.44066 -38.43880 -38.43853 -38.43718
 Alpha  occ. eigenvalues --  -38.43501 -38.43479  -2.20042  -2.19928  -2.19739
 Alpha  occ. eigenvalues --   -2.19690  -2.19637  -2.19353  -2.19294  -1.13713
 Alpha  occ. eigenvalues --   -1.13707  -1.13676  -1.13588  -1.13571  -1.13534
 Alpha  occ. eigenvalues --   -1.13461  -1.13416  -1.13378  -1.13361  -1.13348
 Alpha  occ. eigenvalues --   -1.13344  -1.13296  -1.13273  -1.13243  -1.13054
 Alpha  occ. eigenvalues --   -1.13035  -1.12969  -1.12959  -1.12943  -1.12917
 Alpha  occ. eigenvalues --   -0.18169  -0.12865  -0.12102  -0.10947
 Alpha virt. eigenvalues --   -0.05966  -0.05356  -0.04493  -0.03241  -0.02787
 Alpha virt. eigenvalues --   -0.02704  -0.01814  -0.01491  -0.00414  -0.00252
 Alpha virt. eigenvalues --   -0.00048   0.00279   0.00689   0.00740   0.00794

  Beta  occ. eigenvalues --  -38.44287 -38.43953 -38.43878 -38.43842 -38.43669
  Beta  occ. eigenvalues --  -38.43495 -38.43466  -2.20049  -2.19724  -2.19720
  Beta  occ. eigenvalues --   -2.19689  -2.19547  -2.19334  -2.19285  -1.13714
  Beta  occ. eigenvalues --   -1.13711  -1.13681  -1.13474  -1.13433  -1.13427
  Beta  occ. eigenvalues --   -1.13390  -1.13375  -1.13359  -1.13354  -1.13332
  Beta  occ. eigenvalues --   -1.13294  -1.13285  -1.13216  -1.13176  -1.13040
  Beta  occ. eigenvalues --   -1.12989  -1.12963  -1.12944  -1.12935  -1.12912
  Beta  occ. eigenvalues --   -0.17420  -0.12692  -0.11922
  Beta virt. eigenvalues --   -0.06967  -0.05877  -0.05285  -0.04375  -0.02496
  Beta virt. eigenvalues --   -0.02139  -0.01838  -0.01627  -0.01422  -0.00445
  Beta virt. eigenvalues --   -0.00151   0.00071   0.00313   0.00728   0.00807

 Mulliken charges and spin densities:
               1          2
     1  Na  -0.084254  -0.011607
     2  Na   0.092687   0.142272
     3  Na  -0.222309   0.480596
     4  Na   0.244423   0.158680
     5  Na  -0.061865  -0.058050
     6  Na   0.047467   0.356497
     7  Na  -0.016148  -0.068388
 Sum of Mulliken charges =  -0.00000   1.00000

 Dipole moment (field-independent basis, Debye):
    X=              0.2940    Y=              0.5374    Z=              0.0921  Tot=              0.6194
 Quadrupole moment (field-independent basis, Debye-Ang):
   XX=            -58.1148   YY=            -61.6944   ZZ=            -73.6231
   XY=              2.4166   XZ=              0.5703   YZ=             -0.1687

 Normal termination of Gaussian 16 at Tue Dec  5 19:56:56 2023.
