 Gaussian 16, Revision B.01,
 Gaussian 16:  ES64L-G16RevB.01 20-Dec-2017

 -------------------------
 #P B3LYP/6-311+g(d) force
 -------------------------

 -----
 DPGEN
 -----
 Symbolic Z-matrix:
 Charge =  0 Multiplicity = 2

                         Standard orientation:
 ---------------------------------------------------------------------
 Center     Atomic      Atomic             Coordinates (Angstroms)
 Number     Number       Type             X           Y           Z
 ---------------------------------------------------------------------
      1         11           0       -0.138647    0.070410   -1.490443
      2         11           0        0.030912    0.199836    2.160274
      3         11           0       -1.223350   -2.542823   -0.000361
      4         11           0       -0.104319    2.968152   -0.430242
      5         11           0       -3.202728    0.333226   -0.020416
      6         11           0        2.100184   -2.011883   -0.391076
      7         11           0        2.537948    0.983083    0.172265
 ---------------------------------------------------------------------

 SCF Done:  E(UB3LYP) =  -1136.13524290     A.U. after   19 cycles

 The electronic state is 2-A.
 Alpha  occ. eigenvalues --  -38.44071 -38.43818 -38.43509 -38.43466 -38.43415
 Alpha  occ. eigenvalues --  -38.43266 -38.42949  -2.19881  -2.19710  -2.19375
 Alpha  occ. eigenvalues --   -2.19362  -2.19344  -2.19173  -2.19020  -1.13560
 Alpha  occ. eigenvalues --   -1.13540  -1.13521  -1.13384  -1.13338  -1.13324
 Alpha  occ. eigenvalues --   -1.13122  -1.13095  -1.13062  -1.13044  -1.13020
 Alpha  occ. eigenvalues --   -1.13008  -1.13007  -1.12972  -1.12965  -1.12856
 Alpha  occ. eigenvalues --   -1.12803  -1.12797  -1.12688  -1.12648  -1.12628
 Alpha  occ. eigenvalues --   -0.19079  -0.12999  -0.12637  -0.11017
 Alpha virt. eigenvalues --   -0.05552  -0.04839  -0.04659  -0.03196  -0.02934
 Alpha virt. eigenvalues --   -0.02715  -0.01406  -0.01098  -0.00163  -0.00123
 Alpha virt. eigenvalues --    0.00035   0.00359   0.00851   0.00921   0.00948

  Beta  occ. eigenvalues --  -38.44071 -38.43714 -38.43499 -38.43461 -38.43404
  Beta  occ. eigenvalues --  -38.43258 -38.42891  -2.19883  -2.19518  -2.19359
  Beta  occ. eigenvalues --   -2.19349  -2.19339  -2.19162  -2.18916  -1.13554
  Beta  occ. eigenvalues --   -1.13534  -1.13524  -1.13260  -1.13201  -1.13191
  Beta  occ. eigenvalues --   -1.13102  -1.13088  -1.13054  -1.13029  -1.12991
  Beta  occ. eigenvalues --   -1.12988  -1.12970  -1.12966  -1.12956  -1.12837
  Beta  occ. eigenvalues --   -1.12793  -1.12779  -1.12617  -1.12573  -1.12553
  Beta  occ. eigenvalues --   -0.18337  -0.12771  -0.12370
  Beta virt. eigenvalues --   -0.07020  -0.05545  -0.04791  -0.04643  -0.02376
  Beta virt. eigenvalues --   -0.02174  -0.01614  -0.01329  -0.01026  -0.00196
  Beta virt. eigenvalues --   -0.00131   0.00145   0.00384   0.00865   0.00929

 Mulliken charges and spin densities:
               1          2
     1  Na  -0.576362   0.165638
     2  Na  -0.626373   0.641466
     3  Na   0.208221   0.045393
     4  Na   0.206174  -0.020305
     5  Na   0.059603  -0.050476
     6  Na   0.162090   0.024335
     7  Na   0.566647   0.193949
 Sum of Mulliken charges =  -0.00000   1.00000

 Dipole moment (field-independent basis, Debye):
    X=             -0.4683    Y=              0.1234    Z=              0.3032  Tot=              0.5713
 Quadrupole moment (field-independent basis, Debye-Ang):
   XX=            -58.6036   YY=            -61.8259   ZZ=            -73.3114
   XY=             -0.7497   XZ=             -0.4992   YZ=             -0.2337

 Normal termination of Gaussian 16 at Thu Dec  7 05:35:23 2023.
