 Gaussian 16, Revision B.01,
 Gaussian 16:  ES64L-G16RevB.01 20-Dec-2017

 -------------------------
 #P B3LYP/6-311+g(d) force
 -------------------------

 -----
 DPGEN
 -----
 Symbolic Z-matrix:
 Charge =  0 Multiplicity = 2

                         Standard orientation:
 ---------------------------------------------------------------------
 Center     Atomic      Atomic             Coordinates (Angstroms)
 Number     Number       Type             X           Y           Z
 ---------------------------------------------------------------------
      1         11           0       -0.038980    0.079407    1.870497
      2         11           0       -0.598169    2.907968    0.127532
      3         11           0        2.359441    1.690295   -0.152087
      4         11           0        2.789946   -1.874947   -0.118045
      5         11           0       -1.049816   -2.582067    0.296098
      6         11           0       -0.249869   -0.146545   -1.807134
      7         11           0       -3.212554   -0.074111   -0.216861
 ---------------------------------------------------------------------

 SCF Done:  E(UB3LYP) =  -1136.13819321     A.U. after   19 cycles

 The electronic state is 2-A.
 Alpha  occ. eigenvalues --  -38.44056 -38.43798 -38.43643 -38.43569 -38.43438
 Alpha  occ. eigenvalues --  -38.43387 -38.43273  -2.19893  -2.19580  -2.19510
 Alpha  occ. eigenvalues --   -2.19454  -2.19371  -2.19323  -2.19138  -1.13572
 Alpha  occ. eigenvalues --   -1.13552  -1.13536  -1.13253  -1.13246  -1.13226
 Alpha  occ. eigenvalues --   -1.13201  -1.13183  -1.13177  -1.13143  -1.13142
 Alpha  occ. eigenvalues --   -1.13059  -1.13046  -1.12999  -1.12989  -1.12982
 Alpha  occ. eigenvalues --   -1.12954  -1.12935  -1.12800  -1.12796  -1.12771
 Alpha  occ. eigenvalues --   -0.18675  -0.13087  -0.12375  -0.10731
 Alpha virt. eigenvalues --   -0.05611  -0.05142  -0.04783  -0.03240  -0.02821
 Alpha virt. eigenvalues --   -0.02517  -0.01601  -0.01151  -0.00363  -0.00281
 Alpha virt. eigenvalues --   -0.00014   0.00350   0.00802   0.00869   0.00893

  Beta  occ. eigenvalues --  -38.44050 -38.43800 -38.43638 -38.43557 -38.43364
  Beta  occ. eigenvalues --  -38.43301 -38.43268  -2.19885  -2.19585  -2.19504
  Beta  occ. eigenvalues --   -2.19435  -2.19235  -2.19165  -2.19133  -1.13560
  Beta  occ. eigenvalues --   -1.13538  -1.13525  -1.13254  -1.13241  -1.13229
  Beta  occ. eigenvalues --   -1.13198  -1.13158  -1.13157  -1.13139  -1.13093
  Beta  occ. eigenvalues --   -1.13052  -1.12960  -1.12907  -1.12890  -1.12881
  Beta  occ. eigenvalues --   -1.12852  -1.12826  -1.12789  -1.12772  -1.12758
  Beta  occ. eigenvalues --   -0.17932  -0.12838  -0.12152
  Beta virt. eigenvalues --   -0.06822  -0.05560  -0.05140  -0.04746  -0.02419
  Beta virt. eigenvalues --   -0.02098  -0.01536  -0.01445  -0.01084  -0.00407
  Beta virt. eigenvalues --   -0.00320   0.00117   0.00371   0.00852   0.00874

 Mulliken charges and spin densities:
               1          2
     1  Na  -0.167549   0.664968
     2  Na   0.136043  -0.085384
     3  Na   0.024827  -0.069469
     4  Na  -0.074381  -0.110906
     5  Na   0.144708  -0.074476
     6  Na  -0.280775   0.737801
     7  Na   0.217127  -0.062534
 Sum of Mulliken charges =  -0.00000   1.00000

 Dipole moment (field-independent basis, Debye):
    X=             -0.2049    Y=             -0.0655    Z=             -0.0269  Tot=              0.2168
 Quadrupole moment (field-independent basis, Debye-Ang):
   XX=            -56.4178   YY=            -62.4062   ZZ=            -74.5449
   XY=             -0.8460   XZ=             -0.3734   YZ=             -0.4596

 Normal termination of Gaussian 16 at Thu Dec  7 14:53:08 2023.
