 Gaussian 16, Revision B.01,
 Gaussian 16:  ES64L-G16RevB.01 20-Dec-2017

 -------------------------
 #P B3LYP/6-311+g(d) force
 -------------------------

 -----
 DPGEN
 -----
 Symbolic Z-matrix:
 Charge =  0 Multiplicity = 2

                         Standard orientation:
 ---------------------------------------------------------------------
 Center     Atomic      Atomic             Coordinates (Angstroms)
 Number     Number       Type             X           Y           Z
 ---------------------------------------------------------------------
      1         11           0        0.449037   -2.220639    1.639077
      2         11           0       -1.943057    2.478689    0.300647
      3         11           0       -0.123813   -2.283394   -1.405014
      4         11           0        3.356342   -0.257791   -0.567588
      5         11           0        1.576040    2.370283   -1.030620
      6         11           0       -3.411795   -0.760525   -0.883462
      7         11           0        0.097246    0.673376    1.946961
 ---------------------------------------------------------------------

 SCF Done:  E(UB3LYP) =  -1136.12120430     A.U. after   20 cycles

 The electronic state is 2-A.
 Alpha  occ. eigenvalues --  -38.44602 -38.44244 -38.44203 -38.44161 -38.44046
 Alpha  occ. eigenvalues --  -38.43871 -38.43567  -2.20360  -2.20169  -2.20002
 Alpha  occ. eigenvalues --   -2.19981  -2.19950  -2.19685  -2.19382  -1.14035
 Alpha  occ. eigenvalues --   -1.14002  -1.13995  -1.13967  -1.13810  -1.13775
 Alpha  occ. eigenvalues --   -1.13735  -1.13693  -1.13665  -1.13643  -1.13628
 Alpha  occ. eigenvalues --   -1.13596  -1.13585  -1.13536  -1.13524  -1.13357
 Alpha  occ. eigenvalues --   -1.13345  -1.13309  -1.13080  -1.13039  -1.13002
 Alpha  occ. eigenvalues --   -0.17632  -0.12751  -0.12600  -0.11587
 Alpha virt. eigenvalues --   -0.06019  -0.05252  -0.04432  -0.03710  -0.03413
 Alpha virt. eigenvalues --   -0.02753  -0.01552  -0.00939  -0.00530  -0.00342
 Alpha virt. eigenvalues --   -0.00150   0.00331   0.00452   0.00709   0.00805

  Beta  occ. eigenvalues --  -38.44569 -38.44185 -38.44159 -38.44143 -38.43993
  Beta  occ. eigenvalues --  -38.43856 -38.43566  -2.20299  -2.20017  -2.19970
  Beta  occ. eigenvalues --   -2.19945  -2.19856  -2.19658  -2.19382  -1.13989
  Beta  occ. eigenvalues --   -1.13963  -1.13951  -1.13847  -1.13714  -1.13699
  Beta  occ. eigenvalues --   -1.13672  -1.13664  -1.13640  -1.13618  -1.13605
  Beta  occ. eigenvalues --   -1.13566  -1.13503  -1.13479  -1.13458  -1.13337
  Beta  occ. eigenvalues --   -1.13331  -1.13281  -1.13070  -1.13038  -1.13004
  Beta  occ. eigenvalues --   -0.16968  -0.12510  -0.12243
  Beta virt. eigenvalues --   -0.07860  -0.05766  -0.05031  -0.04088  -0.03326
  Beta virt. eigenvalues --   -0.02923  -0.01943  -0.01382  -0.00880  -0.00439
  Beta virt. eigenvalues --   -0.00253   0.00039   0.00414   0.00570   0.00800

 Mulliken charges and spin densities:
               1          2
     1  Na   0.365342   0.010289
     2  Na   0.402814   0.070293
     3  Na   0.010955   0.340747
     4  Na  -0.171568   0.108206
     5  Na  -0.227601   0.025493
     6  Na  -0.358070   0.111550
     7  Na  -0.021871   0.333423
 Sum of Mulliken charges =  -0.00000   1.00000

 Dipole moment (field-independent basis, Debye):
    X=              0.0157    Y=             -0.2100    Z=             -0.3849  Tot=              0.4387
 Quadrupole moment (field-independent basis, Debye-Ang):
   XX=            -61.9857   YY=            -67.0049   ZZ=            -69.2085
   XY=             -2.5205   XZ=              0.6454   YZ=             -1.0780

 Normal termination of Gaussian 16 at Sun Dec  3 12:10:53 2023.
