 Gaussian 16, Revision B.01,
 Gaussian 16:  ES64L-G16RevB.01 20-Dec-2017

 -------------------------
 #P B3LYP/6-311+g(d) force
 -------------------------

 -----
 DPGEN
 -----
 Symbolic Z-matrix:
 Charge =  0 Multiplicity = 2

                         Standard orientation:
 ---------------------------------------------------------------------
 Center     Atomic      Atomic             Coordinates (Angstroms)
 Number     Number       Type             X           Y           Z
 ---------------------------------------------------------------------
      1         11           0       -0.201536   -0.107150    1.882164
      2         11           0       -0.057489   -0.009097   -1.818361
      3         11           0        3.092600    0.049466    0.072127
      4         11           0        1.111856    2.547189   -0.155260
      5         11           0       -2.552017    1.566484    0.223580
      6         11           0        1.092276   -2.534632    0.080278
      7         11           0       -2.485689   -1.512260   -0.284528
 ---------------------------------------------------------------------

 SCF Done:  E(UB3LYP) =  -1136.13715423     A.U. after   19 cycles

 The electronic state is 2-A.
 Alpha  occ. eigenvalues --  -38.44113 -38.43779 -38.43748 -38.43490 -38.43389
 Alpha  occ. eigenvalues --  -38.43010 -38.42939  -2.19985  -2.19664  -2.19652
 Alpha  occ. eigenvalues --   -2.19449  -2.19372  -2.18892  -2.18835  -1.13655
 Alpha  occ. eigenvalues --   -1.13647  -1.13640  -1.13434  -1.13346  -1.13334
 Alpha  occ. eigenvalues --   -1.13299  -1.13298  -1.13230  -1.13125  -1.13080
 Alpha  occ. eigenvalues --   -1.13065  -1.13044  -1.13011  -1.12988  -1.12575
 Alpha  occ. eigenvalues --   -1.12554  -1.12521  -1.12517  -1.12500  -1.12463
 Alpha  occ. eigenvalues --   -0.19209  -0.13538  -0.12233  -0.11035
 Alpha virt. eigenvalues --   -0.05733  -0.05088  -0.04194  -0.03491  -0.02789
 Alpha virt. eigenvalues --   -0.02659  -0.01576  -0.00944  -0.00113  -0.00083
 Alpha virt. eigenvalues --    0.00008   0.00371   0.00804   0.00931   0.00954

  Beta  occ. eigenvalues --  -38.44112 -38.43771 -38.43738 -38.43406 -38.43307
  Beta  occ. eigenvalues --  -38.43005 -38.42933  -2.19985  -2.19654  -2.19638
  Beta  occ. eigenvalues --   -2.19296  -2.19223  -2.18886  -2.18828  -1.13659
  Beta  occ. eigenvalues --   -1.13649  -1.13618  -1.13429  -1.13318  -1.13311
  Beta  occ. eigenvalues --   -1.13285  -1.13266  -1.13225  -1.13027  -1.12969
  Beta  occ. eigenvalues --   -1.12956  -1.12946  -1.12903  -1.12883  -1.12569
  Beta  occ. eigenvalues --   -1.12534  -1.12514  -1.12513  -1.12473  -1.12454
  Beta  occ. eigenvalues --   -0.18453  -0.13282  -0.11961
  Beta virt. eigenvalues --   -0.07083  -0.05688  -0.05091  -0.04197  -0.02643
  Beta virt. eigenvalues --   -0.01997  -0.01580  -0.01481  -0.00880  -0.00151
  Beta virt. eigenvalues --   -0.00124   0.00116   0.00389   0.00870   0.00924

 Mulliken charges and spin densities:
               1          2
     1  Na  -0.469664   0.674900
     2  Na  -0.404637   0.630821
     3  Na   0.003293  -0.064045
     4  Na   0.153441  -0.087603
     5  Na   0.165527  -0.039782
     6  Na   0.223763  -0.082315
     7  Na   0.328277  -0.031976
 Sum of Mulliken charges =  -0.00000   1.00000

 Dipole moment (field-independent basis, Debye):
    X=             -0.0721    Y=              0.0070    Z=              0.0608  Tot=              0.0946
 Quadrupole moment (field-independent basis, Debye-Ang):
   XX=            -55.2886   YY=            -66.0309   ZZ=            -72.9927
   XY=             -0.3157   XZ=              0.3776   YZ=              0.4895

 Normal termination of Gaussian 16 at Thu Dec  7 10:20:59 2023.
