 Gaussian 16, Revision B.01,
 Gaussian 16:  ES64L-G16RevB.01 20-Dec-2017

 -------------------------
 #P B3LYP/6-311+g(d) force
 -------------------------

 -----
 DPGEN
 -----
 Symbolic Z-matrix:
 Charge =  0 Multiplicity = 2

                         Standard orientation:
 ---------------------------------------------------------------------
 Center     Atomic      Atomic             Coordinates (Angstroms)
 Number     Number       Type             X           Y           Z
 ---------------------------------------------------------------------
      1         11           0       -0.071627    0.466435   -2.177110
      2         11           0        1.720230    1.961544   -0.048716
      3         11           0        0.066336   -2.364003   -0.494345
      4         11           0        3.133774   -1.033243    0.273342
      5         11           0       -0.219963   -0.197959    2.184172
      6         11           0       -3.033852   -1.300900   -0.002371
      7         11           0       -1.594898    2.468125    0.265029
 ---------------------------------------------------------------------

 SCF Done:  E(UB3LYP) =  -1136.13577549     A.U. after   19 cycles

 The electronic state is 2-A.
 Alpha  occ. eigenvalues --  -38.44385 -38.44249 -38.43944 -38.43635 -38.43315
 Alpha  occ. eigenvalues --  -38.43211 -38.43000  -2.20252  -2.20157  -2.19745
 Alpha  occ. eigenvalues --   -2.19458  -2.19156  -2.19117  -2.18903  -1.13920
 Alpha  occ. eigenvalues --   -1.13887  -1.13864  -1.13831  -1.13797  -1.13766
 Alpha  occ. eigenvalues --   -1.13415  -1.13410  -1.13390  -1.13135  -1.13113
 Alpha  occ. eigenvalues --   -1.13111  -1.12848  -1.12828  -1.12812  -1.12799
 Alpha  occ. eigenvalues --   -1.12775  -1.12713  -1.12603  -1.12576  -1.12511
 Alpha  occ. eigenvalues --   -0.18619  -0.12699  -0.12287  -0.11615
 Alpha virt. eigenvalues --   -0.05557  -0.04978  -0.04129  -0.03476  -0.03312
 Alpha virt. eigenvalues --   -0.03240  -0.01497  -0.00956  -0.00209   0.00073
 Alpha virt. eigenvalues --    0.00153   0.00381   0.00727   0.00758   0.00921

  Beta  occ. eigenvalues --  -38.44299 -38.44159 -38.43946 -38.43635 -38.43310
  Beta  occ. eigenvalues --  -38.43204 -38.42984  -2.20094  -2.19991  -2.19752
  Beta  occ. eigenvalues --   -2.19459  -2.19151  -2.19108  -2.18879  -1.13818
  Beta  occ. eigenvalues --   -1.13774  -1.13750  -1.13724  -1.13673  -1.13650
  Beta  occ. eigenvalues --   -1.13421  -1.13401  -1.13395  -1.13138  -1.13114
  Beta  occ. eigenvalues --   -1.13100  -1.12847  -1.12807  -1.12799  -1.12787
  Beta  occ. eigenvalues --   -1.12750  -1.12713  -1.12583  -1.12533  -1.12500
  Beta  occ. eigenvalues --   -0.17801  -0.12515  -0.12066
  Beta virt. eigenvalues --   -0.07647  -0.05441  -0.04970  -0.04002  -0.02677
  Beta virt. eigenvalues --   -0.02556  -0.02259  -0.01415  -0.00913  -0.00038
  Beta virt. eigenvalues --    0.00034   0.00129   0.00388   0.00844   0.00901

 Mulliken charges and spin densities:
               1          2
     1  Na  -0.303779   0.402028
     2  Na   0.330558   0.084267
     3  Na   0.200206   0.130730
     4  Na   0.070016  -0.086368
     5  Na  -0.590125   0.677916
     6  Na   0.136672  -0.134655
     7  Na   0.156452  -0.073919
 Sum of Mulliken charges =  -0.00000   1.00000

 Dipole moment (field-independent basis, Debye):
    X=             -0.3209    Y=              0.0318    Z=              0.1558  Tot=              0.3581
 Quadrupole moment (field-independent basis, Debye-Ang):
   XX=            -58.0549   YY=            -69.3748   ZZ=            -68.2487
   XY=             -0.7989   XZ=              0.4470   YZ=              0.6520

 Normal termination of Gaussian 16 at Sun Dec  3 13:59:02 2023.
