 Gaussian 16, Revision B.01,
 Gaussian 16:  ES64L-G16RevB.01 20-Dec-2017

 -------------------------
 #P B3LYP/6-311+g(d) force
 -------------------------

 -----
 DPGEN
 -----
 Symbolic Z-matrix:
 Charge =  0 Multiplicity = 2

                         Standard orientation:
 ---------------------------------------------------------------------
 Center     Atomic      Atomic             Coordinates (Angstroms)
 Number     Number       Type             X           Y           Z
 ---------------------------------------------------------------------
      1         11           0       -3.606531    1.298174   -0.564061
      2         11           0        3.287482   -1.009222   -0.683681
      3         11           0        0.888165   -2.015956    0.607781
      4         11           0        0.229084    0.789960   -1.566424
      5         11           0       -2.181131   -1.810546   -0.238235
      6         11           0       -1.093687    0.320571    1.832252
      7         11           0        2.476619    2.427019    0.612369
 ---------------------------------------------------------------------

 SCF Done:  E(UB3LYP) =  -1136.12000117     A.U. after   22 cycles

 The electronic state is 2-A.
 Alpha  occ. eigenvalues --  -38.44732 -38.44506 -38.44497 -38.44048 -38.43872
 Alpha  occ. eigenvalues --  -38.43790 -38.42462  -2.20591  -2.20335  -2.20308
 Alpha  occ. eigenvalues --   -2.19954  -2.19713  -2.19651  -2.18428  -1.14324
 Alpha  occ. eigenvalues --   -1.14237  -1.14184  -1.14046  -1.13999  -1.13975
 Alpha  occ. eigenvalues --   -1.13969  -1.13949  -1.13933  -1.13672  -1.13630
 Alpha  occ. eigenvalues --   -1.13570  -1.13393  -1.13331  -1.13321  -1.13319
 Alpha  occ. eigenvalues --   -1.13304  -1.13289  -1.12120  -1.12088  -1.12066
 Alpha  occ. eigenvalues --   -0.18459  -0.14021  -0.11490  -0.10641
 Alpha virt. eigenvalues --   -0.06799  -0.05751  -0.04235  -0.03190  -0.02719
 Alpha virt. eigenvalues --   -0.02373  -0.02206  -0.01371  -0.00643  -0.00364
 Alpha virt. eigenvalues --    0.00129   0.00165   0.00406   0.00596   0.00715

  Beta  occ. eigenvalues --  -38.44707 -38.44487 -38.44473 -38.44042 -38.43853
  Beta  occ. eigenvalues --  -38.43711 -38.42450  -2.20546  -2.20293  -2.20273
  Beta  occ. eigenvalues --   -2.19947  -2.19617  -2.19568  -2.18413  -1.14297
  Beta  occ. eigenvalues --   -1.14197  -1.14154  -1.14015  -1.13957  -1.13948
  Beta  occ. eigenvalues --   -1.13940  -1.13923  -1.13906  -1.13657  -1.13619
  Beta  occ. eigenvalues --   -1.13552  -1.13299  -1.13296  -1.13272  -1.13266
  Beta  occ. eigenvalues --   -1.13229  -1.13214  -1.12105  -1.12083  -1.12018
  Beta  occ. eigenvalues --   -0.17819  -0.13727  -0.11214
  Beta virt. eigenvalues --   -0.07046  -0.06548  -0.05565  -0.03815  -0.02973
  Beta virt. eigenvalues --   -0.02409  -0.01876  -0.01455  -0.01189  -0.00541
  Beta virt. eigenvalues --   -0.00141   0.00154   0.00204   0.00517   0.00698

 Mulliken charges and spin densities:
               1          2
     1  Na   0.143658   0.158576
     2  Na   0.671562  -0.019375
     3  Na  -0.460467   0.100694
     4  Na  -0.515243   0.194600
     5  Na   0.435228   0.136298
     6  Na  -0.095570   0.330460
     7  Na  -0.179168   0.098747
 Sum of Mulliken charges =  -0.00000   1.00000

 Dipole moment (field-independent basis, Debye):
    X=             -0.3014    Y=              0.3063    Z=             -0.1401  Tot=              0.4520
 Quadrupole moment (field-independent basis, Debye-Ang):
   XX=            -50.8059   YY=            -72.3084   ZZ=            -71.6736
   XY=             -0.4390   XZ=              0.4552   YZ=              2.3020

 Normal termination of Gaussian 16 at Fri Dec  8 01:32:40 2023.
