 Gaussian 16, Revision B.01,
 Gaussian 16:  ES64L-G16RevB.01 20-Dec-2017

 -------------------------
 #P B3LYP/6-311+g(d) force
 -------------------------

 -----
 DPGEN
 -----
 Symbolic Z-matrix:
 Charge =  0 Multiplicity = 2

                         Standard orientation:
 ---------------------------------------------------------------------
 Center     Atomic      Atomic             Coordinates (Angstroms)
 Number     Number       Type             X           Y           Z
 ---------------------------------------------------------------------
      1         11           0        0.893696   -1.843683   -0.080737
      2         11           0        2.614394    1.092674    0.382932
      3         11           0       -1.232035    0.975747    0.176430
      4         11           0       -2.685833   -2.429222    0.241944
      5         11           0       -4.333487    0.244210   -0.281882
      6         11           0        0.489691    3.669405   -0.154805
      7         11           0        4.253574   -1.709130   -0.283883
 ---------------------------------------------------------------------

 SCF Done:  E(UB3LYP) =  -1136.12991219     A.U. after   22 cycles

 The electronic state is 2-A.
 Alpha  occ. eigenvalues --  -38.44478 -38.44126 -38.43766 -38.43671 -38.43595
 Alpha  occ. eigenvalues --  -38.43473 -38.43370  -2.20313  -2.19994  -2.19673
 Alpha  occ. eigenvalues --   -2.19551  -2.19424  -2.19319  -2.19251  -1.13990
 Alpha  occ. eigenvalues --   -1.13980  -1.13958  -1.13701  -1.13690  -1.13598
 Alpha  occ. eigenvalues --   -1.13402  -1.13377  -1.13315  -1.13189  -1.13177
 Alpha  occ. eigenvalues --   -1.13161  -1.13086  -1.13077  -1.13051  -1.12982
 Alpha  occ. eigenvalues --   -1.12966  -1.12957  -1.12947  -1.12932  -1.12828
 Alpha  occ. eigenvalues --   -0.17397  -0.14429  -0.12695  -0.10434
 Alpha virt. eigenvalues --   -0.06224  -0.05358  -0.04329  -0.03782  -0.02535
 Alpha virt. eigenvalues --   -0.02217  -0.01769  -0.01584  -0.01194  -0.00724
 Alpha virt. eigenvalues --    0.00091   0.00133   0.00586   0.00670   0.00690

  Beta  occ. eigenvalues --  -38.44461 -38.44116 -38.43751 -38.43601 -38.43593
  Beta  occ. eigenvalues --  -38.43428 -38.43325  -2.20288  -2.19979  -2.19652
  Beta  occ. eigenvalues --   -2.19435  -2.19406  -2.19235  -2.19174  -1.13979
  Beta  occ. eigenvalues --   -1.13958  -1.13900  -1.13690  -1.13683  -1.13570
  Beta  occ. eigenvalues --   -1.13368  -1.13339  -1.13304  -1.13102  -1.13089
  Beta  occ. eigenvalues --   -1.13085  -1.13078  -1.13077  -1.13050  -1.12921
  Beta  occ. eigenvalues --   -1.12909  -1.12900  -1.12897  -1.12884  -1.12745
  Beta  occ. eigenvalues --   -0.16823  -0.13887  -0.12429
  Beta virt. eigenvalues --   -0.06780  -0.06047  -0.05183  -0.04123  -0.03151
  Beta virt. eigenvalues --   -0.02276  -0.01999  -0.01652  -0.01182  -0.01038
  Beta virt. eigenvalues --   -0.00324   0.00294   0.00452   0.00690   0.00715

 Mulliken charges and spin densities:
               1          2
     1  Na  -0.813338   0.308124
     2  Na  -0.523237   0.184578
     3  Na  -3.107733   0.015451
     4  Na   0.198420  -0.371092
     5  Na   1.213798   0.342078
     6  Na   1.289833   0.039862
     7  Na   1.742257   0.481000
 Sum of Mulliken charges =  -0.00000   1.00000

 Dipole moment (field-independent basis, Debye):
    X=              0.0351    Y=             -0.1865    Z=             -0.1002  Tot=              0.2146
 Quadrupole moment (field-independent basis, Debye-Ang):
   XX=            -64.6471   YY=            -59.0943   ZZ=            -71.8399
   XY=              3.9971   XZ=             -0.2166   YZ=             -0.5737

 Normal termination of Gaussian 16 at Tue Nov 28 21:55:47 2023.
