 Gaussian 16, Revision B.01,
 Gaussian 16:  ES64L-G16RevB.01 20-Dec-2017

 -------------------------
 #P B3LYP/6-311+g(d) force
 -------------------------

 -----
 DPGEN
 -----
 Symbolic Z-matrix:
 Charge =  0 Multiplicity = 2

                         Standard orientation:
 ---------------------------------------------------------------------
 Center     Atomic      Atomic             Coordinates (Angstroms)
 Number     Number       Type             X           Y           Z
 ---------------------------------------------------------------------
      1         11           0        0.183424    3.325300    0.491741
      2         11           0        0.429067   -0.096422   -1.228464
      3         11           0       -2.686483    1.084768   -1.059389
      4         11           0       -1.390203   -2.714931   -0.853962
      5         11           0        1.916178   -1.783285    1.271528
      6         11           0       -2.119329   -0.226650    1.916195
      7         11           0        3.667346    0.411220   -0.537648
 ---------------------------------------------------------------------

 SCF Done:  E(UB3LYP) =  -1136.12494521     A.U. after   20 cycles

 The electronic state is 2-A.
 Alpha  occ. eigenvalues --  -38.44378 -38.44328 -38.44291 -38.44114 -38.44012
 Alpha  occ. eigenvalues --  -38.43660 -38.42920  -2.20181  -2.20124  -2.20057
 Alpha  occ. eigenvalues --   -2.19934  -2.19838  -2.19481  -2.18897  -1.13863
 Alpha  occ. eigenvalues --   -1.13843  -1.13820  -1.13819  -1.13809  -1.13738
 Alpha  occ. eigenvalues --   -1.13726  -1.13717  -1.13691  -1.13617  -1.13590
 Alpha  occ. eigenvalues --   -1.13548  -1.13497  -1.13480  -1.13448  -1.13186
 Alpha  occ. eigenvalues --   -1.13121  -1.13112  -1.12589  -1.12544  -1.12532
 Alpha  occ. eigenvalues --   -0.17715  -0.13278  -0.11766  -0.10500
 Alpha virt. eigenvalues --   -0.06265  -0.05333  -0.04852  -0.03406  -0.02779
 Alpha virt. eigenvalues --   -0.02320  -0.01712  -0.01320  -0.00860  -0.00251
 Alpha virt. eigenvalues --   -0.00089   0.00240   0.00366   0.00535   0.00718

  Beta  occ. eigenvalues --  -38.44380 -38.44332 -38.44275 -38.44091 -38.43937
  Beta  occ. eigenvalues --  -38.43640 -38.42874  -2.20184  -2.20099  -2.20064
  Beta  occ. eigenvalues --   -2.19890  -2.19698  -2.19448  -2.18816  -1.13858
  Beta  occ. eigenvalues --   -1.13844  -1.13822  -1.13796  -1.13777  -1.13738
  Beta  occ. eigenvalues --   -1.13721  -1.13708  -1.13694  -1.13589  -1.13554
  Beta  occ. eigenvalues --   -1.13517  -1.13398  -1.13388  -1.13350  -1.13155
  Beta  occ. eigenvalues --   -1.13096  -1.13079  -1.12528  -1.12485  -1.12465
  Beta  occ. eigenvalues --   -0.17061  -0.13064  -0.11612
  Beta virt. eigenvalues --   -0.06744  -0.06194  -0.05084  -0.04584  -0.02996
  Beta virt. eigenvalues --   -0.02220  -0.01696  -0.01380  -0.01238  -0.00655
  Beta virt. eigenvalues --   -0.00190   0.00107   0.00375   0.00409   0.00664

 Mulliken charges and spin densities:
               1          2
     1  Na  -0.265862  -0.039801
     2  Na   0.162768   0.224957
     3  Na   0.432974  -0.009597
     4  Na   0.216477   0.040517
     5  Na  -0.397518   0.142898
     6  Na  -0.408361   0.632362
     7  Na   0.259521   0.008663
 Sum of Mulliken charges =  -0.00000   1.00000

 Dipole moment (field-independent basis, Debye):
    X=              0.4267    Y=              0.1025    Z=              0.0623  Tot=              0.4433
 Quadrupole moment (field-independent basis, Debye-Ang):
   XX=            -55.9359   YY=            -64.8596   ZZ=            -72.0998
   XY=              1.7060   XZ=              2.1358   YZ=              0.0649

 Normal termination of Gaussian 16 at Mon Dec  4 04:11:37 2023.
