 Gaussian 16, Revision B.01,
 Gaussian 16:  ES64L-G16RevB.01 20-Dec-2017

 -------------------------
 #P B3LYP/6-311+g(d) force
 -------------------------

 -----
 DPGEN
 -----
 Symbolic Z-matrix:
 Charge =  0 Multiplicity = 2

                         Standard orientation:
 ---------------------------------------------------------------------
 Center     Atomic      Atomic             Coordinates (Angstroms)
 Number     Number       Type             X           Y           Z
 ---------------------------------------------------------------------
      1         11           0        0.090187   -0.029813    2.072795
      2         11           0        2.577719   -1.914730    0.006443
      3         11           0        2.872370    1.278803   -0.397599
      4         11           0        0.148819    0.057599   -1.600119
      5         11           0       -3.180970    0.354857   -0.479325
      6         11           0       -0.747596    2.795112    0.347763
      7         11           0       -1.760529   -2.541827    0.050041
 ---------------------------------------------------------------------

 SCF Done:  E(UB3LYP) =  -1136.13541823     A.U. after   20 cycles

 The electronic state is 2-A.
 Alpha  occ. eigenvalues --  -38.44211 -38.44181 -38.44025 -38.43636 -38.43513
 Alpha  occ. eigenvalues --  -38.43387 -38.42880  -2.20052  -2.20039  -2.19853
 Alpha  occ. eigenvalues --   -2.19518  -2.19464  -2.19210  -2.18726  -1.13743
 Alpha  occ. eigenvalues --   -1.13726  -1.13713  -1.13708  -1.13689  -1.13667
 Alpha  occ. eigenvalues --   -1.13522  -1.13509  -1.13487  -1.13193  -1.13148
 Alpha  occ. eigenvalues --   -1.13141  -1.13137  -1.13104  -1.13090  -1.12879
 Alpha  occ. eigenvalues --   -1.12876  -1.12853  -1.12406  -1.12389  -1.12363
 Alpha  occ. eigenvalues --   -0.18470  -0.13492  -0.11912  -0.10802
 Alpha virt. eigenvalues --   -0.05844  -0.05454  -0.04336  -0.03385  -0.02732
 Alpha virt. eigenvalues --   -0.02606  -0.01800  -0.01149  -0.00471  -0.00323
 Alpha virt. eigenvalues --   -0.00015   0.00335   0.00711   0.00835   0.00890

  Beta  occ. eigenvalues --  -38.44200 -38.44169 -38.44023 -38.43534 -38.43462
  Beta  occ. eigenvalues --  -38.43387 -38.42873  -2.20033  -2.20020  -2.19852
  Beta  occ. eigenvalues --   -2.19371  -2.19329  -2.19212  -2.18716  -1.13726
  Beta  occ. eigenvalues --   -1.13706  -1.13698  -1.13691  -1.13676  -1.13646
  Beta  occ. eigenvalues --   -1.13514  -1.13507  -1.13476  -1.13098  -1.13050
  Beta  occ. eigenvalues --   -1.13037  -1.13021  -1.13013  -1.12997  -1.12881
  Beta  occ. eigenvalues --   -1.12869  -1.12843  -1.12397  -1.12362  -1.12358
  Beta  occ. eigenvalues --   -0.17760  -0.13232  -0.11688
  Beta virt. eigenvalues --   -0.06914  -0.05745  -0.05442  -0.04292  -0.02653
  Beta virt. eigenvalues --   -0.01979  -0.01678  -0.01570  -0.01085  -0.00501
  Beta virt. eigenvalues --   -0.00331   0.00118   0.00379   0.00799   0.00833

 Mulliken charges and spin densities:
               1          2
     1  Na  -0.375172   0.741847
     2  Na   0.019532  -0.038276
     3  Na   0.308719   0.029466
     4  Na  -0.122634   0.296840
     5  Na   0.146270   0.024875
     6  Na   0.052118  -0.009034
     7  Na  -0.028833  -0.045716
 Sum of Mulliken charges =  -0.00000   1.00000

 Dipole moment (field-independent basis, Debye):
    X=              0.2792    Y=             -0.0709    Z=              0.0100  Tot=              0.2883
 Quadrupole moment (field-independent basis, Debye-Ang):
   XX=            -54.7148   YY=            -64.9422   ZZ=            -74.2059
   XY=             -0.6341   XZ=              0.4593   YZ=             -0.3447

 Normal termination of Gaussian 16 at Thu Dec  7 12:35:31 2023.
