 Gaussian 16, Revision B.01,
 Gaussian 16:  ES64L-G16RevB.01 20-Dec-2017

 -------------------------
 #P B3LYP/6-311+g(d) force
 -------------------------

 -----
 DPGEN
 -----
 Symbolic Z-matrix:
 Charge =  0 Multiplicity = 2

                         Standard orientation:
 ---------------------------------------------------------------------
 Center     Atomic      Atomic             Coordinates (Angstroms)
 Number     Number       Type             X           Y           Z
 ---------------------------------------------------------------------
      1         11           0       -0.611703    1.077454    1.956005
      2         11           0        2.302639   -0.359213    2.142423
      3         11           0        3.201534   -0.807098   -1.397969
      4         11           0        0.813440    2.162084   -1.076192
      5         11           0       -2.275650    2.119689   -0.847139
      6         11           0       -0.406533   -2.117960   -1.017613
      7         11           0       -3.023727   -2.074955    0.240484
 ---------------------------------------------------------------------

 SCF Done:  E(UB3LYP) =  -1136.12360252     A.U. after   19 cycles

 The electronic state is 2-A.
 Alpha  occ. eigenvalues --  -38.44697 -38.44397 -38.44097 -38.44031 -38.43970
 Alpha  occ. eigenvalues --  -38.43489 -38.43274  -2.20515  -2.20265  -2.19888
 Alpha  occ. eigenvalues --   -2.19883  -2.19811  -2.19325  -2.19102  -1.14215
 Alpha  occ. eigenvalues --   -1.14163  -1.14117  -1.13945  -1.13900  -1.13889
 Alpha  occ. eigenvalues --   -1.13629  -1.13552  -1.13545  -1.13542  -1.13527
 Alpha  occ. eigenvalues --   -1.13512  -1.13467  -1.13440  -1.13399  -1.13110
 Alpha  occ. eigenvalues --   -1.12988  -1.12971  -1.12744  -1.12724  -1.12715
 Alpha  occ. eigenvalues --   -0.17596  -0.12918  -0.12145  -0.11948
 Alpha virt. eigenvalues --   -0.05497  -0.05107  -0.05036  -0.03613  -0.03200
 Alpha virt. eigenvalues --   -0.02925  -0.01537  -0.00985  -0.00871  -0.00026
 Alpha virt. eigenvalues --    0.00101   0.00237   0.00294   0.00592   0.00619

  Beta  occ. eigenvalues --  -38.44631 -38.44333 -38.44066 -38.43998 -38.43958
  Beta  occ. eigenvalues --  -38.43481 -38.43277  -2.20398  -2.20152  -2.19831
  Beta  occ. eigenvalues --   -2.19826  -2.19789  -2.19311  -2.19108  -1.14119
  Beta  occ. eigenvalues --   -1.14087  -1.14029  -1.13873  -1.13824  -1.13788
  Beta  occ. eigenvalues --   -1.13592  -1.13506  -1.13502  -1.13500  -1.13488
  Beta  occ. eigenvalues --   -1.13479  -1.13448  -1.13425  -1.13374  -1.13100
  Beta  occ. eigenvalues --   -1.12976  -1.12965  -1.12745  -1.12729  -1.12715
  Beta  occ. eigenvalues --   -0.16885  -0.12688  -0.11982
  Beta virt. eigenvalues --   -0.07938  -0.05395  -0.04879  -0.04440  -0.03415
  Beta virt. eigenvalues --   -0.02522  -0.02311  -0.01464  -0.00896  -0.00429
  Beta virt. eigenvalues --    0.00055   0.00226   0.00338   0.00442   0.00685

 Mulliken charges and spin densities:
               1          2
     1  Na  -0.281517   0.450078
     2  Na   0.186148   0.074443
     3  Na   0.390329   0.173567
     4  Na  -0.450072   0.254332
     5  Na   0.519949   0.013997
     6  Na  -0.895899   0.114756
     7  Na   0.531063  -0.081173
 Sum of Mulliken charges =  -0.00000   1.00000

 Dipole moment (field-independent basis, Debye):
    X=              0.2933    Y=              0.6024    Z=              0.1747  Tot=              0.6924
 Quadrupole moment (field-independent basis, Debye-Ang):
   XX=            -57.7373   YY=            -74.5304   ZZ=            -65.9402
   XY=             -3.7017   XZ=             -1.6621   YZ=             -2.0541

 Normal termination of Gaussian 16 at Tue Nov 28 23:03:13 2023.
