 Gaussian 16, Revision B.01,
 Gaussian 16:  ES64L-G16RevB.01 20-Dec-2017

 -------------------------
 #P B3LYP/6-311+g(d) force
 -------------------------

 -----
 DPGEN
 -----
 Symbolic Z-matrix:
 Charge =  0 Multiplicity = 2

                         Standard orientation:
 ---------------------------------------------------------------------
 Center     Atomic      Atomic             Coordinates (Angstroms)
 Number     Number       Type             X           Y           Z
 ---------------------------------------------------------------------
      1         11           0        0.910362    0.118346   -0.122401
      2         11           0       -1.260427   -2.916911   -0.710556
      3         11           0        2.691827   -3.063813    0.140538
      4         11           0        3.434157    1.509976    0.618500
      5         11           0        0.253013    3.705107   -0.530581
      6         11           0       -3.509234    0.029295    1.646331
      7         11           0       -2.519697    0.617999   -1.041832
 ---------------------------------------------------------------------

 SCF Done:  E(UB3LYP) =  -1136.11479484     A.U. after   22 cycles

 The electronic state is 2-A.
 Alpha  occ. eigenvalues --  -38.44788 -38.44580 -38.44323 -38.44224 -38.44035
 Alpha  occ. eigenvalues --  -38.43879 -38.43405  -2.20512  -2.20349  -2.20090
 Alpha  occ. eigenvalues --   -2.20047  -2.19903  -2.19737  -2.19322  -1.14205
 Alpha  occ. eigenvalues --   -1.14172  -1.14154  -1.14032  -1.14008  -1.13954
 Alpha  occ. eigenvalues --   -1.13785  -1.13763  -1.13736  -1.13717  -1.13712
 Alpha  occ. eigenvalues --   -1.13697  -1.13631  -1.13569  -1.13522  -1.13356
 Alpha  occ. eigenvalues --   -1.13353  -1.13315  -1.13034  -1.13015  -1.12909
 Alpha  occ. eigenvalues --   -0.16879  -0.13595  -0.12445  -0.09888
 Alpha virt. eigenvalues --   -0.06517  -0.05847  -0.04923  -0.03254  -0.02444
 Alpha virt. eigenvalues --   -0.02070  -0.01844  -0.01663  -0.01305  -0.01115
 Alpha virt. eigenvalues --   -0.00034   0.00198   0.00294   0.00449   0.00609

  Beta  occ. eigenvalues --  -38.44810 -38.44547 -38.44286 -38.44185 -38.44030
  Beta  occ. eigenvalues --  -38.43788 -38.43395  -2.20555  -2.20288  -2.20021
  Beta  occ. eigenvalues --   -2.19974  -2.19900  -2.19569  -2.19308  -1.14235
  Beta  occ. eigenvalues --   -1.14200  -1.14173  -1.13985  -1.13967  -1.13918
  Beta  occ. eigenvalues --   -1.13736  -1.13715  -1.13684  -1.13669  -1.13668
  Beta  occ. eigenvalues --   -1.13647  -1.13578  -1.13556  -1.13521  -1.13246
  Beta  occ. eigenvalues --   -1.13238  -1.13215  -1.13019  -1.12981  -1.12905
  Beta  occ. eigenvalues --   -0.16440  -0.12991  -0.12173
  Beta virt. eigenvalues --   -0.06636  -0.06268  -0.05446  -0.04714  -0.02847
  Beta virt. eigenvalues --   -0.02109  -0.01937  -0.01672  -0.01328  -0.01139
  Beta virt. eigenvalues --   -0.00734   0.00195   0.00332   0.00476   0.00639

 Mulliken charges and spin densities:
               1          2
     1  Na  -4.372601   0.236022
     2  Na   1.026497   0.056919
     3  Na   0.390289  -0.121938
     4  Na   1.029572   0.061028
     5  Na   1.065318   0.178614
     6  Na   0.559569   0.375268
     7  Na   0.301356   0.214088
 Sum of Mulliken charges =  -0.00000   1.00000

 Dipole moment (field-independent basis, Debye):
    X=              0.6119    Y=             -0.2869    Z=             -0.0645  Tot=              0.6789
 Quadrupole moment (field-independent basis, Debye-Ang):
   XX=            -66.4971   YY=            -56.8288   ZZ=            -71.5707
   XY=              0.1097   XZ=              3.6775   YZ=             -0.3558

 Normal termination of Gaussian 16 at Wed Nov 29 16:04:50 2023.
