 Gaussian 16, Revision B.01,
 Gaussian 16:  ES64L-G16RevB.01 20-Dec-2017

 -------------------------
 #P B3LYP/6-311+g(d) force
 -------------------------

 -----
 DPGEN
 -----
 Symbolic Z-matrix:
 Charge =  0 Multiplicity = 2

                         Standard orientation:
 ---------------------------------------------------------------------
 Center     Atomic      Atomic             Coordinates (Angstroms)
 Number     Number       Type             X           Y           Z
 ---------------------------------------------------------------------
      1         11           0        0.320002   -1.430627    1.692453
      2         11           0        3.146613   -1.677834    0.166236
      3         11           0       -3.108588   -1.660079   -0.701903
      4         11           0       -0.061271    2.804874   -0.392728
      5         11           0       -3.139120    1.472191    0.885661
      6         11           0       -0.157336   -1.233996   -1.412146
      7         11           0        2.999699    1.725469   -0.237573
 ---------------------------------------------------------------------

 SCF Done:  E(UB3LYP) =  -1136.11966867     A.U. after   21 cycles

 The electronic state is 2-A.
 Alpha  occ. eigenvalues --  -38.44568 -38.44493 -38.44449 -38.44176 -38.44063
 Alpha  occ. eigenvalues --  -38.44010 -38.43348  -2.20422  -2.20334  -2.20292
 Alpha  occ. eigenvalues --   -2.19974  -2.19918  -2.19877  -2.19144  -1.14141
 Alpha  occ. eigenvalues --   -1.14077  -1.14064  -1.14011  -1.13994  -1.13985
 Alpha  occ. eigenvalues --   -1.13944  -1.13936  -1.13922  -1.13633  -1.13620
 Alpha  occ. eigenvalues --   -1.13603  -1.13601  -1.13550  -1.13544  -1.13538
 Alpha  occ. eigenvalues --   -1.13531  -1.13515  -1.12825  -1.12820  -1.12784
 Alpha  occ. eigenvalues --   -0.17693  -0.13888  -0.12365  -0.10288
 Alpha virt. eigenvalues --   -0.06820  -0.06022  -0.04306  -0.03489  -0.02719
 Alpha virt. eigenvalues --   -0.02393  -0.02147  -0.01676  -0.00895  -0.00227
 Alpha virt. eigenvalues --   -0.00113   0.00158   0.00401   0.00563   0.00582

  Beta  occ. eigenvalues --  -38.44522 -38.44486 -38.44419 -38.44126 -38.44049
  Beta  occ. eigenvalues --  -38.43960 -38.43350  -2.20339  -2.20324  -2.20241
  Beta  occ. eigenvalues --   -2.19881  -2.19852  -2.19827  -2.19152  -1.14088
  Beta  occ. eigenvalues --   -1.14026  -1.14009  -1.13988  -1.13972  -1.13957
  Beta  occ. eigenvalues --   -1.13911  -1.13905  -1.13874  -1.13565  -1.13558
  Beta  occ. eigenvalues --   -1.13544  -1.13538  -1.13537  -1.13513  -1.13500
  Beta  occ. eigenvalues --   -1.13484  -1.13453  -1.12834  -1.12826  -1.12768
  Beta  occ. eigenvalues --   -0.17222  -0.13490  -0.11958
  Beta virt. eigenvalues --   -0.06858  -0.06752  -0.05719  -0.03979  -0.03069
  Beta virt. eigenvalues --   -0.02305  -0.02119  -0.01720  -0.01259  -0.00801
  Beta virt. eigenvalues --   -0.00055   0.00010   0.00241   0.00520   0.00687

 Mulliken charges and spin densities:
               1          2
     1  Na  -0.294414   0.263693
     2  Na   0.699684   0.081897
     3  Na   0.405305  -0.054970
     4  Na   0.014525  -0.102142
     5  Na  -0.047362   0.325478
     6  Na  -0.516424   0.416835
     7  Na  -0.261314   0.069208
 Sum of Mulliken charges =  -0.00000   1.00000

 Dipole moment (field-independent basis, Debye):
    X=              0.3038    Y=             -0.9570    Z=              0.2045  Tot=              1.0247
 Quadrupole moment (field-independent basis, Debye-Ang):
   XX=            -50.9287   YY=            -73.5710   ZZ=            -73.4096
   XY=             -0.5101   XZ=             -1.3045   YZ=              0.2408

 Normal termination of Gaussian 16 at Wed Nov 29 01:42:48 2023.
