 Gaussian 16, Revision B.01,
 Gaussian 16:  ES64L-G16RevB.01 20-Dec-2017

 -------------------------
 #P B3LYP/6-311+g(d) force
 -------------------------

 -----
 DPGEN
 -----
 Symbolic Z-matrix:
 Charge =  0 Multiplicity = 2

                         Standard orientation:
 ---------------------------------------------------------------------
 Center     Atomic      Atomic             Coordinates (Angstroms)
 Number     Number       Type             X           Y           Z
 ---------------------------------------------------------------------
      1         11           0        2.723929    1.453526   -0.312047
      2         11           0        0.068275   -0.041569   -1.615336
      3         11           0        0.079584   -0.218143    2.183138
      4         11           0       -1.490642   -2.318562   -0.368249
      5         11           0       -0.606365    2.841882    0.056371
      6         11           0        2.615206   -1.913860    0.076942
      7         11           0       -3.389988    0.196725   -0.020818
 ---------------------------------------------------------------------

 SCF Done:  E(UB3LYP) =  -1136.13372452     A.U. after   20 cycles

 The electronic state is 2-A.
 Alpha  occ. eigenvalues --  -38.44646 -38.44001 -38.43883 -38.43847 -38.43411
 Alpha  occ. eigenvalues --  -38.43375 -38.42968  -2.20456  -2.19846  -2.19736
 Alpha  occ. eigenvalues --   -2.19663  -2.19393  -2.19271  -2.18791  -1.14135
 Alpha  occ. eigenvalues --   -1.14121  -1.14092  -1.13542  -1.13508  -1.13478
 Alpha  occ. eigenvalues --   -1.13398  -1.13364  -1.13356  -1.13328  -1.13317
 Alpha  occ. eigenvalues --   -1.13306  -1.13165  -1.13059  -1.12999  -1.12916
 Alpha  occ. eigenvalues --   -1.12910  -1.12881  -1.12474  -1.12460  -1.12422
 Alpha  occ. eigenvalues --   -0.18491  -0.13338  -0.11981  -0.10839
 Alpha virt. eigenvalues --   -0.06113  -0.05229  -0.04264  -0.03349  -0.02770
 Alpha virt. eigenvalues --   -0.02686  -0.01892  -0.01134  -0.00395  -0.00242
 Alpha virt. eigenvalues --   -0.00052   0.00323   0.00712   0.00861   0.00878

  Beta  occ. eigenvalues --  -38.44647 -38.43993 -38.43845 -38.43779 -38.43363
  Beta  occ. eigenvalues --  -38.43351 -38.42966  -2.20460  -2.19834  -2.19663
  Beta  occ. eigenvalues --   -2.19543  -2.19286  -2.19252  -2.18790  -1.14141
  Beta  occ. eigenvalues --   -1.14108  -1.14095  -1.13527  -1.13488  -1.13474
  Beta  occ. eigenvalues --   -1.13324  -1.13314  -1.13306  -1.13267  -1.13230
  Beta  occ. eigenvalues --   -1.13208  -1.13107  -1.12982  -1.12928  -1.12895
  Beta  occ. eigenvalues --   -1.12868  -1.12857  -1.12472  -1.12444  -1.12421
  Beta  occ. eigenvalues --   -0.17765  -0.13131  -0.11757
  Beta virt. eigenvalues --   -0.06885  -0.06042  -0.05237  -0.04230  -0.02590
  Beta virt. eigenvalues --   -0.01958  -0.01798  -0.01638  -0.01067  -0.00442
  Beta virt. eigenvalues --   -0.00272   0.00104   0.00353   0.00786   0.00862

 Mulliken charges and spin densities:
               1          2
     1  Na   0.185489  -0.016787
     2  Na  -0.180949   0.313615
     3  Na  -0.621731   0.803344
     4  Na   0.413795   0.004361
     5  Na  -0.012043  -0.046456
     6  Na   0.203193  -0.028084
     7  Na   0.012246  -0.029994
 Sum of Mulliken charges =  -0.00000   1.00000

 Dipole moment (field-independent basis, Debye):
    X=             -0.1020    Y=             -0.0498    Z=              0.2012  Tot=              0.2310
 Quadrupole moment (field-independent basis, Debye-Ang):
   XX=            -52.5979   YY=            -66.6532   ZZ=            -74.2622
   XY=             -1.0619   XZ=             -0.3895   YZ=              0.2284

 Normal termination of Gaussian 16 at Thu Dec  7 09:47:07 2023.
