 Gaussian 16, Revision B.01,
 Gaussian 16:  ES64L-G16RevB.01 20-Dec-2017

 -------------------------
 #P B3LYP/6-311+g(d) force
 -------------------------

 -----
 DPGEN
 -----
 Symbolic Z-matrix:
 Charge =  0 Multiplicity = 2

                         Standard orientation:
 ---------------------------------------------------------------------
 Center     Atomic      Atomic             Coordinates (Angstroms)
 Number     Number       Type             X           Y           Z
 ---------------------------------------------------------------------
      1         11           0        1.138013   -1.743810    1.300493
      2         11           0        3.331128   -2.478868   -0.803414
      3         11           0       -1.762140    1.892464   -0.086792
      4         11           0        0.887680    2.497672    1.102974
      5         11           0        3.807226    1.584684   -1.015308
      6         11           0       -2.672053   -1.438947    0.765156
      7         11           0       -4.729854   -0.313195   -1.263108
 ---------------------------------------------------------------------

 SCF Done:  E(UB3LYP) =  -1136.11282258     A.U. after   21 cycles

 The electronic state is 2-A.
 Alpha  occ. eigenvalues --  -38.45199 -38.44773 -38.44457 -38.44343 -38.44340
 Alpha  occ. eigenvalues --  -38.43806 -38.42996  -2.20960  -2.20598  -2.20302
 Alpha  occ. eigenvalues --   -2.20175  -2.20117  -2.19624  -2.18833  -1.14624
 Alpha  occ. eigenvalues --   -1.14588  -1.14575  -1.14289  -1.14268  -1.14259
 Alpha  occ. eigenvalues --   -1.14003  -1.13972  -1.13929  -1.13824  -1.13819
 Alpha  occ. eigenvalues --   -1.13815  -1.13787  -1.13787  -1.13758  -1.13291
 Alpha  occ. eigenvalues --   -1.13265  -1.13255  -1.12536  -1.12478  -1.12467
 Alpha  occ. eigenvalues --   -0.16573  -0.14145  -0.11993  -0.11043
 Alpha virt. eigenvalues --   -0.06974  -0.05369  -0.04157  -0.03858  -0.03325
 Alpha virt. eigenvalues --   -0.02361  -0.02075  -0.01428  -0.00900  -0.00724
 Alpha virt. eigenvalues --   -0.00503  -0.00016   0.00201   0.00339   0.00613

  Beta  occ. eigenvalues --  -38.45112 -38.44768 -38.44444 -38.44360 -38.44286
  Beta  occ. eigenvalues --  -38.43762 -38.42995  -2.20796  -2.20594  -2.20279
  Beta  occ. eigenvalues --   -2.20149  -2.20074  -2.19543  -2.18834  -1.14512
  Beta  occ. eigenvalues --   -1.14480  -1.14460  -1.14280  -1.14266  -1.14224
  Beta  occ. eigenvalues --   -1.13968  -1.13959  -1.13920  -1.13840  -1.13811
  Beta  occ. eigenvalues --   -1.13768  -1.13756  -1.13745  -1.13723  -1.13238
  Beta  occ. eigenvalues --   -1.13209  -1.13198  -1.12529  -1.12478  -1.12458
  Beta  occ. eigenvalues --   -0.16001  -0.13612  -0.11841
  Beta virt. eigenvalues --   -0.07635  -0.06535  -0.04769  -0.04019  -0.03660
  Beta virt. eigenvalues --   -0.02870  -0.02019  -0.01705  -0.01298  -0.00799
  Beta virt. eigenvalues --   -0.00430  -0.00144   0.00084   0.00347   0.00464

 Mulliken charges and spin densities:
               1          2
     1  Na  -0.697714  -0.008270
     2  Na   0.442808   0.052045
     3  Na  -0.305254   0.054737
     4  Na  -0.152090   0.007130
     5  Na   0.044238   0.480145
     6  Na   0.039530   0.152013
     7  Na   0.628483   0.262200
 Sum of Mulliken charges =  -0.00000   1.00000

 Dipole moment (field-independent basis, Debye):
    X=             -0.6537    Y=             -0.2187    Z=             -0.7905  Tot=              1.0488
 Quadrupole moment (field-independent basis, Debye-Ang):
   XX=            -59.0735   YY=            -72.0681   ZZ=            -66.6674
   XY=             -0.6743   XZ=              0.1473   YZ=             -0.5452

 Normal termination of Gaussian 16 at Sun Dec  3 13:18:36 2023.
