 Gaussian 16, Revision B.01,
 Gaussian 16:  ES64L-G16RevB.01 20-Dec-2017

 -------------------------
 #P B3LYP/6-311+g(d) force
 -------------------------

 -----
 DPGEN
 -----
 Symbolic Z-matrix:
 Charge =  0 Multiplicity = 2

                         Standard orientation:
 ---------------------------------------------------------------------
 Center     Atomic      Atomic             Coordinates (Angstroms)
 Number     Number       Type             X           Y           Z
 ---------------------------------------------------------------------
      1         11           0        0.488179    2.577499    0.849974
      2         11           0        1.337073    0.745378   -2.215317
      3         11           0       -3.752975    0.126012   -0.512199
      4         11           0       -1.017562   -0.032436   -0.447852
      5         11           0       -0.324956   -0.794534    2.452873
      6         11           0        0.632004   -2.414506   -0.649229
      7         11           0        2.638238   -0.207414    0.521751
 ---------------------------------------------------------------------

 SCF Done:  E(UB3LYP) =  -1136.11178786     A.U. after   26 cycles

 The electronic state is 2-A.
 Alpha  occ. eigenvalues --  -38.44631 -38.44615 -38.44117 -38.44002 -38.43389
 Alpha  occ. eigenvalues --  -38.43095 -38.42525  -2.20507  -2.20440  -2.20040
 Alpha  occ. eigenvalues --   -2.19929  -2.19243  -2.19036  -2.18731  -1.14237
 Alpha  occ. eigenvalues --   -1.14215  -1.14132  -1.14099  -1.14053  -1.14043
 Alpha  occ. eigenvalues --   -1.13771  -1.13732  -1.13618  -1.13603  -1.13587
 Alpha  occ. eigenvalues --   -1.13530  -1.12938  -1.12892  -1.12854  -1.12846
 Alpha  occ. eigenvalues --   -1.12661  -1.12635  -1.12418  -1.12393  -1.12289
 Alpha  occ. eigenvalues --   -0.19327  -0.12729  -0.12472  -0.11458
 Alpha virt. eigenvalues --   -0.06001  -0.04496  -0.03993  -0.03301  -0.03086
 Alpha virt. eigenvalues --   -0.02796  -0.01662  -0.00797  -0.00525   0.00209
 Alpha virt. eigenvalues --    0.00343   0.00463   0.00475   0.00828   0.00939

  Beta  occ. eigenvalues --  -38.44610 -38.44557 -38.44064 -38.43992 -38.43356
  Beta  occ. eigenvalues --  -38.43075 -38.42497  -2.20432  -2.20372  -2.19945
  Beta  occ. eigenvalues --   -2.19914  -2.19184  -2.19002  -2.18688  -1.14228
  Beta  occ. eigenvalues --   -1.14126  -1.14045  -1.14038  -1.14025  -1.14006
  Beta  occ. eigenvalues --   -1.13709  -1.13675  -1.13581  -1.13558  -1.13537
  Beta  occ. eigenvalues --   -1.13515  -1.12897  -1.12841  -1.12820  -1.12814
  Beta  occ. eigenvalues --   -1.12642  -1.12588  -1.12372  -1.12324  -1.12267
  Beta  occ. eigenvalues --   -0.18398  -0.12469  -0.11310
  Beta virt. eigenvalues --   -0.08367  -0.05779  -0.03914  -0.03719  -0.02867
  Beta virt. eigenvalues --   -0.02607  -0.02078  -0.01601  -0.00529  -0.00384
  Beta virt. eigenvalues --    0.00287   0.00443   0.00489   0.00541   0.00886

 Mulliken charges and spin densities:
               1          2
     1  Na  -0.205257   0.351948
     2  Na   0.458993   0.276560
     3  Na   0.019155  -0.382455
     4  Na  -0.956836  -0.116960
     5  Na  -0.012162   0.490005
     6  Na   0.194166   0.264722
     7  Na   0.501940   0.116180
 Sum of Mulliken charges =  -0.00000   1.00000

 Dipole moment (field-independent basis, Debye):
    X=              0.2493    Y=              0.0343    Z=              0.4064  Tot=              0.4780
 Quadrupole moment (field-independent basis, Debye-Ang):
   XX=            -59.4733   YY=            -72.6087   ZZ=            -60.3682
   XY=             -0.0898   XZ=             -0.0227   YZ=              2.8516

 Normal termination of Gaussian 16 at Fri Dec  8 18:20:17 2023.
