 Gaussian 16, Revision B.01,
 Gaussian 16:  ES64L-G16RevB.01 20-Dec-2017

 -------------------------
 #P B3LYP/6-311+g(d) force
 -------------------------

 -----
 DPGEN
 -----
 Symbolic Z-matrix:
 Charge =  0 Multiplicity = 2

                         Standard orientation:
 ---------------------------------------------------------------------
 Center     Atomic      Atomic             Coordinates (Angstroms)
 Number     Number       Type             X           Y           Z
 ---------------------------------------------------------------------
      1         11           0       -0.182080    4.118630    0.217013
      2         11           0       -4.053424   -1.765170   -0.103392
      3         11           0        2.807250    2.325088   -0.864023
      4         11           0       -3.266152    2.344389    0.485450
      5         11           0       -1.444061   -3.239645   -1.002326
      6         11           0        1.911625   -2.608003    1.370279
      7         11           0        4.226842   -1.175288   -0.103002
 ---------------------------------------------------------------------

 SCF Done:  E(UB3LYP) =  -1136.10490581     A.U. after   20 cycles

 The electronic state is 2-A.
 Alpha  occ. eigenvalues --  -38.44845 -38.44749 -38.44725 -38.44693 -38.44390
 Alpha  occ. eigenvalues --  -38.44324 -38.44315  -2.20646  -2.20538  -2.20517
 Alpha  occ. eigenvalues --   -2.20475  -2.20161  -2.20094  -2.20066  -1.14361
 Alpha  occ. eigenvalues --   -1.14295  -1.14284  -1.14261  -1.14198  -1.14185
 Alpha  occ. eigenvalues --   -1.14180  -1.14163  -1.14137  -1.14136  -1.14120
 Alpha  occ. eigenvalues --   -1.14074  -1.13818  -1.13805  -1.13785  -1.13759
 Alpha  occ. eigenvalues --   -1.13752  -1.13751  -1.13733  -1.13717  -1.13690
 Alpha  occ. eigenvalues --   -0.15304  -0.13713  -0.13328  -0.10793
 Alpha virt. eigenvalues --   -0.07539  -0.05129  -0.04752  -0.03306  -0.03278
 Alpha virt. eigenvalues --   -0.02608  -0.02082  -0.02019  -0.01476  -0.00959
 Alpha virt. eigenvalues --   -0.00600  -0.00262   0.00044   0.00245   0.00596

  Beta  occ. eigenvalues --  -38.44802 -38.44726 -38.44724 -38.44687 -38.44345
  Beta  occ. eigenvalues --  -38.44310 -38.44229  -2.20569  -2.20524  -2.20495
  Beta  occ. eigenvalues --   -2.20466  -2.20111  -2.20012  -2.19933  -1.14320
  Beta  occ. eigenvalues --   -1.14244  -1.14232  -1.14230  -1.14188  -1.14170
  Beta  occ. eigenvalues --   -1.14164  -1.14154  -1.14131  -1.14112  -1.14108
  Beta  occ. eigenvalues --   -1.14047  -1.13794  -1.13784  -1.13721  -1.13716
  Beta  occ. eigenvalues --   -1.13700  -1.13667  -1.13641  -1.13628  -1.13598
  Beta  occ. eigenvalues --   -0.14808  -0.13119  -0.12665
  Beta virt. eigenvalues --   -0.07604  -0.07517  -0.04750  -0.04371  -0.03013
  Beta virt. eigenvalues --   -0.02915  -0.02393  -0.01986  -0.01752  -0.01409
  Beta virt. eigenvalues --   -0.00669  -0.00336  -0.00037   0.00260   0.00278

 Mulliken charges and spin densities:
               1          2
     1  Na   0.222199  -0.136420
     2  Na   0.144077   0.004777
     3  Na  -0.131633   0.430510
     4  Na  -0.107054   0.413721
     5  Na  -0.144005   0.105035
     6  Na  -0.197760   0.202675
     7  Na   0.214176  -0.020297
 Sum of Mulliken charges =  -0.00000   1.00000

 Dipole moment (field-independent basis, Debye):
    X=              0.1589    Y=             -1.2073    Z=              0.0611  Tot=              1.2192
 Quadrupole moment (field-independent basis, Debye-Ang):
   XX=            -59.8510   YY=            -70.8972   ZZ=            -71.2540
   XY=             -0.3856   XZ=             -3.6306   YZ=              0.6415

 Normal termination of Gaussian 16 at Sun Dec  3 20:31:08 2023.
