 Gaussian 16, Revision B.01,
 Gaussian 16:  ES64L-G16RevB.01 20-Dec-2017

 -------------------------
 #P B3LYP/6-311+g(d) force
 -------------------------

 -----
 DPGEN
 -----
 Symbolic Z-matrix:
 Charge =  0 Multiplicity = 2

                         Standard orientation:
 ---------------------------------------------------------------------
 Center     Atomic      Atomic             Coordinates (Angstroms)
 Number     Number       Type             X           Y           Z
 ---------------------------------------------------------------------
      1         11           0        3.177864   -0.882516   -0.220298
      2         11           0       -0.085877    0.030881   -1.758974
      3         11           0        0.237513   -2.415983    0.216551
      4         11           0       -3.084504   -1.110129   -0.103184
      5         11           0       -1.853146    2.023857   -0.067050
      6         11           0       -0.048623    0.112910    1.845556
      7         11           0        1.656772    2.240980    0.087398
 ---------------------------------------------------------------------

 SCF Done:  E(UB3LYP) =  -1136.13455997     A.U. after   20 cycles

 The electronic state is 2-A.
 Alpha  occ. eigenvalues --  -38.44258 -38.44162 -38.43400 -38.43363 -38.43282
 Alpha  occ. eigenvalues --  -38.43147 -38.42895  -2.20086  -2.19994  -2.19401
 Alpha  occ. eigenvalues --   -2.19368  -2.19205  -2.19039  -2.18839  -1.13749
 Alpha  occ. eigenvalues --   -1.13747  -1.13734  -1.13662  -1.13659  -1.13637
 Alpha  occ. eigenvalues --   -1.13129  -1.13088  -1.13066  -1.13036  -1.13008
 Alpha  occ. eigenvalues --   -1.12979  -1.12864  -1.12858  -1.12814  -1.12714
 Alpha  occ. eigenvalues --   -1.12706  -1.12655  -1.12538  -1.12508  -1.12422
 Alpha  occ. eigenvalues --   -0.19278  -0.13345  -0.12289  -0.10909
 Alpha virt. eigenvalues --   -0.05981  -0.05052  -0.03988  -0.03262  -0.02780
 Alpha virt. eigenvalues --   -0.02515  -0.01905  -0.01043  -0.00077  -0.00012
 Alpha virt. eigenvalues --    0.00061   0.00327   0.00781   0.00912   0.00951

  Beta  occ. eigenvalues --  -38.44257 -38.44161 -38.43326 -38.43273 -38.43272
  Beta  occ. eigenvalues --  -38.43140 -38.42881  -2.20084  -2.19994  -2.19264
  Beta  occ. eigenvalues --   -2.19202  -2.19192  -2.19031  -2.18819  -1.13750
  Beta  occ. eigenvalues --   -1.13735  -1.13729  -1.13665  -1.13644  -1.13632
  Beta  occ. eigenvalues --   -1.13047  -1.12997  -1.12955  -1.12936  -1.12914
  Beta  occ. eigenvalues --   -1.12873  -1.12827  -1.12815  -1.12796  -1.12703
  Beta  occ. eigenvalues --   -1.12670  -1.12652  -1.12523  -1.12452  -1.12415
  Beta  occ. eigenvalues --   -0.18522  -0.13101  -0.11998
  Beta virt. eigenvalues --   -0.06949  -0.05932  -0.05062  -0.04000  -0.02482
  Beta virt. eigenvalues --   -0.01940  -0.01806  -0.01432  -0.01006  -0.00097
  Beta virt. eigenvalues --    0.00008   0.00110   0.00348   0.00831   0.00897

 Mulliken charges and spin densities:
               1          2
     1  Na  -0.004379  -0.059904
     2  Na  -0.625219   0.723115
     3  Na   0.372571  -0.074060
     4  Na   0.116054  -0.086736
     5  Na   0.349727  -0.081778
     6  Na  -0.469002   0.666829
     7  Na   0.260250  -0.087465
 Sum of Mulliken charges =  -0.00000   1.00000

 Dipole moment (field-independent basis, Debye):
    X=              0.0057    Y=             -0.0640    Z=             -0.0665  Tot=              0.0924
 Quadrupole moment (field-independent basis, Debye-Ang):
   XX=            -51.2587   YY=            -67.5869   ZZ=            -73.6563
   XY=              0.5404   XZ=             -0.2971   YZ=              0.1116

 Normal termination of Gaussian 16 at Sat Dec  9 07:10:25 2023.
