 Gaussian 16, Revision B.01,
 Gaussian 16:  ES64L-G16RevB.01 20-Dec-2017

 -------------------------
 #P B3LYP/6-311+g(d) force
 -------------------------

 -----
 DPGEN
 -----
 Symbolic Z-matrix:
 Charge =  0 Multiplicity = 2

                         Standard orientation:
 ---------------------------------------------------------------------
 Center     Atomic      Atomic             Coordinates (Angstroms)
 Number     Number       Type             X           Y           Z
 ---------------------------------------------------------------------
      1         11           0        0.444742    1.947542   -0.266206
      2         11           0       -1.019920   -0.302944    1.867685
      3         11           0       -4.549522   -1.196820    0.387464
      4         11           0        6.102741   -0.473311    0.105089
      5         11           0        2.975866   -0.172517    0.014501
      6         11           0       -2.889939    1.647065   -0.469975
      7         11           0       -1.063967   -1.449015   -1.638559
 ---------------------------------------------------------------------

 SCF Done:  E(UB3LYP) =  -1136.10904580     A.U. after   30 cycles

 The electronic state is 2-A.
 Alpha  occ. eigenvalues --  -38.47722 -38.45162 -38.44973 -38.43583 -38.43383
 Alpha  occ. eigenvalues --  -38.42847 -38.42770  -2.23508  -2.20985  -2.20855
 Alpha  occ. eigenvalues --   -2.19382  -2.19273  -2.18642  -2.18614  -1.17198
 Alpha  occ. eigenvalues --   -1.17168  -1.17122  -1.14658  -1.14615  -1.14574
 Alpha  occ. eigenvalues --   -1.14541  -1.14507  -1.14461  -1.13062  -1.13044
 Alpha  occ. eigenvalues --   -1.13019  -1.12954  -1.12934  -1.12912  -1.12362
 Alpha  occ. eigenvalues --   -1.12313  -1.12302  -1.12287  -1.12281  -1.12179
 Alpha  occ. eigenvalues --   -0.18317  -0.13524  -0.11473  -0.10833
 Alpha virt. eigenvalues --   -0.08269  -0.05703  -0.04046  -0.03336  -0.03182
 Alpha virt. eigenvalues --   -0.02511  -0.02153  -0.02051  -0.01269  -0.01069
 Alpha virt. eigenvalues --   -0.00408   0.00056   0.00121   0.00427   0.00548

  Beta  occ. eigenvalues --  -38.47720 -38.45054 -38.44923 -38.43582 -38.43372
  Beta  occ. eigenvalues --  -38.42833 -38.42772  -2.23507  -2.20785  -2.20762
  Beta  occ. eigenvalues --   -2.19383  -2.19255  -2.18620  -2.18613  -1.17172
  Beta  occ. eigenvalues --   -1.17161  -1.17129  -1.14518  -1.14485  -1.14465
  Beta  occ. eigenvalues --   -1.14448  -1.14433  -1.14389  -1.13064  -1.13035
  Beta  occ. eigenvalues --   -1.13018  -1.12943  -1.12917  -1.12889  -1.12350
  Beta  occ. eigenvalues --   -1.12315  -1.12297  -1.12271  -1.12269  -1.12168
  Beta  occ. eigenvalues --   -0.17634  -0.13365  -0.10858
  Beta virt. eigenvalues --   -0.08055  -0.07280  -0.05584  -0.03684  -0.02992
  Beta virt. eigenvalues --   -0.02781  -0.01991  -0.01860  -0.01642  -0.00980
  Beta virt. eigenvalues --   -0.00858  -0.00337   0.00154   0.00236   0.00501

 Mulliken charges and spin densities:
               1          2
     1  Na   0.546894  -0.144379
     2  Na   0.213477   0.058898
     3  Na   0.330375   0.031966
     4  Na  -0.578769   0.096762
     5  Na  -0.585376   0.241748
     6  Na   0.148268   0.309224
     7  Na  -0.074869   0.405781
 Sum of Mulliken charges =  -0.00000   1.00000

 Dipole moment (field-independent basis, Debye):
    X=             -2.8041    Y=              0.1592    Z=              0.5588  Tot=              2.8636
 Quadrupole moment (field-independent basis, Debye-Ang):
   XX=            -78.5819   YY=            -72.9238   ZZ=            -60.9179
   XY=              0.5747   XZ=              0.8368   YZ=             -5.2318

 Normal termination of Gaussian 16 at Thu Dec  7 09:33:08 2023.
