 Gaussian 16, Revision B.01,
 Gaussian 16:  ES64L-G16RevB.01 20-Dec-2017

 -------------------------
 #P B3LYP/6-311+g(d) force
 -------------------------

 -----
 DPGEN
 -----
 Symbolic Z-matrix:
 Charge =  0 Multiplicity = 2

                         Standard orientation:
 ---------------------------------------------------------------------
 Center     Atomic      Atomic             Coordinates (Angstroms)
 Number     Number       Type             X           Y           Z
 ---------------------------------------------------------------------
      1         11           0        4.205623   -0.987111    0.399741
      2         11           0        1.861361    1.272659   -1.787211
      3         11           0       -2.702558    0.371614    1.335617
      4         11           0       -1.488871    2.692533   -0.723963
      5         11           0        0.856933    0.785678    1.986081
      6         11           0        0.444710   -1.937235   -0.378256
      7         11           0       -3.177197   -2.198138   -0.832008
 ---------------------------------------------------------------------

 SCF Done:  E(UB3LYP) =  -1136.12164261     A.U. after   23 cycles

 The electronic state is 2-A.
 Alpha  occ. eigenvalues --  -38.45534 -38.44450 -38.44426 -38.44322 -38.44102
 Alpha  occ. eigenvalues --  -38.43625 -38.43224  -2.21273  -2.20266  -2.20204
 Alpha  occ. eigenvalues --   -2.20124  -2.19941  -2.19411  -2.19016  -1.14947
 Alpha  occ. eigenvalues --   -1.14943  -1.14890  -1.13970  -1.13917  -1.13914
 Alpha  occ. eigenvalues --   -1.13905  -1.13855  -1.13806  -1.13781  -1.13772
 Alpha  occ. eigenvalues --   -1.13721  -1.13634  -1.13609  -1.13559  -1.13090
 Alpha  occ. eigenvalues --   -1.13069  -1.13053  -1.12682  -1.12678  -1.12652
 Alpha  occ. eigenvalues --   -0.17345  -0.13447  -0.11583  -0.10855
 Alpha virt. eigenvalues --   -0.06940  -0.05419  -0.04905  -0.03276  -0.02845
 Alpha virt. eigenvalues --   -0.02639  -0.02288  -0.01414  -0.00832  -0.00276
 Alpha virt. eigenvalues --   -0.00103   0.00065   0.00170   0.00444   0.00645

  Beta  occ. eigenvalues --  -38.45528 -38.44417 -38.44377 -38.44252 -38.44088
  Beta  occ. eigenvalues --  -38.43625 -38.43216  -2.21264  -2.20191  -2.20132
  Beta  occ. eigenvalues --   -2.19995  -2.19915  -2.19411  -2.19002  -1.14942
  Beta  occ. eigenvalues --   -1.14927  -1.14886  -1.13913  -1.13888  -1.13864
  Beta  occ. eigenvalues --   -1.13815  -1.13776  -1.13757  -1.13714  -1.13688
  Beta  occ. eigenvalues --   -1.13626  -1.13615  -1.13589  -1.13538  -1.13093
  Beta  occ. eigenvalues --   -1.13057  -1.13050  -1.12672  -1.12667  -1.12643
  Beta  occ. eigenvalues --   -0.16694  -0.13320  -0.11286
  Beta virt. eigenvalues --   -0.07207  -0.06761  -0.05260  -0.04345  -0.02947
  Beta virt. eigenvalues --   -0.02551  -0.02299  -0.01624  -0.01316  -0.00484
  Beta virt. eigenvalues --   -0.00138  -0.00016   0.00115   0.00322   0.00559

 Mulliken charges and spin densities:
               1          2
     1  Na   0.640866   0.095630
     2  Na   0.042468   0.292134
     3  Na   0.111542   0.117760
     4  Na  -0.112503   0.050529
     5  Na  -0.144982   0.325869
     6  Na  -0.913661   0.217420
     7  Na   0.376271  -0.099342
 Sum of Mulliken charges =  -0.00000   1.00000

 Dipole moment (field-independent basis, Debye):
    X=              1.5505    Y=              0.0490    Z=              0.1661  Tot=              1.5601
 Quadrupole moment (field-independent basis, Debye-Ang):
   XX=            -48.8334   YY=            -74.6026   ZZ=            -71.1819
   XY=             -4.3201   XZ=              0.9959   YZ=             -0.2422

 Normal termination of Gaussian 16 at Sun Dec  3 13:31:58 2023.
