 Gaussian 16, Revision B.01,
 Gaussian 16:  ES64L-G16RevB.01 20-Dec-2017

 -------------------------
 #P B3LYP/6-311+g(d) force
 -------------------------

 -----
 DPGEN
 -----
 Symbolic Z-matrix:
 Charge =  0 Multiplicity = 2

                         Standard orientation:
 ---------------------------------------------------------------------
 Center     Atomic      Atomic             Coordinates (Angstroms)
 Number     Number       Type             X           Y           Z
 ---------------------------------------------------------------------
      1         11           0       -2.444198    1.802640   -0.984734
      2         11           0        0.477774   -0.186572   -1.580248
      3         11           0        3.360053    0.065936   -0.988195
      4         11           0       -2.247417   -1.937870   -0.666562
      5         11           0        1.133636   -1.998031    1.220476
      6         11           0        1.060686    2.167591    1.169196
      7         11           0       -1.340533    0.086307    1.830067
 ---------------------------------------------------------------------

 SCF Done:  E(UB3LYP) =  -1136.13076668     A.U. after   21 cycles

 The electronic state is 2-A.
 Alpha  occ. eigenvalues --  -38.44103 -38.43882 -38.43681 -38.43625 -38.43536
 Alpha  occ. eigenvalues --  -38.43478 -38.43427  -2.19956  -2.19697  -2.19637
 Alpha  occ. eigenvalues --   -2.19526  -2.19484  -2.19328  -2.19260  -1.13723
 Alpha  occ. eigenvalues --   -1.13580  -1.13570  -1.13382  -1.13361  -1.13357
 Alpha  occ. eigenvalues --   -1.13320  -1.13284  -1.13255  -1.13214  -1.13174
 Alpha  occ. eigenvalues --   -1.13159  -1.13151  -1.13113  -1.13083  -1.13010
 Alpha  occ. eigenvalues --   -1.12985  -1.12956  -1.12939  -1.12909  -1.12869
 Alpha  occ. eigenvalues --   -0.18688  -0.13257  -0.11935  -0.11453
 Alpha virt. eigenvalues --   -0.05433  -0.05072  -0.04449  -0.03326  -0.03049
 Alpha virt. eigenvalues --   -0.02934  -0.01552  -0.00838  -0.00653   0.00150
 Alpha virt. eigenvalues --    0.00338   0.00465   0.00598   0.00619   0.00822

  Beta  occ. eigenvalues --  -38.44084 -38.43862 -38.43619 -38.43591 -38.43486
  Beta  occ. eigenvalues --  -38.43470 -38.43400  -2.19922  -2.19661  -2.19527
  Beta  occ. eigenvalues --   -2.19436  -2.19425  -2.19315  -2.19214  -1.13686
  Beta  occ. eigenvalues --   -1.13557  -1.13550  -1.13349  -1.13337  -1.13290
  Beta  occ. eigenvalues --   -1.13276  -1.13206  -1.13180  -1.13156  -1.13111
  Beta  occ. eigenvalues --   -1.13103  -1.13087  -1.13059  -1.13044  -1.12989
  Beta  occ. eigenvalues --   -1.12977  -1.12922  -1.12913  -1.12867  -1.12842
  Beta  occ. eigenvalues --   -0.17908  -0.12984  -0.11242
  Beta virt. eigenvalues --   -0.07927  -0.05256  -0.04947  -0.04013  -0.03016
  Beta virt. eigenvalues --   -0.02463  -0.01981  -0.01431  -0.00783  -0.00357
  Beta virt. eigenvalues --    0.00236   0.00374   0.00451   0.00702   0.00745

 Mulliken charges and spin densities:
               1          2
     1  Na   0.008711   0.038897
     2  Na  -0.476613   0.421067
     3  Na   0.373488   0.018207
     4  Na   0.254534  -0.001821
     5  Na  -0.152355   0.078895
     6  Na  -0.311573   0.010247
     7  Na   0.303808   0.434508
 Sum of Mulliken charges =  -0.00000   1.00000

 Dipole moment (field-independent basis, Debye):
    X=              0.1269    Y=             -0.0280    Z=             -0.1213  Tot=              0.1778
 Quadrupole moment (field-independent basis, Debye-Ang):
   XX=            -55.6355   YY=            -71.5303   ZZ=            -66.7344
   XY=              0.1728   XZ=              2.0563   YZ=             -1.2451

 Normal termination of Gaussian 16 at Wed Nov 29 16:13:07 2023.
