 Gaussian 16, Revision B.01,
 Gaussian 16:  ES64L-G16RevB.01 20-Dec-2017

 -------------------------
 #P B3LYP/6-311+g(d) force
 -------------------------

 -----
 DPGEN
 -----
 Symbolic Z-matrix:
 Charge =  0 Multiplicity = 2

                         Standard orientation:
 ---------------------------------------------------------------------
 Center     Atomic      Atomic             Coordinates (Angstroms)
 Number     Number       Type             X           Y           Z
 ---------------------------------------------------------------------
      1         11           0       -0.202611   -0.241281   -1.799881
      2         11           0       -3.441697   -0.831129   -0.161287
      3         11           0        0.605608   -2.641071    0.501972
      4         11           0       -0.225521    0.270219    2.013487
      5         11           0       -2.062406    2.102026   -0.165048
      6         11           0        2.515957    2.319295    0.054458
      7         11           0        2.810670   -0.978059   -0.443701
 ---------------------------------------------------------------------

 SCF Done:  E(UB3LYP) =  -1136.12663560     A.U. after   21 cycles

 The electronic state is 2-A.
 Alpha  occ. eigenvalues --  -38.45043 -38.44057 -38.43989 -38.43951 -38.43812
 Alpha  occ. eigenvalues --  -38.43479 -38.42843  -2.20841  -2.19915  -2.19892
 Alpha  occ. eigenvalues --   -2.19866  -2.19694  -2.19259  -2.18755  -1.14509
 Alpha  occ. eigenvalues --   -1.14505  -1.14482  -1.13622  -1.13605  -1.13594
 Alpha  occ. eigenvalues --   -1.13567  -1.13546  -1.13536  -1.13521  -1.13495
 Alpha  occ. eigenvalues --   -1.13482  -1.13361  -1.13332  -1.13300  -1.12936
 Alpha  occ. eigenvalues --   -1.12925  -1.12898  -1.12441  -1.12401  -1.12385
 Alpha  occ. eigenvalues --   -0.18470  -0.13724  -0.11610  -0.10969
 Alpha virt. eigenvalues --   -0.06322  -0.05440  -0.04090  -0.03567  -0.02791
 Alpha virt. eigenvalues --   -0.02606  -0.02069  -0.01143  -0.00394  -0.00194
 Alpha virt. eigenvalues --   -0.00041   0.00300   0.00656   0.00729   0.00794

  Beta  occ. eigenvalues --  -38.45039 -38.44049 -38.43944 -38.43926 -38.43715
  Beta  occ. eigenvalues --  -38.43484 -38.42830  -2.20837  -2.19904  -2.19854
  Beta  occ. eigenvalues --   -2.19776  -2.19516  -2.19270  -2.18737  -1.14509
  Beta  occ. eigenvalues --   -1.14486  -1.14477  -1.13604  -1.13588  -1.13563
  Beta  occ. eigenvalues --   -1.13528  -1.13523  -1.13487  -1.13484  -1.13444
  Beta  occ. eigenvalues --   -1.13411  -1.13244  -1.13203  -1.13174  -1.12946
  Beta  occ. eigenvalues --   -1.12921  -1.12905  -1.12433  -1.12386  -1.12345
  Beta  occ. eigenvalues --   -0.17719  -0.13503  -0.11421
  Beta virt. eigenvalues --   -0.07050  -0.06224  -0.05402  -0.03957  -0.02871
  Beta virt. eigenvalues --   -0.02064  -0.01889  -0.01677  -0.01067  -0.00413
  Beta virt. eigenvalues --   -0.00173   0.00070   0.00331   0.00743   0.00800

 Mulliken charges and spin densities:
               1          2
     1  Na   0.007246   0.450385
     2  Na   0.141099  -0.035300
     3  Na  -0.044740   0.004926
     4  Na  -0.191075   0.682779
     5  Na  -0.008545  -0.055000
     6  Na  -0.169903  -0.104200
     7  Na   0.265918   0.056410
 Sum of Mulliken charges =  -0.00000   1.00000

 Dipole moment (field-independent basis, Debye):
    X=             -1.1112    Y=             -0.0343    Z=             -0.0916  Tot=              1.1155
 Quadrupole moment (field-independent basis, Debye-Ang):
   XX=            -53.7136   YY=            -67.9075   ZZ=            -73.3394
   XY=              0.7534   XZ=             -0.3788   YZ=             -0.7726

 Normal termination of Gaussian 16 at Tue Dec  5 19:14:21 2023.
