 Gaussian 16, Revision B.01,
 Gaussian 16:  ES64L-G16RevB.01 20-Dec-2017

 -------------------------
 #P B3LYP/6-311+g(d) force
 -------------------------

 -----
 DPGEN
 -----
 Symbolic Z-matrix:
 Charge =  0 Multiplicity = 2

                         Standard orientation:
 ---------------------------------------------------------------------
 Center     Atomic      Atomic             Coordinates (Angstroms)
 Number     Number       Type             X           Y           Z
 ---------------------------------------------------------------------
      1         11           0       -0.086544   -2.934420    0.278251
      2         11           0       -1.342616    2.824576    0.076436
      3         11           0        1.770090    1.872363   -0.244526
      4         11           0       -3.043579   -0.649963   -0.109761
      5         11           0       -0.317937   -0.512632   -1.804514
      6         11           0       -0.094452    0.015047    1.859527
      7         11           0        3.115038   -0.614971   -0.055412
 ---------------------------------------------------------------------

 SCF Done:  E(UB3LYP) =  -1136.13303398     A.U. after   19 cycles

 The electronic state is 2-A.
 Alpha  occ. eigenvalues --  -38.44326 -38.44006 -38.43729 -38.43471 -38.43405
 Alpha  occ. eigenvalues --  -38.43340 -38.43253  -2.20157  -2.19875  -2.19586
 Alpha  occ. eigenvalues --   -2.19354  -2.19300  -2.19283  -2.19214  -1.13858
 Alpha  occ. eigenvalues --   -1.13819  -1.13775  -1.13677  -1.13510  -1.13485
 Alpha  occ. eigenvalues --   -1.13294  -1.13270  -1.13197  -1.13031  -1.13005
 Alpha  occ. eigenvalues --   -1.12983  -1.12976  -1.12973  -1.12957  -1.12938
 Alpha  occ. eigenvalues --   -1.12924  -1.12887  -1.12860  -1.12845  -1.12824
 Alpha  occ. eigenvalues --   -0.18863  -0.13144  -0.12514  -0.10788
 Alpha virt. eigenvalues --   -0.05852  -0.05015  -0.04568  -0.03286  -0.02895
 Alpha virt. eigenvalues --   -0.02516  -0.01566  -0.01204  -0.00326  -0.00078
 Alpha virt. eigenvalues --   -0.00006   0.00362   0.00784   0.00912   0.00954

  Beta  occ. eigenvalues --  -38.44319 -38.44005 -38.43719 -38.43470 -38.43331
  Beta  occ. eigenvalues --  -38.43255 -38.43244  -2.20148  -2.19875  -2.19570
  Beta  occ. eigenvalues --   -2.19302  -2.19219  -2.19201  -2.19128  -1.13841
  Beta  occ. eigenvalues --   -1.13797  -1.13773  -1.13680  -1.13492  -1.13486
  Beta  occ. eigenvalues --   -1.13281  -1.13227  -1.13190  -1.13007  -1.12955
  Beta  occ. eigenvalues --   -1.12943  -1.12933  -1.12897  -1.12881  -1.12875
  Beta  occ. eigenvalues --   -1.12843  -1.12828  -1.12814  -1.12781  -1.12774
  Beta  occ. eigenvalues --   -0.18125  -0.12887  -0.12285
  Beta virt. eigenvalues --   -0.06874  -0.05825  -0.04954  -0.04569  -0.02457
  Beta virt. eigenvalues --   -0.02151  -0.01490  -0.01460  -0.01130  -0.00391
  Beta virt. eigenvalues --   -0.00099   0.00122   0.00386   0.00798   0.00946

 Mulliken charges and spin densities:
               1          2
     1  Na   0.177600  -0.125410
     2  Na   0.058740  -0.065931
     3  Na   0.080244   0.037370
     4  Na   0.179025  -0.127969
     5  Na  -0.262948   0.644802
     6  Na  -0.339135   0.717804
     7  Na   0.106473  -0.080666
 Sum of Mulliken charges =  -0.00000   1.00000

 Dipole moment (field-independent basis, Debye):
    X=             -0.4586    Y=             -0.4132    Z=              0.0532  Tot=              0.6196
 Quadrupole moment (field-independent basis, Debye-Ang):
   XX=            -57.4033   YY=            -62.2450   ZZ=            -74.2222
   XY=             -1.5957   XZ=             -0.3592   YZ=             -1.0062

 Normal termination of Gaussian 16 at Tue Dec  5 23:06:58 2023.
