 Gaussian 16, Revision B.01,
 Gaussian 16:  ES64L-G16RevB.01 20-Dec-2017

 -------------------------
 #P B3LYP/6-311+g(d) force
 -------------------------

 -----
 DPGEN
 -----
 Symbolic Z-matrix:
 Charge =  0 Multiplicity = 2

                         Standard orientation:
 ---------------------------------------------------------------------
 Center     Atomic      Atomic             Coordinates (Angstroms)
 Number     Number       Type             X           Y           Z
 ---------------------------------------------------------------------
      1         11           0       -0.921820    2.915296   -0.424020
      2         11           0       -3.321242   -0.105302   -0.019671
      3         11           0       -1.198358   -2.611652    0.046823
      4         11           0        0.012686    0.220118    2.059929
      5         11           0        2.436947   -1.952628   -0.278208
      6         11           0        0.328340    0.052489   -1.687391
      7         11           0        2.663447    1.481679    0.302537
 ---------------------------------------------------------------------

 SCF Done:  E(UB3LYP) =  -1136.13762307     A.U. after   19 cycles

 The electronic state is 2-A.
 Alpha  occ. eigenvalues --  -38.44262 -38.44018 -38.43756 -38.43635 -38.43479
 Alpha  occ. eigenvalues --  -38.43285 -38.43272  -2.20060  -2.19866  -2.19629
 Alpha  occ. eigenvalues --   -2.19480  -2.19290  -2.19230  -2.19133  -1.13735
 Alpha  occ. eigenvalues --   -1.13727  -1.13698  -1.13551  -1.13541  -1.13492
 Alpha  occ. eigenvalues --   -1.13295  -1.13254  -1.13248  -1.13184  -1.13131
 Alpha  occ. eigenvalues --   -1.13115  -1.12992  -1.12949  -1.12920  -1.12906
 Alpha  occ. eigenvalues --   -1.12867  -1.12843  -1.12803  -1.12803  -1.12763
 Alpha  occ. eigenvalues --   -0.18435  -0.13026  -0.12301  -0.10776
 Alpha virt. eigenvalues --   -0.05797  -0.05216  -0.04640  -0.03229  -0.02881
 Alpha virt. eigenvalues --   -0.02594  -0.01595  -0.01189  -0.00500  -0.00337
 Alpha virt. eigenvalues --   -0.00024   0.00352   0.00771   0.00841   0.00893

  Beta  occ. eigenvalues --  -38.44264 -38.44008 -38.43663 -38.43629 -38.43469
  Beta  occ. eigenvalues --  -38.43282 -38.43207  -2.20064  -2.19851  -2.19473
  Beta  occ. eigenvalues --   -2.19458  -2.19275  -2.19130  -2.19111  -1.13739
  Beta  occ. eigenvalues --   -1.13718  -1.13702  -1.13540  -1.13500  -1.13487
  Beta  occ. eigenvalues --   -1.13184  -1.13166  -1.13137  -1.13123  -1.13116
  Beta  occ. eigenvalues --   -1.13108  -1.12967  -1.12929  -1.12911  -1.12836
  Beta  occ. eigenvalues --   -1.12812  -1.12786  -1.12773  -1.12761  -1.12748
  Beta  occ. eigenvalues --   -0.17713  -0.12824  -0.12039
  Beta virt. eigenvalues --   -0.06874  -0.05741  -0.05201  -0.04584  -0.02467
  Beta virt. eigenvalues --   -0.02130  -0.01563  -0.01497  -0.01105  -0.00544
  Beta virt. eigenvalues --   -0.00376   0.00116   0.00382   0.00836   0.00840

 Mulliken charges and spin densities:
               1          2
     1  Na   0.004949  -0.085828
     2  Na  -0.029720  -0.082827
     3  Na   0.034665  -0.061519
     4  Na  -0.351033   0.703013
     5  Na   0.217440  -0.034460
     6  Na  -0.126866   0.554852
     7  Na   0.250565   0.006768
 Sum of Mulliken charges =  -0.00000   1.00000

 Dipole moment (field-independent basis, Debye):
    X=              0.0021    Y=              0.1448    Z=              0.1502  Tot=              0.2086
 Quadrupole moment (field-independent basis, Debye-Ang):
   XX=            -55.6248   YY=            -63.5363   ZZ=            -74.4100
   XY=             -0.5642   XZ=              0.5510   YZ=             -0.2220

 Normal termination of Gaussian 16 at Tue Dec  5 14:19:15 2023.
