 Gaussian 16, Revision B.01,
 Gaussian 16:  ES64L-G16RevB.01 20-Dec-2017

 -------------------------
 #P B3LYP/6-311+g(d) force
 -------------------------

 -----
 DPGEN
 -----
 Symbolic Z-matrix:
 Charge =  0 Multiplicity = 2

                         Standard orientation:
 ---------------------------------------------------------------------
 Center     Atomic      Atomic             Coordinates (Angstroms)
 Number     Number       Type             X           Y           Z
 ---------------------------------------------------------------------
      1         11           0       -1.552471   -1.430827    1.086812
      2         11           0        1.068380    0.383934    2.160984
      3         11           0        3.031842   -1.718679   -0.139774
      4         11           0        2.037534    1.908148   -1.227558
      5         11           0       -1.030049    2.144572    0.482529
      6         11           0        0.112453   -1.010679   -1.551857
      7         11           0       -3.667690   -0.276470   -0.811136
 ---------------------------------------------------------------------

 SCF Done:  E(UB3LYP) =  -1136.12799287     A.U. after   21 cycles

 The electronic state is 2-A.
 Alpha  occ. eigenvalues --  -38.44595 -38.44119 -38.43938 -38.43776 -38.43742
 Alpha  occ. eigenvalues --  -38.43696 -38.42573  -2.20421  -2.19949  -2.19876
 Alpha  occ. eigenvalues --   -2.19680  -2.19594  -2.19545  -2.18447  -1.14122
 Alpha  occ. eigenvalues --   -1.14061  -1.14057  -1.13638  -1.13603  -1.13586
 Alpha  occ. eigenvalues --   -1.13559  -1.13529  -1.13491  -1.13365  -1.13303
 Alpha  occ. eigenvalues --   -1.13296  -1.13294  -1.13255  -1.13243  -1.13207
 Alpha  occ. eigenvalues --   -1.13195  -1.13148  -1.12149  -1.12122  -1.12059
 Alpha  occ. eigenvalues --   -0.18560  -0.13517  -0.11678  -0.11297
 Alpha virt. eigenvalues --   -0.06250  -0.05049  -0.04226  -0.03175  -0.03083
 Alpha virt. eigenvalues --   -0.02803  -0.02034  -0.00906  -0.00679   0.00061
 Alpha virt. eigenvalues --    0.00224   0.00324   0.00432   0.00753   0.00848

  Beta  occ. eigenvalues --  -38.44584 -38.44071 -38.43906 -38.43743 -38.43699
  Beta  occ. eigenvalues --  -38.43668 -38.42569  -2.20401  -2.19859  -2.19821
  Beta  occ. eigenvalues --   -2.19551  -2.19546  -2.19539  -2.18443  -1.14109
  Beta  occ. eigenvalues --   -1.14045  -1.14041  -1.13570  -1.13566  -1.13529
  Beta  occ. eigenvalues --   -1.13497  -1.13461  -1.13449  -1.13270  -1.13261
  Beta  occ. eigenvalues --   -1.13237  -1.13222  -1.13205  -1.13193  -1.13192
  Beta  occ. eigenvalues --   -1.13182  -1.13128  -1.12144  -1.12095  -1.12060
  Beta  occ. eigenvalues --   -0.17782  -0.13298  -0.11135
  Beta virt. eigenvalues --   -0.07694  -0.06048  -0.04818  -0.03796  -0.03048
  Beta virt. eigenvalues --   -0.02370  -0.01996  -0.01902  -0.00705  -0.00373
  Beta virt. eigenvalues --    0.00101   0.00261   0.00407   0.00574   0.00797

 Mulliken charges and spin densities:
               1          2
     1  Na  -0.027751   0.011867
     2  Na   0.382325   0.380148
     3  Na  -0.066006  -0.127198
     4  Na  -0.129856   0.042664
     5  Na  -0.421780   0.186515
     6  Na  -0.056294   0.496178
     7  Na   0.319362   0.009827
 Sum of Mulliken charges =  -0.00000   1.00000

 Dipole moment (field-independent basis, Debye):
    X=             -0.2356    Y=              0.1279    Z=             -0.2321  Tot=              0.3546
 Quadrupole moment (field-independent basis, Debye-Ang):
   XX=            -51.7257   YY=            -74.6616   ZZ=            -67.7467
   XY=             -0.2152   XZ=              2.4526   YZ=             -4.5928

 Normal termination of Gaussian 16 at Sun Dec  3 13:43:04 2023.
