 Gaussian 16, Revision B.01,
 Gaussian 16:  ES64L-G16RevB.01 20-Dec-2017

 -------------------------
 #P B3LYP/6-311+g(d) force
 -------------------------

 -----
 DPGEN
 -----
 Symbolic Z-matrix:
 Charge =  0 Multiplicity = 2

                         Standard orientation:
 ---------------------------------------------------------------------
 Center     Atomic      Atomic             Coordinates (Angstroms)
 Number     Number       Type             X           Y           Z
 ---------------------------------------------------------------------
      1         11           0        2.449727    2.097845   -0.018011
      2         11           0       -0.897991   -0.255093    2.190508
      3         11           0        4.972199   -0.370217   -0.131177
      4         11           0       -4.322252    0.934616    0.143763
      5         11           0       -1.338313    1.146668   -1.209631
      6         11           0        1.744236   -1.659099   -0.201677
      7         11           0       -2.607607   -1.894719   -0.773775
 ---------------------------------------------------------------------

 SCF Done:  E(UB3LYP) =  -1136.10890750     A.U. after   28 cycles

 The electronic state is 2-A.
 Alpha  occ. eigenvalues --  -38.45096 -38.44740 -38.44644 -38.44297 -38.43748
 Alpha  occ. eigenvalues --  -38.43623 -38.43562  -2.20934  -2.20517  -2.20507
 Alpha  occ. eigenvalues --   -2.20074  -2.19548  -2.19436  -2.19397  -1.14652
 Alpha  occ. eigenvalues --   -1.14587  -1.14509  -1.14219  -1.14190  -1.14188
 Alpha  occ. eigenvalues --   -1.14162  -1.14137  -1.14109  -1.13766  -1.13735
 Alpha  occ. eigenvalues --   -1.13697  -1.13264  -1.13225  -1.13155  -1.13091
 Alpha  occ. eigenvalues --   -1.13081  -1.13067  -1.13057  -1.13050  -1.13035
 Alpha  occ. eigenvalues --   -0.17496  -0.14339  -0.10885  -0.10377
 Alpha virt. eigenvalues --   -0.07509  -0.05975  -0.04487  -0.03228  -0.02916
 Alpha virt. eigenvalues --   -0.02208  -0.02114  -0.01738  -0.01313  -0.00765
 Alpha virt. eigenvalues --   -0.00644   0.00035   0.00261   0.00452   0.00552

  Beta  occ. eigenvalues --  -38.45053 -38.44732 -38.44612 -38.44274 -38.43731
  Beta  occ. eigenvalues --  -38.43575 -38.43557  -2.20854  -2.20505  -2.20451
  Beta  occ. eigenvalues --   -2.20033  -2.19518  -2.19388  -2.19347  -1.14598
  Beta  occ. eigenvalues --   -1.14536  -1.14446  -1.14189  -1.14175  -1.14162
  Beta  occ. eigenvalues --   -1.14134  -1.14121  -1.14049  -1.13741  -1.13710
  Beta  occ. eigenvalues --   -1.13645  -1.13244  -1.13200  -1.13118  -1.13062
  Beta  occ. eigenvalues --   -1.13046  -1.13031  -1.13025  -1.13018  -1.12999
  Beta  occ. eigenvalues --   -0.16925  -0.13890  -0.10277
  Beta virt. eigenvalues --   -0.07443  -0.07140  -0.05482  -0.04109  -0.03110
  Beta virt. eigenvalues --   -0.02641  -0.02046  -0.01523  -0.01356  -0.00929
  Beta virt. eigenvalues --   -0.00586  -0.00492   0.00124   0.00321   0.00529

 Mulliken charges and spin densities:
               1          2
     1  Na  -0.135627   0.076742
     2  Na  -0.080323   0.043370
     3  Na   0.392717   0.134151
     4  Na   0.452614   0.080019
     5  Na  -0.423353   0.224369
     6  Na  -0.415887   0.147809
     7  Na   0.209858   0.293539
 Sum of Mulliken charges =  -0.00000   1.00000

 Dipole moment (field-independent basis, Debye):
    X=             -0.7495    Y=             -0.4176    Z=              0.7157  Tot=              1.1173
 Quadrupole moment (field-independent basis, Debye-Ang):
   XX=            -68.1643   YY=            -72.3665   ZZ=            -64.6091
   XY=              3.1528   XZ=             -3.8894   YZ=              7.0951

 Normal termination of Gaussian 16 at Thu Dec  7 07:49:46 2023.
