 Gaussian 16, Revision B.01,
 Gaussian 16:  ES64L-G16RevB.01 20-Dec-2017

 -------------------------
 #P B3LYP/6-311+g(d) force
 -------------------------

 -----
 DPGEN
 -----
 Symbolic Z-matrix:
 Charge =  0 Multiplicity = 2

                         Standard orientation:
 ---------------------------------------------------------------------
 Center     Atomic      Atomic             Coordinates (Angstroms)
 Number     Number       Type             X           Y           Z
 ---------------------------------------------------------------------
      1         11           0        0.499555   -1.368378    1.056425
      2         11           0       -1.602009    1.201270   -1.234094
      3         11           0        0.417521   -1.037641   -1.742814
      4         11           0        2.830946   -0.074905    0.116115
      5         11           0        0.768722    1.688910   -0.205402
      6         11           0       -2.051717   -1.347539    0.179574
      7         11           0       -0.863019    0.938283    1.830196
 ---------------------------------------------------------------------

 SCF Done:  E(UB3LYP) =  -1136.07477504     A.U. after   22 cycles

 The electronic state is 2-A.
 Alpha  occ. eigenvalues --  -38.44541 -38.44271 -38.44158 -38.43932 -38.43931
 Alpha  occ. eigenvalues --  -38.43480 -38.43356  -2.20688  -2.20407  -2.20233
 Alpha  occ. eigenvalues --   -2.20178  -2.20065  -2.19612  -2.19586  -1.14582
 Alpha  occ. eigenvalues --   -1.14434  -1.14343  -1.14254  -1.14176  -1.14121
 Alpha  occ. eigenvalues --   -1.14064  -1.13990  -1.13959  -1.13823  -1.13773
 Alpha  occ. eigenvalues --   -1.13727  -1.13689  -1.13623  -1.13585  -1.13223
 Alpha  occ. eigenvalues --   -1.13220  -1.13208  -1.13192  -1.13144  -1.13115
 Alpha  occ. eigenvalues --   -0.21728  -0.13788  -0.13384  -0.12123
 Alpha virt. eigenvalues --   -0.05216  -0.04125  -0.04079  -0.03669  -0.03334
 Alpha virt. eigenvalues --   -0.03184  -0.01050  -0.00450  -0.00211   0.00312
 Alpha virt. eigenvalues --    0.00828   0.00969   0.01026   0.01141   0.01183

  Beta  occ. eigenvalues --  -38.44466 -38.44219 -38.44156 -38.43878 -38.43866
  Beta  occ. eigenvalues --  -38.43467 -38.43334  -2.20555  -2.20317  -2.20193
  Beta  occ. eigenvalues --   -2.20127  -2.19948  -2.19581  -2.19568  -1.14499
  Beta  occ. eigenvalues --   -1.14338  -1.14264  -1.14167  -1.14139  -1.14066
  Beta  occ. eigenvalues --   -1.14001  -1.13952  -1.13892  -1.13775  -1.13726
  Beta  occ. eigenvalues --   -1.13668  -1.13613  -1.13550  -1.13495  -1.13212
  Beta  occ. eigenvalues --   -1.13194  -1.13157  -1.13126  -1.13109  -1.13102
  Beta  occ. eigenvalues --   -0.20794  -0.13524  -0.11941
  Beta virt. eigenvalues --   -0.08821  -0.05143  -0.03746  -0.03563  -0.03269
  Beta virt. eigenvalues --   -0.02618  -0.02276  -0.00997  -0.00217  -0.00152
  Beta virt. eigenvalues --    0.00349   0.00870   0.01024   0.01097   0.01196

 Mulliken charges and spin densities:
               1          2
     1  Na  -0.477003   0.130911
     2  Na   0.215780   0.168994
     3  Na  -0.265709   0.446704
     4  Na   0.613239  -0.072515
     5  Na  -0.381222   0.138627
     6  Na   0.160530  -0.118080
     7  Na   0.134384   0.305361
 Sum of Mulliken charges =  -0.00000   1.00000

 Dipole moment (field-independent basis, Debye):
    X=              0.0076    Y=             -0.0770    Z=             -0.1395  Tot=              0.1595
 Quadrupole moment (field-independent basis, Debye-Ang):
   XX=            -60.1686   YY=            -75.8914   ZZ=            -62.1158
   XY=             -0.0764   XZ=              0.4580   YZ=             -0.8167

 Normal termination of Gaussian 16 at Fri Dec  8 06:01:05 2023.
