 Gaussian 16, Revision B.01,
 Gaussian 16:  ES64L-G16RevB.01 20-Dec-2017

 -------------------------
 #P B3LYP/6-311+g(d) force
 -------------------------

 -----
 DPGEN
 -----
 Symbolic Z-matrix:
 Charge =  0 Multiplicity = 2

                         Standard orientation:
 ---------------------------------------------------------------------
 Center     Atomic      Atomic             Coordinates (Angstroms)
 Number     Number       Type             X           Y           Z
 ---------------------------------------------------------------------
      1         11           0       -2.704296   -1.122054   -0.024970
      2         11           0       -2.764288    2.305567   -0.082324
      3         11           0       -0.135416    0.540971   -1.214405
      4         11           0        3.150326   -0.053861   -0.119071
      5         11           0        0.663097   -2.882760   -0.862317
      6         11           0       -0.168045   -1.466733    1.891930
      7         11           0        1.958622    2.678869    0.411156
 ---------------------------------------------------------------------

 SCF Done:  E(UB3LYP) =  -1136.12915722     A.U. after   19 cycles

 The electronic state is 2-A.
 Alpha  occ. eigenvalues --  -38.44206 -38.44144 -38.44142 -38.43958 -38.43430
 Alpha  occ. eigenvalues --  -38.43325 -38.43026  -2.20060  -2.20026  -2.19940
 Alpha  occ. eigenvalues --   -2.19801  -2.19292  -2.19229  -2.18996  -1.13791
 Alpha  occ. eigenvalues --   -1.13734  -1.13722  -1.13707  -1.13699  -1.13652
 Alpha  occ. eigenvalues --   -1.13606  -1.13596  -1.13567  -1.13452  -1.13442
 Alpha  occ. eigenvalues --   -1.13429  -1.12997  -1.12954  -1.12929  -1.12888
 Alpha  occ. eigenvalues --   -1.12852  -1.12823  -1.12695  -1.12656  -1.12615
 Alpha  occ. eigenvalues --   -0.18232  -0.13455  -0.12600  -0.10050
 Alpha virt. eigenvalues --   -0.05863  -0.05560  -0.04989  -0.03136  -0.02828
 Alpha virt. eigenvalues --   -0.01886  -0.01631  -0.01416  -0.00831  -0.00562
 Alpha virt. eigenvalues --   -0.00009   0.00323   0.00737   0.00742   0.00827

  Beta  occ. eigenvalues --  -38.44201 -38.44143 -38.44131 -38.43948 -38.43400
  Beta  occ. eigenvalues --  -38.43252 -38.42985  -2.20053  -2.20008  -2.19943
  Beta  occ. eigenvalues --   -2.19781  -2.19240  -2.19093  -2.18925  -1.13784
  Beta  occ. eigenvalues --   -1.13725  -1.13704  -1.13688  -1.13660  -1.13645
  Beta  occ. eigenvalues --   -1.13604  -1.13594  -1.13568  -1.13439  -1.13423
  Beta  occ. eigenvalues --   -1.13416  -1.12953  -1.12908  -1.12883  -1.12797
  Beta  occ. eigenvalues --   -1.12754  -1.12738  -1.12642  -1.12600  -1.12558
  Beta  occ. eigenvalues --   -0.17614  -0.13195  -0.12379
  Beta virt. eigenvalues --   -0.06317  -0.05743  -0.05485  -0.04819  -0.02472
  Beta virt. eigenvalues --   -0.02247  -0.01596  -0.01399  -0.00930  -0.00778
  Beta virt. eigenvalues --   -0.00557   0.00199   0.00400   0.00759   0.00828

 Mulliken charges and spin densities:
               1          2
     1  Na   0.351579   0.039770
     2  Na  -0.183107  -0.098571
     3  Na   0.463005   0.405991
     4  Na   0.228361   0.073816
     5  Na   0.094334   0.090647
     6  Na  -0.574590   0.529745
     7  Na  -0.379582  -0.041398
 Sum of Mulliken charges =  -0.00000   1.00000

 Dipole moment (field-independent basis, Debye):
    X=             -0.0728    Y=              0.3565    Z=              0.1064  Tot=              0.3791
 Quadrupole moment (field-independent basis, Debye-Ang):
   XX=            -57.4046   YY=            -59.9165   ZZ=            -76.3639
   XY=             -2.2289   XZ=              0.5190   YZ=              3.7217

 Normal termination of Gaussian 16 at Wed Nov 29 03:30:22 2023.
