 Gaussian 16, Revision B.01,
 Gaussian 16:  ES64L-G16RevB.01 20-Dec-2017

 -------------------------
 #P B3LYP/6-311+g(d) force
 -------------------------

 -----
 DPGEN
 -----
 Symbolic Z-matrix:
 Charge =  0 Multiplicity = 2

                         Standard orientation:
 ---------------------------------------------------------------------
 Center     Atomic      Atomic             Coordinates (Angstroms)
 Number     Number       Type             X           Y           Z
 ---------------------------------------------------------------------
      1         11           0        2.459571   -3.089894   -0.677602
      2         11           0        2.201285    3.345474    0.365625
      3         11           0       -0.845090   -2.983987   -0.515056
      4         11           0       -3.537656    1.632482   -0.201817
      5         11           0       -0.114516    2.844101   -0.966792
      6         11           0        3.688413   -0.387166    0.966665
      7         11           0       -3.852007   -1.361010    1.028979
 ---------------------------------------------------------------------

 SCF Done:  E(UB3LYP) =  -1136.10408747     A.U. after   23 cycles

 The electronic state is 2-A.
 Alpha  occ. eigenvalues --  -38.45055 -38.44921 -38.44920 -38.44459 -38.44157
 Alpha  occ. eigenvalues --  -38.44033 -38.43944  -2.20835  -2.20771  -2.20712
 Alpha  occ. eigenvalues --   -2.20320  -2.19949  -2.19831  -2.19748  -1.14674
 Alpha  occ. eigenvalues --   -1.14517  -1.14504  -1.14488  -1.14396  -1.14377
 Alpha  occ. eigenvalues --   -1.14373  -1.14362  -1.14330  -1.13937  -1.13930
 Alpha  occ. eigenvalues --   -1.13921  -1.13632  -1.13625  -1.13622  -1.13480
 Alpha  occ. eigenvalues --   -1.13460  -1.13448  -1.13406  -1.13392  -1.13360
 Alpha  occ. eigenvalues --   -0.15830  -0.13842  -0.13640  -0.10427
 Alpha virt. eigenvalues --   -0.07732  -0.04897  -0.04321  -0.03812  -0.03491
 Alpha virt. eigenvalues --   -0.02183  -0.01938  -0.01746  -0.01309  -0.01033
 Alpha virt. eigenvalues --   -0.00783   0.00052   0.00185   0.00302   0.00724

  Beta  occ. eigenvalues --  -38.45051 -38.44911 -38.44890 -38.44435 -38.44164
  Beta  occ. eigenvalues --  -38.43943 -38.43873  -2.20831  -2.20758  -2.20656
  Beta  occ. eigenvalues --   -2.20278  -2.19970  -2.19663  -2.19616  -1.14648
  Beta  occ. eigenvalues --   -1.14506  -1.14503  -1.14471  -1.14391  -1.14361
  Beta  occ. eigenvalues --   -1.14335  -1.14324  -1.14290  -1.13910  -1.13906
  Beta  occ. eigenvalues --   -1.13886  -1.13647  -1.13645  -1.13586  -1.13366
  Beta  occ. eigenvalues --   -1.13351  -1.13339  -1.13316  -1.13305  -1.13275
  Beta  occ. eigenvalues --   -0.15401  -0.13254  -0.12964
  Beta virt. eigenvalues --   -0.07778  -0.07146  -0.04510  -0.03868  -0.03675
  Beta virt. eigenvalues --   -0.03076  -0.01991  -0.01739  -0.01590  -0.01186
  Beta virt. eigenvalues --   -0.00693  -0.00463   0.00104   0.00336   0.00470

 Mulliken charges and spin densities:
               1          2
     1  Na   0.389509  -0.039756
     2  Na   1.072979  -0.004233
     3  Na  -0.522609   0.306124
     4  Na   0.011350   0.147661
     5  Na  -1.027813   0.111851
     6  Na  -0.419557   0.448799
     7  Na   0.496141   0.029554
 Sum of Mulliken charges =  -0.00000   1.00000

 Dipole moment (field-independent basis, Debye):
    X=             -0.9195    Y=              0.6592    Z=              0.2635  Tot=              1.1617
 Quadrupole moment (field-independent basis, Debye-Ang):
   XX=            -64.8582   YY=            -67.3805   ZZ=            -69.6865
   XY=              3.3216   XZ=             -0.6711   YZ=             -0.1304

 Normal termination of Gaussian 16 at Mon Dec  4 02:35:14 2023.
