 Gaussian 16, Revision B.01,
 Gaussian 16:  ES64L-G16RevB.01 20-Dec-2017

 -------------------------
 #P B3LYP/6-311+g(d) force
 -------------------------

 -----
 DPGEN
 -----
 Symbolic Z-matrix:
 Charge =  0 Multiplicity = 2

                         Standard orientation:
 ---------------------------------------------------------------------
 Center     Atomic      Atomic             Coordinates (Angstroms)
 Number     Number       Type             X           Y           Z
 ---------------------------------------------------------------------
      1         11           0        2.092806    2.142719   -0.515341
      2         11           0        2.679090   -1.169176    0.559374
      3         11           0       -0.346238   -2.747816   -0.607830
      4         11           0        0.017723    0.197366   -2.016216
      5         11           0       -1.436940    2.479182    0.591695
      6         11           0       -0.107963   -0.487241    2.156772
      7         11           0       -2.898477   -0.415035   -0.168453
 ---------------------------------------------------------------------

 SCF Done:  E(UB3LYP) =  -1136.13821997     A.U. after   18 cycles

 The electronic state is 2-A.
 Alpha  occ. eigenvalues --  -38.44269 -38.44001 -38.43579 -38.43499 -38.43445
 Alpha  occ. eigenvalues --  -38.43325 -38.43298  -2.20155  -2.19927  -2.19423
 Alpha  occ. eigenvalues --   -2.19363  -2.19284  -2.19169  -2.19162  -1.13818
 Alpha  occ. eigenvalues --   -1.13790  -1.13781  -1.13594  -1.13581  -1.13553
 Alpha  occ. eigenvalues --   -1.13116  -1.13074  -1.13055  -1.13051  -1.13034
 Alpha  occ. eigenvalues --   -1.13017  -1.12961  -1.12932  -1.12907  -1.12862
 Alpha  occ. eigenvalues --   -1.12855  -1.12821  -1.12808  -1.12788  -1.12787
 Alpha  occ. eigenvalues --   -0.18628  -0.12735  -0.12384  -0.11740
 Alpha virt. eigenvalues --   -0.05062  -0.04876  -0.04627  -0.03515  -0.03411
 Alpha virt. eigenvalues --   -0.03252  -0.01107  -0.00928  -0.00266   0.00035
 Alpha virt. eigenvalues --    0.00110   0.00403   0.00848   0.00910   0.00936

  Beta  occ. eigenvalues --  -38.44183 -38.43922 -38.43568 -38.43496 -38.43435
  Beta  occ. eigenvalues --  -38.43319 -38.43283  -2.19997  -2.19782  -2.19406
  Beta  occ. eigenvalues --   -2.19361  -2.19266  -2.19152  -2.19146  -1.13715
  Beta  occ. eigenvalues --   -1.13681  -1.13662  -1.13501  -1.13465  -1.13454
  Beta  occ. eigenvalues --   -1.13092  -1.13058  -1.13052  -1.13044  -1.13023
  Beta  occ. eigenvalues --   -1.13001  -1.12940  -1.12920  -1.12893  -1.12838
  Beta  occ. eigenvalues --   -1.12834  -1.12802  -1.12797  -1.12785  -1.12765
  Beta  occ. eigenvalues --   -0.17848  -0.12481  -0.12133
  Beta virt. eigenvalues --   -0.07794  -0.04998  -0.04842  -0.04470  -0.02741
  Beta virt. eigenvalues --   -0.02676  -0.02268  -0.01021  -0.00841  -0.00168
  Beta virt. eigenvalues --    0.00064   0.00092   0.00432   0.00931   0.00938

 Mulliken charges and spin densities:
               1          2
     1  Na   0.099101  -0.026420
     2  Na   0.077356   0.027956
     3  Na   0.232191   0.002987
     4  Na  -0.216633   0.487673
     5  Na  -0.030155   0.046797
     6  Na  -0.320740   0.525757
     7  Na   0.158880  -0.064750
 Sum of Mulliken charges =  -0.00000   1.00000

 Dipole moment (field-independent basis, Debye):
    X=             -0.0677    Y=             -0.0956    Z=              0.1608  Tot=              0.1989
 Quadrupole moment (field-independent basis, Debye-Ang):
   XX=            -62.4911   YY=            -65.2112   ZZ=            -68.6277
   XY=              0.0576   XZ=              0.3354   YZ=              1.3626

 Normal termination of Gaussian 16 at Tue Dec  5 13:13:09 2023.
