 Gaussian 16, Revision B.01,
 Gaussian 16:  ES64L-G16RevB.01 20-Dec-2017

 -------------------------
 #P B3LYP/6-311+g(d) force
 -------------------------

 -----
 DPGEN
 -----
 Symbolic Z-matrix:
 Charge =  0 Multiplicity = 2

                         Standard orientation:
 ---------------------------------------------------------------------
 Center     Atomic      Atomic             Coordinates (Angstroms)
 Number     Number       Type             X           Y           Z
 ---------------------------------------------------------------------
      1         11           0       -2.538755    1.438852   -0.111666
      2         11           0        0.542882    0.600153   -1.855332
      3         11           0        2.991803   -1.817569   -0.271223
      4         11           0       -0.599682   -2.378170   -0.600547
      5         11           0       -3.705995   -1.325499    1.099041
      6         11           0        2.989285    0.491052    1.757541
      7         11           0        0.320461    2.991182   -0.017813
 ---------------------------------------------------------------------

 SCF Done:  E(UB3LYP) =  -1136.12483149     A.U. after   19 cycles

 The electronic state is 2-A.
 Alpha  occ. eigenvalues --  -38.44515 -38.44171 -38.44077 -38.44055 -38.44027
 Alpha  occ. eigenvalues --  -38.43678 -38.43406  -2.20344  -2.20080  -2.19910
 Alpha  occ. eigenvalues --   -2.19909  -2.19832  -2.19495  -2.19275  -1.14032
 Alpha  occ. eigenvalues --   -1.13984  -1.13954  -1.13769  -1.13760  -1.13689
 Alpha  occ. eigenvalues --   -1.13602  -1.13584  -1.13578  -1.13572  -1.13556
 Alpha  occ. eigenvalues --   -1.13545  -1.13524  -1.13508  -1.13428  -1.13155
 Alpha  occ. eigenvalues --   -1.13146  -1.13115  -1.12958  -1.12931  -1.12896
 Alpha  occ. eigenvalues --   -0.17530  -0.13804  -0.12449  -0.11099
 Alpha virt. eigenvalues --   -0.05893  -0.05335  -0.04764  -0.03860  -0.03191
 Alpha virt. eigenvalues --   -0.02248  -0.01603  -0.00951  -0.00736  -0.00578
 Alpha virt. eigenvalues --   -0.00244   0.00289   0.00383   0.00518   0.00655

  Beta  occ. eigenvalues --  -38.44434 -38.44110 -38.44076 -38.44045 -38.44002
  Beta  occ. eigenvalues --  -38.43643 -38.43405  -2.20194  -2.19970  -2.19913
  Beta  occ. eigenvalues --   -2.19893  -2.19789  -2.19428  -2.19275  -1.13937
  Beta  occ. eigenvalues --   -1.13882  -1.13850  -1.13693  -1.13682  -1.13616
  Beta  occ. eigenvalues --   -1.13592  -1.13585  -1.13573  -1.13566  -1.13524
  Beta  occ. eigenvalues --   -1.13512  -1.13486  -1.13480  -1.13392  -1.13104
  Beta  occ. eigenvalues --   -1.13101  -1.13076  -1.12951  -1.12933  -1.12889
  Beta  occ. eigenvalues --   -0.16932  -0.13171  -0.12243
  Beta virt. eigenvalues --   -0.07589  -0.05751  -0.05025  -0.04387  -0.03487
  Beta virt. eigenvalues --   -0.02573  -0.01804  -0.01445  -0.00890  -0.00650
  Beta virt. eigenvalues --   -0.00381   0.00041   0.00416   0.00591   0.00648

 Mulliken charges and spin densities:
               1          2
     1  Na  -0.474949  -0.039087
     2  Na   0.358305   0.158870
     3  Na   0.260645   0.127877
     4  Na  -0.533391  -0.062265
     5  Na   0.586114   0.270844
     6  Na  -0.258653   0.352020
     7  Na   0.061930   0.191741
 Sum of Mulliken charges =  -0.00000   1.00000

 Dipole moment (field-independent basis, Debye):
    X=              0.2758    Y=             -0.0109    Z=              0.1044  Tot=              0.2951
 Quadrupole moment (field-independent basis, Debye-Ang):
   XX=            -65.8360   YY=            -65.5553   ZZ=            -68.4697
   XY=             -0.7923   XZ=             -2.1495   YZ=              1.2637

 Normal termination of Gaussian 16 at Tue Nov 28 21:28:28 2023.
