 Gaussian 16, Revision B.01,
 Gaussian 16:  ES64L-G16RevB.01 20-Dec-2017

 -------------------------
 #P B3LYP/6-311+g(d) force
 -------------------------

 -----
 DPGEN
 -----
 Symbolic Z-matrix:
 Charge =  0 Multiplicity = 2

                         Standard orientation:
 ---------------------------------------------------------------------
 Center     Atomic      Atomic             Coordinates (Angstroms)
 Number     Number       Type             X           Y           Z
 ---------------------------------------------------------------------
      1         11           0        2.862288    0.758288    0.029849
      2         11           0        1.817623   -2.048387   -0.354088
      3         11           0       -0.467419    0.164346   -1.756786
      4         11           0        0.416878   -0.176284    1.862391
      5         11           0       -0.103801    3.203912   -0.127610
      6         11           0       -2.971758    0.648488    0.362940
      7         11           0       -1.553811   -2.550363   -0.016695
 ---------------------------------------------------------------------

 SCF Done:  E(UB3LYP) =  -1136.13687926     A.U. after   19 cycles

 The electronic state is 2-A.
 Alpha  occ. eigenvalues --  -38.44055 -38.43792 -38.43727 -38.43449 -38.43403
 Alpha  occ. eigenvalues --  -38.43331 -38.43188  -2.19883  -2.19621  -2.19584
 Alpha  occ. eigenvalues --   -2.19350  -2.19312  -2.19274  -2.19140  -1.13570
 Alpha  occ. eigenvalues --   -1.13550  -1.13509  -1.13367  -1.13302  -1.13267
 Alpha  occ. eigenvalues --   -1.13249  -1.13236  -1.13220  -1.13062  -1.13000
 Alpha  occ. eigenvalues --   -1.12988  -1.12983  -1.12962  -1.12951  -1.12934
 Alpha  occ. eigenvalues --   -1.12898  -1.12885  -1.12815  -1.12774  -1.12752
 Alpha  occ. eigenvalues --   -0.18860  -0.13100  -0.12538  -0.10713
 Alpha virt. eigenvalues --   -0.05606  -0.05027  -0.04840  -0.03298  -0.02874
 Alpha virt. eigenvalues --   -0.02427  -0.01307  -0.01249  -0.00385  -0.00208
 Alpha virt. eigenvalues --    0.00002   0.00373   0.00833   0.00896   0.00917

  Beta  occ. eigenvalues --  -38.44048 -38.43791 -38.43722 -38.43444 -38.43323
  Beta  occ. eigenvalues --  -38.43318 -38.43118  -2.19872  -2.19615  -2.19584
  Beta  occ. eigenvalues --   -2.19307  -2.19255  -2.19203  -2.19011  -1.13559
  Beta  occ. eigenvalues --   -1.13527  -1.13504  -1.13364  -1.13279  -1.13254
  Beta  occ. eigenvalues --   -1.13238  -1.13232  -1.13221  -1.13017  -1.12972
  Beta  occ. eigenvalues --   -1.12961  -1.12944  -1.12904  -1.12893  -1.12872
  Beta  occ. eigenvalues --   -1.12857  -1.12831  -1.12731  -1.12682  -1.12657
  Beta  occ. eigenvalues --   -0.18116  -0.12860  -0.12303
  Beta virt. eigenvalues --   -0.06809  -0.05593  -0.04944  -0.04829  -0.02491
  Beta virt. eigenvalues --   -0.02134  -0.01412  -0.01215  -0.01168  -0.00419
  Beta virt. eigenvalues --   -0.00256   0.00137   0.00397   0.00848   0.00909

 Mulliken charges and spin densities:
               1          2
     1  Na   0.245728  -0.039823
     2  Na   0.268242   0.043950
     3  Na  -0.251797   0.580828
     4  Na  -0.399187   0.657394
     5  Na  -0.040658  -0.140850
     6  Na  -0.000108  -0.068079
     7  Na   0.177780  -0.033421
 Sum of Mulliken charges =  -0.00000   1.00000

 Dipole moment (field-independent basis, Debye):
    X=             -0.2713    Y=              0.2481    Z=              0.0880  Tot=              0.3780
 Quadrupole moment (field-independent basis, Debye-Ang):
   XX=            -59.0041   YY=            -60.4070   ZZ=            -74.2042
   XY=              0.6030   XZ=             -1.8703   YZ=              0.8046

 Normal termination of Gaussian 16 at Thu Dec  7 14:11:21 2023.
