 Gaussian 16, Revision B.01,
 Gaussian 16:  ES64L-G16RevB.01 20-Dec-2017

 -------------------------
 #P B3LYP/6-311+g(d) force
 -------------------------

 -----
 DPGEN
 -----
 Symbolic Z-matrix:
 Charge =  0 Multiplicity = 2

                         Standard orientation:
 ---------------------------------------------------------------------
 Center     Atomic      Atomic             Coordinates (Angstroms)
 Number     Number       Type             X           Y           Z
 ---------------------------------------------------------------------
      1         11           0        1.434752    3.031241   -0.516332
      2         11           0       -1.999573    2.199540    1.422451
      3         11           0       -3.752961   -0.705119   -1.202589
      4         11           0        0.451765    0.278481   -1.718321
      5         11           0        1.441114   -2.918532   -0.372235
      6         11           0        3.692514   -0.182922    0.687555
      7         11           0       -1.267610   -1.702691    1.699469
 ---------------------------------------------------------------------

 SCF Done:  E(UB3LYP) =  -1136.11330849     A.U. after   22 cycles

 The electronic state is 2-A.
 Alpha  occ. eigenvalues --  -38.45888 -38.44899 -38.44346 -38.44289 -38.44221
 Alpha  occ. eigenvalues --  -38.43833 -38.43485  -2.21609  -2.20640  -2.20098
 Alpha  occ. eigenvalues --   -2.20057  -2.20053  -2.19622  -2.19280  -1.15297
 Alpha  occ. eigenvalues --   -1.15252  -1.15247  -1.14301  -1.14294  -1.14260
 Alpha  occ. eigenvalues --   -1.13769  -1.13745  -1.13740  -1.13734  -1.13724
 Alpha  occ. eigenvalues --   -1.13721  -1.13713  -1.13676  -1.13672  -1.13307
 Alpha  occ. eigenvalues --   -1.13284  -1.13256  -1.12978  -1.12935  -1.12908
 Alpha  occ. eigenvalues --   -0.16688  -0.12863  -0.12100  -0.10244
 Alpha virt. eigenvalues --   -0.07139  -0.05835  -0.04740  -0.03488  -0.02915
 Alpha virt. eigenvalues --   -0.02498  -0.02183  -0.01204  -0.00951  -0.00814
 Alpha virt. eigenvalues --   -0.00281   0.00126   0.00165   0.00260   0.00615

  Beta  occ. eigenvalues --  -38.45892 -38.44849 -38.44292 -38.44262 -38.44174
  Beta  occ. eigenvalues --  -38.43835 -38.43487  -2.21616  -2.20547  -2.20003
  Beta  occ. eigenvalues --   -2.19997  -2.19969  -2.19627  -2.19286  -1.15300
  Beta  occ. eigenvalues --   -1.15257  -1.15253  -1.14238  -1.14222  -1.14199
  Beta  occ. eigenvalues --   -1.13702  -1.13693  -1.13683  -1.13673  -1.13670
  Beta  occ. eigenvalues --   -1.13662  -1.13654  -1.13640  -1.13609  -1.13303
  Beta  occ. eigenvalues --   -1.13282  -1.13262  -1.12975  -1.12938  -1.12910
  Beta  occ. eigenvalues --   -0.16225  -0.12523  -0.11928
  Beta virt. eigenvalues --   -0.06972  -0.06712  -0.05540  -0.04489  -0.03079
  Beta virt. eigenvalues --   -0.02548  -0.02180  -0.01611  -0.01043  -0.00840
  Beta virt. eigenvalues --   -0.00710  -0.00123   0.00277   0.00346   0.00390

 Mulliken charges and spin densities:
               1          2
     1  Na   0.238100   0.021905
     2  Na  -0.382004   0.245078
     3  Na  -0.072802   0.189597
     4  Na   0.205063   0.344866
     5  Na   0.031712  -0.062680
     6  Na  -0.166749  -0.047407
     7  Na   0.146681   0.308641
 Sum of Mulliken charges =  -0.00000   1.00000

 Dipole moment (field-independent basis, Debye):
    X=              0.8976    Y=             -0.1959    Z=              0.4244  Tot=              1.0120
 Quadrupole moment (field-independent basis, Debye-Ang):
   XX=            -54.7621   YY=            -67.6399   ZZ=            -73.4292
   XY=              0.5341   XZ=              3.4734   YZ=              1.7346

 Normal termination of Gaussian 16 at Sun Dec  3 22:44:25 2023.
