 Gaussian 16, Revision B.01,
 Gaussian 16:  ES64L-G16RevB.01 20-Dec-2017

 -------------------------
 #P B3LYP/6-311+g(d) force
 -------------------------

 -----
 DPGEN
 -----
 Symbolic Z-matrix:
 Charge =  0 Multiplicity = 2

                         Standard orientation:
 ---------------------------------------------------------------------
 Center     Atomic      Atomic             Coordinates (Angstroms)
 Number     Number       Type             X           Y           Z
 ---------------------------------------------------------------------
      1         11           0        2.196829    2.821180    0.726236
      2         11           0       -3.352137   -2.059151    1.022469
      3         11           0       -0.572194   -1.233624   -0.775658
      4         11           0       -4.884160    0.463630   -0.404355
      5         11           0       -1.466468    2.529348   -0.330334
      6         11           0        3.192407   -2.649453   -0.055168
      7         11           0        4.885724    0.128069   -0.183191
 ---------------------------------------------------------------------

 SCF Done:  E(UB3LYP) =  -1136.10679847     A.U. after   24 cycles

 The electronic state is 2-A.
 Alpha  occ. eigenvalues --  -38.45265 -38.44832 -38.44592 -38.44497 -38.44475
 Alpha  occ. eigenvalues --  -38.44189 -38.44101  -2.21058  -2.20643  -2.20306
 Alpha  occ. eigenvalues --   -2.20277  -2.20252  -2.19984  -2.19855  -1.14730
 Alpha  occ. eigenvalues --   -1.14725  -1.14717  -1.14294  -1.14282  -1.14258
 Alpha  occ. eigenvalues --   -1.14002  -1.13979  -1.13951  -1.13939  -1.13934
 Alpha  occ. eigenvalues --   -1.13930  -1.13912  -1.13910  -1.13885  -1.13643
 Alpha  occ. eigenvalues --   -1.13623  -1.13611  -1.13540  -1.13524  -1.13469
 Alpha  occ. eigenvalues --   -0.16230  -0.14046  -0.11693  -0.10885
 Alpha virt. eigenvalues --   -0.07596  -0.05320  -0.04942  -0.03532  -0.03198
 Alpha virt. eigenvalues --   -0.02720  -0.02126  -0.01447  -0.01037  -0.00920
 Alpha virt. eigenvalues --   -0.00556  -0.00378   0.00122   0.00396   0.00444

  Beta  occ. eigenvalues --  -38.45260 -38.44754 -38.44607 -38.44517 -38.44390
  Beta  occ. eigenvalues --  -38.44144 -38.44080  -2.21055  -2.20498  -2.20337
  Beta  occ. eigenvalues --   -2.20291  -2.20121  -2.19899  -2.19816  -1.14732
  Beta  occ. eigenvalues --   -1.14722  -1.14680  -1.14194  -1.14178  -1.14165
  Beta  occ. eigenvalues --   -1.14024  -1.14001  -1.13963  -1.13955  -1.13948
  Beta  occ. eigenvalues --   -1.13918  -1.13845  -1.13802  -1.13782  -1.13584
  Beta  occ. eigenvalues --   -1.13569  -1.13560  -1.13514  -1.13493  -1.13442
  Beta  occ. eigenvalues --   -0.15473  -0.13620  -0.11557
  Beta virt. eigenvalues --   -0.07521  -0.07355  -0.04998  -0.04296  -0.03352
  Beta virt. eigenvalues --   -0.02860  -0.02261  -0.02076  -0.01295  -0.00776
  Beta virt. eigenvalues --   -0.00532  -0.00394  -0.00268   0.00320   0.00483

 Mulliken charges and spin densities:
               1          2
     1  Na   0.265424  -0.062576
     2  Na   0.395908  -0.038811
     3  Na  -0.960791   0.476723
     4  Na   0.172881   0.516768
     5  Na  -0.007350   0.007852
     6  Na   0.320723  -0.137354
     7  Na  -0.186795   0.237399
 Sum of Mulliken charges =  -0.00000   1.00000

 Dipole moment (field-independent basis, Debye):
    X=             -0.7819    Y=             -0.6133    Z=              0.2996  Tot=              1.0379
 Quadrupole moment (field-independent basis, Debye-Ang):
   XX=            -62.0518   YY=            -67.7256   ZZ=            -70.2780
   XY=              1.7708   XZ=              0.7762   YZ=             -2.9778

 Normal termination of Gaussian 16 at Sun Dec  3 17:09:33 2023.
