 Gaussian 16, Revision B.01,
 Gaussian 16:  ES64L-G16RevB.01 20-Dec-2017

 -------------------------
 #P B3LYP/6-311+g(d) force
 -------------------------

 -----
 DPGEN
 -----
 Symbolic Z-matrix:
 Charge =  0 Multiplicity = 2

                         Standard orientation:
 ---------------------------------------------------------------------
 Center     Atomic      Atomic             Coordinates (Angstroms)
 Number     Number       Type             X           Y           Z
 ---------------------------------------------------------------------
      1         11           0       -3.371608   -1.536098   -0.929760
      2         11           0        1.258774    3.276130   -0.179171
      3         11           0        2.958260   -2.494886    1.302613
      4         11           0        4.139115    0.756334   -0.379356
      5         11           0       -1.138830    1.372262   -0.599775
      6         11           0       -3.738876    1.001378    1.594599
      7         11           0       -0.106834   -2.375120   -0.809150
 ---------------------------------------------------------------------

 SCF Done:  E(UB3LYP) =  -1136.11414562     A.U. after   22 cycles

 The electronic state is 2-A.
 Alpha  occ. eigenvalues --  -38.45660 -38.44941 -38.44301 -38.44176 -38.43945
 Alpha  occ. eigenvalues --  -38.43897 -38.43305  -2.21380  -2.20755  -2.20131
 Alpha  occ. eigenvalues --   -2.19926  -2.19806  -2.19697  -2.19120  -1.15071
 Alpha  occ. eigenvalues --   -1.15034  -1.15003  -1.14436  -1.14418  -1.14389
 Alpha  occ. eigenvalues --   -1.13778  -1.13768  -1.13740  -1.13603  -1.13578
 Alpha  occ. eigenvalues --   -1.13566  -1.13503  -1.13480  -1.13452  -1.13375
 Alpha  occ. eigenvalues --   -1.13373  -1.13307  -1.12800  -1.12770  -1.12741
 Alpha  occ. eigenvalues --   -0.16630  -0.13687  -0.12412  -0.10691
 Alpha virt. eigenvalues --   -0.07153  -0.05114  -0.04795  -0.03663  -0.02972
 Alpha virt. eigenvalues --   -0.02289  -0.01885  -0.01685  -0.01068  -0.00753
 Alpha virt. eigenvalues --   -0.00395  -0.00141   0.00113   0.00466   0.00605

  Beta  occ. eigenvalues --  -38.45646 -38.44924 -38.44200 -38.44166 -38.43927
  Beta  occ. eigenvalues --  -38.43863 -38.43287  -2.21354  -2.20731  -2.19942
  Beta  occ. eigenvalues --   -2.19908  -2.19777  -2.19638  -2.19088  -1.15054
  Beta  occ. eigenvalues --   -1.15018  -1.14977  -1.14425  -1.14396  -1.14337
  Beta  occ. eigenvalues --   -1.13649  -1.13639  -1.13617  -1.13591  -1.13571
  Beta  occ. eigenvalues --   -1.13547  -1.13486  -1.13443  -1.13415  -1.13338
  Beta  occ. eigenvalues --   -1.13333  -1.13254  -1.12771  -1.12747  -1.12723
  Beta  occ. eigenvalues --   -0.16002  -0.13188  -0.11981
  Beta virt. eigenvalues --   -0.07272  -0.07119  -0.04823  -0.04378  -0.03410
  Beta virt. eigenvalues --   -0.02473  -0.02147  -0.01645  -0.01245  -0.00882
  Beta virt. eigenvalues --   -0.00657  -0.00165   0.00043   0.00361   0.00552

 Mulliken charges and spin densities:
               1          2
     1  Na   0.887618   0.143211
     2  Na   0.155201  -0.146438
     3  Na   0.230875   0.156811
     4  Na  -0.088750   0.144186
     5  Na  -1.075457   0.210785
     6  Na   0.263651   0.498103
     7  Na  -0.373138  -0.006659
 Sum of Mulliken charges =  -0.00000   1.00000

 Dipole moment (field-independent basis, Debye):
    X=             -0.1356    Y=             -0.3371    Z=              0.0347  Tot=              0.3650
 Quadrupole moment (field-independent basis, Debye-Ang):
   XX=            -57.7558   YY=            -70.3507   ZZ=            -69.0489
   XY=              6.7577   XZ=              1.1082   YZ=              0.0460

 Normal termination of Gaussian 16 at Sun Dec  3 18:14:25 2023.
