 Gaussian 16, Revision B.01,
 Gaussian 16:  ES64L-G16RevB.01 20-Dec-2017

 -------------------------
 #P B3LYP/6-311+g(d) force
 -------------------------

 -----
 DPGEN
 -----
 Symbolic Z-matrix:
 Charge =  0 Multiplicity = 2

                         Standard orientation:
 ---------------------------------------------------------------------
 Center     Atomic      Atomic             Coordinates (Angstroms)
 Number     Number       Type             X           Y           Z
 ---------------------------------------------------------------------
      1         11           0        1.546827   -2.496265   -0.173174
      2         11           0       -1.838787   -2.937427    0.433768
      3         11           0       -3.832985    0.383968    0.059965
      4         11           0        3.915564   -0.208926   -0.326511
      5         11           0       -0.683567    3.496808   -0.321997
      6         11           0       -0.832563   -0.039098   -0.698888
      7         11           0        1.725512    1.800940    1.026837
 ---------------------------------------------------------------------

 SCF Done:  E(UB3LYP) =  -1136.12608616     A.U. after   21 cycles

 The electronic state is 2-A.
 Alpha  occ. eigenvalues --  -38.44291 -38.44183 -38.43834 -38.43830 -38.43771
 Alpha  occ. eigenvalues --  -38.43529 -38.43236  -2.20147  -2.20015  -2.19773
 Alpha  occ. eigenvalues --   -2.19654  -2.19627  -2.19377  -2.19098  -1.13835
 Alpha  occ. eigenvalues --   -1.13821  -1.13787  -1.13698  -1.13688  -1.13644
 Alpha  occ. eigenvalues --   -1.13491  -1.13481  -1.13382  -1.13319  -1.13316
 Alpha  occ. eigenvalues --   -1.13303  -1.13298  -1.13279  -1.13251  -1.13023
 Alpha  occ. eigenvalues --   -1.13011  -1.12982  -1.12756  -1.12734  -1.12721
 Alpha  occ. eigenvalues --   -0.17440  -0.13801  -0.13274  -0.09864
 Alpha virt. eigenvalues --   -0.06268  -0.05599  -0.04626  -0.03110  -0.02620
 Alpha virt. eigenvalues --   -0.02351  -0.01856  -0.01624  -0.00984  -0.00334
 Alpha virt. eigenvalues --   -0.00023   0.00121   0.00431   0.00518   0.00758

  Beta  occ. eigenvalues --  -38.44279 -38.44167 -38.43836 -38.43808 -38.43753
  Beta  occ. eigenvalues --  -38.43439 -38.43178  -2.20131  -2.19989  -2.19779
  Beta  occ. eigenvalues --   -2.19616  -2.19600  -2.19210  -2.18988  -1.13826
  Beta  occ. eigenvalues --   -1.13816  -1.13744  -1.13686  -1.13675  -1.13592
  Beta  occ. eigenvalues --   -1.13492  -1.13465  -1.13391  -1.13305  -1.13292
  Beta  occ. eigenvalues --   -1.13285  -1.13267  -1.13257  -1.13192  -1.12914
  Beta  occ. eigenvalues --   -1.12898  -1.12870  -1.12681  -1.12658  -1.12652
  Beta  occ. eigenvalues --   -0.17119  -0.13055  -0.12653
  Beta virt. eigenvalues --   -0.06585  -0.06275  -0.05324  -0.04433  -0.02600
  Beta virt. eigenvalues --   -0.02238  -0.02064  -0.01690  -0.01112  -0.00885
  Beta virt. eigenvalues --   -0.00266   0.00260   0.00371   0.00563   0.00649

 Mulliken charges and spin densities:
               1          2
     1  Na   0.145893   0.066026
     2  Na   0.617707   0.041916
     3  Na   0.527513   0.431285
     4  Na   0.153764   0.410365
     5  Na   0.129542   0.067757
     6  Na  -1.902792  -0.044672
     7  Na   0.328373   0.027321
 Sum of Mulliken charges =  -0.00000   1.00000

 Dipole moment (field-independent basis, Debye):
    X=             -0.2557    Y=              0.0435    Z=              0.3607  Tot=              0.4442
 Quadrupole moment (field-independent basis, Debye-Ang):
   XX=            -71.0120   YY=            -60.5218   ZZ=            -68.3014
   XY=              0.9159   XZ=             -1.6106   YZ=             -1.5225

 Normal termination of Gaussian 16 at Tue Nov 28 21:21:09 2023.
