 Gaussian 16, Revision B.01,
 Gaussian 16:  ES64L-G16RevB.01 20-Dec-2017

 -------------------------
 #P B3LYP/6-311+g(d) force
 -------------------------

 -----
 DPGEN
 -----
 Symbolic Z-matrix:
 Charge =  0 Multiplicity = 2

                         Standard orientation:
 ---------------------------------------------------------------------
 Center     Atomic      Atomic             Coordinates (Angstroms)
 Number     Number       Type             X           Y           Z
 ---------------------------------------------------------------------
      1         11           0        0.312795    0.079829   -1.407742
      2         11           0        2.354448    2.203688   -0.026751
      3         11           0       -1.398754    2.754297    0.048761
      4         11           0        3.016472   -1.619126   -0.380392
      5         11           0       -3.347113   -0.790908   -0.966507
      6         11           0       -0.332532   -2.620042    0.506123
      7         11           0       -0.605316   -0.007738    2.226508
 ---------------------------------------------------------------------

 SCF Done:  E(UB3LYP) =  -1136.13198065     A.U. after   19 cycles

 The electronic state is 2-A.
 Alpha  occ. eigenvalues --  -38.44298 -38.44075 -38.43885 -38.43876 -38.43830
 Alpha  occ. eigenvalues --  -38.43311 -38.43255  -2.20073  -2.19873  -2.19750
 Alpha  occ. eigenvalues --   -2.19687  -2.19630  -2.19270  -2.19133  -1.13740
 Alpha  occ. eigenvalues --   -1.13719  -1.13697  -1.13572  -1.13544  -1.13488
 Alpha  occ. eigenvalues --   -1.13434  -1.13378  -1.13372  -1.13366  -1.13343
 Alpha  occ. eigenvalues --   -1.13324  -1.13312  -1.13296  -1.13253  -1.12977
 Alpha  occ. eigenvalues --   -1.12927  -1.12887  -1.12832  -1.12791  -1.12733
 Alpha  occ. eigenvalues --   -0.18051  -0.12691  -0.12374  -0.10856
 Alpha virt. eigenvalues --   -0.05722  -0.05490  -0.04598  -0.03132  -0.02942
 Alpha virt. eigenvalues --   -0.02554  -0.01759  -0.01335  -0.00509  -0.00386
 Alpha virt. eigenvalues --   -0.00054   0.00281   0.00698   0.00772   0.00866

  Beta  occ. eigenvalues --  -38.44254 -38.44078 -38.43885 -38.43827 -38.43775
  Beta  occ. eigenvalues --  -38.43278 -38.43240  -2.19992  -2.19880  -2.19688
  Beta  occ. eigenvalues --   -2.19627  -2.19565  -2.19210  -2.19111  -1.13675
  Beta  occ. eigenvalues --   -1.13664  -1.13647  -1.13573  -1.13545  -1.13492
  Beta  occ. eigenvalues --   -1.13366  -1.13343  -1.13324  -1.13311  -1.13306
  Beta  occ. eigenvalues --   -1.13295  -1.13252  -1.13242  -1.13227  -1.12933
  Beta  occ. eigenvalues --   -1.12887  -1.12841  -1.12805  -1.12750  -1.12724
  Beta  occ. eigenvalues --   -0.17416  -0.12359  -0.12190
  Beta virt. eigenvalues --   -0.07023  -0.05626  -0.05333  -0.04499  -0.02554
  Beta virt. eigenvalues --   -0.02240  -0.01755  -0.01453  -0.01288  -0.00498
  Beta virt. eigenvalues --   -0.00324   0.00085   0.00345   0.00754   0.00832

 Mulliken charges and spin densities:
               1          2
     1  Na  -0.060185   0.312567
     2  Na  -0.028640  -0.034415
     3  Na   0.046016  -0.009031
     4  Na   0.031468  -0.051787
     5  Na  -0.063141   0.200399
     6  Na   0.287566   0.134448
     7  Na  -0.213084   0.447820
 Sum of Mulliken charges =  -0.00000   1.00000

 Dipole moment (field-independent basis, Debye):
    X=              0.1474    Y=              0.3009    Z=              0.1805  Tot=              0.3806
 Quadrupole moment (field-independent basis, Debye-Ang):
   XX=            -56.2534   YY=            -63.3403   ZZ=            -73.6272
   XY=             -0.6076   XZ=              1.9196   YZ=              0.9242

 Normal termination of Gaussian 16 at Fri Dec  8 01:04:43 2023.
