 Gaussian 16, Revision B.01,
 Gaussian 16:  ES64L-G16RevB.01 20-Dec-2017

 -------------------------
 #P B3LYP/6-311+g(d) force
 -------------------------

 -----
 DPGEN
 -----
 Symbolic Z-matrix:
 Charge =  0 Multiplicity = 2

                         Standard orientation:
 ---------------------------------------------------------------------
 Center     Atomic      Atomic             Coordinates (Angstroms)
 Number     Number       Type             X           Y           Z
 ---------------------------------------------------------------------
      1         11           0        1.718570   -1.784829    0.342201
      2         11           0        1.721265    1.612622    1.661245
      3         11           0       -1.472434   -0.813608    1.737954
      4         11           0       -4.165417   -0.425599   -0.445749
      5         11           0       -1.606145    2.068635   -0.850022
      6         11           0       -0.248091   -0.768909   -1.348682
      7         11           0        4.052253    0.111688   -1.096946
 ---------------------------------------------------------------------

 SCF Done:  E(UB3LYP) =  -1136.10615930     A.U. after   31 cycles

 The electronic state is 2-A.
 Alpha  occ. eigenvalues --  -38.45925 -38.45144 -38.44876 -38.44376 -38.43444
 Alpha  occ. eigenvalues --  -38.43216 -38.42874  -2.21703  -2.21093  -2.20659
 Alpha  occ. eigenvalues --   -2.20175  -2.19267  -2.19091  -2.18828  -1.15387
 Alpha  occ. eigenvalues --   -1.15347  -1.15319  -1.14843  -1.14783  -1.14677
 Alpha  occ. eigenvalues --   -1.14333  -1.14310  -1.14286  -1.13826  -1.13824
 Alpha  occ. eigenvalues --   -1.13800  -1.13001  -1.12927  -1.12865  -1.12780
 Alpha  occ. eigenvalues --   -1.12743  -1.12714  -1.12597  -1.12462  -1.12400
 Alpha  occ. eigenvalues --   -0.18198  -0.14187  -0.11261  -0.10416
 Alpha virt. eigenvalues --   -0.07791  -0.05083  -0.04455  -0.03362  -0.03012
 Alpha virt. eigenvalues --   -0.02334  -0.02248  -0.01508  -0.01032  -0.00243
 Alpha virt. eigenvalues --   -0.00053   0.00222   0.00252   0.00659   0.00756

  Beta  occ. eigenvalues --  -38.45910 -38.45128 -38.44845 -38.44301 -38.43441
  Beta  occ. eigenvalues --  -38.43186 -38.42862  -2.21674  -2.21064  -2.20603
  Beta  occ. eigenvalues --   -2.20036  -2.19263  -2.19038  -2.18810  -1.15365
  Beta  occ. eigenvalues --   -1.15329  -1.15300  -1.14824  -1.14753  -1.14656
  Beta  occ. eigenvalues --   -1.14295  -1.14262  -1.14251  -1.13731  -1.13728
  Beta  occ. eigenvalues --   -1.13695  -1.13001  -1.12919  -1.12852  -1.12746
  Beta  occ. eigenvalues --   -1.12685  -1.12681  -1.12588  -1.12438  -1.12368
  Beta  occ. eigenvalues --   -0.17581  -0.13832  -0.10254
  Beta virt. eigenvalues --   -0.07690  -0.07392  -0.04556  -0.04318  -0.03046
  Beta virt. eigenvalues --   -0.02696  -0.01911  -0.01567  -0.01192  -0.00839
  Beta virt. eigenvalues --   -0.00176   0.00004   0.00241   0.00342   0.00787

 Mulliken charges and spin densities:
               1          2
     1  Na   0.512207   0.296804
     2  Na  -0.323808   0.346669
     3  Na  -0.197523   0.300450
     4  Na   0.443478   0.065024
     5  Na  -0.320592   0.095223
     6  Na  -0.091581  -0.206443
     7  Na  -0.022182   0.102273
 Sum of Mulliken charges =  -0.00000   1.00000

 Dipole moment (field-independent basis, Debye):
    X=             -0.9960    Y=             -0.4308    Z=              0.0341  Tot=              1.0857
 Quadrupole moment (field-independent basis, Debye-Ang):
   XX=            -45.1240   YY=            -79.8743   ZZ=            -68.4101
   XY=              3.4175   XZ=             -1.4575   YZ=              3.7287

 Normal termination of Gaussian 16 at Tue Dec  5 15:36:37 2023.
