 Gaussian 16, Revision B.01,
 Gaussian 16:  ES64L-G16RevB.01 20-Dec-2017

 -------------------------
 #P B3LYP/6-311+g(d) force
 -------------------------

 -----
 DPGEN
 -----
 Symbolic Z-matrix:
 Charge =  0 Multiplicity = 2

                         Standard orientation:
 ---------------------------------------------------------------------
 Center     Atomic      Atomic             Coordinates (Angstroms)
 Number     Number       Type             X           Y           Z
 ---------------------------------------------------------------------
      1         11           0        2.862511   -1.032859   -0.182292
      2         11           0       -1.778574    2.654105    0.322132
      3         11           0        0.575541   -0.137255    1.995436
      4         11           0       -0.041055   -0.226878   -1.619243
      5         11           0       -0.474119   -2.884332    0.118259
      6         11           0       -2.934964   -0.733335   -0.226782
      7         11           0        1.790659    2.360555   -0.407510
 ---------------------------------------------------------------------

 SCF Done:  E(UB3LYP) =  -1136.13815132     A.U. after   19 cycles

 The electronic state is 2-A.
 Alpha  occ. eigenvalues --  -38.43762 -38.43760 -38.43686 -38.43669 -38.43532
 Alpha  occ. eigenvalues --  -38.43518 -38.43128  -2.19629  -2.19598  -2.19524
 Alpha  occ. eigenvalues --   -2.19476  -2.19422  -2.19416  -2.19126  -1.13326
 Alpha  occ. eigenvalues --   -1.13311  -1.13287  -1.13268  -1.13255  -1.13236
 Alpha  occ. eigenvalues --   -1.13215  -1.13196  -1.13173  -1.13148  -1.13124
 Alpha  occ. eigenvalues --   -1.13119  -1.13114  -1.13099  -1.13070  -1.13044
 Alpha  occ. eigenvalues --   -1.13034  -1.13019  -1.12800  -1.12752  -1.12749
 Alpha  occ. eigenvalues --   -0.18694  -0.13000  -0.12564  -0.10705
 Alpha virt. eigenvalues --   -0.05409  -0.05191  -0.04971  -0.03145  -0.02940
 Alpha virt. eigenvalues --   -0.02481  -0.01344  -0.01207  -0.00445  -0.00324
 Alpha virt. eigenvalues --    0.00003   0.00360   0.00849   0.00865   0.00889

  Beta  occ. eigenvalues --  -38.43754 -38.43750 -38.43683 -38.43666 -38.43525
  Beta  occ. eigenvalues --  -38.43429 -38.43063  -2.19619  -2.19583  -2.19521
  Beta  occ. eigenvalues --   -2.19472  -2.19408  -2.19257  -2.19008  -1.13319
  Beta  occ. eigenvalues --   -1.13276  -1.13272  -1.13251  -1.13236  -1.13229
  Beta  occ. eigenvalues --   -1.13207  -1.13190  -1.13163  -1.13132  -1.13122
  Beta  occ. eigenvalues --   -1.13118  -1.13103  -1.13056  -1.13021  -1.12972
  Beta  occ. eigenvalues --   -1.12933  -1.12911  -1.12720  -1.12667  -1.12661
  Beta  occ. eigenvalues --   -0.17972  -0.12741  -0.12346
  Beta virt. eigenvalues --   -0.06801  -0.05394  -0.05170  -0.04879  -0.02368
  Beta virt. eigenvalues --   -0.02207  -0.01436  -0.01261  -0.01132  -0.00467
  Beta virt. eigenvalues --   -0.00380   0.00145   0.00394   0.00862   0.00880

 Mulliken charges and spin densities:
               1          2
     1  Na   0.327577  -0.072268
     2  Na  -0.111852  -0.031139
     3  Na  -0.455902   0.805520
     4  Na  -0.066959   0.410620
     5  Na   0.239096  -0.053080
     6  Na   0.036156  -0.034883
     7  Na   0.031883  -0.024770
 Sum of Mulliken charges =  -0.00000   1.00000

 Dipole moment (field-independent basis, Debye):
    X=              0.1581    Y=             -0.0218    Z=              0.1146  Tot=              0.1965
 Quadrupole moment (field-independent basis, Debye-Ang):
   XX=            -58.5097   YY=            -60.5071   ZZ=            -74.5185
   XY=             -0.1708   XZ=             -1.3618   YZ=             -0.0529

 Normal termination of Gaussian 16 at Thu Dec  7 13:42:38 2023.
