 Gaussian 16, Revision B.01,
 Gaussian 16:  ES64L-G16RevB.01 20-Dec-2017

 -------------------------
 #P B3LYP/6-311+g(d) force
 -------------------------

 -----
 DPGEN
 -----
 Symbolic Z-matrix:
 Charge =  0 Multiplicity = 2

                         Standard orientation:
 ---------------------------------------------------------------------
 Center     Atomic      Atomic             Coordinates (Angstroms)
 Number     Number       Type             X           Y           Z
 ---------------------------------------------------------------------
      1         11           0       -1.416805    2.591187   -0.245408
      2         11           0        3.120576   -1.489369   -0.141000
      3         11           0        2.367413    1.891840    0.095935
      4         11           0       -3.421634   -0.816578   -0.110877
      5         11           0        0.021881    0.227907   -1.588855
      6         11           0       -0.248649    0.139700    2.078843
      7         11           0       -0.422782   -2.544686   -0.088639
 ---------------------------------------------------------------------

 SCF Done:  E(UB3LYP) =  -1136.13327941     A.U. after   19 cycles

 The electronic state is 2-A.
 Alpha  occ. eigenvalues --  -38.44780 -38.44121 -38.43979 -38.43541 -38.43396
 Alpha  occ. eigenvalues --  -38.43266 -38.43092  -2.20559  -2.19910  -2.19811
 Alpha  occ. eigenvalues --   -2.19422  -2.19257  -2.19244  -2.18970  -1.14231
 Alpha  occ. eigenvalues --   -1.14217  -1.14198  -1.13582  -1.13580  -1.13555
 Alpha  occ. eigenvalues --   -1.13499  -1.13478  -1.13427  -1.13098  -1.13057
 Alpha  occ. eigenvalues --   -1.13041  -1.13033  -1.12953  -1.12900  -1.12881
 Alpha  occ. eigenvalues --   -1.12850  -1.12826  -1.12665  -1.12641  -1.12567
 Alpha  occ. eigenvalues --   -0.18467  -0.13060  -0.12179  -0.10574
 Alpha virt. eigenvalues --   -0.06237  -0.05413  -0.04189  -0.03102  -0.02704
 Alpha virt. eigenvalues --   -0.02501  -0.02076  -0.01331  -0.00447  -0.00192
 Alpha virt. eigenvalues --   -0.00059   0.00287   0.00704   0.00803   0.00885

  Beta  occ. eigenvalues --  -38.44781 -38.44122 -38.43975 -38.43440 -38.43387
  Beta  occ. eigenvalues --  -38.43205 -38.43083  -2.20562  -2.19915  -2.19805
  Beta  occ. eigenvalues --   -2.19238  -2.19234  -2.19143  -2.18956  -1.14224
  Beta  occ. eigenvalues --   -1.14214  -1.14202  -1.13586  -1.13570  -1.13559
  Beta  occ. eigenvalues --   -1.13490  -1.13457  -1.13429  -1.13015  -1.12972
  Beta  occ. eigenvalues --   -1.12925  -1.12900  -1.12880  -1.12862  -1.12854
  Beta  occ. eigenvalues --   -1.12802  -1.12761  -1.12651  -1.12599  -1.12564
  Beta  occ. eigenvalues --   -0.17738  -0.12883  -0.11929
  Beta virt. eigenvalues --   -0.06633  -0.06182  -0.05415  -0.04171  -0.02391
  Beta virt. eigenvalues --   -0.01990  -0.01919  -0.01404  -0.01287  -0.00504
  Beta virt. eigenvalues --   -0.00211   0.00099   0.00313   0.00757   0.00796

 Mulliken charges and spin densities:
               1          2
     1  Na   0.213689  -0.095370
     2  Na   0.002452  -0.051380
     3  Na   0.273656  -0.032140
     4  Na   0.152667  -0.065889
     5  Na  -0.294466   0.518769
     6  Na  -0.484784   0.776487
     7  Na   0.136786  -0.050477
 Sum of Mulliken charges =  -0.00000   1.00000

 Dipole moment (field-independent basis, Debye):
    X=             -0.2236    Y=              0.0647    Z=              0.1490  Tot=              0.2764
 Quadrupole moment (field-independent basis, Debye-Ang):
   XX=            -50.2210   YY=            -65.9595   ZZ=            -75.6267
   XY=             -0.1144   XZ=              0.5105   YZ=              0.3885

 Normal termination of Gaussian 16 at Tue Dec  5 17:21:44 2023.
