 Gaussian 16, Revision B.01,
 Gaussian 16:  ES64L-G16RevB.01 20-Dec-2017

 -------------------------
 #P B3LYP/6-311+g(d) force
 -------------------------

 -----
 DPGEN
 -----
 Symbolic Z-matrix:
 Charge =  0 Multiplicity = 2

                         Standard orientation:
 ---------------------------------------------------------------------
 Center     Atomic      Atomic             Coordinates (Angstroms)
 Number     Number       Type             X           Y           Z
 ---------------------------------------------------------------------
      1         11           0       -0.003287    0.238298   -1.716979
      2         11           0       -2.603983   -2.217119   -0.832008
      3         11           0       -1.333979    0.306428    1.957668
      4         11           0        3.347378   -0.078845   -1.285608
      5         11           0        1.810614    1.170883    1.398404
      6         11           0        0.873265   -2.027129    1.083556
      7         11           0       -2.090007    2.607485   -0.605034
 ---------------------------------------------------------------------

 SCF Done:  E(UB3LYP) =  -1136.12807357     A.U. after   25 cycles

 The electronic state is 2-A.
 Alpha  occ. eigenvalues --  -38.44363 -38.44190 -38.44113 -38.44106 -38.43771
 Alpha  occ. eigenvalues --  -38.43365 -38.42849  -2.20256  -2.20000  -2.19960
 Alpha  occ. eigenvalues --   -2.19946  -2.19676  -2.19224  -2.18652  -1.13966
 Alpha  occ. eigenvalues --   -1.13902  -1.13881  -1.13703  -1.13638  -1.13632
 Alpha  occ. eigenvalues --   -1.13624  -1.13609  -1.13607  -1.13593  -1.13575
 Alpha  occ. eigenvalues --   -1.13568  -1.13358  -1.13318  -1.13305  -1.12938
 Alpha  occ. eigenvalues --   -1.12892  -1.12821  -1.12330  -1.12307  -1.12295
 Alpha  occ. eigenvalues --   -0.18398  -0.12974  -0.12197  -0.11251
 Alpha virt. eigenvalues --   -0.05594  -0.05183  -0.04697  -0.03361  -0.02952
 Alpha virt. eigenvalues --   -0.02868  -0.01623  -0.01090  -0.00754   0.00175
 Alpha virt. eigenvalues --    0.00253   0.00326   0.00480   0.00531   0.00754

  Beta  occ. eigenvalues --  -38.44321 -38.44159 -38.44088 -38.44050 -38.43717
  Beta  occ. eigenvalues --  -38.43352 -38.42852  -2.20183  -2.19904  -2.19901
  Beta  occ. eigenvalues --   -2.19898  -2.19577  -2.19206  -2.18659  -1.13906
  Beta  occ. eigenvalues --   -1.13838  -1.13830  -1.13628  -1.13590  -1.13579
  Beta  occ. eigenvalues --   -1.13571  -1.13564  -1.13552  -1.13541  -1.13541
  Beta  occ. eigenvalues --   -1.13537  -1.13293  -1.13245  -1.13228  -1.12919
  Beta  occ. eigenvalues --   -1.12856  -1.12816  -1.12328  -1.12314  -1.12298
  Beta  occ. eigenvalues --   -0.17553  -0.12745  -0.11082
  Beta virt. eigenvalues --   -0.08191  -0.05382  -0.04849  -0.04297  -0.02905
  Beta virt. eigenvalues --   -0.02401  -0.02340  -0.01463  -0.00830  -0.00554
  Beta virt. eigenvalues --    0.00264   0.00321   0.00438   0.00553   0.00599

 Mulliken charges and spin densities:
               1          2
     1  Na  -0.454054   0.609057
     2  Na   0.002238   0.002532
     3  Na   0.350879   0.109202
     4  Na   0.244445   0.019367
     5  Na   0.205528   0.156899
     6  Na  -0.289757   0.125896
     7  Na  -0.059279  -0.022954
 Sum of Mulliken charges =  -0.00000   1.00000

 Dipole moment (field-independent basis, Debye):
    X=              0.4779    Y=             -0.2640    Z=              0.0350  Tot=              0.5471
 Quadrupole moment (field-independent basis, Debye-Ang):
   XX=            -57.2505   YY=            -72.3084   ZZ=            -65.2591
   XY=              0.8534   XZ=             -0.3110   YZ=              3.7247

 Normal termination of Gaussian 16 at Tue Dec  5 19:48:21 2023.
