 Gaussian 16, Revision B.01,
 Gaussian 16:  ES64L-G16RevB.01 20-Dec-2017

 -------------------------
 #P B3LYP/6-311+g(d) force
 -------------------------

 -----
 DPGEN
 -----
 Symbolic Z-matrix:
 Charge =  0 Multiplicity = 2

                         Standard orientation:
 ---------------------------------------------------------------------
 Center     Atomic      Atomic             Coordinates (Angstroms)
 Number     Number       Type             X           Y           Z
 ---------------------------------------------------------------------
      1         11           0        0.069930    3.209085    0.251894
      2         11           0        5.397174   -0.710964   -1.336900
      3         11           0        2.872853    1.273167    0.273849
      4         11           0        2.645552   -2.228285    1.659894
      5         11           0       -0.545127   -0.162992   -0.123298
      6         11           0       -4.108490   -1.338821   -1.187740
      7         11           0       -6.331892   -0.041191    0.462299
 ---------------------------------------------------------------------

 SCF Done:  E(UB3LYP) =  -1136.10958020     A.U. after   20 cycles

 The electronic state is 2-A.
 Alpha  occ. eigenvalues --  -38.44995 -38.44687 -38.44458 -38.44385 -38.44133
 Alpha  occ. eigenvalues --  -38.43842 -38.43450  -2.20783  -2.20446  -2.20247
 Alpha  occ. eigenvalues --   -2.20185  -2.19893  -2.19676  -2.19265  -1.14463
 Alpha  occ. eigenvalues --   -1.14433  -1.14429  -1.14122  -1.14094  -1.14053
 Alpha  occ. eigenvalues --   -1.13942  -1.13898  -1.13877  -1.13843  -1.13840
 Alpha  occ. eigenvalues --   -1.13832  -1.13560  -1.13554  -1.13505  -1.13387
 Alpha  occ. eigenvalues --   -1.13364  -1.13268  -1.12928  -1.12923  -1.12892
 Alpha  occ. eigenvalues --   -0.15964  -0.13862  -0.11896  -0.10683
 Alpha virt. eigenvalues --   -0.07297  -0.05043  -0.04843  -0.03339  -0.03055
 Alpha virt. eigenvalues --   -0.02422  -0.01999  -0.01613  -0.01495  -0.01037
 Alpha virt. eigenvalues --   -0.00618  -0.00216   0.00216   0.00400   0.00505

  Beta  occ. eigenvalues --  -38.44981 -38.44625 -38.44432 -38.44388 -38.44090
  Beta  occ. eigenvalues --  -38.43821 -38.43430  -2.20756  -2.20331  -2.20199
  Beta  occ. eigenvalues --   -2.20192  -2.19814  -2.19639  -2.19228  -1.14447
  Beta  occ. eigenvalues --   -1.14414  -1.14411  -1.14045  -1.14011  -1.13971
  Beta  occ. eigenvalues --   -1.13911  -1.13865  -1.13849  -1.13843  -1.13834
  Beta  occ. eigenvalues --   -1.13826  -1.13506  -1.13493  -1.13457  -1.13363
  Beta  occ. eigenvalues --   -1.13321  -1.13240  -1.12900  -1.12894  -1.12872
  Beta  occ. eigenvalues --   -0.15412  -0.13665  -0.11543
  Beta virt. eigenvalues --   -0.07456  -0.06533  -0.04828  -0.04516  -0.03184
  Beta virt. eigenvalues --   -0.02834  -0.02096  -0.01653  -0.01392  -0.01304
  Beta virt. eigenvalues --   -0.00754  -0.00336  -0.00002   0.00316   0.00517

 Mulliken charges and spin densities:
               1          2
     1  Na   0.353255   0.105544
     2  Na   0.347013   0.173679
     3  Na   0.163781   0.302923
     4  Na   0.308323   0.235952
     5  Na  -0.962915   0.172708
     6  Na  -0.295838  -0.048099
     7  Na   0.086382   0.057293
 Sum of Mulliken charges =  -0.00000   1.00000

 Dipole moment (field-independent basis, Debye):
    X=             -1.5472    Y=              0.0305    Z=              0.2183  Tot=              1.5628
 Quadrupole moment (field-independent basis, Debye-Ang):
   XX=            -59.6947   YY=            -66.9273   ZZ=            -67.3568
   XY=             -6.5362   XZ=             -4.7813   YZ=              3.2615

 Normal termination of Gaussian 16 at Wed Nov 29 03:36:06 2023.
