 Gaussian 16, Revision B.01,
 Gaussian 16:  ES64L-G16RevB.01 20-Dec-2017

 -------------------------
 #P B3LYP/6-311+g(d) force
 -------------------------

 -----
 DPGEN
 -----
 Symbolic Z-matrix:
 Charge =  0 Multiplicity = 2

                         Standard orientation:
 ---------------------------------------------------------------------
 Center     Atomic      Atomic             Coordinates (Angstroms)
 Number     Number       Type             X           Y           Z
 ---------------------------------------------------------------------
      1         11           0       -2.780695   -0.104511    0.937281
      2         11           0        1.362951    1.659750    1.391628
      3         11           0        1.199495   -1.565895    1.397167
      4         11           0        0.050647   -0.410897   -1.737388
      5         11           0        3.548411    0.329039   -0.816715
      6         11           0       -1.412131   -2.945139   -0.516633
      7         11           0       -1.968679    3.037653   -0.655340
 ---------------------------------------------------------------------

 SCF Done:  E(UB3LYP) =  -1136.12981151     A.U. after   20 cycles

 The electronic state is 2-A.
 Alpha  occ. eigenvalues --  -38.44506 -38.44461 -38.43967 -38.43806 -38.43782
 Alpha  occ. eigenvalues --  -38.43406 -38.43308  -2.20293  -2.20268  -2.19812
 Alpha  occ. eigenvalues --   -2.19689  -2.19672  -2.19170  -2.19166  -1.13977
 Alpha  occ. eigenvalues --   -1.13963  -1.13938  -1.13925  -1.13915  -1.13902
 Alpha  occ. eigenvalues --   -1.13543  -1.13467  -1.13421  -1.13385  -1.13358
 Alpha  occ. eigenvalues --   -1.13330  -1.13328  -1.13289  -1.13280  -1.12846
 Alpha  occ. eigenvalues --   -1.12837  -1.12829  -1.12817  -1.12807  -1.12806
 Alpha  occ. eigenvalues --   -0.17943  -0.13205  -0.11936  -0.10769
 Alpha virt. eigenvalues --   -0.06043  -0.05154  -0.04887  -0.03526  -0.02878
 Alpha virt. eigenvalues --   -0.02520  -0.01818  -0.01080  -0.00703  -0.00291
 Alpha virt. eigenvalues --    0.00137   0.00327   0.00518   0.00582   0.00738

  Beta  occ. eigenvalues --  -38.44498 -38.44444 -38.43934 -38.43757 -38.43715
  Beta  occ. eigenvalues --  -38.43404 -38.43304  -2.20280  -2.20238  -2.19754
  Beta  occ. eigenvalues --   -2.19601  -2.19549  -2.19166  -2.19163  -1.13958
  Beta  occ. eigenvalues --   -1.13955  -1.13920  -1.13907  -1.13891  -1.13880
  Beta  occ. eigenvalues --   -1.13491  -1.13413  -1.13383  -1.13324  -1.13277
  Beta  occ. eigenvalues --   -1.13248  -1.13242  -1.13221  -1.13199  -1.12831
  Beta  occ. eigenvalues --   -1.12830  -1.12828  -1.12817  -1.12805  -1.12796
  Beta  occ. eigenvalues --   -0.17232  -0.13000  -0.11813
  Beta virt. eigenvalues --   -0.06956  -0.05822  -0.04996  -0.04756  -0.02935
  Beta virt. eigenvalues --   -0.02406  -0.01682  -0.01619  -0.01029  -0.00445
  Beta virt. eigenvalues --   -0.00209   0.00213   0.00379   0.00647   0.00723

 Mulliken charges and spin densities:
               1          2
     1  Na  -0.228944   0.030493
     2  Na  -0.037156   0.212450
     3  Na  -0.153247   0.332203
     4  Na  -0.530075   0.619083
     5  Na   0.152622  -0.071985
     6  Na   0.697704  -0.019523
     7  Na   0.099097  -0.102721
 Sum of Mulliken charges =  -0.00000   1.00000

 Dipole moment (field-independent basis, Debye):
    X=              0.5148    Y=             -0.2843    Z=              0.1021  Tot=              0.5969
 Quadrupole moment (field-independent basis, Debye-Ang):
   XX=            -57.8611   YY=            -64.9253   ZZ=            -71.5869
   XY=              3.1025   XZ=             -2.2831   YZ=             -1.0958

 Normal termination of Gaussian 16 at Tue Dec  5 11:31:17 2023.
