 Gaussian 16, Revision B.01,
 Gaussian 16:  ES64L-G16RevB.01 20-Dec-2017

 -------------------------
 #P B3LYP/6-311+g(d) force
 -------------------------

 -----
 DPGEN
 -----
 Symbolic Z-matrix:
 Charge =  0 Multiplicity = 2

                         Standard orientation:
 ---------------------------------------------------------------------
 Center     Atomic      Atomic             Coordinates (Angstroms)
 Number     Number       Type             X           Y           Z
 ---------------------------------------------------------------------
      1         11           0       -0.602587   -2.776448   -0.672949
      2         11           0       -2.440705   -0.045688    1.956229
      3         11           0       -2.466256   -0.061140   -1.071480
      4         11           0       -0.767012    2.685416   -0.882094
      5         11           0        2.987388   -1.728856    0.017619
      6         11           0        0.600960   -0.052576    0.362783
      7         11           0        2.688213    1.979292    0.289892
 ---------------------------------------------------------------------

 SCF Done:  E(UB3LYP) =  -1136.12170048     A.U. after   19 cycles

 The electronic state is 2-A.
 Alpha  occ. eigenvalues --  -38.44459 -38.44260 -38.43817 -38.43686 -38.43656
 Alpha  occ. eigenvalues --  -38.43536 -38.42737  -2.20292  -2.20105  -2.19708
 Alpha  occ. eigenvalues --   -2.19647  -2.19512  -2.19392  -2.18896  -1.14035
 Alpha  occ. eigenvalues --   -1.13950  -1.13896  -1.13857  -1.13756  -1.13701
 Alpha  occ. eigenvalues --   -1.13472  -1.13361  -1.13326  -1.13321  -1.13291
 Alpha  occ. eigenvalues --   -1.13227  -1.13209  -1.13163  -1.13118  -1.13074
 Alpha  occ. eigenvalues --   -1.13036  -1.13012  -1.12572  -1.12563  -1.12538
 Alpha  occ. eigenvalues --   -0.18543  -0.13772  -0.12476  -0.10378
 Alpha virt. eigenvalues --   -0.05925  -0.05623  -0.04682  -0.03213  -0.02429
 Alpha virt. eigenvalues --   -0.02066  -0.01555  -0.01174  -0.00577  -0.00541
 Alpha virt. eigenvalues --   -0.00168   0.00309   0.00734   0.00802   0.00821

  Beta  occ. eigenvalues --  -38.44465 -38.44262 -38.43717 -38.43661 -38.43633
  Beta  occ. eigenvalues --  -38.43506 -38.42723  -2.20303  -2.20108  -2.19608
  Beta  occ. eigenvalues --   -2.19520  -2.19471  -2.19338  -2.18874  -1.14042
  Beta  occ. eigenvalues --   -1.13956  -1.13899  -1.13858  -1.13755  -1.13702
  Beta  occ. eigenvalues --   -1.13385  -1.13301  -1.13280  -1.13216  -1.13184
  Beta  occ. eigenvalues --   -1.13173  -1.13134  -1.13118  -1.13094  -1.13039
  Beta  occ. eigenvalues --   -1.12988  -1.12976  -1.12557  -1.12536  -1.12505
  Beta  occ. eigenvalues --   -0.17971  -0.13476  -0.12256
  Beta virt. eigenvalues --   -0.06563  -0.05796  -0.05417  -0.04397  -0.02727
  Beta virt. eigenvalues --   -0.01940  -0.01715  -0.01133  -0.00907  -0.00522
  Beta virt. eigenvalues --   -0.00430   0.00134   0.00412   0.00804   0.00838

 Mulliken charges and spin densities:
               1          2
     1  Na   0.880004   0.163882
     2  Na   0.255045   0.258178
     3  Na   0.558478   0.326457
     4  Na   0.593943   0.126134
     5  Na   0.051784  -0.180001
     6  Na  -2.492783   0.504036
     7  Na   0.153529  -0.198687
 Sum of Mulliken charges =  -0.00000   1.00000

 Dipole moment (field-independent basis, Debye):
    X=              0.8630    Y=             -0.0644    Z=             -0.2762  Tot=              0.9084
 Quadrupole moment (field-independent basis, Debye-Ang):
   XX=            -55.4370   YY=            -62.0700   ZZ=            -74.4832
   XY=              0.0886   XZ=              1.7538   YZ=              0.5916

 Normal termination of Gaussian 16 at Fri Dec  8 02:00:47 2023.
