 Gaussian 16, Revision B.01,
 Gaussian 16:  ES64L-G16RevB.01 20-Dec-2017

 -------------------------
 #P B3LYP/6-311+g(d) force
 -------------------------

 -----
 DPGEN
 -----
 Symbolic Z-matrix:
 Charge =  0 Multiplicity = 2

                         Standard orientation:
 ---------------------------------------------------------------------
 Center     Atomic      Atomic             Coordinates (Angstroms)
 Number     Number       Type             X           Y           Z
 ---------------------------------------------------------------------
      1         11           0        0.274320    0.040908    1.809467
      2         11           0        1.227569    2.741885   -0.060466
      3         11           0       -0.356480    0.285090   -1.590990
      4         11           0        3.494909   -0.415090   -0.634167
      5         11           0       -2.605679    1.799709    0.463636
      6         11           0       -2.988510   -1.803943   -0.614653
      7         11           0        0.953871   -2.648558    0.627172
 ---------------------------------------------------------------------

 SCF Done:  E(UB3LYP) =  -1136.13023162     A.U. after   20 cycles

 The electronic state is 2-A.
 Alpha  occ. eigenvalues --  -38.44642 -38.44410 -38.43979 -38.43636 -38.43402
 Alpha  occ. eigenvalues --  -38.43360 -38.43298  -2.20414  -2.20217  -2.19759
 Alpha  occ. eigenvalues --   -2.19557  -2.19311  -2.19236  -2.19148  -1.14091
 Alpha  occ. eigenvalues --   -1.14058  -1.14048  -1.13901  -1.13888  -1.13834
 Alpha  occ. eigenvalues --   -1.13438  -1.13403  -1.13401  -1.13268  -1.13205
 Alpha  occ. eigenvalues --   -1.13172  -1.13068  -1.12976  -1.12932  -1.12918
 Alpha  occ. eigenvalues --   -1.12893  -1.12848  -1.12793  -1.12788  -1.12751
 Alpha  occ. eigenvalues --   -0.18177  -0.13028  -0.12098  -0.10572
 Alpha virt. eigenvalues --   -0.06119  -0.05459  -0.04405  -0.03225  -0.02795
 Alpha virt. eigenvalues --   -0.02293  -0.01982  -0.01375  -0.00474  -0.00405
 Alpha virt. eigenvalues --   -0.00031   0.00267   0.00671   0.00735   0.00837

  Beta  occ. eigenvalues --  -38.44623 -38.44402 -38.43963 -38.43591 -38.43400
  Beta  occ. eigenvalues --  -38.43280 -38.43275  -2.20379  -2.20205  -2.19732
  Beta  occ. eigenvalues --   -2.19476  -2.19236  -2.19157  -2.19118  -1.14062
  Beta  occ. eigenvalues --   -1.14029  -1.14026  -1.13883  -1.13879  -1.13821
  Beta  occ. eigenvalues --   -1.13410  -1.13387  -1.13381  -1.13207  -1.13153
  Beta  occ. eigenvalues --   -1.13110  -1.12982  -1.12927  -1.12908  -1.12851
  Beta  occ. eigenvalues --   -1.12836  -1.12815  -1.12763  -1.12738  -1.12719
  Beta  occ. eigenvalues --   -0.17526  -0.12736  -0.11805
  Beta virt. eigenvalues --   -0.06903  -0.05943  -0.05338  -0.04343  -0.02616
  Beta virt. eigenvalues --   -0.02118  -0.01852  -0.01367  -0.01283  -0.00465
  Beta virt. eigenvalues --   -0.00347   0.00080   0.00327   0.00747   0.00781

 Mulliken charges and spin densities:
               1          2
     1  Na   0.221622   0.358552
     2  Na  -0.009543  -0.013433
     3  Na  -0.201446   0.477995
     4  Na  -0.141826   0.114573
     5  Na   0.142025   0.000378
     6  Na  -0.092108   0.034615
     7  Na   0.081276   0.027319
 Sum of Mulliken charges =  -0.00000   1.00000

 Dipole moment (field-independent basis, Debye):
    X=             -0.0747    Y=              0.2866    Z=             -0.0448  Tot=              0.2995
 Quadrupole moment (field-independent basis, Debye-Ang):
   XX=            -53.4424   YY=            -64.1322   ZZ=            -74.6852
   XY=             -0.5944   XZ=             -2.3691   YZ=              1.5117

 Normal termination of Gaussian 16 at Tue Dec  5 13:24:52 2023.
