 Gaussian 16, Revision B.01,
 Gaussian 16:  ES64L-G16RevB.01 20-Dec-2017

 -------------------------
 #P B3LYP/6-311+g(d) force
 -------------------------

 -----
 DPGEN
 -----
 Symbolic Z-matrix:
 Charge =  0 Multiplicity = 2

                         Standard orientation:
 ---------------------------------------------------------------------
 Center     Atomic      Atomic             Coordinates (Angstroms)
 Number     Number       Type             X           Y           Z
 ---------------------------------------------------------------------
      1         11           0        3.898738    1.330421   -0.457218
      2         11           0        2.169101   -1.758785   -0.911906
      3         11           0       -4.069755    0.187846   -0.212194
      4         11           0       -1.145930   -1.046920   -1.599933
      5         11           0       -1.048040    2.416069   -0.299761
      6         11           0       -1.618234   -0.807732    1.621492
      7         11           0        1.814119   -0.320900    1.859521
 ---------------------------------------------------------------------

 SCF Done:  E(UB3LYP) =  -1136.11097322     A.U. after   31 cycles

 The electronic state is 2-A.
 Alpha  occ. eigenvalues --  -38.45771 -38.44789 -38.44205 -38.44178 -38.43898
 Alpha  occ. eigenvalues --  -38.43653 -38.43637  -2.21591  -2.20549  -2.20052
 Alpha  occ. eigenvalues --   -2.19977  -2.19812  -2.19524  -2.19512  -1.15289
 Alpha  occ. eigenvalues --   -1.15245  -1.15207  -1.14248  -1.14226  -1.14147
 Alpha  occ. eigenvalues --   -1.13747  -1.13727  -1.13676  -1.13651  -1.13634
 Alpha  occ. eigenvalues --   -1.13610  -1.13496  -1.13475  -1.13420  -1.13221
 Alpha  occ. eigenvalues --   -1.13199  -1.13182  -1.13178  -1.13135  -1.13093
 Alpha  occ. eigenvalues --   -0.18111  -0.14442  -0.11190  -0.10558
 Alpha virt. eigenvalues --   -0.07596  -0.05291  -0.05103  -0.03235  -0.02922
 Alpha virt. eigenvalues --   -0.02441  -0.02217  -0.01468  -0.00971  -0.00359
 Alpha virt. eigenvalues --   -0.00055   0.00134   0.00191   0.00537   0.00635

  Beta  occ. eigenvalues --  -38.45771 -38.44770 -38.44210 -38.44128 -38.43838
  Beta  occ. eigenvalues --  -38.43636 -38.43596  -2.21594  -2.20514  -2.19987
  Beta  occ. eigenvalues --   -2.19961  -2.19703  -2.19480  -2.19447  -1.15284
  Beta  occ. eigenvalues --   -1.15241  -1.15208  -1.14223  -1.14190  -1.14125
  Beta  occ. eigenvalues --   -1.13689  -1.13661  -1.13660  -1.13644  -1.13636
  Beta  occ. eigenvalues --   -1.13569  -1.13428  -1.13374  -1.13349  -1.13179
  Beta  occ. eigenvalues --   -1.13164  -1.13148  -1.13122  -1.13101  -1.13054
  Beta  occ. eigenvalues --   -0.17451  -0.14327  -0.10338
  Beta virt. eigenvalues --   -0.07392  -0.07281  -0.05308  -0.04379  -0.02954
  Beta virt. eigenvalues --   -0.02776  -0.01767  -0.01641  -0.01376  -0.00536
  Beta virt. eigenvalues --   -0.00257  -0.00021   0.00142   0.00318   0.00613

 Mulliken charges and spin densities:
               1          2
     1  Na   0.064165  -0.131076
     2  Na  -0.039454   0.209922
     3  Na   1.388819   0.125412
     4  Na  -0.343227   0.324527
     5  Na  -0.487879   0.091962
     6  Na  -0.434906   0.142624
     7  Na  -0.147516   0.236630
 Sum of Mulliken charges =  -0.00000   1.00000

 Dipole moment (field-independent basis, Debye):
    X=             -1.4083    Y=             -0.1183    Z=             -0.1197  Tot=              1.4183
 Quadrupole moment (field-independent basis, Debye-Ang):
   XX=            -47.0521   YY=            -78.7672   ZZ=            -70.6127
   XY=              0.7819   XZ=             -1.0308   YZ=             -1.5709

 Normal termination of Gaussian 16 at Thu Dec  7 16:16:05 2023.
