 Gaussian 16, Revision B.01,
 Gaussian 16:  ES64L-G16RevB.01 20-Dec-2017

 -------------------------
 #P B3LYP/6-311+g(d) force
 -------------------------

 -----
 DPGEN
 -----
 Symbolic Z-matrix:
 Charge =  0 Multiplicity = 2

                         Standard orientation:
 ---------------------------------------------------------------------
 Center     Atomic      Atomic             Coordinates (Angstroms)
 Number     Number       Type             X           Y           Z
 ---------------------------------------------------------------------
      1         11           0       -1.733273   -1.876839    0.635857
      2         11           0       -0.165336    0.938071   -1.997552
      3         11           0        0.939896   -0.847574    2.158767
      4         11           0        3.322577    0.503350   -0.322487
      5         11           0        0.043572    2.633370    1.019587
      6         11           0       -3.263951    0.711543   -0.254746
      7         11           0        0.856515   -2.061922   -1.239426
 ---------------------------------------------------------------------

 SCF Done:  E(UB3LYP) =  -1136.12894118     A.U. after   21 cycles

 The electronic state is 2-A.
 Alpha  occ. eigenvalues --  -38.44604 -38.44172 -38.44062 -38.44011 -38.43848
 Alpha  occ. eigenvalues --  -38.43563 -38.42864  -2.20375  -2.20037  -2.19886
 Alpha  occ. eigenvalues --   -2.19877  -2.19640  -2.19462  -2.18775  -1.14052
 Alpha  occ. eigenvalues --   -1.14033  -1.14017  -1.13718  -1.13664  -1.13657
 Alpha  occ. eigenvalues --   -1.13585  -1.13572  -1.13550  -1.13538  -1.13509
 Alpha  occ. eigenvalues --   -1.13478  -1.13319  -1.13299  -1.13255  -1.13158
 Alpha  occ. eigenvalues --   -1.13101  -1.13082  -1.12452  -1.12436  -1.12414
 Alpha  occ. eigenvalues --   -0.18311  -0.12789  -0.11926  -0.11829
 Alpha virt. eigenvalues --   -0.06178  -0.04491  -0.04236  -0.03549  -0.03501
 Alpha virt. eigenvalues --   -0.03272  -0.01739  -0.00577  -0.00425  -0.00015
 Alpha virt. eigenvalues --    0.00147   0.00389   0.00429   0.00831   0.00905

  Beta  occ. eigenvalues --  -38.44607 -38.44099 -38.44064 -38.43953 -38.43822
  Beta  occ. eigenvalues --  -38.43523 -38.42855  -2.20382  -2.19903  -2.19880
  Beta  occ. eigenvalues --   -2.19780  -2.19592  -2.19391  -2.18763  -1.14046
  Beta  occ. eigenvalues --   -1.14032  -1.14024  -1.13625  -1.13578  -1.13574
  Beta  occ. eigenvalues --   -1.13556  -1.13538  -1.13512  -1.13503  -1.13457
  Beta  occ. eigenvalues --   -1.13414  -1.13280  -1.13263  -1.13221  -1.13108
  Beta  occ. eigenvalues --   -1.13039  -1.13030  -1.12439  -1.12418  -1.12400
  Beta  occ. eigenvalues --   -0.17502  -0.12639  -0.11659
  Beta virt. eigenvalues --   -0.07895  -0.06072  -0.04280  -0.03928  -0.03140
  Beta virt. eigenvalues --   -0.02856  -0.02254  -0.01673  -0.00551  -0.00180
  Beta virt. eigenvalues --    0.00026   0.00172   0.00437   0.00553   0.00857

 Mulliken charges and spin densities:
               1          2
     1  Na   0.291860   0.270346
     2  Na   0.094228   0.339159
     3  Na  -0.202522   0.465324
     4  Na   0.141738  -0.131083
     5  Na  -0.230801   0.091869
     6  Na   0.036029  -0.182852
     7  Na  -0.130531   0.147237
 Sum of Mulliken charges =  -0.00000   1.00000

 Dipole moment (field-independent basis, Debye):
    X=              0.5786    Y=              0.3651    Z=              0.0304  Tot=              0.6848
 Quadrupole moment (field-independent basis, Debye-Ang):
   XX=            -57.4001   YY=            -72.3364   ZZ=            -66.3011
   XY=             -0.3978   XZ=             -0.5085   YZ=              2.1832

 Normal termination of Gaussian 16 at Sun Dec  3 12:05:15 2023.
