 Gaussian 16, Revision B.01,
 Gaussian 16:  ES64L-G16RevB.01 20-Dec-2017

 -------------------------
 #P B3LYP/6-311+g(d) force
 -------------------------

 -----
 DPGEN
 -----
 Symbolic Z-matrix:
 Charge =  0 Multiplicity = 2

                         Standard orientation:
 ---------------------------------------------------------------------
 Center     Atomic      Atomic             Coordinates (Angstroms)
 Number     Number       Type             X           Y           Z
 ---------------------------------------------------------------------
      1         11           0        1.875640   -2.150985   -0.966709
      2         11           0       -0.068595    3.012530   -0.134373
      3         11           0        2.841106    0.936636    0.426547
      4         11           0        0.282865   -0.533821    2.050696
      5         11           0       -1.710634   -2.390742    0.176590
      6         11           0       -2.980357    0.762056    0.021374
      7         11           0       -0.240025    0.364325   -1.574125
 ---------------------------------------------------------------------

 SCF Done:  E(UB3LYP) =  -1136.13737977     A.U. after   18 cycles

 The electronic state is 2-A.
 Alpha  occ. eigenvalues --  -38.43842 -38.43753 -38.43705 -38.43617 -38.43468
 Alpha  occ. eigenvalues --  -38.43440 -38.43148  -2.19690  -2.19646  -2.19551
 Alpha  occ. eigenvalues --   -2.19466  -2.19323  -2.19301  -2.19161  -1.13398
 Alpha  occ. eigenvalues --   -1.13352  -1.13319  -1.13318  -1.13305  -1.13271
 Alpha  occ. eigenvalues --   -1.13216  -1.13206  -1.13190  -1.13159  -1.13100
 Alpha  occ. eigenvalues --   -1.13097  -1.13092  -1.12978  -1.12975  -1.12964
 Alpha  occ. eigenvalues --   -1.12934  -1.12929  -1.12822  -1.12780  -1.12768
 Alpha  occ. eigenvalues --   -0.18681  -0.12940  -0.12553  -0.11020
 Alpha virt. eigenvalues --   -0.05373  -0.05010  -0.04769  -0.03296  -0.03078
 Alpha virt. eigenvalues --   -0.02639  -0.01328  -0.01103  -0.00316  -0.00189
 Alpha virt. eigenvalues --    0.00027   0.00366   0.00857   0.00886   0.00917

  Beta  occ. eigenvalues --  -38.43841 -38.43695 -38.43668 -38.43582 -38.43467
  Beta  occ. eigenvalues --  -38.43434 -38.43092  -2.19690  -2.19535  -2.19489
  Beta  occ. eigenvalues --   -2.19405  -2.19323  -2.19294  -2.19058  -1.13393
  Beta  occ. eigenvalues --   -1.13344  -1.13316  -1.13247  -1.13205  -1.13186
  Beta  occ. eigenvalues --   -1.13186  -1.13166  -1.13140  -1.13105  -1.13080
  Beta  occ. eigenvalues --   -1.13056  -1.13050  -1.12968  -1.12966  -1.12945
  Beta  occ. eigenvalues --   -1.12933  -1.12919  -1.12754  -1.12712  -1.12695
  Beta  occ. eigenvalues --   -0.17980  -0.12694  -0.12300
  Beta virt. eigenvalues --   -0.07102  -0.05344  -0.04961  -0.04652  -0.02571
  Beta virt. eigenvalues --   -0.02355  -0.01622  -0.01235  -0.01004  -0.00294
  Beta virt. eigenvalues --   -0.00196   0.00135   0.00403   0.00871   0.00921

 Mulliken charges and spin densities:
               1          2
     1  Na   0.054320   0.108157
     2  Na   0.042160  -0.050710
     3  Na   0.126454   0.066951
     4  Na  -0.362631   0.588850
     5  Na   0.218215   0.028477
     6  Na  -0.020433  -0.057354
     7  Na  -0.058085   0.315628
 Sum of Mulliken charges =  -0.00000   1.00000

 Dipole moment (field-independent basis, Debye):
    X=             -0.0540    Y=             -0.0003    Z=              0.2450  Tot=              0.2509
 Quadrupole moment (field-independent basis, Debye-Ang):
   XX=            -58.8378   YY=            -62.3031   ZZ=            -72.8954
   XY=              0.0903   XZ=             -0.9837   YZ=              2.1131

 Normal termination of Gaussian 16 at Thu Dec  7 06:39:04 2023.
