 Gaussian 16, Revision B.01,
 Gaussian 16:  ES64L-G16RevB.01 20-Dec-2017

 -------------------------
 #P B3LYP/6-311+g(d) force
 -------------------------

 -----
 DPGEN
 -----
 Symbolic Z-matrix:
 Charge =  0 Multiplicity = 2

                         Standard orientation:
 ---------------------------------------------------------------------
 Center     Atomic      Atomic             Coordinates (Angstroms)
 Number     Number       Type             X           Y           Z
 ---------------------------------------------------------------------
      1         11           0        2.066657    2.259857   -0.318224
      2         11           0        3.110506   -0.628261    0.133076
      3         11           0       -0.585146   -0.397278   -1.705360
      4         11           0       -1.848450    2.472869   -0.251159
      5         11           0       -3.371058   -1.048571    0.291260
      6         11           0        0.667946   -2.851457   -0.228263
      7         11           0       -0.040455    0.192841    2.078671
 ---------------------------------------------------------------------

 SCF Done:  E(UB3LYP) =  -1136.13086506     A.U. after   21 cycles

 The electronic state is 2-A.
 Alpha  occ. eigenvalues --  -38.45080 -38.44053 -38.43968 -38.43870 -38.43596
 Alpha  occ. eigenvalues --  -38.43368 -38.43280  -2.20843  -2.19909  -2.19768
 Alpha  occ. eigenvalues --   -2.19714  -2.19421  -2.19288  -2.19132  -1.14519
 Alpha  occ. eigenvalues --   -1.14494  -1.14485  -1.13614  -1.13566  -1.13555
 Alpha  occ. eigenvalues --   -1.13455  -1.13439  -1.13393  -1.13381  -1.13345
 Alpha  occ. eigenvalues --   -1.13328  -1.13098  -1.13078  -1.13055  -1.13009
 Alpha  occ. eigenvalues --   -1.12944  -1.12908  -1.12791  -1.12781  -1.12757
 Alpha  occ. eigenvalues --   -0.18146  -0.13224  -0.12082  -0.10585
 Alpha virt. eigenvalues --   -0.06385  -0.05376  -0.04399  -0.03360  -0.02802
 Alpha virt. eigenvalues --   -0.02500  -0.01995  -0.01182  -0.00612  -0.00366
 Alpha virt. eigenvalues --   -0.00060   0.00328   0.00665   0.00733   0.00782

  Beta  occ. eigenvalues --  -38.45076 -38.44052 -38.43960 -38.43779 -38.43592
  Beta  occ. eigenvalues --  -38.43307 -38.43274  -2.20838  -2.19909  -2.19757
  Beta  occ. eigenvalues --   -2.19545  -2.19417  -2.19175  -2.19125  -1.14499
  Beta  occ. eigenvalues --   -1.14492  -1.14483  -1.13618  -1.13562  -1.13542
  Beta  occ. eigenvalues --   -1.13440  -1.13417  -1.13387  -1.13268  -1.13228
  Beta  occ. eigenvalues --   -1.13206  -1.13097  -1.13058  -1.13052  -1.12945
  Beta  occ. eigenvalues --   -1.12867  -1.12829  -1.12774  -1.12753  -1.12746
  Beta  occ. eigenvalues --   -0.17442  -0.13049  -0.11852
  Beta virt. eigenvalues --   -0.06751  -0.06294  -0.05334  -0.04322  -0.02647
  Beta virt. eigenvalues --   -0.02075  -0.01855  -0.01492  -0.01106  -0.00654
  Beta virt. eigenvalues --   -0.00401   0.00100   0.00361   0.00753   0.00790

 Mulliken charges and spin densities:
               1          2
     1  Na  -0.030871  -0.023480
     2  Na   0.078014   0.019018
     3  Na  -0.000303   0.460005
     4  Na   0.020613  -0.048252
     5  Na   0.060367  -0.072596
     6  Na   0.241545  -0.062303
     7  Na  -0.369365   0.727608
 Sum of Mulliken charges =  -0.00000   1.00000

 Dipole moment (field-independent basis, Debye):
    X=             -0.7692    Y=             -0.0608    Z=              0.1909  Tot=              0.7949
 Quadrupole moment (field-independent basis, Debye-Ang):
   XX=            -53.2329   YY=            -65.1339   ZZ=            -75.2273
   XY=              0.4567   XZ=             -0.9790   YZ=             -1.5887

 Normal termination of Gaussian 16 at Thu Dec  7 10:07:58 2023.
