 Gaussian 16, Revision B.01,
 Gaussian 16:  ES64L-G16RevB.01 20-Dec-2017

 -------------------------
 #P B3LYP/6-311+g(d) force
 -------------------------

 -----
 DPGEN
 -----
 Symbolic Z-matrix:
 Charge =  0 Multiplicity = 2

                         Standard orientation:
 ---------------------------------------------------------------------
 Center     Atomic      Atomic             Coordinates (Angstroms)
 Number     Number       Type             X           Y           Z
 ---------------------------------------------------------------------
      1         11           0       -0.783984   -2.025243    0.550399
      2         11           0       -4.140891   -2.616082   -0.189561
      3         11           0       -2.824147    0.279635   -0.399757
      4         11           0       -1.928325    3.613942    0.238524
      5         11           0        0.350553    1.461959   -0.575462
      6         11           0        2.986799    0.192798    0.955409
      7         11           0        6.339994   -0.907009   -0.579552
 ---------------------------------------------------------------------

 SCF Done:  E(UB3LYP) =  -1136.11985247     A.U. after   19 cycles

 The electronic state is 2-A.
 Alpha  occ. eigenvalues --  -38.44860 -38.44561 -38.44498 -38.43901 -38.43610
 Alpha  occ. eigenvalues --  -38.43587 -38.43545  -2.20687  -2.20338  -2.20327
 Alpha  occ. eigenvalues --   -2.19825  -2.19506  -2.19413  -2.19316  -1.14405
 Alpha  occ. eigenvalues --   -1.14372  -1.14259  -1.14012  -1.13979  -1.13974
 Alpha  occ. eigenvalues --   -1.13974  -1.13945  -1.13937  -1.13556  -1.13519
 Alpha  occ. eigenvalues --   -1.13398  -1.13216  -1.13183  -1.13163  -1.13068
 Alpha  occ. eigenvalues --   -1.13063  -1.13028  -1.12999  -1.12989  -1.12948
 Alpha  occ. eigenvalues --   -0.17170  -0.13561  -0.12670  -0.10905
 Alpha virt. eigenvalues --   -0.06230  -0.05519  -0.04769  -0.03673  -0.02629
 Alpha virt. eigenvalues --   -0.02259  -0.02094  -0.01402  -0.01356  -0.00853
 Alpha virt. eigenvalues --   -0.00300  -0.00073   0.00078   0.00340   0.00587

  Beta  occ. eigenvalues --  -38.44829 -38.44483 -38.44438 -38.43891 -38.43596
  Beta  occ. eigenvalues --  -38.43569 -38.43563  -2.20631  -2.20299  -2.20107
  Beta  occ. eigenvalues --   -2.19807  -2.19482  -2.19379  -2.19355  -1.14369
  Beta  occ. eigenvalues --   -1.14336  -1.14208  -1.13988  -1.13961  -1.13929
  Beta  occ. eigenvalues --   -1.13818  -1.13817  -1.13785  -1.13527  -1.13509
  Beta  occ. eigenvalues --   -1.13386  -1.13204  -1.13171  -1.13133  -1.13050
  Beta  occ. eigenvalues --   -1.13043  -1.13031  -1.13021  -1.12992  -1.12934
  Beta  occ. eigenvalues --   -0.16781  -0.13284  -0.11970
  Beta virt. eigenvalues --   -0.07448  -0.05778  -0.05274  -0.04544  -0.03388
  Beta virt. eigenvalues --   -0.02369  -0.02077  -0.01902  -0.01155  -0.00847
  Beta virt. eigenvalues --   -0.00447  -0.00071   0.00116   0.00280   0.00488

 Mulliken charges and spin densities:
               1          2
     1  Na  -0.219385   0.147407
     2  Na   0.806375   0.045600
     3  Na  -0.766987   0.233838
     4  Na   0.864945   0.141959
     5  Na  -1.053875  -0.103907
     6  Na   0.361344  -0.094574
     7  Na   0.007582   0.629677
 Sum of Mulliken charges =  -0.00000   1.00000

 Dipole moment (field-independent basis, Debye):
    X=             -2.0439    Y=             -0.7936    Z=              0.1667  Tot=              2.1989
 Quadrupole moment (field-independent basis, Debye-Ang):
   XX=            -65.9700   YY=            -61.1109   ZZ=            -70.2194
   XY=              5.0123   XZ=             -1.3479   YZ=              1.6590

 Normal termination of Gaussian 16 at Wed Nov 29 04:10:34 2023.
