 Gaussian 16, Revision B.01,
 Gaussian 16:  ES64L-G16RevB.01 20-Dec-2017

 -------------------------
 #P B3LYP/6-311+g(d) force
 -------------------------

 -----
 DPGEN
 -----
 Symbolic Z-matrix:
 Charge =  0 Multiplicity = 2

                         Standard orientation:
 ---------------------------------------------------------------------
 Center     Atomic      Atomic             Coordinates (Angstroms)
 Number     Number       Type             X           Y           Z
 ---------------------------------------------------------------------
      1         11           0       -2.894619    0.645341   -0.351884
      2         11           0       -1.623044   -2.070418    0.482688
      3         11           0        2.857267    0.480399   -0.060961
      4         11           0        1.488464   -2.477817   -0.287781
      5         11           0       -0.158348    0.043605   -1.726997
      6         11           0        0.057491    0.425750    2.028057
      7         11           0        0.272788    2.953140   -0.083122
 ---------------------------------------------------------------------

 SCF Done:  E(UB3LYP) =  -1136.13741229     A.U. after   17 cycles

 The electronic state is 2-A.
 Alpha  occ. eigenvalues --  -38.43703 -38.43696 -38.43690 -38.43502 -38.43293
 Alpha  occ. eigenvalues --  -38.43233 -38.43182  -2.19622  -2.19593  -2.19562
 Alpha  occ. eigenvalues --   -2.19359  -2.19307  -2.19173  -2.19073  -1.13330
 Alpha  occ. eigenvalues --   -1.13298  -1.13274  -1.13264  -1.13258  -1.13241
 Alpha  occ. eigenvalues --   -1.13220  -1.13211  -1.13191  -1.13050  -1.13028
 Alpha  occ. eigenvalues --   -1.12987  -1.12980  -1.12936  -1.12925  -1.12856
 Alpha  occ. eigenvalues --   -1.12830  -1.12813  -1.12734  -1.12715  -1.12699
 Alpha  occ. eigenvalues --   -0.19183  -0.13037  -0.12667  -0.11202
 Alpha virt. eigenvalues --   -0.05349  -0.04828  -0.04614  -0.03346  -0.03088
 Alpha virt. eigenvalues --   -0.02804  -0.01231  -0.01047  -0.00107  -0.00030
 Alpha virt. eigenvalues --    0.00108   0.00378   0.00899   0.00938   0.00984

  Beta  occ. eigenvalues --  -38.43694 -38.43686 -38.43604 -38.43498 -38.43221
  Beta  occ. eigenvalues --  -38.43219 -38.43178  -2.19581  -2.19557  -2.19453
  Beta  occ. eigenvalues --   -2.19355  -2.19176  -2.19151  -2.19068  -1.13314
  Beta  occ. eigenvalues --   -1.13254  -1.13240  -1.13214  -1.13206  -1.13199
  Beta  occ. eigenvalues --   -1.13172  -1.13148  -1.13116  -1.13032  -1.13002
  Beta  occ. eigenvalues --   -1.12977  -1.12914  -1.12858  -1.12842  -1.12827
  Beta  occ. eigenvalues --   -1.12811  -1.12766  -1.12720  -1.12705  -1.12686
  Beta  occ. eigenvalues --   -0.18427  -0.12777  -0.12408
  Beta virt. eigenvalues --   -0.07230  -0.05352  -0.04764  -0.04600  -0.02506
  Beta virt. eigenvalues --   -0.02307  -0.01721  -0.01155  -0.00985  -0.00096
  Beta virt. eigenvalues --   -0.00015   0.00138   0.00396   0.00896   0.00951

 Mulliken charges and spin densities:
               1          2
     1  Na   0.244988  -0.055713
     2  Na   0.243890   0.147630
     3  Na   0.140581  -0.046555
     4  Na   0.066777  -0.020626
     5  Na  -0.372595   0.495631
     6  Na  -0.454902   0.592791
     7  Na   0.131261  -0.113157
 Sum of Mulliken charges =  -0.00000   1.00000

 Dipole moment (field-independent basis, Debye):
    X=              0.0516    Y=              0.3571    Z=              0.1197  Tot=              0.3802
 Quadrupole moment (field-independent basis, Debye-Ang):
   XX=            -60.2366   YY=            -62.5421   ZZ=            -72.0053
   XY=             -0.3995   XZ=             -0.2674   YZ=             -0.8282

 Normal termination of Gaussian 16 at Thu Dec  7 11:57:36 2023.
