 Gaussian 16, Revision B.01,
 Gaussian 16:  ES64L-G16RevB.01 20-Dec-2017

 -------------------------
 #P B3LYP/6-311+g(d) force
 -------------------------

 -----
 DPGEN
 -----
 Symbolic Z-matrix:
 Charge =  0 Multiplicity = 2

                         Standard orientation:
 ---------------------------------------------------------------------
 Center     Atomic      Atomic             Coordinates (Angstroms)
 Number     Number       Type             X           Y           Z
 ---------------------------------------------------------------------
      1         11           0       -0.024230   -0.160441    1.974221
      2         11           0       -0.292420   -0.050080   -1.744875
      3         11           0       -0.076781    2.839828   -0.003323
      4         11           0        1.906816   -2.016631   -0.033904
      5         11           0       -1.458030   -2.386595   -0.110780
      6         11           0       -2.839636    0.777742    0.059222
      7         11           0        2.784281    0.996177   -0.140560
 ---------------------------------------------------------------------

 SCF Done:  E(UB3LYP) =  -1136.13937837     A.U. after   19 cycles

 The electronic state is 2-A.
 Alpha  occ. eigenvalues --  -38.43671 -38.43546 -38.43509 -38.43301 -38.43297
 Alpha  occ. eigenvalues --  -38.43271 -38.43257  -2.19556  -2.19457  -2.19420
 Alpha  occ. eigenvalues --   -2.19278  -2.19226  -2.19217  -2.19142  -1.13262
 Alpha  occ. eigenvalues --   -1.13226  -1.13191  -1.13150  -1.13125  -1.13093
 Alpha  occ. eigenvalues --   -1.13085  -1.13078  -1.13062  -1.13041  -1.12938
 Alpha  occ. eigenvalues --   -1.12921  -1.12884  -1.12870  -1.12863  -1.12854
 Alpha  occ. eigenvalues --   -1.12837  -1.12810  -1.12805  -1.12799  -1.12771
 Alpha  occ. eigenvalues --   -0.19322  -0.13103  -0.12731  -0.11062
 Alpha virt. eigenvalues --   -0.05278  -0.04927  -0.04697  -0.03233  -0.03026
 Alpha virt. eigenvalues --   -0.02689  -0.01239  -0.00995  -0.00084  -0.00034
 Alpha virt. eigenvalues --   -0.00000   0.00377   0.00899   0.00957   0.00972

  Beta  occ. eigenvalues --  -38.43665 -38.43543 -38.43417 -38.43292 -38.43290
  Beta  occ. eigenvalues --  -38.43267 -38.43182  -2.19550  -2.19418  -2.19287
  Beta  occ. eigenvalues --   -2.19215  -2.19209  -2.19140  -2.19138  -1.13253
  Beta  occ. eigenvalues --   -1.13193  -1.13189  -1.13136  -1.13081  -1.13054
  Beta  occ. eigenvalues --   -1.13040  -1.12985  -1.12968  -1.12959  -1.12889
  Beta  occ. eigenvalues --   -1.12865  -1.12860  -1.12839  -1.12833  -1.12809
  Beta  occ. eigenvalues --   -1.12803  -1.12786  -1.12777  -1.12772  -1.12747
  Beta  occ. eigenvalues --   -0.18558  -0.12844  -0.12463
  Beta virt. eigenvalues --   -0.07089  -0.05267  -0.04930  -0.04673  -0.02393
  Beta virt. eigenvalues --   -0.02197  -0.01599  -0.01166  -0.00932  -0.00142
  Beta virt. eigenvalues --   -0.00085   0.00116   0.00391   0.00932   0.00948

 Mulliken charges and spin densities:
               1          2
     1  Na  -0.606755   0.740275
     2  Na  -0.484650   0.587845
     3  Na   0.081902  -0.087323
     4  Na   0.299621  -0.030644
     5  Na   0.454383  -0.058405
     6  Na   0.254604  -0.077429
     7  Na   0.000894  -0.074318
 Sum of Mulliken charges =  -0.00000   1.00000

 Dipole moment (field-independent basis, Debye):
    X=             -0.1351    Y=              0.0791    Z=              0.1352  Tot=              0.2068
 Quadrupole moment (field-independent basis, Debye-Ang):
   XX=            -59.0662   YY=            -62.7064   ZZ=            -72.7194
   XY=              0.0911   XZ=             -0.6302   YZ=              0.2245

 Normal termination of Gaussian 16 at Thu Dec  7 20:06:20 2023.
