 Gaussian 16, Revision B.01,
 Gaussian 16:  ES64L-G16RevB.01 20-Dec-2017

 -------------------------
 #P B3LYP/6-311+g(d) force
 -------------------------

 -----
 DPGEN
 -----
 Symbolic Z-matrix:
 Charge =  0 Multiplicity = 2

                         Standard orientation:
 ---------------------------------------------------------------------
 Center     Atomic      Atomic             Coordinates (Angstroms)
 Number     Number       Type             X           Y           Z
 ---------------------------------------------------------------------
      1         11           0        0.192857   -0.363000    2.209031
      2         11           0       -1.981819   -2.326628   -0.200675
      3         11           0       -0.463787    2.811682   -0.090265
      4         11           0        2.408169   -2.028531   -0.200757
      5         11           0       -3.272213    0.680806   -0.010098
      6         11           0        2.895366    1.347998   -0.013893
      7         11           0        0.221428   -0.122326   -1.693341
 ---------------------------------------------------------------------

 SCF Done:  E(UB3LYP) =  -1136.13469974     A.U. after   19 cycles

 The electronic state is 2-A.
 Alpha  occ. eigenvalues --  -38.44406 -38.44297 -38.43935 -38.43895 -38.43640
 Alpha  occ. eigenvalues --  -38.43484 -38.42886  -2.20214  -2.20123  -2.19774
 Alpha  occ. eigenvalues --   -2.19733  -2.19467  -2.19423  -2.18715  -1.13884
 Alpha  occ. eigenvalues --   -1.13879  -1.13862  -1.13799  -1.13786  -1.13764
 Alpha  occ. eigenvalues --   -1.13435  -1.13425  -1.13408  -1.13396  -1.13376
 Alpha  occ. eigenvalues --   -1.13367  -1.13157  -1.13128  -1.13109  -1.13099
 Alpha  occ. eigenvalues --   -1.13059  -1.13039  -1.12403  -1.12381  -1.12348
 Alpha  occ. eigenvalues --   -0.18292  -0.13353  -0.11940  -0.10791
 Alpha virt. eigenvalues --   -0.06021  -0.05608  -0.04232  -0.03393  -0.02823
 Alpha virt. eigenvalues --   -0.02636  -0.01787  -0.01243  -0.00570  -0.00302
 Alpha virt. eigenvalues --   -0.00059   0.00333   0.00691   0.00817   0.00848

  Beta  occ. eigenvalues --  -38.44407 -38.44294 -38.43889 -38.43831 -38.43637
  Beta  occ. eigenvalues --  -38.43422 -38.42884  -2.20218  -2.20119  -2.19726
  Beta  occ. eigenvalues --   -2.19581  -2.19464  -2.19311  -2.18714  -1.13886
  Beta  occ. eigenvalues --   -1.13872  -1.13867  -1.13791  -1.13768  -1.13765
  Beta  occ. eigenvalues --   -1.13416  -1.13371  -1.13362  -1.13299  -1.13262
  Beta  occ. eigenvalues --   -1.13258  -1.13145  -1.13114  -1.13102  -1.13026
  Beta  occ. eigenvalues --   -1.12978  -1.12960  -1.12400  -1.12364  -1.12350
  Beta  occ. eigenvalues --   -0.17570  -0.13178  -0.11726
  Beta virt. eigenvalues --   -0.06836  -0.05924  -0.05630  -0.04199  -0.02627
  Beta virt. eigenvalues --   -0.01963  -0.01688  -0.01667  -0.01173  -0.00634
  Beta virt. eigenvalues --   -0.00336   0.00112   0.00367   0.00778   0.00807

 Mulliken charges and spin densities:
               1          2
     1  Na  -0.531529   0.753067
     2  Na   0.220562  -0.066256
     3  Na  -0.039898  -0.044536
     4  Na   0.301984  -0.057008
     5  Na  -0.028555  -0.020372
     6  Na   0.140381   0.022189
     7  Na  -0.062945   0.412916
 Sum of Mulliken charges =  -0.00000   1.00000

 Dipole moment (field-independent basis, Debye):
    X=              0.1539    Y=             -0.1647    Z=              0.1296  Tot=              0.2600
 Quadrupole moment (field-independent basis, Debye-Ang):
   XX=            -53.3198   YY=            -66.3842   ZZ=            -74.4486
   XY=             -0.1037   XZ=             -0.0619   YZ=              0.6601

 Normal termination of Gaussian 16 at Thu Dec  7 20:14:34 2023.
