 Gaussian 16, Revision B.01,
 Gaussian 16:  ES64L-G16RevB.01 20-Dec-2017

 -------------------------
 #P B3LYP/6-311+g(d) force
 -------------------------

 -----
 DPGEN
 -----
 Symbolic Z-matrix:
 Charge =  0 Multiplicity = 2

                         Standard orientation:
 ---------------------------------------------------------------------
 Center     Atomic      Atomic             Coordinates (Angstroms)
 Number     Number       Type             X           Y           Z
 ---------------------------------------------------------------------
      1         11           0        0.240372    0.370412   -1.521555
      2         11           0        3.102454   -0.303247   -0.779311
      3         11           0        0.726419   -2.498815    0.037996
      4         11           0       -2.819538   -2.102416    0.009643
      5         11           0       -2.940878    1.643256   -0.080487
      6         11           0        0.546665    2.905150    0.208332
      7         11           0        1.144506   -0.014340    2.125383
 ---------------------------------------------------------------------

 SCF Done:  E(UB3LYP) =  -1136.12908630     A.U. after   21 cycles

 The electronic state is 2-A.
 Alpha  occ. eigenvalues --  -38.44449 -38.44273 -38.43872 -38.43808 -38.43543
 Alpha  occ. eigenvalues --  -38.43486 -38.43307  -2.20213  -2.20171  -2.19699
 Alpha  occ. eigenvalues --   -2.19635  -2.19484  -2.19393  -2.19207  -1.13899
 Alpha  occ. eigenvalues --   -1.13895  -1.13872  -1.13842  -1.13805  -1.13797
 Alpha  occ. eigenvalues --   -1.13361  -1.13327  -1.13321  -1.13313  -1.13292
 Alpha  occ. eigenvalues --   -1.13282  -1.13229  -1.13159  -1.13108  -1.13052
 Alpha  occ. eigenvalues --   -1.13022  -1.13002  -1.12896  -1.12880  -1.12814
 Alpha  occ. eigenvalues --   -0.18466  -0.13014  -0.12359  -0.10922
 Alpha virt. eigenvalues --   -0.05910  -0.05527  -0.04591  -0.03112  -0.02792
 Alpha virt. eigenvalues --   -0.02680  -0.01698  -0.01066  -0.00657  -0.00376
 Alpha virt. eigenvalues --   -0.00100   0.00299   0.00728   0.00821   0.00872

  Beta  occ. eigenvalues --  -38.44451 -38.44243 -38.43878 -38.43709 -38.43534
  Beta  occ. eigenvalues --  -38.43430 -38.43296  -2.20217  -2.20120  -2.19646
  Beta  occ. eigenvalues --   -2.19515  -2.19388  -2.19377  -2.19192  -1.13896
  Beta  occ. eigenvalues --   -1.13876  -1.13849  -1.13848  -1.13768  -1.13746
  Beta  occ. eigenvalues --   -1.13317  -1.13300  -1.13290  -1.13240  -1.13202
  Beta  occ. eigenvalues --   -1.13199  -1.13179  -1.13097  -1.13032  -1.13016
  Beta  occ. eigenvalues --   -1.12997  -1.12978  -1.12886  -1.12831  -1.12808
  Beta  occ. eigenvalues --   -0.17735  -0.12842  -0.12172
  Beta virt. eigenvalues --   -0.06855  -0.05857  -0.05430  -0.04523  -0.02481
  Beta virt. eigenvalues --   -0.02120  -0.01739  -0.01448  -0.01033  -0.00653
  Beta virt. eigenvalues --   -0.00392   0.00120   0.00366   0.00783   0.00872

 Mulliken charges and spin densities:
               1          2
     1  Na   0.447579   0.360641
     2  Na   0.488825   0.061519
     3  Na  -0.060380   0.164481
     4  Na  -0.262753  -0.090555
     5  Na  -0.081059  -0.027705
     6  Na  -0.272298  -0.049886
     7  Na  -0.259913   0.581505
 Sum of Mulliken charges =  -0.00000   1.00000

 Dipole moment (field-independent basis, Debye):
    X=              0.0716    Y=              0.3226    Z=              0.1881  Tot=              0.3803
 Quadrupole moment (field-independent basis, Debye-Ang):
   XX=            -55.5472   YY=            -64.8281   ZZ=            -74.0436
   XY=             -0.8643   XZ=             -1.5089   YZ=              0.7439

 Normal termination of Gaussian 16 at Sun Dec  3 14:32:01 2023.
