 Gaussian 16, Revision B.01,
 Gaussian 16:  ES64L-G16RevB.01 20-Dec-2017

 -------------------------
 #P B3LYP/6-311+g(d) force
 -------------------------

 -----
 DPGEN
 -----
 Symbolic Z-matrix:
 Charge =  0 Multiplicity = 2

                         Standard orientation:
 ---------------------------------------------------------------------
 Center     Atomic      Atomic             Coordinates (Angstroms)
 Number     Number       Type             X           Y           Z
 ---------------------------------------------------------------------
      1         11           0       -0.105549   -1.153463   -0.766248
      2         11           0        1.273071    2.034423   -0.188610
      3         11           0       -1.169101    1.498831    1.416085
      4         11           0        2.237884   -0.503210    1.851617
      5         11           0        3.358646   -1.122295   -1.280159
      6         11           0       -3.285702   -2.247164    0.424030
      7         11           0       -2.309248    1.492877   -1.456715
 ---------------------------------------------------------------------

 SCF Done:  E(UB3LYP) =  -1136.12477407     A.U. after   22 cycles

 The electronic state is 2-A.
 Alpha  occ. eigenvalues --  -38.44494 -38.44304 -38.44152 -38.43611 -38.43523
 Alpha  occ. eigenvalues --  -38.43509 -38.43246  -2.20346  -2.20166  -2.19980
 Alpha  occ. eigenvalues --   -2.19549  -2.19426  -2.19284  -2.19147  -1.14047
 Alpha  occ. eigenvalues --   -1.14014  -1.13930  -1.13839  -1.13825  -1.13790
 Alpha  occ. eigenvalues --   -1.13640  -1.13630  -1.13599  -1.13345  -1.13198
 Alpha  occ. eigenvalues --   -1.13181  -1.13099  -1.13071  -1.13002  -1.12953
 Alpha  occ. eigenvalues --   -1.12950  -1.12914  -1.12864  -1.12837  -1.12741
 Alpha  occ. eigenvalues --   -0.18405  -0.13696  -0.11454  -0.10774
 Alpha virt. eigenvalues --   -0.05898  -0.05580  -0.05027  -0.03114  -0.02655
 Alpha virt. eigenvalues --   -0.02139  -0.01970  -0.01156  -0.00942  -0.00038
 Alpha virt. eigenvalues --    0.00181   0.00251   0.00344   0.00439   0.00618

  Beta  occ. eigenvalues --  -38.44458 -38.44257 -38.44119 -38.43593 -38.43511
  Beta  occ. eigenvalues --  -38.43501 -38.43231  -2.20278  -2.20081  -2.19919
  Beta  occ. eigenvalues --   -2.19519  -2.19416  -2.19261  -2.19123  -1.14004
  Beta  occ. eigenvalues --   -1.13963  -1.13882  -1.13781  -1.13769  -1.13716
  Beta  occ. eigenvalues --   -1.13593  -1.13584  -1.13561  -1.13330  -1.13169
  Beta  occ. eigenvalues --   -1.13138  -1.13093  -1.13024  -1.12999  -1.12937
  Beta  occ. eigenvalues --   -1.12931  -1.12899  -1.12836  -1.12804  -1.12722
  Beta  occ. eigenvalues --   -0.17720  -0.13453  -0.11177
  Beta virt. eigenvalues --   -0.07189  -0.05703  -0.05305  -0.04430  -0.03011
  Beta virt. eigenvalues --   -0.02194  -0.01772  -0.01502  -0.01022  -0.00452
  Beta virt. eigenvalues --   -0.00002   0.00268   0.00369   0.00419   0.00567

 Mulliken charges and spin densities:
               1          2
     1  Na  -1.043556   0.443287
     2  Na   0.200515   0.227126
     3  Na   0.301441   0.356887
     4  Na  -0.059720   0.089373
     5  Na   0.382261  -0.016806
     6  Na  -0.014249   0.008126
     7  Na   0.233307  -0.107994
 Sum of Mulliken charges =  -0.00000   1.00000

 Dipole moment (field-independent basis, Debye):
    X=              0.5433    Y=              0.5435    Z=             -0.0140  Tot=              0.7686
 Quadrupole moment (field-independent basis, Debye-Ang):
   XX=            -53.8191   YY=            -73.1934   ZZ=            -66.6142
   XY=             -3.4978   XZ=             -0.3531   YZ=             -3.0832

 Normal termination of Gaussian 16 at Tue Dec  5 17:42:39 2023.
