 Gaussian 16, Revision B.01,
 Gaussian 16:  ES64L-G16RevB.01 20-Dec-2017

 -------------------------
 #P B3LYP/6-311+g(d) force
 -------------------------

 -----
 DPGEN
 -----
 Symbolic Z-matrix:
 Charge =  0 Multiplicity = 2

                         Standard orientation:
 ---------------------------------------------------------------------
 Center     Atomic      Atomic             Coordinates (Angstroms)
 Number     Number       Type             X           Y           Z
 ---------------------------------------------------------------------
      1         11           0       -3.323130    0.872179   -0.471752
      2         11           0       -0.325284   -0.013790   -1.630783
      3         11           0       -0.267880   -0.352176    1.955866
      4         11           0       -1.923228   -2.513677    0.338183
      5         11           0        3.023255    1.111753    0.136539
      6         11           0        0.177674    3.153036    0.191399
      7         11           0        2.638592   -2.257326   -0.519451
 ---------------------------------------------------------------------

 SCF Done:  E(UB3LYP) =  -1136.13084085     A.U. after   19 cycles

 The electronic state is 2-A.
 Alpha  occ. eigenvalues --  -38.44607 -38.44062 -38.43978 -38.43814 -38.43808
 Alpha  occ. eigenvalues --  -38.43786 -38.43285  -2.20404  -2.19868  -2.19813
 Alpha  occ. eigenvalues --   -2.19703  -2.19683  -2.19565  -2.19081  -1.14086
 Alpha  occ. eigenvalues --   -1.14052  -1.14033  -1.13551  -1.13543  -1.13533
 Alpha  occ. eigenvalues --   -1.13507  -1.13475  -1.13436  -1.13403  -1.13340
 Alpha  occ. eigenvalues --   -1.13338  -1.13324  -1.13303  -1.13289  -1.13234
 Alpha  occ. eigenvalues --   -1.13217  -1.13204  -1.12757  -1.12744  -1.12722
 Alpha  occ. eigenvalues --   -0.17897  -0.13198  -0.12008  -0.10548
 Alpha virt. eigenvalues --   -0.06037  -0.05517  -0.04782  -0.03196  -0.02792
 Alpha virt. eigenvalues --   -0.02315  -0.01961  -0.01330  -0.00802  -0.00574
 Alpha virt. eigenvalues --   -0.00069   0.00272   0.00692   0.00731   0.00819

  Beta  occ. eigenvalues --  -38.44585 -38.44062 -38.43964 -38.43772 -38.43765
  Beta  occ. eigenvalues --  -38.43721 -38.43283  -2.20366  -2.19869  -2.19791
  Beta  occ. eigenvalues --   -2.19613  -2.19541  -2.19522  -2.19080  -1.14046
  Beta  occ. eigenvalues --   -1.14025  -1.14010  -1.13547  -1.13535  -1.13506
  Beta  occ. eigenvalues --   -1.13498  -1.13444  -1.13421  -1.13337  -1.13281
  Beta  occ. eigenvalues --   -1.13251  -1.13236  -1.13213  -1.13198  -1.13197
  Beta  occ. eigenvalues --   -1.13187  -1.13171  -1.12753  -1.12740  -1.12716
  Beta  occ. eigenvalues --   -0.17256  -0.12916  -0.11711
  Beta virt. eigenvalues --   -0.06867  -0.05860  -0.05419  -0.04714  -0.02554
  Beta virt. eigenvalues --   -0.02135  -0.01761  -0.01441  -0.01227  -0.00803
  Beta virt. eigenvalues --   -0.00593   0.00080   0.00339   0.00746   0.00789

 Mulliken charges and spin densities:
               1          2
     1  Na   0.105650   0.034913
     2  Na  -0.016045   0.463904
     3  Na  -0.038434   0.533823
     4  Na   0.121883  -0.018047
     5  Na  -0.011429  -0.021608
     6  Na  -0.144953  -0.037835
     7  Na  -0.016673   0.044850
 Sum of Mulliken charges =  -0.00000   1.00000

 Dipole moment (field-independent basis, Debye):
    X=             -0.5536    Y=             -0.1244    Z=              0.0675  Tot=              0.5714
 Quadrupole moment (field-independent basis, Debye-Ang):
   XX=            -55.6455   YY=            -63.3163   ZZ=            -75.1244
   XY=              0.2128   XZ=              0.3221   YZ=              1.2598

 Normal termination of Gaussian 16 at Tue Dec  5 22:30:15 2023.
