 Gaussian 16, Revision B.01,
 Gaussian 16:  ES64L-G16RevB.01 20-Dec-2017

 -------------------------
 #P B3LYP/6-311+g(d) force
 -------------------------

 -----
 DPGEN
 -----
 Symbolic Z-matrix:
 Charge =  0 Multiplicity = 2

                         Standard orientation:
 ---------------------------------------------------------------------
 Center     Atomic      Atomic             Coordinates (Angstroms)
 Number     Number       Type             X           Y           Z
 ---------------------------------------------------------------------
      1         11           0        2.751139   -1.857196   -0.561865
      2         11           0        5.509147   -0.221335   -0.377065
      3         11           0        2.756672    1.896587   -0.075713
      4         11           0       -0.965448    1.614354   -0.215070
      5         11           0        0.087217   -1.150442    1.537335
      6         11           0       -3.983612    0.471504    0.735260
      7         11           0       -6.155115   -0.753472   -1.042882
 ---------------------------------------------------------------------

 SCF Done:  E(UB3LYP) =  -1136.11687846     A.U. after   20 cycles

 The electronic state is 2-A.
 Alpha  occ. eigenvalues --  -38.44828 -38.44545 -38.44420 -38.44071 -38.44063
 Alpha  occ. eigenvalues --  -38.43772 -38.43523  -2.20643  -2.20396  -2.20236
 Alpha  occ. eigenvalues --   -2.19897  -2.19885  -2.19556  -2.19365  -1.14330
 Alpha  occ. eigenvalues --   -1.14296  -1.14241  -1.14069  -1.14056  -1.14030
 Alpha  occ. eigenvalues --   -1.13904  -1.13889  -1.13857  -1.13574  -1.13553
 Alpha  occ. eigenvalues --   -1.13548  -1.13541  -1.13532  -1.13521  -1.13276
 Alpha  occ. eigenvalues --   -1.13213  -1.13212  -1.13041  -1.13020  -1.12961
 Alpha  occ. eigenvalues --   -0.16934  -0.14164  -0.11649  -0.11379
 Alpha virt. eigenvalues --   -0.06775  -0.05831  -0.03855  -0.03709  -0.03056
 Alpha virt. eigenvalues --   -0.02841  -0.01920  -0.01502  -0.01287  -0.00788
 Alpha virt. eigenvalues --   -0.00140  -0.00008   0.00180   0.00328   0.00505

  Beta  occ. eigenvalues --  -38.44758 -38.44491 -38.44369 -38.44054 -38.44050
  Beta  occ. eigenvalues --  -38.43787 -38.43519  -2.20514  -2.20298  -2.20145
  Beta  occ. eigenvalues --   -2.19870  -2.19861  -2.19585  -2.19356  -1.14243
  Beta  occ. eigenvalues --   -1.14210  -1.14138  -1.14004  -1.13990  -1.13945
  Beta  occ. eigenvalues --   -1.13842  -1.13827  -1.13781  -1.13550  -1.13534
  Beta  occ. eigenvalues --   -1.13528  -1.13515  -1.13509  -1.13508  -1.13292
  Beta  occ. eigenvalues --   -1.13233  -1.13232  -1.13032  -1.13013  -1.12968
  Beta  occ. eigenvalues --   -0.16187  -0.14098  -0.11516
  Beta virt. eigenvalues --   -0.07449  -0.06528  -0.05317  -0.03635  -0.03490
  Beta virt. eigenvalues --   -0.02636  -0.02261  -0.01758  -0.01379  -0.00828
  Beta virt. eigenvalues --   -0.00692  -0.00010   0.00135   0.00330   0.00510

 Mulliken charges and spin densities:
               1          2
     1  Na  -0.097578   0.250658
     2  Na   0.336075  -0.002816
     3  Na  -0.139740   0.344788
     4  Na  -0.208086   0.183056
     5  Na  -0.200678   0.267447
     6  Na   0.179681   0.048747
     7  Na   0.130325  -0.091880
 Sum of Mulliken charges =  -0.00000   1.00000

 Dipole moment (field-independent basis, Debye):
    X=              1.5253    Y=             -0.2784    Z=             -0.0568  Tot=              1.5516
 Quadrupole moment (field-independent basis, Debye-Ang):
   XX=            -64.7146   YY=            -69.5564   ZZ=            -66.9871
   XY=              2.2687   XZ=              2.6588   YZ=              1.5370

 Normal termination of Gaussian 16 at Wed Nov 29 03:32:45 2023.
