 Gaussian 16, Revision B.01,
 Gaussian 16:  ES64L-G16RevB.01 20-Dec-2017

 -------------------------
 #P B3LYP/6-311+g(d) force
 -------------------------

 -----
 DPGEN
 -----
 Symbolic Z-matrix:
 Charge =  0 Multiplicity = 2

                         Standard orientation:
 ---------------------------------------------------------------------
 Center     Atomic      Atomic             Coordinates (Angstroms)
 Number     Number       Type             X           Y           Z
 ---------------------------------------------------------------------
      1         11           0        0.334387    2.292962    0.795653
      2         11           0       -1.977607   -0.416599    2.034655
      3         11           0       -2.614628    1.527810   -1.009946
      4         11           0        1.440654   -1.738904    1.020557
      5         11           0        4.068093    0.288099   -0.499562
      6         11           0       -1.793005   -2.053917   -1.262602
      7         11           0        0.542107    0.100549   -1.078755
 ---------------------------------------------------------------------

 SCF Done:  E(UB3LYP) =  -1136.12355479     A.U. after   21 cycles

 The electronic state is 2-A.
 Alpha  occ. eigenvalues --  -38.45033 -38.44287 -38.43834 -38.43746 -38.43314
 Alpha  occ. eigenvalues --  -38.43229 -38.43106  -2.20797  -2.20124  -2.19677
 Alpha  occ. eigenvalues --   -2.19612  -2.19389  -2.19101  -2.18962  -1.14477
 Alpha  occ. eigenvalues --   -1.14452  -1.14418  -1.13793  -1.13759  -1.13736
 Alpha  occ. eigenvalues --   -1.13443  -1.13359  -1.13332  -1.13300  -1.13267
 Alpha  occ. eigenvalues --   -1.13206  -1.13183  -1.13035  -1.12973  -1.12776
 Alpha  occ. eigenvalues --   -1.12741  -1.12675  -1.12649  -1.12601  -1.12574
 Alpha  occ. eigenvalues --   -0.18475  -0.13342  -0.11337  -0.11232
 Alpha virt. eigenvalues --   -0.06580  -0.04814  -0.03939  -0.03178  -0.02814
 Alpha virt. eigenvalues --   -0.02499  -0.02367  -0.01016  -0.00641  -0.00008
 Alpha virt. eigenvalues --    0.00178   0.00257   0.00389   0.00752   0.00862

  Beta  occ. eigenvalues --  -38.45031 -38.44212 -38.43811 -38.43728 -38.43284
  Beta  occ. eigenvalues --  -38.43217 -38.43075  -2.20793  -2.19987  -2.19637
  Beta  occ. eigenvalues --   -2.19580  -2.19339  -2.19081  -2.18908  -1.14471
  Beta  occ. eigenvalues --   -1.14450  -1.14416  -1.13686  -1.13670  -1.13640
  Beta  occ. eigenvalues --   -1.13420  -1.13321  -1.13311  -1.13263  -1.13228
  Beta  occ. eigenvalues --   -1.13166  -1.13160  -1.13003  -1.12929  -1.12758
  Beta  occ. eigenvalues --   -1.12705  -1.12664  -1.12605  -1.12569  -1.12526
  Beta  occ. eigenvalues --   -0.17748  -0.13123  -0.11156
  Beta virt. eigenvalues --   -0.07256  -0.06392  -0.04672  -0.03659  -0.02899
  Beta virt. eigenvalues --   -0.02334  -0.02105  -0.01514  -0.00855  -0.00338
  Beta virt. eigenvalues --    0.00055   0.00211   0.00280   0.00521   0.00808

 Mulliken charges and spin densities:
               1          2
     1  Na  -0.043649   0.278234
     2  Na  -0.066956   0.434566
     3  Na   0.218164   0.026101
     4  Na  -0.036144   0.267016
     5  Na   0.308237   0.021807
     6  Na   0.135890   0.094749
     7  Na  -0.515542  -0.122473
 Sum of Mulliken charges =  -0.00000   1.00000

 Dipole moment (field-independent basis, Debye):
    X=              0.6103    Y=              0.0807    Z=              0.2407  Tot=              0.6610
 Quadrupole moment (field-independent basis, Debye-Ang):
   XX=            -47.3941   YY=            -73.8562   ZZ=            -68.5855
   XY=              0.4824   XZ=             -0.1130   YZ=             -0.4547

 Normal termination of Gaussian 16 at Thu Dec  7 22:42:59 2023.
