 Gaussian 16, Revision B.01,
 Gaussian 16:  ES64L-G16RevB.01 20-Dec-2017

 -------------------------
 #P B3LYP/6-311+g(d) force
 -------------------------

 -----
 DPGEN
 -----
 Symbolic Z-matrix:
 Charge =  0 Multiplicity = 2

                         Standard orientation:
 ---------------------------------------------------------------------
 Center     Atomic      Atomic             Coordinates (Angstroms)
 Number     Number       Type             X           Y           Z
 ---------------------------------------------------------------------
      1         11           0        3.889441    0.600949    0.491303
      2         11           0        0.514625   -0.683472    1.915547
      3         11           0       -2.873638    2.013651   -0.467660
      4         11           0        2.472895   -1.184389   -1.489764
      5         11           0        0.432461    2.174300   -0.173708
      6         11           0       -0.712753   -1.689434   -0.500925
      7         11           0       -3.723030   -1.231604    0.225207
 ---------------------------------------------------------------------

 SCF Done:  E(UB3LYP) =  -1136.11171122     A.U. after   29 cycles

 The electronic state is 2-A.
 Alpha  occ. eigenvalues --  -38.45438 -38.44866 -38.44407 -38.44406 -38.43483
 Alpha  occ. eigenvalues --  -38.43329 -38.43254  -2.21269  -2.20686  -2.20321
 Alpha  occ. eigenvalues --   -2.20286  -2.19292  -2.19197  -2.19148  -1.14978
 Alpha  occ. eigenvalues --   -1.14919  -1.14884  -1.14367  -1.14338  -1.14324
 Alpha  occ. eigenvalues --   -1.14065  -1.13969  -1.13928  -1.13923  -1.13912
 Alpha  occ. eigenvalues --   -1.13897  -1.12975  -1.12962  -1.12937  -1.12903
 Alpha  occ. eigenvalues --   -1.12852  -1.12845  -1.12831  -1.12802  -1.12751
 Alpha  occ. eigenvalues --   -0.18249  -0.14374  -0.11384  -0.10790
 Alpha virt. eigenvalues --   -0.07644  -0.05454  -0.03863  -0.03636  -0.03252
 Alpha virt. eigenvalues --   -0.02342  -0.02005  -0.01635  -0.00667  -0.00289
 Alpha virt. eigenvalues --   -0.00238   0.00123   0.00300   0.00600   0.00726

  Beta  occ. eigenvalues --  -38.45404 -38.44852 -38.44349 -38.44310 -38.43482
  Beta  occ. eigenvalues --  -38.43335 -38.43236  -2.21212  -2.20660  -2.20183
  Beta  occ. eigenvalues --   -2.20144  -2.19290  -2.19168  -2.19158  -1.14929
  Beta  occ. eigenvalues --   -1.14880  -1.14828  -1.14353  -1.14320  -1.14295
  Beta  occ. eigenvalues --   -1.13940  -1.13892  -1.13858  -1.13818  -1.13801
  Beta  occ. eigenvalues --   -1.13789  -1.12980  -1.12960  -1.12931  -1.12858
  Beta  occ. eigenvalues --   -1.12846  -1.12842  -1.12818  -1.12781  -1.12772
  Beta  occ. eigenvalues --   -0.17583  -0.13811  -0.11402
  Beta virt. eigenvalues --   -0.07375  -0.07058  -0.05233  -0.03535  -0.03310
  Beta virt. eigenvalues --   -0.02926  -0.01821  -0.01521  -0.01387  -0.00494
  Beta virt. eigenvalues --   -0.00101   0.00022   0.00154   0.00416   0.00682

 Mulliken charges and spin densities:
               1          2
     1  Na   0.557920   0.383903
     2  Na   0.029399   0.170901
     3  Na  -0.051103   0.006606
     4  Na   0.360300   0.233987
     5  Na  -0.673890  -0.032866
     6  Na  -0.596432   0.083996
     7  Na   0.373806   0.153473
 Sum of Mulliken charges =  -0.00000   1.00000

 Dipole moment (field-independent basis, Debye):
    X=              0.5369    Y=             -0.3455    Z=              1.0388  Tot=              1.2193
 Quadrupole moment (field-independent basis, Debye-Ang):
   XX=            -54.6337   YY=            -77.3135   ZZ=            -66.9626
   XY=              3.8335   XZ=              2.5206   YZ=             -0.3884

 Normal termination of Gaussian 16 at Mon Dec  4 05:21:52 2023.
