 Gaussian 16, Revision B.01,
 Gaussian 16:  ES64L-G16RevB.01 20-Dec-2017

 -------------------------
 #P B3LYP/6-311+g(d) force
 -------------------------

 -----
 DPGEN
 -----
 Symbolic Z-matrix:
 Charge =  0 Multiplicity = 2

                         Standard orientation:
 ---------------------------------------------------------------------
 Center     Atomic      Atomic             Coordinates (Angstroms)
 Number     Number       Type             X           Y           Z
 ---------------------------------------------------------------------
      1         11           0       -4.708940    0.321536   -0.293364
      2         11           0        5.963563   -0.887891   -0.902108
      3         11           0       -1.494548    3.149909   -0.047540
      4         11           0        1.658904    2.109577    0.326556
      5         11           0        3.531287   -1.350634    0.949800
      6         11           0       -4.956496   -2.580739   -0.006399
      7         11           0        0.006230   -0.761758   -0.026944
 ---------------------------------------------------------------------

 SCF Done:  E(UB3LYP) =  -1136.11176005     A.U. after   19 cycles

 The electronic state is 2-A.
 Alpha  occ. eigenvalues --  -38.45116 -38.45057 -38.44507 -38.44374 -38.43832
 Alpha  occ. eigenvalues --  -38.43807 -38.43602  -2.20923  -2.20870  -2.20317
 Alpha  occ. eigenvalues --   -2.20188  -2.19634  -2.19629  -2.19430  -1.14623
 Alpha  occ. eigenvalues --   -1.14610  -1.14543  -1.14540  -1.14483  -1.14481
 Alpha  occ. eigenvalues --   -1.14115  -1.13963  -1.13957  -1.13841  -1.13826
 Alpha  occ. eigenvalues --   -1.13767  -1.13325  -1.13295  -1.13283  -1.13263
 Alpha  occ. eigenvalues --   -1.13261  -1.13258  -1.13110  -1.13086  -1.13058
 Alpha  occ. eigenvalues --   -0.16306  -0.14009  -0.12595  -0.10713
 Alpha virt. eigenvalues --   -0.06781  -0.05462  -0.04703  -0.03717  -0.02867
 Alpha virt. eigenvalues --   -0.02373  -0.02189  -0.02027  -0.01447  -0.00708
 Alpha virt. eigenvalues --   -0.00609  -0.00014   0.00116   0.00189   0.00554

  Beta  occ. eigenvalues --  -38.45123 -38.44981 -38.44508 -38.44368 -38.43781
  Beta  occ. eigenvalues --  -38.43735 -38.43604  -2.20938  -2.20731  -2.20318
  Beta  occ. eigenvalues --   -2.20175  -2.19538  -2.19495  -2.19440  -1.14627
  Beta  occ. eigenvalues --   -1.14611  -1.14547  -1.14447  -1.14401  -1.14374
  Beta  occ. eigenvalues --   -1.14112  -1.13963  -1.13956  -1.13833  -1.13819
  Beta  occ. eigenvalues --   -1.13756  -1.13253  -1.13229  -1.13215  -1.13199
  Beta  occ. eigenvalues --   -1.13173  -1.13170  -1.13122  -1.13092  -1.13003
  Beta  occ. eigenvalues --   -0.15726  -0.13755  -0.12124
  Beta virt. eigenvalues --   -0.07361  -0.06432  -0.05022  -0.04384  -0.03472
  Beta virt. eigenvalues --   -0.02725  -0.02171  -0.01936  -0.01766  -0.01200
  Beta virt. eigenvalues --   -0.00481  -0.00250   0.00159   0.00308   0.00320

 Mulliken charges and spin densities:
               1          2
     1  Na  -0.145689   0.032116
     2  Na   0.323193   0.381333
     3  Na   0.091359   0.307930
     4  Na   0.285008  -0.051282
     5  Na  -0.195183  -0.078273
     6  Na   0.466516   0.007827
     7  Na  -0.825204   0.400350
 Sum of Mulliken charges =  -0.00000   1.00000

 Dipole moment (field-independent basis, Debye):
    X=             -0.6853    Y=             -0.0620    Z=             -0.0452  Tot=              0.6895
 Quadrupole moment (field-independent basis, Debye-Ang):
   XX=            -69.9164   YY=            -63.7666   ZZ=            -71.7737
   XY=              7.3647   XZ=             -1.4901   YZ=             -0.6758

 Normal termination of Gaussian 16 at Mon Dec  4 02:31:08 2023.
