 Gaussian 16, Revision B.01,
 Gaussian 16:  ES64L-G16RevB.01 20-Dec-2017

 -------------------------
 #P B3LYP/6-311+g(d) force
 -------------------------

 -----
 DPGEN
 -----
 Symbolic Z-matrix:
 Charge =  0 Multiplicity = 2

                         Standard orientation:
 ---------------------------------------------------------------------
 Center     Atomic      Atomic             Coordinates (Angstroms)
 Number     Number       Type             X           Y           Z
 ---------------------------------------------------------------------
      1         11           0        0.500831    0.402022   -1.541888
      2         11           0       -0.061953   -0.093992    2.279141
      3         11           0       -2.593809    2.546504   -0.378247
      4         11           0        3.178796    1.955064    0.174837
      5         11           0       -0.629465   -2.363145   -0.618511
      6         11           0        2.825060   -1.518822   -0.122457
      7         11           0       -3.219459   -0.927632    0.207125
 ---------------------------------------------------------------------

 SCF Done:  E(UB3LYP) =  -1136.12085691     A.U. after   24 cycles

 The electronic state is 2-A.
 Alpha  occ. eigenvalues --  -38.44805 -38.44595 -38.44583 -38.44426 -38.43918
 Alpha  occ. eigenvalues --  -38.43792 -38.42619  -2.20631  -2.20427  -2.20360
 Alpha  occ. eigenvalues --   -2.20238  -2.19830  -2.19548  -2.18542  -1.14331
 Alpha  occ. eigenvalues --   -1.14291  -1.14256  -1.14115  -1.14094  -1.14066
 Alpha  occ. eigenvalues --   -1.14029  -1.14017  -1.13993  -1.13896  -1.13867
 Alpha  occ. eigenvalues --   -1.13850  -1.13533  -1.13485  -1.13440  -1.13219
 Alpha  occ. eigenvalues --   -1.13209  -1.13194  -1.12241  -1.12196  -1.12170
 Alpha  occ. eigenvalues --   -0.18090  -0.13616  -0.11403  -0.10802
 Alpha virt. eigenvalues --   -0.06623  -0.06065  -0.04025  -0.03429  -0.02783
 Alpha virt. eigenvalues --   -0.02442  -0.02184  -0.01523  -0.00921  -0.00212
 Alpha virt. eigenvalues --   -0.00085   0.00241   0.00487   0.00597   0.00660

  Beta  occ. eigenvalues --  -38.44806 -38.44590 -38.44583 -38.44319 -38.43866
  Beta  occ. eigenvalues --  -38.43790 -38.42605  -2.20634  -2.20421  -2.20362
  Beta  occ. eigenvalues --   -2.20040  -2.19735  -2.19545  -2.18520  -1.14337
  Beta  occ. eigenvalues --   -1.14277  -1.14259  -1.14106  -1.14076  -1.14063
  Beta  occ. eigenvalues --   -1.14025  -1.14013  -1.13995  -1.13762  -1.13730
  Beta  occ. eigenvalues --   -1.13709  -1.13470  -1.13405  -1.13372  -1.13210
  Beta  occ. eigenvalues --   -1.13206  -1.13193  -1.12224  -1.12181  -1.12133
  Beta  occ. eigenvalues --   -0.17370  -0.13486  -0.11204
  Beta virt. eigenvalues --   -0.06917  -0.06439  -0.05974  -0.03876  -0.02850
  Beta virt. eigenvalues --   -0.02078  -0.01849  -0.01756  -0.01318  -0.00958
  Beta virt. eigenvalues --   -0.00156   0.00054   0.00284   0.00605   0.00654

 Mulliken charges and spin densities:
               1          2
     1  Na  -0.211025   0.147160
     2  Na  -0.434902   0.631027
     3  Na   0.012724   0.007850
     4  Na   0.010972   0.016759
     5  Na   0.101699   0.087737
     6  Na   0.285478   0.054985
     7  Na   0.235054   0.054483
 Sum of Mulliken charges =  -0.00000   1.00000

 Dipole moment (field-independent basis, Debye):
    X=              0.7042    Y=             -0.0785    Z=              0.3405  Tot=              0.7862
 Quadrupole moment (field-independent basis, Debye-Ang):
   XX=            -52.0789   YY=            -67.8983   ZZ=            -74.8295
   XY=              1.7801   XZ=              0.2931   YZ=              0.4367

 Normal termination of Gaussian 16 at Fri Dec  8 02:58:40 2023.
