 Gaussian 16, Revision B.01,
 Gaussian 16:  ES64L-G16RevB.01 20-Dec-2017

 -------------------------
 #P B3LYP/6-311+g(d) force
 -------------------------

 -----
 DPGEN
 -----
 Symbolic Z-matrix:
 Charge =  0 Multiplicity = 2

                         Standard orientation:
 ---------------------------------------------------------------------
 Center     Atomic      Atomic             Coordinates (Angstroms)
 Number     Number       Type             X           Y           Z
 ---------------------------------------------------------------------
      1         11           0        0.454196   -0.587080   -0.107165
      2         11           0        1.285435    3.275163   -0.711032
      3         11           0        3.057128   -2.913119    0.081179
      4         11           0        3.773653    0.410543    0.586828
      5         11           0       -3.020197   -2.852247   -0.783923
      6         11           0       -3.847244    0.307701    1.061821
      7         11           0       -1.702971    2.359039   -0.127708
 ---------------------------------------------------------------------

 SCF Done:  E(UB3LYP) =  -1136.11798210     A.U. after   24 cycles

 The electronic state is 2-A.
 Alpha  occ. eigenvalues --  -38.45764 -38.45091 -38.44461 -38.43890 -38.43643
 Alpha  occ. eigenvalues --  -38.43445 -38.43245  -2.21547  -2.20886  -2.20268
 Alpha  occ. eigenvalues --   -2.19710  -2.19425  -2.19329  -2.19066  -1.15239
 Alpha  occ. eigenvalues --   -1.15213  -1.15163  -1.14619  -1.14543  -1.14501
 Alpha  occ. eigenvalues --   -1.13929  -1.13926  -1.13888  -1.13405  -1.13376
 Alpha  occ. eigenvalues --   -1.13323  -1.13079  -1.13070  -1.13035  -1.13000
 Alpha  occ. eigenvalues --   -1.12993  -1.12986  -1.12727  -1.12720  -1.12695
 Alpha  occ. eigenvalues --   -0.16722  -0.14124  -0.12500  -0.09990
 Alpha virt. eigenvalues --   -0.07010  -0.05858  -0.03986  -0.03910  -0.02685
 Alpha virt. eigenvalues --   -0.02561  -0.02149  -0.01719  -0.01076  -0.00593
 Alpha virt. eigenvalues --   -0.00349   0.00070   0.00307   0.00428   0.00609

  Beta  occ. eigenvalues --  -38.45761 -38.45093 -38.44435 -38.43848 -38.43560
  Beta  occ. eigenvalues --  -38.43413 -38.43234  -2.21544  -2.20890  -2.20220
  Beta  occ. eigenvalues --   -2.19637  -2.19274  -2.19270  -2.19045  -1.15240
  Beta  occ. eigenvalues --   -1.15213  -1.15139  -1.14618  -1.14548  -1.14507
  Beta  occ. eigenvalues --   -1.13894  -1.13893  -1.13856  -1.13340  -1.13330
  Beta  occ. eigenvalues --   -1.13257  -1.12973  -1.12969  -1.12963  -1.12961
  Beta  occ. eigenvalues --   -1.12935  -1.12924  -1.12713  -1.12703  -1.12677
  Beta  occ. eigenvalues --   -0.16493  -0.13503  -0.12025
  Beta virt. eigenvalues --   -0.06982  -0.06494  -0.05594  -0.03873  -0.03559
  Beta virt. eigenvalues --   -0.02435  -0.02047  -0.01930  -0.01505  -0.00920
  Beta virt. eigenvalues --   -0.00276  -0.00055   0.00248   0.00457   0.00483

 Mulliken charges and spin densities:
               1          2
     1  Na  -3.296175  -0.152024
     2  Na   0.443003   0.121287
     3  Na   0.482539   0.133028
     4  Na   1.107080   0.082520
     5  Na   0.236568   0.363146
     6  Na   0.307003   0.037932
     7  Na   0.719981   0.414112
 Sum of Mulliken charges =  -0.00000   1.00000

 Dipole moment (field-independent basis, Debye):
    X=              2.4164    Y=             -0.2308    Z=              0.3733  Tot=              2.4560
 Quadrupole moment (field-independent basis, Debye-Ang):
   XX=            -57.8590   YY=            -67.5085   ZZ=            -71.9324
   XY=              1.3087   XZ=              0.4490   YZ=             -0.3158

 Normal termination of Gaussian 16 at Fri Dec  8 17:56:02 2023.
