 Gaussian 16, Revision B.01,
 Gaussian 16:  ES64L-G16RevB.01 20-Dec-2017

 -------------------------
 #P B3LYP/6-311+g(d) force
 -------------------------

 -----
 DPGEN
 -----
 Symbolic Z-matrix:
 Charge =  0 Multiplicity = 2

                         Standard orientation:
 ---------------------------------------------------------------------
 Center     Atomic      Atomic             Coordinates (Angstroms)
 Number     Number       Type             X           Y           Z
 ---------------------------------------------------------------------
      1         11           0       -0.187783    0.170371    2.154361
      2         11           0        3.027431   -1.235580   -0.157080
      3         11           0        1.915759    2.418128    0.051172
      4         11           0        0.174158   -0.290680   -1.602454
      5         11           0       -0.205975   -2.791041    0.115994
      6         11           0       -3.340758   -0.514043   -0.157257
      7         11           0       -1.382831    2.242846   -0.404736
 ---------------------------------------------------------------------

 SCF Done:  E(UB3LYP) =  -1136.13627708     A.U. after   19 cycles

 The electronic state is 2-A.
 Alpha  occ. eigenvalues --  -38.44167 -38.44163 -38.43727 -38.43489 -38.43451
 Alpha  occ. eigenvalues --  -38.43270 -38.43167  -2.19976  -2.19961  -2.19598
 Alpha  occ. eigenvalues --   -2.19353  -2.19283  -2.19263  -2.19076  -1.13661
 Alpha  occ. eigenvalues --   -1.13631  -1.13630  -1.13628  -1.13611  -1.13600
 Alpha  occ. eigenvalues --   -1.13263  -1.13231  -1.13210  -1.13138  -1.13018
 Alpha  occ. eigenvalues --   -1.12977  -1.12954  -1.12947  -1.12940  -1.12929
 Alpha  occ. eigenvalues --   -1.12895  -1.12861  -1.12750  -1.12735  -1.12685
 Alpha  occ. eigenvalues --   -0.18592  -0.12861  -0.12465  -0.10809
 Alpha virt. eigenvalues --   -0.05860  -0.05070  -0.04533  -0.03077  -0.02942
 Alpha virt. eigenvalues --   -0.02674  -0.01769  -0.01117  -0.00347  -0.00183
 Alpha virt. eigenvalues --   -0.00040   0.00326   0.00766   0.00857   0.00910

  Beta  occ. eigenvalues --  -38.44165 -38.44162 -38.43624 -38.43482 -38.43450
  Beta  occ. eigenvalues --  -38.43212 -38.43153  -2.19974  -2.19962  -2.19408
  Beta  occ. eigenvalues --   -2.19344  -2.19282  -2.19159  -2.19056  -1.13650
  Beta  occ. eigenvalues --   -1.13633  -1.13625  -1.13613  -1.13611  -1.13602
  Beta  occ. eigenvalues --   -1.13141  -1.13113  -1.13096  -1.13075  -1.12987
  Beta  occ. eigenvalues --   -1.12965  -1.12949  -1.12935  -1.12924  -1.12884
  Beta  occ. eigenvalues --   -1.12831  -1.12790  -1.12726  -1.12694  -1.12672
  Beta  occ. eigenvalues --   -0.17856  -0.12646  -0.12243
  Beta virt. eigenvalues --   -0.06846  -0.05823  -0.05066  -0.04487  -0.02337
  Beta virt. eigenvalues --   -0.02157  -0.01691  -0.01572  -0.01060  -0.00388
  Beta virt. eigenvalues --   -0.00211   0.00109   0.00352   0.00814   0.00862

 Mulliken charges and spin densities:
               1          2
     1  Na  -0.589511   0.774562
     2  Na   0.159623  -0.060889
     3  Na   0.109018  -0.031753
     4  Na  -0.222792   0.383415
     5  Na   0.156809  -0.047774
     6  Na   0.122142  -0.050046
     7  Na   0.264710   0.032485
 Sum of Mulliken charges =  -0.00000   1.00000

 Dipole moment (field-independent basis, Debye):
    X=              0.1033    Y=             -0.2471    Z=              0.2038  Tot=              0.3365
 Quadrupole moment (field-independent basis, Debye-Ang):
   XX=            -54.2480   YY=            -64.6454   ZZ=            -74.1472
   XY=              0.9121   XZ=              0.6845   YZ=             -0.7527

 Normal termination of Gaussian 16 at Tue Dec  5 09:48:09 2023.
