 Gaussian 16, Revision B.01,
 Gaussian 16:  ES64L-G16RevB.01 20-Dec-2017

 -------------------------
 #P B3LYP/6-311+g(d) force
 -------------------------

 -----
 DPGEN
 -----
 Symbolic Z-matrix:
 Charge =  0 Multiplicity = 2

                         Standard orientation:
 ---------------------------------------------------------------------
 Center     Atomic      Atomic             Coordinates (Angstroms)
 Number     Number       Type             X           Y           Z
 ---------------------------------------------------------------------
      1         11           0       -4.251492    0.150021   -0.173167
      2         11           0        3.980392   -2.339668   -0.389548
      3         11           0       -2.924319   -3.065619   -0.375544
      4         11           0        3.743361    1.574446   -0.339706
      5         11           0        0.605309   -3.390951    0.891322
      6         11           0        1.058436    3.909688    0.398569
      7         11           0       -2.211687    3.162083   -0.011927
 ---------------------------------------------------------------------

 SCF Done:  E(UB3LYP) =  -1136.10392871     A.U. after   30 cycles

 The electronic state is 2-A.
 Alpha  occ. eigenvalues --  -38.46081 -38.45811 -38.45026 -38.44407 -38.44202
 Alpha  occ. eigenvalues --  -38.43967 -38.43951  -2.21804  -2.21547  -2.20786
 Alpha  occ. eigenvalues --   -2.20187  -2.19983  -2.19752  -2.19723  -1.15494
 Alpha  occ. eigenvalues --   -1.15482  -1.15414  -1.15231  -1.15215  -1.15160
 Alpha  occ. eigenvalues --   -1.14470  -1.14457  -1.14419  -1.13863  -1.13857
 Alpha  occ. eigenvalues --   -1.13821  -1.13658  -1.13649  -1.13613  -1.13415
 Alpha  occ. eigenvalues --   -1.13402  -1.13387  -1.13385  -1.13363  -1.13360
 Alpha  occ. eigenvalues --   -0.15223  -0.13681  -0.13555  -0.10757
 Alpha virt. eigenvalues --   -0.08160  -0.05159  -0.04539  -0.03457  -0.03413
 Alpha virt. eigenvalues --   -0.02430  -0.02270  -0.01960  -0.01718  -0.00822
 Alpha virt. eigenvalues --   -0.00647  -0.00082  -0.00012   0.00146   0.00232

  Beta  occ. eigenvalues --  -38.46058 -38.45776 -38.45016 -38.44381 -38.44192
  Beta  occ. eigenvalues --  -38.43925 -38.43900  -2.21765  -2.21487  -2.20770
  Beta  occ. eigenvalues --   -2.20141  -2.19967  -2.19675  -2.19627  -1.15473
  Beta  occ. eigenvalues --   -1.15461  -1.15354  -1.15195  -1.15179  -1.15093
  Beta  occ. eigenvalues --   -1.14463  -1.14450  -1.14383  -1.13833  -1.13827
  Beta  occ. eigenvalues --   -1.13785  -1.13648  -1.13641  -1.13589  -1.13363
  Beta  occ. eigenvalues --   -1.13354  -1.13332  -1.13319  -1.13301  -1.13292
  Beta  occ. eigenvalues --   -0.14726  -0.13089  -0.12879
  Beta virt. eigenvalues --   -0.08387  -0.07514  -0.04606  -0.04022  -0.03268
  Beta virt. eigenvalues --   -0.03149  -0.02224  -0.02056  -0.01798  -0.01573
  Beta virt. eigenvalues --   -0.00537  -0.00386  -0.00022   0.00137   0.00251

 Mulliken charges and spin densities:
               1          2
     1  Na   0.003591   0.001368
     2  Na   0.182634   0.263693
     3  Na  -0.099043   0.197661
     4  Na  -0.063779   0.254073
     5  Na  -0.341367   0.133154
     6  Na   0.292744   0.071164
     7  Na   0.025220   0.078889
 Sum of Mulliken charges =  -0.00000   1.00000

 Dipole moment (field-independent basis, Debye):
    X=              0.2392    Y=             -0.1331    Z=              0.1090  Tot=              0.2947
 Quadrupole moment (field-independent basis, Debye-Ang):
   XX=            -61.2115   YY=            -66.6240   ZZ=            -72.5393
   XY=              1.5872   XZ=             -0.6363   YZ=             -0.5891

 Normal termination of Gaussian 16 at Mon Dec  4 01:56:20 2023.
