 Gaussian 16, Revision B.01,
 Gaussian 16:  ES64L-G16RevB.01 20-Dec-2017

 -------------------------
 #P B3LYP/6-311+g(d) force
 -------------------------

 -----
 DPGEN
 -----
 Symbolic Z-matrix:
 Charge =  0 Multiplicity = 2

                         Standard orientation:
 ---------------------------------------------------------------------
 Center     Atomic      Atomic             Coordinates (Angstroms)
 Number     Number       Type             X           Y           Z
 ---------------------------------------------------------------------
      1         11           0       -0.149037   -0.108209    2.104674
      2         11           0        0.090362    0.259951   -1.664348
      3         11           0       -1.424495   -2.579872   -0.347787
      4         11           0       -3.055630    0.382968   -0.331213
      5         11           0       -0.694790    3.226046    0.341189
      6         11           0        1.848753   -2.404884    0.299051
      7         11           0        3.384836    1.224000   -0.401566
 ---------------------------------------------------------------------

 SCF Done:  E(UB3LYP) =  -1136.13399193     A.U. after   19 cycles

 The electronic state is 2-A.
 Alpha  occ. eigenvalues --  -38.44260 -38.44180 -38.43921 -38.43797 -38.43786
 Alpha  occ. eigenvalues --  -38.43503 -38.43281  -2.20007  -2.19952  -2.19776
 Alpha  occ. eigenvalues --   -2.19637  -2.19612  -2.19405  -2.19155  -1.13684
 Alpha  occ. eigenvalues --   -1.13657  -1.13649  -1.13627  -1.13610  -1.13592
 Alpha  occ. eigenvalues --   -1.13444  -1.13414  -1.13390  -1.13324  -1.13305
 Alpha  occ. eigenvalues --   -1.13289  -1.13282  -1.13266  -1.13241  -1.13097
 Alpha  occ. eigenvalues --   -1.13047  -1.13023  -1.12827  -1.12814  -1.12794
 Alpha  occ. eigenvalues --   -0.18125  -0.12656  -0.12347  -0.10757
 Alpha virt. eigenvalues --   -0.05974  -0.05248  -0.04823  -0.03109  -0.02908
 Alpha virt. eigenvalues --   -0.02605  -0.01627  -0.01398  -0.00661  -0.00439
 Alpha virt. eigenvalues --   -0.00058   0.00323   0.00736   0.00797   0.00825

  Beta  occ. eigenvalues --  -38.44252 -38.44173 -38.43827 -38.43789 -38.43780
  Beta  occ. eigenvalues --  -38.43448 -38.43273  -2.19994  -2.19943  -2.19625
  Beta  occ. eigenvalues --   -2.19604  -2.19601  -2.19305  -2.19145  -1.13666
  Beta  occ. eigenvalues --   -1.13650  -1.13642  -1.13607  -1.13604  -1.13587
  Beta  occ. eigenvalues --   -1.13333  -1.13313  -1.13298  -1.13288  -1.13286
  Beta  occ. eigenvalues --   -1.13273  -1.13249  -1.13242  -1.13229  -1.13029
  Beta  occ. eigenvalues --   -1.12978  -1.12945  -1.12817  -1.12808  -1.12765
  Beta  occ. eigenvalues --   -0.17413  -0.12434  -0.12081
  Beta virt. eigenvalues --   -0.06956  -0.05878  -0.05082  -0.04821  -0.02385
  Beta virt. eigenvalues --   -0.02254  -0.01667  -0.01457  -0.01275  -0.00691
  Beta virt. eigenvalues --   -0.00477   0.00093   0.00363   0.00750   0.00847

 Mulliken charges and spin densities:
               1          2
     1  Na  -0.307496   0.620706
     2  Na  -0.083959   0.396436
     3  Na   0.118815   0.019885
     4  Na   0.208665  -0.004569
     5  Na  -0.026332  -0.021081
     6  Na   0.151884   0.034108
     7  Na  -0.061577  -0.045485
 Sum of Mulliken charges =  -0.00000   1.00000

 Dipole moment (field-independent basis, Debye):
    X=              0.0539    Y=              0.3117    Z=              0.1702  Tot=              0.3592
 Quadrupole moment (field-independent basis, Debye-Ang):
   XX=            -58.9939   YY=            -60.2552   ZZ=            -74.3646
   XY=             -0.2817   XZ=              0.7252   YZ=              0.8049

 Normal termination of Gaussian 16 at Fri Dec  8 07:44:54 2023.
