 Gaussian 16, Revision B.01,
 Gaussian 16:  ES64L-G16RevB.01 20-Dec-2017

 -------------------------
 #P B3LYP/6-311+g(d) force
 -------------------------

 -----
 DPGEN
 -----
 Symbolic Z-matrix:
 Charge =  0 Multiplicity = 2

                         Standard orientation:
 ---------------------------------------------------------------------
 Center     Atomic      Atomic             Coordinates (Angstroms)
 Number     Number       Type             X           Y           Z
 ---------------------------------------------------------------------
      1         11           0       -2.691828    0.734615   -0.683802
      2         11           0        2.707795    1.322152   -0.766156
      3         11           0       -0.553838    3.128744    0.310742
      4         11           0       -0.308853   -0.096132    1.830145
      5         11           0        3.159168   -1.626003    0.441749
      6         11           0       -2.584219   -2.163360    0.040778
      7         11           0        0.271775   -1.300016   -1.173455
 ---------------------------------------------------------------------

 SCF Done:  E(UB3LYP) =  -1136.12789259     A.U. after   21 cycles

 The electronic state is 2-A.
 Alpha  occ. eigenvalues --  -38.44548 -38.44417 -38.44055 -38.43902 -38.43843
 Alpha  occ. eigenvalues --  -38.43149 -38.42833  -2.20379  -2.20240  -2.19968
 Alpha  occ. eigenvalues --   -2.19802  -2.19771  -2.19067  -2.18648  -1.14070
 Alpha  occ. eigenvalues --   -1.14050  -1.14021  -1.13918  -1.13887  -1.13849
 Alpha  occ. eigenvalues --   -1.13726  -1.13638  -1.13607  -1.13509  -1.13477
 Alpha  occ. eigenvalues --   -1.13438  -1.13426  -1.13417  -1.13343  -1.12757
 Alpha  occ. eigenvalues --   -1.12690  -1.12671  -1.12321  -1.12308  -1.12296
 Alpha  occ. eigenvalues --   -0.18449  -0.13996  -0.12085  -0.10181
 Alpha virt. eigenvalues --   -0.06126  -0.05815  -0.04516  -0.03535  -0.02540
 Alpha virt. eigenvalues --   -0.02138  -0.02035  -0.01264  -0.00662  -0.00326
 Alpha virt. eigenvalues --    0.00052   0.00282   0.00639   0.00728   0.00825

  Beta  occ. eigenvalues --  -38.44547 -38.44394 -38.44034 -38.43896 -38.43820
  Beta  occ. eigenvalues --  -38.43053 -38.42833  -2.20380  -2.20199  -2.19931
  Beta  occ. eigenvalues --   -2.19796  -2.19733  -2.18890  -2.18649  -1.14070
  Beta  occ. eigenvalues --   -1.14051  -1.14002  -1.13885  -1.13858  -1.13823
  Beta  occ. eigenvalues --   -1.13710  -1.13613  -1.13560  -1.13493  -1.13454
  Beta  occ. eigenvalues --   -1.13417  -1.13390  -1.13383  -1.13323  -1.12638
  Beta  occ. eigenvalues --   -1.12569  -1.12539  -1.12323  -1.12301  -1.12291
  Beta  occ. eigenvalues --   -0.17779  -0.13713  -0.11901
  Beta virt. eigenvalues --   -0.06471  -0.05976  -0.05643  -0.04491  -0.02859
  Beta virt. eigenvalues --   -0.01998  -0.01883  -0.01281  -0.01103  -0.00665
  Beta virt. eigenvalues --   -0.00205   0.00199   0.00365   0.00716   0.00753

 Mulliken charges and spin densities:
               1          2
     1  Na  -0.217028   0.020012
     2  Na  -0.226508  -0.000238
     3  Na   0.019600   0.003459
     4  Na  -0.620131   0.541906
     5  Na   0.501049   0.004392
     6  Na   0.925131   0.145686
     7  Na  -0.382113   0.284783
 Sum of Mulliken charges =  -0.00000   1.00000

 Dipole moment (field-independent basis, Debye):
    X=              0.6048    Y=             -0.6678    Z=              0.1167  Tot=              0.9085
 Quadrupole moment (field-independent basis, Debye-Ang):
   XX=            -53.8197   YY=            -64.8073   ZZ=            -75.3784
   XY=              0.4435   XZ=              0.9757   YZ=             -2.0283

 Normal termination of Gaussian 16 at Fri Dec  8 03:32:05 2023.
