 Gaussian 16, Revision B.01,
 Gaussian 16:  ES64L-G16RevB.01 20-Dec-2017

 -------------------------
 #P B3LYP/6-311+g(d) force
 -------------------------

 -----
 DPGEN
 -----
 Symbolic Z-matrix:
 Charge =  0 Multiplicity = 2

                         Standard orientation:
 ---------------------------------------------------------------------
 Center     Atomic      Atomic             Coordinates (Angstroms)
 Number     Number       Type             X           Y           Z
 ---------------------------------------------------------------------
      1         11           0        1.370602    1.170105   -1.387194
      2         11           0       -0.708752    3.535370    0.486648
      3         11           0        3.595441   -1.285329    0.369766
      4         11           0        0.148771   -2.008517   -0.767350
      5         11           0        0.172744    0.276944    2.124744
      6         11           0       -1.597606    0.535036   -1.301286
      7         11           0       -2.981199   -2.223610    0.474671
 ---------------------------------------------------------------------

 SCF Done:  E(UB3LYP) =  -1136.13134137     A.U. after   19 cycles

 The electronic state is 2-A.
 Alpha  occ. eigenvalues --  -38.44604 -38.43745 -38.43727 -38.43725 -38.43640
 Alpha  occ. eigenvalues --  -38.43426 -38.43326  -2.20420  -2.19556  -2.19539
 Alpha  occ. eigenvalues --   -2.19530  -2.19495  -2.19386  -2.19249  -1.14092
 Alpha  occ. eigenvalues --   -1.14051  -1.14032  -1.13362  -1.13217  -1.13206
 Alpha  occ. eigenvalues --   -1.13205  -1.13200  -1.13185  -1.13181  -1.13174
 Alpha  occ. eigenvalues --   -1.13171  -1.13161  -1.13142  -1.13123  -1.13114
 Alpha  occ. eigenvalues --   -1.13026  -1.12982  -1.12928  -1.12919  -1.12809
 Alpha  occ. eigenvalues --   -0.18317  -0.12551  -0.12248  -0.11260
 Alpha virt. eigenvalues --   -0.05958  -0.04739  -0.04592  -0.03208  -0.03020
 Alpha virt. eigenvalues --   -0.02873  -0.01579  -0.01459  -0.00603  -0.00106
 Alpha virt. eigenvalues --    0.00224   0.00354   0.00751   0.00766   0.00798

  Beta  occ. eigenvalues --  -38.44516 -38.43741 -38.43727 -38.43724 -38.43594
  Beta  occ. eigenvalues --  -38.43382 -38.43308  -2.20257  -2.19533  -2.19525
  Beta  occ. eigenvalues --   -2.19499  -2.19475  -2.19312  -2.19221  -1.13984
  Beta  occ. eigenvalues --   -1.13936  -1.13912  -1.13293  -1.13213  -1.13202
  Beta  occ. eigenvalues --   -1.13180  -1.13177  -1.13176  -1.13174  -1.13171
  Beta  occ. eigenvalues --   -1.13156  -1.13138  -1.13122  -1.13085  -1.13073
  Beta  occ. eigenvalues --   -1.12956  -1.12939  -1.12896  -1.12866  -1.12796
  Beta  occ. eigenvalues --   -0.17487  -0.12396  -0.12142
  Beta virt. eigenvalues --   -0.07231  -0.05721  -0.04633  -0.04510  -0.02598
  Beta virt. eigenvalues --   -0.02458  -0.01939  -0.01483  -0.01341  -0.00263
  Beta virt. eigenvalues --   -0.00158   0.00256   0.00467   0.00780   0.00813

 Mulliken charges and spin densities:
               1          2
     1  Na   0.048310   0.123621
     2  Na  -0.058860  -0.156973
     3  Na   0.243386  -0.090396
     4  Na  -0.092538   0.143526
     5  Na  -0.547282   0.822083
     6  Na   0.188497   0.288730
     7  Na   0.218487  -0.130591
 Sum of Mulliken charges =  -0.00000   1.00000

 Dipole moment (field-independent basis, Debye):
    X=             -0.1167    Y=              0.2143    Z=              0.5023  Tot=              0.5584
 Quadrupole moment (field-independent basis, Debye-Ang):
   XX=            -59.9326   YY=            -62.2506   ZZ=            -70.4400
   XY=              0.1369   XZ=             -1.0695   YZ=             -0.7859

 Normal termination of Gaussian 16 at Fri Dec  8 07:00:39 2023.
