 Gaussian 16, Revision B.01,
 Gaussian 16:  ES64L-G16RevB.01 20-Dec-2017

 -------------------------
 #P B3LYP/6-311+g(d) force
 -------------------------

 -----
 DPGEN
 -----
 Symbolic Z-matrix:
 Charge =  0 Multiplicity = 2

                         Standard orientation:
 ---------------------------------------------------------------------
 Center     Atomic      Atomic             Coordinates (Angstroms)
 Number     Number       Type             X           Y           Z
 ---------------------------------------------------------------------
      1         11           0        1.455522   -1.723521    1.357078
      2         11           0       -0.070466   -0.256692   -1.079906
      3         11           0        3.514098   -1.093939   -1.077663
      4         11           0        2.113724    2.514162    0.121712
      5         11           0       -1.101415    1.775884    1.697346
      6         11           0       -3.140284    1.064659   -1.423030
      7         11           0       -2.771178   -2.280553    0.404463
 ---------------------------------------------------------------------

 SCF Done:  E(UB3LYP) =  -1136.12270714     A.U. after   21 cycles

 The electronic state is 2-A.
 Alpha  occ. eigenvalues --  -38.44590 -38.44251 -38.44048 -38.44015 -38.43978
 Alpha  occ. eigenvalues --  -38.43714 -38.43628  -2.20339  -2.20069  -2.19870
 Alpha  occ. eigenvalues --   -2.19820  -2.19776  -2.19635  -2.19435  -1.14021
 Alpha  occ. eigenvalues --   -1.13993  -1.13978  -1.13749  -1.13704  -1.13681
 Alpha  occ. eigenvalues --   -1.13571  -1.13545  -1.13521  -1.13502  -1.13463
 Alpha  occ. eigenvalues --   -1.13455  -1.13436  -1.13414  -1.13413  -1.13356
 Alpha  occ. eigenvalues --   -1.13281  -1.13249  -1.13107  -1.13086  -1.13055
 Alpha  occ. eigenvalues --   -0.17571  -0.13558  -0.11420  -0.10469
 Alpha virt. eigenvalues --   -0.06214  -0.05901  -0.04732  -0.03269  -0.02638
 Alpha virt. eigenvalues --   -0.02209  -0.02143  -0.01562  -0.00819  -0.00438
 Alpha virt. eigenvalues --    0.00093   0.00167   0.00214   0.00520   0.00594

  Beta  occ. eigenvalues --  -38.44585 -38.44194 -38.44022 -38.44019 -38.43951
  Beta  occ. eigenvalues --  -38.43695 -38.43589  -2.20331  -2.19964  -2.19820
  Beta  occ. eigenvalues --   -2.19787  -2.19772  -2.19605  -2.19364  -1.14016
  Beta  occ. eigenvalues --   -1.13983  -1.13963  -1.13671  -1.13634  -1.13612
  Beta  occ. eigenvalues --   -1.13541  -1.13508  -1.13485  -1.13468  -1.13466
  Beta  occ. eigenvalues --   -1.13444  -1.13420  -1.13411  -1.13368  -1.13302
  Beta  occ. eigenvalues --   -1.13264  -1.13230  -1.13056  -1.13027  -1.13009
  Beta  occ. eigenvalues --   -0.16969  -0.13218  -0.11205
  Beta virt. eigenvalues --   -0.06991  -0.06132  -0.05643  -0.04071  -0.03115
  Beta virt. eigenvalues --   -0.02160  -0.02041  -0.01509  -0.01388  -0.00427
  Beta virt. eigenvalues --   -0.00312   0.00159   0.00246   0.00281   0.00629

 Mulliken charges and spin densities:
               1          2
     1  Na   0.073816   0.275943
     2  Na  -1.126592   0.180162
     3  Na   0.704350   0.108406
     4  Na  -0.114277  -0.004902
     5  Na  -0.040335   0.275298
     6  Na   0.496950   0.083872
     7  Na   0.006088   0.081221
 Sum of Mulliken charges =  -0.00000   1.00000

 Dipole moment (field-independent basis, Debye):
    X=             -0.0821    Y=             -0.1065    Z=              0.1993  Tot=              0.2405
 Quadrupole moment (field-independent basis, Debye-Ang):
   XX=            -52.5224   YY=            -70.7652   ZZ=            -69.8805
   XY=              1.0162   XZ=             -2.4115   YZ=             -2.2193

 Normal termination of Gaussian 16 at Tue Dec  5 22:11:09 2023.
