 Gaussian 16, Revision B.01,
 Gaussian 16:  ES64L-G16RevB.01 20-Dec-2017

 -------------------------
 #P B3LYP/6-311+g(d) force
 -------------------------

 -----
 DPGEN
 -----
 Symbolic Z-matrix:
 Charge =  0 Multiplicity = 2

                         Standard orientation:
 ---------------------------------------------------------------------
 Center     Atomic      Atomic             Coordinates (Angstroms)
 Number     Number       Type             X           Y           Z
 ---------------------------------------------------------------------
      1         11           0        0.487629    2.897127   -0.177395
      2         11           0        1.514996   -2.266865   -0.186611
      3         11           0       -0.054406   -0.222103    2.001833
      4         11           0        2.950706    0.275526    0.111420
      5         11           0       -0.369812    0.476050   -1.801936
      6         11           0       -1.841537   -2.061769   -0.443724
      7         11           0       -2.687575    0.902034    0.496414
 ---------------------------------------------------------------------

 SCF Done:  E(UB3LYP) =  -1136.13470770     A.U. after   18 cycles

 The electronic state is 2-A.
 Alpha  occ. eigenvalues --  -38.43818 -38.43802 -38.43800 -38.43453 -38.43298
 Alpha  occ. eigenvalues --  -38.43292 -38.43232  -2.19739  -2.19710  -2.19699
 Alpha  occ. eigenvalues --   -2.19445  -2.19211  -2.19159  -2.19156  -1.13468
 Alpha  occ. eigenvalues --   -1.13456  -1.13403  -1.13388  -1.13366  -1.13348
 Alpha  occ. eigenvalues --   -1.13330  -1.13323  -1.13317  -1.13160  -1.13116
 Alpha  occ. eigenvalues --   -1.13059  -1.12892  -1.12865  -1.12855  -1.12826
 Alpha  occ. eigenvalues --   -1.12819  -1.12803  -1.12799  -1.12776  -1.12771
 Alpha  occ. eigenvalues --   -0.19237  -0.13225  -0.12542  -0.11334
 Alpha virt. eigenvalues --   -0.05394  -0.04790  -0.04560  -0.03478  -0.03097
 Alpha virt. eigenvalues --   -0.02868  -0.01230  -0.00933  -0.00127   0.00015
 Alpha virt. eigenvalues --    0.00103   0.00380   0.00897   0.00950   0.00975

  Beta  occ. eigenvalues --  -38.43816 -38.43785 -38.43712 -38.43381 -38.43294
  Beta  occ. eigenvalues --  -38.43278 -38.43226  -2.19698  -2.19684  -2.19577
  Beta  occ. eigenvalues --   -2.19314  -2.19191  -2.19154  -2.19149  -1.13457
  Beta  occ. eigenvalues --   -1.13417  -1.13348  -1.13344  -1.13320  -1.13317
  Beta  occ. eigenvalues --   -1.13288  -1.13246  -1.13224  -1.13075  -1.13035
  Beta  occ. eigenvalues --   -1.12969  -1.12875  -1.12852  -1.12818  -1.12817
  Beta  occ. eigenvalues --   -1.12796  -1.12786  -1.12781  -1.12776  -1.12753
  Beta  occ. eigenvalues --   -0.18474  -0.12977  -0.12281
  Beta virt. eigenvalues --   -0.07342  -0.05357  -0.04778  -0.04511  -0.02656
  Beta virt. eigenvalues --   -0.02324  -0.01786  -0.01139  -0.00854  -0.00092
  Beta virt. eigenvalues --    0.00035   0.00118   0.00409   0.00935   0.00956

 Mulliken charges and spin densities:
               1          2
     1  Na   0.141915  -0.087477
     2  Na   0.094114  -0.001203
     3  Na  -0.477104   0.583668
     4  Na   0.028678  -0.064666
     5  Na  -0.410006   0.511332
     6  Na   0.308152   0.025516
     7  Na   0.314250   0.032831
 Sum of Mulliken charges =  -0.00000   1.00000

 Dipole moment (field-independent basis, Debye):
    X=             -0.0995    Y=              0.1660    Z=              0.1754  Tot=              0.2612
 Quadrupole moment (field-independent basis, Debye-Ang):
   XX=            -59.9325   YY=            -64.4936   ZZ=            -71.2825
   XY=              0.4957   XZ=             -0.4261   YZ=              1.7621

 Normal termination of Gaussian 16 at Tue Dec  5 12:24:01 2023.
