 Gaussian 16, Revision B.01,
 Gaussian 16:  ES64L-G16RevB.01 20-Dec-2017

 -------------------------
 #P B3LYP/6-311+g(d) force
 -------------------------

 -----
 DPGEN
 -----
 Symbolic Z-matrix:
 Charge =  0 Multiplicity = 2

                         Standard orientation:
 ---------------------------------------------------------------------
 Center     Atomic      Atomic             Coordinates (Angstroms)
 Number     Number       Type             X           Y           Z
 ---------------------------------------------------------------------
      1         11           0       -2.830299   -2.230437   -0.140513
      2         11           0        0.072768   -0.288435    2.176993
      3         11           0        3.685215   -1.471616    0.005727
      4         11           0        2.535396    2.072666    0.278706
      5         11           0       -3.810677    1.232737    0.191474
      6         11           0       -0.321740    1.901582   -1.137581
      7         11           0        0.669336   -1.216497   -1.374806
 ---------------------------------------------------------------------

 SCF Done:  E(UB3LYP) =  -1136.11151742     A.U. after   34 cycles

 The electronic state is 2-A.
 Alpha  occ. eigenvalues --  -38.45881 -38.44999 -38.44733 -38.44539 -38.44187
 Alpha  occ. eigenvalues --  -38.43591 -38.42741  -2.21618  -2.20760  -2.20524
 Alpha  occ. eigenvalues --   -2.20293  -2.20002  -2.19467  -2.18611  -1.15293
 Alpha  occ. eigenvalues --   -1.15270  -1.15253  -1.14442  -1.14431  -1.14408
 Alpha  occ. eigenvalues --   -1.14197  -1.14156  -1.14132  -1.13967  -1.13955
 Alpha  occ. eigenvalues --   -1.13939  -1.13682  -1.13665  -1.13639  -1.13157
 Alpha  occ. eigenvalues --   -1.13121  -1.13080  -1.12311  -1.12260  -1.12236
 Alpha  occ. eigenvalues --   -0.17648  -0.13519  -0.11187  -0.10565
 Alpha virt. eigenvalues --   -0.07596  -0.06276  -0.03596  -0.03409  -0.03011
 Alpha virt. eigenvalues --   -0.02551  -0.02426  -0.01868  -0.00894  -0.00556
 Alpha virt. eigenvalues --   -0.00118   0.00077   0.00329   0.00460   0.00531

  Beta  occ. eigenvalues --  -38.45873 -38.45022 -38.44636 -38.44538 -38.44184
  Beta  occ. eigenvalues --  -38.43530 -38.42716  -2.21604  -2.20806  -2.20345
  Beta  occ. eigenvalues --   -2.20292  -2.19999  -2.19356  -2.18567  -1.15277
  Beta  occ. eigenvalues --   -1.15261  -1.15245  -1.14465  -1.14461  -1.14435
  Beta  occ. eigenvalues --   -1.14073  -1.14032  -1.14003  -1.13957  -1.13952
  Beta  occ. eigenvalues --   -1.13939  -1.13685  -1.13647  -1.13637  -1.13085
  Beta  occ. eigenvalues --   -1.13030  -1.13001  -1.12278  -1.12218  -1.12204
  Beta  occ. eigenvalues --   -0.16925  -0.13481  -0.11048
  Beta virt. eigenvalues --   -0.07433  -0.06645  -0.06136  -0.03445  -0.02966
  Beta virt. eigenvalues --   -0.02758  -0.02115  -0.01619  -0.01368  -0.00977
  Beta virt. eigenvalues --   -0.00332  -0.00052   0.00086   0.00403   0.00562

 Mulliken charges and spin densities:
               1          2
     1  Na   0.156736  -0.009159
     2  Na  -0.268926   0.609041
     3  Na   0.319264  -0.117863
     4  Na   0.116372   0.087556
     5  Na   0.047454   0.041689
     6  Na   0.055401   0.019577
     7  Na  -0.426302   0.369157
 Sum of Mulliken charges =  -0.00000   1.00000

 Dipole moment (field-independent basis, Debye):
    X=             -0.4173    Y=              0.0861    Z=              0.5036  Tot=              0.6596
 Quadrupole moment (field-independent basis, Debye-Ang):
   XX=            -43.3563   YY=            -72.7191   ZZ=            -76.2287
   XY=             -0.6800   XZ=              0.7990   YZ=              0.8407

 Normal termination of Gaussian 16 at Thu Dec  7 10:51:38 2023.
