 Gaussian 16, Revision B.01,
 Gaussian 16:  ES64L-G16RevB.01 20-Dec-2017

 -------------------------
 #P B3LYP/6-311+g(d) force
 -------------------------

 -----
 DPGEN
 -----
 Symbolic Z-matrix:
 Charge =  0 Multiplicity = 2

                         Standard orientation:
 ---------------------------------------------------------------------
 Center     Atomic      Atomic             Coordinates (Angstroms)
 Number     Number       Type             X           Y           Z
 ---------------------------------------------------------------------
      1         11           0       -3.185920   -2.107331   -0.398364
      2         11           0       -1.372194    0.954507   -1.537331
      3         11           0        4.026689   -1.580721   -0.123029
      4         11           0       -2.335073    0.158835    1.603586
      5         11           0        0.660971    3.392195   -0.839343
      6         11           0        1.106518   -1.568481   -0.885454
      7         11           0        1.099010    0.750997    2.179934
 ---------------------------------------------------------------------

 SCF Done:  E(UB3LYP) =  -1136.12063154     A.U. after   19 cycles

 The electronic state is 2-A.
 Alpha  occ. eigenvalues --  -38.44785 -38.44433 -38.44069 -38.43962 -38.43839
 Alpha  occ. eigenvalues --  -38.43828 -38.43573  -2.20582  -2.20310  -2.19885
 Alpha  occ. eigenvalues --   -2.19763  -2.19728  -2.19671  -2.19360  -1.14266
 Alpha  occ. eigenvalues --   -1.14209  -1.14193  -1.13978  -1.13975  -1.13950
 Alpha  occ. eigenvalues --   -1.13555  -1.13539  -1.13525  -1.13517  -1.13427
 Alpha  occ. eigenvalues --   -1.13416  -1.13403  -1.13399  -1.13334  -1.13330
 Alpha  occ. eigenvalues --   -1.13324  -1.13245  -1.13026  -1.13019  -1.12988
 Alpha  occ. eigenvalues --   -0.17614  -0.13084  -0.11924  -0.11591
 Alpha virt. eigenvalues --   -0.06222  -0.05484  -0.04481  -0.03302  -0.02945
 Alpha virt. eigenvalues --   -0.02745  -0.01994  -0.01639  -0.00648  -0.00230
 Alpha virt. eigenvalues --   -0.00009   0.00215   0.00291   0.00631   0.00725

  Beta  occ. eigenvalues --  -38.44702 -38.44386 -38.44068 -38.43967 -38.43810
  Beta  occ. eigenvalues --  -38.43791 -38.43562  -2.20431  -2.20226  -2.19885
  Beta  occ. eigenvalues --   -2.19773  -2.19642  -2.19637  -2.19343  -1.14159
  Beta  occ. eigenvalues --   -1.14103  -1.14084  -1.13925  -1.13918  -1.13873
  Beta  occ. eigenvalues --   -1.13546  -1.13539  -1.13523  -1.13513  -1.13422
  Beta  occ. eigenvalues --   -1.13407  -1.13366  -1.13342  -1.13305  -1.13303
  Beta  occ. eigenvalues --   -1.13263  -1.13229  -1.13010  -1.12998  -1.12980
  Beta  occ. eigenvalues --   -0.16874  -0.13033  -0.11671
  Beta virt. eigenvalues --   -0.07591  -0.05966  -0.05342  -0.03984  -0.02865
  Beta virt. eigenvalues --   -0.02484  -0.02182  -0.01843  -0.01515  -0.00272
  Beta virt. eigenvalues --   -0.00158   0.00100   0.00351   0.00386   0.00685

 Mulliken charges and spin densities:
               1          2
     1  Na   0.644684  -0.005751
     2  Na  -0.037163   0.558580
     3  Na   0.512251  -0.059875
     4  Na  -0.170142   0.111180
     5  Na  -0.044839  -0.128740
     6  Na  -0.813172   0.063371
     7  Na  -0.091619   0.461235
 Sum of Mulliken charges =  -0.00000   1.00000

 Dipole moment (field-independent basis, Debye):
    X=              0.0584    Y=             -0.0871    Z=              0.3330  Tot=              0.3491
 Quadrupole moment (field-independent basis, Debye-Ang):
   XX=            -57.1009   YY=            -68.8342   ZZ=            -69.8649
   XY=              5.1583   XZ=              2.2568   YZ=              2.0015

 Normal termination of Gaussian 16 at Mon Dec  4 02:34:10 2023.
