 Gaussian 16, Revision B.01,
 Gaussian 16:  ES64L-G16RevB.01 20-Dec-2017

 -------------------------
 #P B3LYP/6-311+g(d) force
 -------------------------

 -----
 DPGEN
 -----
 Symbolic Z-matrix:
 Charge =  0 Multiplicity = 2

                         Standard orientation:
 ---------------------------------------------------------------------
 Center     Atomic      Atomic             Coordinates (Angstroms)
 Number     Number       Type             X           Y           Z
 ---------------------------------------------------------------------
      1         11           0       -2.827645   -0.979117    0.051951
      2         11           0        0.052485   -2.865056    0.131835
      3         11           0       -1.931420    2.273906   -0.108960
      4         11           0        3.025504   -0.951479   -0.103925
      5         11           0       -0.308695   -0.327113   -1.648705
      6         11           0        1.835188    2.446136   -0.311998
      7         11           0        0.154582    0.402723    1.989801
 ---------------------------------------------------------------------

 SCF Done:  E(UB3LYP) =  -1136.13898717     A.U. after   18 cycles

 The electronic state is 2-A.
 Alpha  occ. eigenvalues --  -38.43986 -38.43756 -38.43723 -38.43592 -38.43390
 Alpha  occ. eigenvalues --  -38.43320 -38.43169  -2.19796  -2.19613  -2.19572
 Alpha  occ. eigenvalues --   -2.19447  -2.19285  -2.19200  -2.19162  -1.13470
 Alpha  occ. eigenvalues --   -1.13456  -1.13442  -1.13337  -1.13265  -1.13256
 Alpha  occ. eigenvalues --   -1.13248  -1.13239  -1.13207  -1.13123  -1.13118
 Alpha  occ. eigenvalues --   -1.13074  -1.12969  -1.12949  -1.12910  -1.12904
 Alpha  occ. eigenvalues --   -1.12854  -1.12823  -1.12821  -1.12778  -1.12756
 Alpha  occ. eigenvalues --   -0.18731  -0.12988  -0.12608  -0.10611
 Alpha virt. eigenvalues --   -0.05512  -0.05299  -0.04777  -0.03137  -0.02960
 Alpha virt. eigenvalues --   -0.02394  -0.01420  -0.01153  -0.00443  -0.00340
 Alpha virt. eigenvalues --   -0.00001   0.00368   0.00820   0.00871   0.00900

  Beta  occ. eigenvalues --  -38.43985 -38.43750 -38.43717 -38.43586 -38.43314
  Beta  occ. eigenvalues --  -38.43300 -38.43106  -2.19795  -2.19606  -2.19564
  Beta  occ. eigenvalues --   -2.19440  -2.19192  -2.19121  -2.19047  -1.13457
  Beta  occ. eigenvalues --   -1.13449  -1.13445  -1.13326  -1.13256  -1.13236
  Beta  occ. eigenvalues --   -1.13235  -1.13220  -1.13205  -1.13118  -1.13084
  Beta  occ. eigenvalues --   -1.13073  -1.12938  -1.12848  -1.12827  -1.12821
  Beta  occ. eigenvalues --   -1.12787  -1.12786  -1.12749  -1.12695  -1.12684
  Beta  occ. eigenvalues --   -0.18000  -0.12761  -0.12377
  Beta virt. eigenvalues --   -0.06708  -0.05515  -0.05266  -0.04712  -0.02353
  Beta virt. eigenvalues --   -0.02179  -0.01372  -0.01329  -0.01081  -0.00497
  Beta virt. eigenvalues --   -0.00390   0.00143   0.00393   0.00860   0.00869

 Mulliken charges and spin densities:
               1          2
     1  Na   0.362568   0.005893
     2  Na   0.173723  -0.040626
     3  Na   0.189993  -0.077001
     4  Na   0.023866  -0.082883
     5  Na  -0.289689   0.537142
     6  Na   0.023017  -0.090441
     7  Na  -0.483478   0.747915
 Sum of Mulliken charges =  -0.00000   1.00000

 Dipole moment (field-independent basis, Debye):
    X=              0.1343    Y=              0.1092    Z=              0.0970  Tot=              0.1984
 Quadrupole moment (field-independent basis, Debye-Ang):
   XX=            -56.9926   YY=            -61.4643   ZZ=            -74.7813
   XY=             -0.1889   XZ=             -0.9843   YZ=             -1.6384

 Normal termination of Gaussian 16 at Thu Dec  7 03:20:35 2023.
