 Gaussian 16, Revision B.01,
 Gaussian 16:  ES64L-G16RevB.01 20-Dec-2017

 -------------------------
 #P B3LYP/6-311+g(d) force
 -------------------------

 -----
 DPGEN
 -----
 Symbolic Z-matrix:
 Charge =  0 Multiplicity = 2

                         Standard orientation:
 ---------------------------------------------------------------------
 Center     Atomic      Atomic             Coordinates (Angstroms)
 Number     Number       Type             X           Y           Z
 ---------------------------------------------------------------------
      1         11           0       -0.218039    2.888609    0.070035
      2         11           0        2.427852   -2.039305    0.095450
      3         11           0       -3.014991    0.755215   -0.290701
      4         11           0        0.147972    0.026712    2.185492
      5         11           0        2.529240    1.202966   -0.466473
      6         11           0        0.163152   -0.435209   -1.583099
      7         11           0       -2.035186   -2.398988   -0.010705
 ---------------------------------------------------------------------

 SCF Done:  E(UB3LYP) =  -1136.13571032     A.U. after   19 cycles

 The electronic state is 2-A.
 Alpha  occ. eigenvalues --  -38.44085 -38.43841 -38.43841 -38.43782 -38.43655
 Alpha  occ. eigenvalues --  -38.43309 -38.42906  -2.19912  -2.19705  -2.19689
 Alpha  occ. eigenvalues --   -2.19608  -2.19579  -2.19297  -2.18765  -1.13588
 Alpha  occ. eigenvalues --   -1.13578  -1.13557  -1.13400  -1.13365  -1.13354
 Alpha  occ. eigenvalues --   -1.13339  -1.13330  -1.13316  -1.13313  -1.13288
 Alpha  occ. eigenvalues --   -1.13264  -1.13242  -1.13219  -1.13191  -1.12969
 Alpha  occ. eigenvalues --   -1.12930  -1.12910  -1.12435  -1.12424  -1.12417
 Alpha  occ. eigenvalues --   -0.18660  -0.13268  -0.12256  -0.10920
 Alpha virt. eigenvalues --   -0.05646  -0.05268  -0.04521  -0.03316  -0.02861
 Alpha virt. eigenvalues --   -0.02766  -0.01495  -0.01124  -0.00415  -0.00211
 Alpha virt. eigenvalues --   -0.00005   0.00350   0.00788   0.00844   0.00906

  Beta  occ. eigenvalues --  -38.44081 -38.43837 -38.43780 -38.43736 -38.43640
  Beta  occ. eigenvalues --  -38.43255 -38.42902  -2.19908  -2.19686  -2.19608
  Beta  occ. eigenvalues --   -2.19555  -2.19509  -2.19198  -2.18763  -1.13578
  Beta  occ. eigenvalues --   -1.13572  -1.13552  -1.13392  -1.13349  -1.13315
  Beta  occ. eigenvalues --   -1.13293  -1.13280  -1.13260  -1.13240  -1.13232
  Beta  occ. eigenvalues --   -1.13197  -1.13183  -1.13180  -1.13176  -1.12903
  Beta  occ. eigenvalues --   -1.12857  -1.12840  -1.12436  -1.12419  -1.12397
  Beta  occ. eigenvalues --   -0.17927  -0.13040  -0.12050
  Beta virt. eigenvalues --   -0.06942  -0.05634  -0.05212  -0.04490  -0.02542
  Beta virt. eigenvalues --   -0.02098  -0.01669  -0.01411  -0.01041  -0.00468
  Beta virt. eigenvalues --   -0.00225   0.00137   0.00386   0.00837   0.00874

 Mulliken charges and spin densities:
               1          2
     1  Na   0.043884   0.003819
     2  Na   0.187268   0.001415
     3  Na   0.028699  -0.016672
     4  Na  -0.593601   0.750675
     5  Na   0.380380   0.092293
     6  Na  -0.177002   0.202971
     7  Na   0.130373  -0.034501
 Sum of Mulliken charges =  -0.00000   1.00000

 Dipole moment (field-independent basis, Debye):
    X=             -0.1237    Y=             -0.3729    Z=              0.1838  Tot=              0.4338
 Quadrupole moment (field-independent basis, Debye-Ang):
   XX=            -57.5126   YY=            -63.2292   ZZ=            -73.6789
   XY=             -1.0278   XZ=              0.0767   YZ=             -1.2864

 Normal termination of Gaussian 16 at Tue Dec  5 15:57:48 2023.
