 Gaussian 16, Revision B.01,
 Gaussian 16:  ES64L-G16RevB.01 20-Dec-2017

 -------------------------
 #P B3LYP/6-311+g(d) force
 -------------------------

 -----
 DPGEN
 -----
 Symbolic Z-matrix:
 Charge =  0 Multiplicity = 2

                         Standard orientation:
 ---------------------------------------------------------------------
 Center     Atomic      Atomic             Coordinates (Angstroms)
 Number     Number       Type             X           Y           Z
 ---------------------------------------------------------------------
      1         11           0        0.051098   -0.118216    2.031037
      2         11           0       -0.527093   -2.866597   -0.403281
      3         11           0        0.210152   -0.167502   -1.634514
      4         11           0        2.393375    2.078582   -0.063981
      5         11           0       -3.189408   -0.204930    0.197332
      6         11           0       -1.378336    2.675980   -0.292930
      7         11           0        2.440212   -1.397319    0.166336
 ---------------------------------------------------------------------

 SCF Done:  E(UB3LYP) =  -1136.13738688     A.U. after   20 cycles

 The electronic state is 2-A.
 Alpha  occ. eigenvalues --  -38.43920 -38.43688 -38.43656 -38.43651 -38.43554
 Alpha  occ. eigenvalues --  -38.43364 -38.43202  -2.19726  -2.19555  -2.19505
 Alpha  occ. eigenvalues --   -2.19482  -2.19470  -2.19252  -2.19209  -1.13399
 Alpha  occ. eigenvalues --   -1.13389  -1.13372  -1.13267  -1.13205  -1.13198
 Alpha  occ. eigenvalues --   -1.13189  -1.13175  -1.13164  -1.13151  -1.13137
 Alpha  occ. eigenvalues --   -1.13134  -1.13122  -1.13113  -1.13080  -1.13026
 Alpha  occ. eigenvalues --   -1.12896  -1.12870  -1.12863  -1.12823  -1.12788
 Alpha  occ. eigenvalues --   -0.18756  -0.12933  -0.12540  -0.10831
 Alpha virt. eigenvalues --   -0.05426  -0.05164  -0.04839  -0.03159  -0.02905
 Alpha virt. eigenvalues --   -0.02597  -0.01394  -0.01166  -0.00405  -0.00269
 Alpha virt. eigenvalues --    0.00004   0.00359   0.00840   0.00889   0.00898

  Beta  occ. eigenvalues --  -38.43918 -38.43684 -38.43650 -38.43561 -38.43543
  Beta  occ. eigenvalues --  -38.43352 -38.43135  -2.19725  -2.19500  -2.19471
  Beta  occ. eigenvalues --   -2.19467  -2.19380  -2.19233  -2.19089  -1.13390
  Beta  occ. eigenvalues --   -1.13381  -1.13374  -1.13223  -1.13179  -1.13160
  Beta  occ. eigenvalues --   -1.13152  -1.13137  -1.13134  -1.13121  -1.13113
  Beta  occ. eigenvalues --   -1.13089  -1.13077  -1.13049  -1.13029  -1.12989
  Beta  occ. eigenvalues --   -1.12867  -1.12855  -1.12789  -1.12741  -1.12710
  Beta  occ. eigenvalues --   -0.18017  -0.12709  -0.12284
  Beta virt. eigenvalues --   -0.06890  -0.05407  -0.05142  -0.04783  -0.02370
  Beta virt. eigenvalues --   -0.02156  -0.01532  -0.01317  -0.01083  -0.00442
  Beta virt. eigenvalues --   -0.00314   0.00133   0.00382   0.00866   0.00885

 Mulliken charges and spin densities:
               1          2
     1  Na  -0.425482   0.724847
     2  Na   0.269846  -0.011441
     3  Na  -0.213772   0.478766
     4  Na  -0.041509  -0.107796
     5  Na  -0.015869  -0.048616
     6  Na  -0.047334  -0.092179
     7  Na   0.474120   0.056420
 Sum of Mulliken charges =  -0.00000   1.00000

 Dipole moment (field-independent basis, Debye):
    X=             -0.1206    Y=              0.1104    Z=              0.1859  Tot=              0.2476
 Quadrupole moment (field-independent basis, Debye-Ang):
   XX=            -58.2111   YY=            -61.1789   ZZ=            -74.1826
   XY=              1.0350   XZ=              0.2165   YZ=             -0.1903

 Normal termination of Gaussian 16 at Thu Dec  7 04:50:43 2023.
