 Gaussian 16, Revision B.01,
 Gaussian 16:  ES64L-G16RevB.01 20-Dec-2017

 -------------------------
 #P B3LYP/6-311+g(d) force
 -------------------------

 -----
 DPGEN
 -----
 Symbolic Z-matrix:
 Charge =  0 Multiplicity = 2

                         Standard orientation:
 ---------------------------------------------------------------------
 Center     Atomic      Atomic             Coordinates (Angstroms)
 Number     Number       Type             X           Y           Z
 ---------------------------------------------------------------------
      1         11           0       -1.469989    2.459953    0.067898
      2         11           0       -0.199423   -2.644349   -0.392510
      3         11           0        0.132944    0.223835    2.004000
      4         11           0        2.538513   -1.359700    0.391491
      5         11           0       -0.054379    0.099295   -1.782309
      6         11           0        2.133828    1.970812   -0.426596
      7         11           0       -3.081495   -0.749845    0.138027
 ---------------------------------------------------------------------

 SCF Done:  E(UB3LYP) =  -1136.13770122     A.U. after   19 cycles

 The electronic state is 2-A.
 Alpha  occ. eigenvalues --  -38.43872 -38.43734 -38.43526 -38.43483 -38.43436
 Alpha  occ. eigenvalues --  -38.43417 -38.43074  -2.19689  -2.19659  -2.19421
 Alpha  occ. eigenvalues --   -2.19400  -2.19348  -2.19340  -2.18994  -1.13363
 Alpha  occ. eigenvalues --   -1.13351  -1.13338  -1.13332  -1.13308  -1.13276
 Alpha  occ. eigenvalues --   -1.13170  -1.13122  -1.13090  -1.13055  -1.13039
 Alpha  occ. eigenvalues --   -1.13028  -1.13022  -1.13001  -1.12998  -1.12987
 Alpha  occ. eigenvalues --   -1.12964  -1.12955  -1.12679  -1.12635  -1.12608
 Alpha  occ. eigenvalues --   -0.19074  -0.12944  -0.12600  -0.11213
 Alpha virt. eigenvalues --   -0.05396  -0.04993  -0.04427  -0.03300  -0.03109
 Alpha virt. eigenvalues --   -0.02835  -0.01369  -0.01003  -0.00135  -0.00038
 Alpha virt. eigenvalues --    0.00089   0.00373   0.00862   0.00915   0.00962

  Beta  occ. eigenvalues --  -38.43872 -38.43646 -38.43514 -38.43477 -38.43426
  Beta  occ. eigenvalues --  -38.43339 -38.43065  -2.19691  -2.19498  -2.19382
  Beta  occ. eigenvalues --   -2.19342  -2.19327  -2.19279  -2.18980  -1.13357
  Beta  occ. eigenvalues --   -1.13349  -1.13333  -1.13233  -1.13194  -1.13165
  Beta  occ. eigenvalues --   -1.13119  -1.13055  -1.13044  -1.13032  -1.13019
  Beta  occ. eigenvalues --   -1.13003  -1.12998  -1.12965  -1.12955  -1.12947
  Beta  occ. eigenvalues --   -1.12934  -1.12909  -1.12659  -1.12605  -1.12603
  Beta  occ. eigenvalues --   -0.18318  -0.12698  -0.12324
  Beta virt. eigenvalues --   -0.07252  -0.05381  -0.04955  -0.04408  -0.02492
  Beta virt. eigenvalues --   -0.02303  -0.01758  -0.01289  -0.00929  -0.00128
  Beta virt. eigenvalues --   -0.00045   0.00132   0.00388   0.00901   0.00924

 Mulliken charges and spin densities:
               1          2
     1  Na   0.089574  -0.094720
     2  Na   0.194305  -0.027116
     3  Na  -0.423411   0.667480
     4  Na   0.182205   0.059203
     5  Na  -0.207638   0.513068
     6  Na   0.221859  -0.042938
     7  Na  -0.056894  -0.074978
 Sum of Mulliken charges =  -0.00000   1.00000

 Dipole moment (field-independent basis, Debye):
    X=             -0.1837    Y=              0.2405    Z=              0.1991  Tot=              0.3622
 Quadrupole moment (field-independent basis, Debye-Ang):
   XX=            -58.0666   YY=            -64.3581   ZZ=            -72.0176
   XY=              0.3195   XZ=             -0.4680   YZ=             -0.4572

 Normal termination of Gaussian 16 at Thu Dec  7 16:58:39 2023.
