 Gaussian 16, Revision B.01,
 Gaussian 16:  ES64L-G16RevB.01 20-Dec-2017

 -------------------------
 #P B3LYP/6-311+g(d) force
 -------------------------

 -----
 DPGEN
 -----
 Symbolic Z-matrix:
 Charge =  0 Multiplicity = 2

                         Standard orientation:
 ---------------------------------------------------------------------
 Center     Atomic      Atomic             Coordinates (Angstroms)
 Number     Number       Type             X           Y           Z
 ---------------------------------------------------------------------
      1         11           0        2.477115   -1.252369   -1.781066
      2         11           0       -3.412511   -2.062458   -0.401321
      3         11           0        2.921663   -1.304805    1.885143
      4         11           0       -0.331845   -0.673923    0.079184
      5         11           0       -3.556740    0.836554    0.676712
      6         11           0       -0.959645    2.650114   -0.335054
      7         11           0        2.861961    1.806887   -0.123597
 ---------------------------------------------------------------------

 SCF Done:  E(UB3LYP) =  -1136.11621999     A.U. after   27 cycles

 The electronic state is 2-A.
 Alpha  occ. eigenvalues --  -38.45608 -38.44821 -38.44329 -38.44305 -38.44072
 Alpha  occ. eigenvalues --  -38.43694 -38.42702  -2.21386  -2.20685  -2.20216
 Alpha  occ. eigenvalues --   -2.20129  -2.19917  -2.19530  -2.18521  -1.15071
 Alpha  occ. eigenvalues --   -1.15037  -1.15017  -1.14366  -1.14351  -1.14328
 Alpha  occ. eigenvalues --   -1.13941  -1.13889  -1.13856  -1.13795  -1.13780
 Alpha  occ. eigenvalues --   -1.13762  -1.13580  -1.13563  -1.13532  -1.13187
 Alpha  occ. eigenvalues --   -1.13169  -1.13134  -1.12216  -1.12187  -1.12159
 Alpha  occ. eigenvalues --   -0.17585  -0.14738  -0.11367  -0.10225
 Alpha virt. eigenvalues --   -0.07089  -0.06420  -0.04317  -0.03360  -0.02887
 Alpha virt. eigenvalues --   -0.02257  -0.01952  -0.01798  -0.01024  -0.00610
 Alpha virt. eigenvalues --   -0.00322   0.00089   0.00183   0.00398   0.00520

  Beta  occ. eigenvalues --  -38.45592 -38.44819 -38.44318 -38.44315 -38.44009
  Beta  occ. eigenvalues --  -38.43598 -38.42710  -2.21358  -2.20681  -2.20194
  Beta  occ. eigenvalues --   -2.20154  -2.19802  -2.19350  -2.18538  -1.15034
  Beta  occ. eigenvalues --   -1.15022  -1.14989  -1.14364  -1.14348  -1.14333
  Beta  occ. eigenvalues --   -1.13895  -1.13877  -1.13850  -1.13810  -1.13796
  Beta  occ. eigenvalues --   -1.13772  -1.13499  -1.13479  -1.13450  -1.13063
  Beta  occ. eigenvalues --   -1.13039  -1.13016  -1.12227  -1.12195  -1.12168
  Beta  occ. eigenvalues --   -0.17150  -0.14447  -0.11274
  Beta virt. eigenvalues --   -0.06919  -0.06458  -0.06018  -0.04087  -0.03200
  Beta virt. eigenvalues --   -0.02773  -0.01691  -0.01665  -0.01258  -0.00826
  Beta virt. eigenvalues --   -0.00190  -0.00067   0.00171   0.00311   0.00512

 Mulliken charges and spin densities:
               1          2
     1  Na   0.385984   0.162670
     2  Na   0.197354  -0.182406
     3  Na   0.511879   0.517172
     4  Na  -2.263031   0.283652
     5  Na   0.083427  -0.008802
     6  Na   0.284378  -0.103917
     7  Na   0.800009   0.331630
 Sum of Mulliken charges =  -0.00000   1.00000

 Dipole moment (field-independent basis, Debye):
    X=             -0.5127    Y=              0.1300    Z=             -0.4780  Tot=              0.7129
 Quadrupole moment (field-independent basis, Debye-Ang):
   XX=            -50.6880   YY=            -70.3114   ZZ=            -75.1470
   XY=              3.9487   XZ=             -4.5453   YZ=              1.2230

 Normal termination of Gaussian 16 at Fri Dec  8 19:32:10 2023.
