 Gaussian 16, Revision B.01,
 Gaussian 16:  ES64L-G16RevB.01 20-Dec-2017

 -------------------------
 #P B3LYP/6-311+g(d) force
 -------------------------

 -----
 DPGEN
 -----
 Symbolic Z-matrix:
 Charge =  0 Multiplicity = 2

                         Standard orientation:
 ---------------------------------------------------------------------
 Center     Atomic      Atomic             Coordinates (Angstroms)
 Number     Number       Type             X           Y           Z
 ---------------------------------------------------------------------
      1         11           0        2.151103   -2.259251   -0.286597
      2         11           0       -4.426300   -0.237794   -0.428718
      3         11           0       -0.709119    2.432978    0.623962
      4         11           0       -0.389910   -0.128921   -1.417558
      5         11           0        2.595637    1.214215   -1.306347
      6         11           0       -1.076733   -1.441100    1.099500
      7         11           0        1.855322    0.419871    1.715756
 ---------------------------------------------------------------------

 SCF Done:  E(UB3LYP) =  -1136.12197337     A.U. after   25 cycles

 The electronic state is 2-A.
 Alpha  occ. eigenvalues --  -38.45580 -38.44083 -38.43978 -38.43772 -38.43561
 Alpha  occ. eigenvalues --  -38.43124 -38.42863  -2.21303  -2.20058  -2.19861
 Alpha  occ. eigenvalues --   -2.19711  -2.19460  -2.18959  -2.18727  -1.14981
 Alpha  occ. eigenvalues --   -1.14969  -1.14913  -1.13856  -1.13710  -1.13666
 Alpha  occ. eigenvalues --   -1.13562  -1.13517  -1.13450  -1.13392  -1.13355
 Alpha  occ. eigenvalues --   -1.13311  -1.13193  -1.13106  -1.13019  -1.12655
 Alpha  occ. eigenvalues --   -1.12631  -1.12560  -1.12402  -1.12391  -1.12363
 Alpha  occ. eigenvalues --   -0.18724  -0.13214  -0.11374  -0.11183
 Alpha virt. eigenvalues --   -0.07128  -0.04590  -0.03940  -0.03111  -0.02706
 Alpha virt. eigenvalues --   -0.02601  -0.02441  -0.01001  -0.00830  -0.00211
 Alpha virt. eigenvalues --    0.00108   0.00189   0.00357   0.00761   0.00798

  Beta  occ. eigenvalues --  -38.45569 -38.44047 -38.43932 -38.43717 -38.43533
  Beta  occ. eigenvalues --  -38.43110 -38.42858  -2.21283  -2.19993  -2.19777
  Beta  occ. eigenvalues --   -2.19612  -2.19412  -2.18935  -2.18722  -1.14965
  Beta  occ. eigenvalues --   -1.14956  -1.14901  -1.13796  -1.13668  -1.13615
  Beta  occ. eigenvalues --   -1.13504  -1.13455  -1.13389  -1.13310  -1.13286
  Beta  occ. eigenvalues --   -1.13239  -1.13163  -1.13052  -1.12982  -1.12643
  Beta  occ. eigenvalues --   -1.12590  -1.12549  -1.12398  -1.12388  -1.12340
  Beta  occ. eigenvalues --   -0.17965  -0.12989  -0.11164
  Beta virt. eigenvalues --   -0.07294  -0.06843  -0.04545  -0.03598  -0.02884
  Beta virt. eigenvalues --   -0.02563  -0.01919  -0.01495  -0.00921  -0.00463
  Beta virt. eigenvalues --   -0.00163   0.00166   0.00202   0.00466   0.00797

 Mulliken charges and spin densities:
               1          2
     1  Na   0.053920   0.034852
     2  Na   0.146402   0.051258
     3  Na  -0.290807  -0.026474
     4  Na  -0.273251   0.323215
     5  Na   0.135122   0.100914
     6  Na  -0.094856   0.119631
     7  Na   0.323470   0.396604
 Sum of Mulliken charges =  -0.00000   1.00000

 Dipole moment (field-independent basis, Debye):
    X=             -0.9275    Y=              0.2203    Z=              0.0110  Tot=              0.9534
 Quadrupole moment (field-independent basis, Debye-Ang):
   XX=            -46.6913   YY=            -73.6720   ZZ=            -69.6698
   XY=             -0.8504   XZ=              0.2874   YZ=              0.0199

 Normal termination of Gaussian 16 at Thu Dec  7 16:30:31 2023.
