 Gaussian 16, Revision B.01,
 Gaussian 16:  ES64L-G16RevB.01 20-Dec-2017

 -------------------------
 #P B3LYP/6-311+g(d) force
 -------------------------

 -----
 DPGEN
 -----
 Symbolic Z-matrix:
 Charge =  0 Multiplicity = 2

                         Standard orientation:
 ---------------------------------------------------------------------
 Center     Atomic      Atomic             Coordinates (Angstroms)
 Number     Number       Type             X           Y           Z
 ---------------------------------------------------------------------
      1         11           0        2.202842    2.657901    0.157403
      2         11           0        0.685705   -2.549790   -0.774455
      3         11           0        0.170733   -0.428520    2.011686
      4         11           0       -3.144660    1.608177    0.062795
      5         11           0       -2.847975   -1.574612    0.114240
      6         11           0        3.521462   -0.801048   -0.136422
      7         11           0       -0.588107    1.087892   -1.435247
 ---------------------------------------------------------------------

 SCF Done:  E(UB3LYP) =  -1136.12277214     A.U. after   22 cycles

 The electronic state is 2-A.
 Alpha  occ. eigenvalues --  -38.45174 -38.44702 -38.44550 -38.43887 -38.43818
 Alpha  occ. eigenvalues --  -38.43667 -38.42952  -2.20951  -2.20556  -2.20378
 Alpha  occ. eigenvalues --   -2.19701  -2.19657  -2.19508  -2.18789  -1.14628
 Alpha  occ. eigenvalues --   -1.14607  -1.14586  -1.14275  -1.14233  -1.14188
 Alpha  occ. eigenvalues --   -1.14045  -1.14027  -1.14011  -1.13386  -1.13360
 Alpha  occ. eigenvalues --   -1.13341  -1.13322  -1.13304  -1.13293  -1.13183
 Alpha  occ. eigenvalues --   -1.13143  -1.13117  -1.12468  -1.12448  -1.12426
 Alpha  occ. eigenvalues --   -0.17894  -0.13738  -0.11822  -0.10177
 Alpha virt. eigenvalues --   -0.06797  -0.06071  -0.04074  -0.03463  -0.02761
 Alpha virt. eigenvalues --   -0.02290  -0.02100  -0.01602  -0.00979  -0.00253
 Alpha virt. eigenvalues --   -0.00092   0.00207   0.00521   0.00630   0.00641

  Beta  occ. eigenvalues --  -38.45166 -38.44699 -38.44545 -38.43885 -38.43781
  Beta  occ. eigenvalues --  -38.43576 -38.42931  -2.20938  -2.20555  -2.20371
  Beta  occ. eigenvalues --   -2.19655  -2.19632  -2.19340  -2.18751  -1.14609
  Beta  occ. eigenvalues --   -1.14599  -1.14573  -1.14270  -1.14234  -1.14172
  Beta  occ. eigenvalues --   -1.14030  -1.14022  -1.13999  -1.13336  -1.13330
  Beta  occ. eigenvalues --   -1.13313  -1.13309  -1.13299  -1.13253  -1.13069
  Beta  occ. eigenvalues --   -1.13027  -1.12993  -1.12444  -1.12417  -1.12388
  Beta  occ. eigenvalues --   -0.17265  -0.13516  -0.11598
  Beta virt. eigenvalues --   -0.06691  -0.06489  -0.05932  -0.03967  -0.02783
  Beta virt. eigenvalues --   -0.02268  -0.02110  -0.01472  -0.01179  -0.00983
  Beta virt. eigenvalues --   -0.00229   0.00115   0.00282   0.00586   0.00680

 Mulliken charges and spin densities:
               1          2
     1  Na  -0.003510  -0.015310
     2  Na  -0.201513   0.154013
     3  Na  -0.229153   0.567754
     4  Na   0.330263   0.031538
     5  Na   0.166809   0.127726
     6  Na   0.095888   0.007724
     7  Na  -0.158783   0.126555
 Sum of Mulliken charges =  -0.00000   1.00000

 Dipole moment (field-independent basis, Debye):
    X=             -0.2077    Y=              0.1283    Z=              0.2335  Tot=              0.3378
 Quadrupole moment (field-independent basis, Debye-Ang):
   XX=            -48.3861   YY=            -68.8524   ZZ=            -76.5593
   XY=              0.5817   XZ=             -0.8531   YZ=              2.1286

 Normal termination of Gaussian 16 at Wed Nov 29 16:04:06 2023.
