 Gaussian 16, Revision B.01,
 Gaussian 16:  ES64L-G16RevB.01 20-Dec-2017

 -------------------------
 #P B3LYP/6-311+g(d) force
 -------------------------

 -----
 DPGEN
 -----
 Symbolic Z-matrix:
 Charge =  0 Multiplicity = 2

                         Standard orientation:
 ---------------------------------------------------------------------
 Center     Atomic      Atomic             Coordinates (Angstroms)
 Number     Number       Type             X           Y           Z
 ---------------------------------------------------------------------
      1         11           0        2.307079    1.809417   -0.241973
      2         11           0       -1.035601   -2.548577   -0.276855
      3         11           0        0.318390    0.173940    1.895457
      4         11           0        0.060560   -0.188626   -1.802336
      5         11           0       -3.108129   -0.043733    0.342919
      6         11           0       -1.032596    2.549005   -0.180778
      7         11           0        2.490298   -1.751425    0.263566
 ---------------------------------------------------------------------

 SCF Done:  E(UB3LYP) =  -1136.13908327     A.U. after   18 cycles

 The electronic state is 2-A.
 Alpha  occ. eigenvalues --  -38.43790 -38.43683 -38.43596 -38.43511 -38.43352
 Alpha  occ. eigenvalues --  -38.43277 -38.43152  -2.19637  -2.19534  -2.19476
 Alpha  occ. eigenvalues --   -2.19455  -2.19345  -2.19174  -2.19044  -1.13308
 Alpha  occ. eigenvalues --   -1.13298  -1.13293  -1.13241  -1.13207  -1.13181
 Alpha  occ. eigenvalues --   -1.13167  -1.13161  -1.13116  -1.13099  -1.13090
 Alpha  occ. eigenvalues --   -1.13074  -1.13059  -1.12998  -1.12950  -1.12823
 Alpha  occ. eigenvalues --   -1.12819  -1.12779  -1.12721  -1.12709  -1.12670
 Alpha  occ. eigenvalues --   -0.19060  -0.13074  -0.12580  -0.11007
 Alpha virt. eigenvalues --   -0.05368  -0.05175  -0.04464  -0.03274  -0.03022
 Alpha virt. eigenvalues --   -0.02641  -0.01406  -0.01047  -0.00172  -0.00058
 Alpha virt. eigenvalues --    0.00022   0.00366   0.00841   0.00919   0.00945

  Beta  occ. eigenvalues --  -38.43785 -38.43676 -38.43588 -38.43431 -38.43271
  Beta  occ. eigenvalues --  -38.43268 -38.43145  -2.19631  -2.19525  -2.19465
  Beta  occ. eigenvalues --   -2.19308  -2.19199  -2.19160  -2.19036  -1.13305
  Beta  occ. eigenvalues --   -1.13296  -1.13271  -1.13220  -1.13184  -1.13165
  Beta  occ. eigenvalues --   -1.13157  -1.13122  -1.13092  -1.13032  -1.13011
  Beta  occ. eigenvalues --   -1.12977  -1.12958  -1.12901  -1.12853  -1.12800
  Beta  occ. eigenvalues --   -1.12776  -1.12765  -1.12713  -1.12682  -1.12659
  Beta  occ. eigenvalues --   -0.18317  -0.12824  -0.12301
  Beta virt. eigenvalues --   -0.07080  -0.05303  -0.05184  -0.04442  -0.02482
  Beta virt. eigenvalues --   -0.02212  -0.01581  -0.01311  -0.00981  -0.00186
  Beta virt. eigenvalues --   -0.00110   0.00123   0.00386   0.00902   0.00911

 Mulliken charges and spin densities:
               1          2
     1  Na   0.222662  -0.095178
     2  Na   0.252424  -0.041727
     3  Na  -0.459763   0.723971
     4  Na  -0.257212   0.550901
     5  Na  -0.043077  -0.019072
     6  Na   0.140322  -0.034540
     7  Na   0.144644  -0.084355
 Sum of Mulliken charges =  -0.00000   1.00000

 Dipole moment (field-independent basis, Debye):
    X=              0.1645    Y=             -0.0093    Z=              0.1352  Tot=              0.2132
 Quadrupole moment (field-independent basis, Debye-Ang):
   XX=            -57.0257   YY=            -64.0271   ZZ=            -72.9483
   XY=             -0.2223   XZ=             -0.8633   YZ=             -0.9161

 Normal termination of Gaussian 16 at Thu Dec  7 18:50:19 2023.
