 Gaussian 16, Revision B.01,
 Gaussian 16:  ES64L-G16RevB.01 20-Dec-2017

 -------------------------
 #P B3LYP/6-311+g(d) force
 -------------------------

 -----
 DPGEN
 -----
 Symbolic Z-matrix:
 Charge =  0 Multiplicity = 2

                         Standard orientation:
 ---------------------------------------------------------------------
 Center     Atomic      Atomic             Coordinates (Angstroms)
 Number     Number       Type             X           Y           Z
 ---------------------------------------------------------------------
      1         11           0       -0.028410    0.548786    1.413414
      2         11           0        0.955320   -2.287357   -1.209171
      3         11           0       -2.262037   -2.519636    0.103071
      4         11           0       -3.795059    0.335484    0.274506
      5         11           0        2.319638    1.859966   -0.168435
      6         11           0        3.888479   -0.869142    0.486332
      7         11           0       -1.077931    2.931901   -0.899717
 ---------------------------------------------------------------------

 SCF Done:  E(UB3LYP) =  -1136.12219329     A.U. after   21 cycles

 The electronic state is 2-A.
 Alpha  occ. eigenvalues --  -38.45654 -38.44133 -38.43978 -38.43710 -38.43697
 Alpha  occ. eigenvalues --  -38.43591 -38.43568  -2.21484  -2.20016  -2.19780
 Alpha  occ. eigenvalues --   -2.19538  -2.19531  -2.19424  -2.19383  -1.15195
 Alpha  occ. eigenvalues --   -1.15139  -1.15106  -1.13734  -1.13683  -1.13638
 Alpha  occ. eigenvalues --   -1.13452  -1.13430  -1.13414  -1.13229  -1.13209
 Alpha  occ. eigenvalues --   -1.13199  -1.13191  -1.13184  -1.13158  -1.13080
 Alpha  occ. eigenvalues --   -1.13050  -1.13048  -1.13042  -1.13031  -1.12998
 Alpha  occ. eigenvalues --   -0.17399  -0.13899  -0.12663  -0.09814
 Alpha virt. eigenvalues --   -0.06796  -0.05840  -0.04350  -0.03334  -0.02940
 Alpha virt. eigenvalues --   -0.02640  -0.01882  -0.01166  -0.00922  -0.00584
 Alpha virt. eigenvalues --   -0.00189  -0.00016   0.00421   0.00617   0.00711

  Beta  occ. eigenvalues --  -38.45660 -38.44119 -38.43961 -38.43704 -38.43646
  Beta  occ. eigenvalues --  -38.43527 -38.43514  -2.21494  -2.19997  -2.19750
  Beta  occ. eigenvalues --   -2.19527  -2.19444  -2.19305  -2.19283  -1.15194
  Beta  occ. eigenvalues --   -1.15152  -1.15118  -1.13729  -1.13675  -1.13578
  Beta  occ. eigenvalues --   -1.13431  -1.13410  -1.13385  -1.13223  -1.13209
  Beta  occ. eigenvalues --   -1.13143  -1.13135  -1.13114  -1.13096  -1.12999
  Beta  occ. eigenvalues --   -1.12981  -1.12976  -1.12964  -1.12960  -1.12924
  Beta  occ. eigenvalues --   -0.17058  -0.13202  -0.12131
  Beta virt. eigenvalues --   -0.06733  -0.06480  -0.05795  -0.04026  -0.02896
  Beta virt. eigenvalues --   -0.02646  -0.02215  -0.01530  -0.00997  -0.00805
  Beta virt. eigenvalues --   -0.00463   0.00103   0.00226   0.00591   0.00723

 Mulliken charges and spin densities:
               1          2
     1  Na   0.035987  -0.182865
     2  Na  -0.332539   0.220048
     3  Na   0.009354   0.030450
     4  Na   0.120548   0.405287
     5  Na   0.013788   0.176586
     6  Na   0.249475   0.265709
     7  Na  -0.096613   0.084786
 Sum of Mulliken charges =  -0.00000   1.00000

 Dipole moment (field-independent basis, Debye):
    X=              0.2457    Y=              0.6618    Z=             -0.2789  Tot=              0.7591
 Quadrupole moment (field-independent basis, Debye-Ang):
   XX=            -70.1198   YY=            -67.6104   ZZ=            -66.3423
   XY=             -2.5263   XZ=              0.7154   YZ=             -3.3820

 Normal termination of Gaussian 16 at Sun Dec  3 16:19:37 2023.
