 Gaussian 16, Revision B.01,
 Gaussian 16:  ES64L-G16RevB.01 20-Dec-2017

 -------------------------
 #P B3LYP/6-311+g(d) force
 -------------------------

 -----
 DPGEN
 -----
 Symbolic Z-matrix:
 Charge =  0 Multiplicity = 2

                         Standard orientation:
 ---------------------------------------------------------------------
 Center     Atomic      Atomic             Coordinates (Angstroms)
 Number     Number       Type             X           Y           Z
 ---------------------------------------------------------------------
      1         11           0        0.243923    2.945084    0.279539
      2         11           0        1.431745   -2.283274   -0.128711
      3         11           0        0.353568   -0.377644    2.041804
      4         11           0        0.016846    0.029689   -1.637507
      5         11           0       -3.149461    1.229238   -0.147666
      6         11           0        3.205748    0.623762   -0.357930
      7         11           0       -2.102369   -2.166855   -0.049529
 ---------------------------------------------------------------------

 SCF Done:  E(UB3LYP) =  -1136.13560956     A.U. after   19 cycles

 The electronic state is 2-A.
 Alpha  occ. eigenvalues --  -38.44211 -38.44207 -38.43588 -38.43569 -38.43485
 Alpha  occ. eigenvalues --  -38.43325 -38.43220  -2.20031  -2.19991  -2.19498
 Alpha  occ. eigenvalues --   -2.19411  -2.19297  -2.19288  -2.19166  -1.13704
 Alpha  occ. eigenvalues --   -1.13689  -1.13671  -1.13669  -1.13647  -1.13633
 Alpha  occ. eigenvalues --   -1.13211  -1.13137  -1.13106  -1.13100  -1.13072
 Alpha  occ. eigenvalues --   -1.13046  -1.13028  -1.12989  -1.12963  -1.12933
 Alpha  occ. eigenvalues --   -1.12913  -1.12901  -1.12831  -1.12808  -1.12760
 Alpha  occ. eigenvalues --   -0.18616  -0.13010  -0.12338  -0.10738
 Alpha virt. eigenvalues --   -0.05905  -0.05193  -0.04574  -0.03089  -0.02868
 Alpha virt. eigenvalues --   -0.02543  -0.01743  -0.01115  -0.00471  -0.00283
 Alpha virt. eigenvalues --   -0.00031   0.00330   0.00766   0.00864   0.00879

  Beta  occ. eigenvalues --  -38.44213 -38.44198 -38.43566 -38.43491 -38.43480
  Beta  occ. eigenvalues --  -38.43263 -38.43206  -2.20018  -2.19995  -2.19408
  Beta  occ. eigenvalues --   -2.19319  -2.19279  -2.19186  -2.19148  -1.13687
  Beta  occ. eigenvalues --   -1.13675  -1.13663  -1.13657  -1.13651  -1.13637
  Beta  occ. eigenvalues --   -1.13113  -1.13083  -1.13066  -1.13040  -1.13010
  Beta  occ. eigenvalues --   -1.12974  -1.12971  -1.12962  -1.12938  -1.12911
  Beta  occ. eigenvalues --   -1.12864  -1.12823  -1.12795  -1.12762  -1.12738
  Beta  occ. eigenvalues --   -0.17877  -0.12784  -0.12105
  Beta virt. eigenvalues --   -0.06803  -0.05850  -0.05198  -0.04503  -0.02378
  Beta virt. eigenvalues --   -0.02101  -0.01658  -0.01462  -0.01075  -0.00482
  Beta virt. eigenvalues --   -0.00335   0.00123   0.00366   0.00826   0.00868

 Mulliken charges and spin densities:
               1          2
     1  Na  -0.114847  -0.068386
     2  Na   0.563709   0.026690
     3  Na  -0.468890   0.745323
     4  Na  -0.208259   0.481674
     5  Na  -0.054368  -0.082519
     6  Na   0.176192  -0.013796
     7  Na   0.106462  -0.088985
 Sum of Mulliken charges =  -0.00000   1.00000

 Dipole moment (field-independent basis, Debye):
    X=             -0.0286    Y=              0.1683    Z=              0.0852  Tot=              0.1908
 Quadrupole moment (field-independent basis, Debye-Ang):
   XX=            -54.2838   YY=            -64.3501   ZZ=            -74.4458
   XY=              0.6844   XZ=             -0.8071   YZ=              0.7242

 Normal termination of Gaussian 16 at Thu Dec  7 04:47:58 2023.
