 Gaussian 16, Revision B.01,
 Gaussian 16:  ES64L-G16RevB.01 20-Dec-2017

 -------------------------
 #P B3LYP/6-311+g(d) force
 -------------------------

 -----
 DPGEN
 -----
 Symbolic Z-matrix:
 Charge =  0 Multiplicity = 2

                         Standard orientation:
 ---------------------------------------------------------------------
 Center     Atomic      Atomic             Coordinates (Angstroms)
 Number     Number       Type             X           Y           Z
 ---------------------------------------------------------------------
      1         11           0       -0.005309   -0.095292   -0.009744
      2         11           0       -3.600259   -0.859628    0.089397
      3         11           0       -1.395503   -3.041608    0.030745
      4         11           0        2.629135   -2.680313    0.012523
      5         11           0        3.755856    0.794824   -0.180395
      6         11           0        0.838364    3.199716    0.371504
      7         11           0       -2.222284    2.682300   -0.314030
 ---------------------------------------------------------------------

 SCF Done:  E(UB3LYP) =  -1136.12651836     A.U. after   26 cycles

 The electronic state is 2-A.
 Alpha  occ. eigenvalues --  -38.44327 -38.44308 -38.44096 -38.43822 -38.43780
 Alpha  occ. eigenvalues --  -38.43773 -38.43509  -2.20184  -2.20148  -2.19987
 Alpha  occ. eigenvalues --   -2.19674  -2.19639  -2.19572  -2.19318  -1.13900
 Alpha  occ. eigenvalues --   -1.13854  -1.13843  -1.13828  -1.13826  -1.13787
 Alpha  occ. eigenvalues --   -1.13724  -1.13632  -1.13602  -1.13328  -1.13319
 Alpha  occ. eigenvalues --   -1.13309  -1.13290  -1.13287  -1.13262  -1.13243
 Alpha  occ. eigenvalues --   -1.13209  -1.13208  -1.12985  -1.12957  -1.12943
 Alpha  occ. eigenvalues --   -0.17258  -0.13781  -0.13472  -0.09628
 Alpha virt. eigenvalues --   -0.06736  -0.05676  -0.04385  -0.03217  -0.02484
 Alpha virt. eigenvalues --   -0.02318  -0.01989  -0.01978  -0.01626  -0.00069
 Alpha virt. eigenvalues --    0.00051   0.00447   0.00519   0.00563   0.00728

  Beta  occ. eigenvalues --  -38.44316 -38.44299 -38.44106 -38.43788 -38.43737
  Beta  occ. eigenvalues --  -38.43731 -38.43448  -2.20170  -2.20137  -2.20003
  Beta  occ. eigenvalues --   -2.19611  -2.19560  -2.19494  -2.19205  -1.13901
  Beta  occ. eigenvalues --   -1.13852  -1.13842  -1.13825  -1.13764  -1.13733
  Beta  occ. eigenvalues --   -1.13732  -1.13649  -1.13616  -1.13285  -1.13273
  Beta  occ. eigenvalues --   -1.13268  -1.13237  -1.13233  -1.13205  -1.13190
  Beta  occ. eigenvalues --   -1.13161  -1.13143  -1.12909  -1.12879  -1.12862
  Beta  occ. eigenvalues --   -0.17011  -0.13051  -0.12910
  Beta virt. eigenvalues --   -0.06760  -0.06335  -0.05419  -0.04258  -0.02559
  Beta virt. eigenvalues --   -0.02197  -0.01943  -0.01817  -0.01598  -0.01524
  Beta virt. eigenvalues --    0.00031   0.00384   0.00513   0.00592   0.00734

 Mulliken charges and spin densities:
               1          2
     1  Na  -5.942259  -0.175389
     2  Na   1.032404   0.316942
     3  Na   0.896541   0.063364
     4  Na   0.760980   0.143358
     5  Na   0.748901   0.368060
     6  Na   1.342101   0.090783
     7  Na   1.161331   0.192882
 Sum of Mulliken charges =  -0.00000   1.00000

 Dipole moment (field-independent basis, Debye):
    X=             -0.7589    Y=              0.0819    Z=              0.0115  Tot=              0.7634
 Quadrupole moment (field-independent basis, Debye-Ang):
   XX=            -62.5936   YY=            -62.7142   ZZ=            -72.4205
   XY=             -4.4866   XZ=              0.5555   YZ=              0.5285

 Normal termination of Gaussian 16 at Fri Dec  8 18:57:02 2023.
