 Gaussian 16, Revision B.01,
 Gaussian 16:  ES64L-G16RevB.01 20-Dec-2017

 -------------------------
 #P B3LYP/6-311+g(d) force
 -------------------------

 -----
 DPGEN
 -----
 Symbolic Z-matrix:
 Charge =  0 Multiplicity = 2

                         Standard orientation:
 ---------------------------------------------------------------------
 Center     Atomic      Atomic             Coordinates (Angstroms)
 Number     Number       Type             X           Y           Z
 ---------------------------------------------------------------------
      1         11           0       -4.088496    0.865126    0.892953
      2         11           0        3.198445   -2.669251    0.016236
      3         11           0       -3.096774   -2.227264   -0.511308
      4         11           0       -0.232505   -3.735620   -0.006342
      5         11           0       -1.330830    3.249180   -0.685541
      6         11           0        4.078651    0.761259    0.256627
      7         11           0        1.471509    3.756572    0.037375
 ---------------------------------------------------------------------

 SCF Done:  E(UB3LYP) =  -1136.10636031     A.U. after   22 cycles

 The electronic state is 2-A.
 Alpha  occ. eigenvalues --  -38.45059 -38.44944 -38.44864 -38.44814 -38.44351
 Alpha  occ. eigenvalues --  -38.44195 -38.44005  -2.20818  -2.20753  -2.20614
 Alpha  occ. eigenvalues --   -2.20591  -2.20140  -2.20022  -2.19815  -1.14485
 Alpha  occ. eigenvalues --   -1.14479  -1.14470  -1.14443  -1.14408  -1.14387
 Alpha  occ. eigenvalues --   -1.14300  -1.14288  -1.14276  -1.14271  -1.14253
 Alpha  occ. eigenvalues --   -1.14239  -1.13789  -1.13775  -1.13767  -1.13693
 Alpha  occ. eigenvalues --   -1.13662  -1.13644  -1.13468  -1.13465  -1.13442
 Alpha  occ. eigenvalues --   -0.15465  -0.13877  -0.13646  -0.10967
 Alpha virt. eigenvalues --   -0.07746  -0.04916  -0.04274  -0.03551  -0.03393
 Alpha virt. eigenvalues --   -0.02565  -0.02448  -0.01806  -0.01669  -0.00671
 Alpha virt. eigenvalues --   -0.00307  -0.00073   0.00017   0.00252   0.00415

  Beta  occ. eigenvalues --  -38.45007 -38.44921 -38.44872 -38.44814 -38.44274
  Beta  occ. eigenvalues --  -38.44165 -38.43948  -2.20724  -2.20718  -2.20632
  Beta  occ. eigenvalues --   -2.20598  -2.19996  -2.19970  -2.19708  -1.14436
  Beta  occ. eigenvalues --   -1.14422  -1.14409  -1.14388  -1.14373  -1.14351
  Beta  occ. eigenvalues --   -1.14316  -1.14303  -1.14284  -1.14278  -1.14237
  Beta  occ. eigenvalues --   -1.14202  -1.13691  -1.13678  -1.13672  -1.13650
  Beta  occ. eigenvalues --   -1.13629  -1.13605  -1.13395  -1.13393  -1.13375
  Beta  occ. eigenvalues --   -0.14915  -0.13203  -0.12836
  Beta virt. eigenvalues --   -0.07942  -0.07789  -0.04452  -0.03847  -0.03236
  Beta virt. eigenvalues --   -0.03103  -0.02362  -0.02201  -0.01636  -0.01560
  Beta virt. eigenvalues --   -0.00328  -0.00056   0.00140   0.00219   0.00275

 Mulliken charges and spin densities:
               1          2
     1  Na   0.058158   0.366349
     2  Na   0.318355  -0.040650
     3  Na  -0.215604  -0.028564
     4  Na   0.000498   0.244301
     5  Na  -0.495903   0.093741
     6  Na  -0.003295   0.260034
     7  Na   0.337790   0.104789
 Sum of Mulliken charges =  -0.00000   1.00000

 Dipole moment (field-independent basis, Debye):
    X=              0.2856    Y=              0.3004    Z=              0.0241  Tot=              0.4152
 Quadrupole moment (field-independent basis, Debye-Ang):
   XX=            -62.8725   YY=            -65.7626   ZZ=            -72.1886
   XY=              0.4172   XZ=              1.3194   YZ=              1.2561

 Normal termination of Gaussian 16 at Sun Dec  3 19:11:52 2023.
