 Gaussian 16, Revision B.01,
 Gaussian 16:  ES64L-G16RevB.01 20-Dec-2017

 -------------------------
 #P B3LYP/6-311+g(d) force
 -------------------------

 -----
 DPGEN
 -----
 Symbolic Z-matrix:
 Charge =  0 Multiplicity = 2

                         Standard orientation:
 ---------------------------------------------------------------------
 Center     Atomic      Atomic             Coordinates (Angstroms)
 Number     Number       Type             X           Y           Z
 ---------------------------------------------------------------------
      1         11           0        2.736455    1.389237    0.612075
      2         11           0        0.113783    3.360443   -0.768057
      3         11           0       -4.572684   -0.066434    1.161399
      4         11           0       -0.618815    0.575184    0.019871
      5         11           0       -3.230800   -1.756942   -1.007929
      6         11           0        1.089196   -1.735164   -0.164097
      7         11           0        4.482867   -1.766323    0.146737
 ---------------------------------------------------------------------

 SCF Done:  E(UB3LYP) =  -1136.11833662     A.U. after   20 cycles

 The electronic state is 2-A.
 Alpha  occ. eigenvalues --  -38.44466 -38.44439 -38.44158 -38.43693 -38.43634
 Alpha  occ. eigenvalues --  -38.43575 -38.43440  -2.20282  -2.20274  -2.19989
 Alpha  occ. eigenvalues --   -2.19548  -2.19498  -2.19442  -2.19415  -1.14001
 Alpha  occ. eigenvalues --   -1.13985  -1.13962  -1.13955  -1.13919  -1.13851
 Alpha  occ. eigenvalues --   -1.13626  -1.13624  -1.13599  -1.13456  -1.13218
 Alpha  occ. eigenvalues --   -1.13198  -1.13166  -1.13158  -1.13141  -1.13102
 Alpha  occ. eigenvalues --   -1.13081  -1.13061  -1.13048  -1.13029  -1.12926
 Alpha  occ. eigenvalues --   -0.17352  -0.14117  -0.12246  -0.10544
 Alpha virt. eigenvalues --   -0.05901  -0.05698  -0.04249  -0.03816  -0.02814
 Alpha virt. eigenvalues --   -0.02212  -0.01855  -0.01319  -0.01021  -0.00477
 Alpha virt. eigenvalues --   -0.00087   0.00064   0.00317   0.00527   0.00729

  Beta  occ. eigenvalues --  -38.44469 -38.44416 -38.44091 -38.43666 -38.43576
  Beta  occ. eigenvalues --  -38.43572 -38.43401  -2.20294  -2.20231  -2.19864
  Beta  occ. eigenvalues --   -2.19448  -2.19445  -2.19415  -2.19371  -1.13993
  Beta  occ. eigenvalues --   -1.13969  -1.13953  -1.13933  -1.13897  -1.13814
  Beta  occ. eigenvalues --   -1.13540  -1.13538  -1.13524  -1.13369  -1.13194
  Beta  occ. eigenvalues --   -1.13139  -1.13125  -1.13121  -1.13096  -1.13068
  Beta  occ. eigenvalues --   -1.13046  -1.13036  -1.13029  -1.12966  -1.12880
  Beta  occ. eigenvalues --   -0.16723  -0.13595  -0.12033
  Beta virt. eigenvalues --   -0.06992  -0.05698  -0.05459  -0.03781  -0.03545
  Beta virt. eigenvalues --   -0.02511  -0.01923  -0.01645  -0.01039  -0.00874
  Beta virt. eigenvalues --   -0.00153   0.00054   0.00243   0.00489   0.00630

 Mulliken charges and spin densities:
               1          2
     1  Na  -0.181983   0.271358
     2  Na   0.914278   0.092125
     3  Na   0.306202   0.360226
     4  Na  -2.674267  -0.094372
     5  Na   0.694477  -0.046557
     6  Na   0.052702   0.127709
     7  Na   0.888591   0.289511
 Sum of Mulliken charges =  -0.00000   1.00000

 Dipole moment (field-independent basis, Debye):
    X=             -0.0320    Y=              0.1093    Z=             -0.3299  Tot=              0.3490
 Quadrupole moment (field-independent basis, Debye-Ang):
   XX=            -65.5901   YY=            -64.1931   ZZ=            -67.0259
   XY=             -1.0676   XZ=              0.7501   YZ=              2.3925

 Normal termination of Gaussian 16 at Fri Dec  8 00:39:19 2023.
