 Gaussian 16, Revision B.01,
 Gaussian 16:  ES64L-G16RevB.01 20-Dec-2017

 -------------------------
 #P B3LYP/6-311+g(d) force
 -------------------------

 -----
 DPGEN
 -----
 Symbolic Z-matrix:
 Charge =  0 Multiplicity = 2

                         Standard orientation:
 ---------------------------------------------------------------------
 Center     Atomic      Atomic             Coordinates (Angstroms)
 Number     Number       Type             X           Y           Z
 ---------------------------------------------------------------------
      1         11           0       -1.433882   -2.535074   -0.466382
      2         11           0       -3.010062    0.880248   -0.144248
      3         11           0       -0.365229    2.958159    0.203003
      4         11           0        0.183956    0.204569   -1.953163
      5         11           0       -0.472817   -0.555894    2.218920
      6         11           0        3.218118    1.183857    0.084404
      7         11           0        1.879916   -2.135866    0.057465
 ---------------------------------------------------------------------

 SCF Done:  E(UB3LYP) =  -1136.13753545     A.U. after   19 cycles

 The electronic state is 2-A.
 Alpha  occ. eigenvalues --  -38.44090 -38.43912 -38.43851 -38.43830 -38.43690
 Alpha  occ. eigenvalues --  -38.43540 -38.43387  -2.19937  -2.19713  -2.19682
 Alpha  occ. eigenvalues --   -2.19669  -2.19497  -2.19394  -2.19246  -1.13593
 Alpha  occ. eigenvalues --   -1.13572  -1.13559  -1.13395  -1.13361  -1.13359
 Alpha  occ. eigenvalues --   -1.13349  -1.13340  -1.13338  -1.13329  -1.13320
 Alpha  occ. eigenvalues --   -1.13314  -1.13172  -1.13164  -1.13123  -1.13077
 Alpha  occ. eigenvalues --   -1.13070  -1.13025  -1.12915  -1.12903  -1.12880
 Alpha  occ. eigenvalues --   -0.18171  -0.12705  -0.12368  -0.11066
 Alpha virt. eigenvalues --   -0.05572  -0.05132  -0.04870  -0.03284  -0.03218
 Alpha virt. eigenvalues --   -0.02859  -0.01377  -0.01078  -0.00455  -0.00326
 Alpha virt. eigenvalues --   -0.00102   0.00386   0.00770   0.00806   0.00873

  Beta  occ. eigenvalues --  -38.44000 -38.43914 -38.43849 -38.43757 -38.43687
  Beta  occ. eigenvalues --  -38.43535 -38.43376  -2.19769  -2.19687  -2.19668
  Beta  occ. eigenvalues --   -2.19581  -2.19494  -2.19387  -2.19230  -1.13483
  Beta  occ. eigenvalues --   -1.13455  -1.13438  -1.13351  -1.13346  -1.13344
  Beta  occ. eigenvalues --   -1.13335  -1.13321  -1.13316  -1.13304  -1.13260
  Beta  occ. eigenvalues --   -1.13232  -1.13162  -1.13152  -1.13124  -1.13074
  Beta  occ. eigenvalues --   -1.13038  -1.13024  -1.12903  -1.12875  -1.12864
  Beta  occ. eigenvalues --   -0.17408  -0.12518  -0.12194
  Beta virt. eigenvalues --   -0.07146  -0.05544  -0.05124  -0.04657  -0.02517
  Beta virt. eigenvalues --   -0.02488  -0.01881  -0.01305  -0.01004  -0.00486
  Beta virt. eigenvalues --   -0.00376   0.00074   0.00413   0.00858   0.00878

 Mulliken charges and spin densities:
               1          2
     1  Na   0.311210   0.011416
     2  Na   0.163274  -0.046964
     3  Na  -0.056051  -0.076627
     4  Na  -0.105113   0.551050
     5  Na  -0.440754   0.660081
     6  Na  -0.027428  -0.089781
     7  Na   0.154861  -0.009175
 Sum of Mulliken charges =  -0.00000   1.00000

 Dipole moment (field-independent basis, Debye):
    X=             -0.0875    Y=              0.0936    Z=              0.1076  Tot=              0.1673
 Quadrupole moment (field-independent basis, Debye-Ang):
   XX=            -59.7500   YY=            -64.1313   ZZ=            -71.5757
   XY=              0.7678   XZ=              1.4048   YZ=              1.4915

 Normal termination of Gaussian 16 at Tue Dec  5 18:22:56 2023.
