 Gaussian 16, Revision B.01,
 Gaussian 16:  ES64L-G16RevB.01 20-Dec-2017

 -------------------------
 #P B3LYP/6-311+g(d) force
 -------------------------

 -----
 DPGEN
 -----
 Symbolic Z-matrix:
 Charge =  0 Multiplicity = 2

                         Standard orientation:
 ---------------------------------------------------------------------
 Center     Atomic      Atomic             Coordinates (Angstroms)
 Number     Number       Type             X           Y           Z
 ---------------------------------------------------------------------
      1         11           0       -1.930779   -2.235144   -0.126688
      2         11           0       -0.782511    0.256674    1.798346
      3         11           0        0.274357   -0.111476   -1.765123
      4         11           0        0.621989    3.148817   -0.209756
      5         11           0       -2.766942    0.971873   -0.188442
      6         11           0        1.834546   -2.437334    0.104716
      7         11           0        2.749339    0.406590    0.386946
 ---------------------------------------------------------------------

 SCF Done:  E(UB3LYP) =  -1136.13389737     A.U. after   19 cycles

 The electronic state is 2-A.
 Alpha  occ. eigenvalues --  -38.44078 -38.43743 -38.43639 -38.43625 -38.43531
 Alpha  occ. eigenvalues --  -38.43493 -38.43180  -2.19982  -2.19613  -2.19530
 Alpha  occ. eigenvalues --   -2.19450  -2.19443  -2.19405  -2.19139  -1.13772
 Alpha  occ. eigenvalues --   -1.13633  -1.13588  -1.13308  -1.13298  -1.13283
 Alpha  occ. eigenvalues --   -1.13241  -1.13198  -1.13180  -1.13115  -1.13111
 Alpha  occ. eigenvalues --   -1.13097  -1.13089  -1.13080  -1.13061  -1.13038
 Alpha  occ. eigenvalues --   -1.13035  -1.13012  -1.12817  -1.12773  -1.12749
 Alpha  occ. eigenvalues --   -0.18866  -0.13350  -0.12497  -0.10631
 Alpha virt. eigenvalues --   -0.05549  -0.05096  -0.04905  -0.03405  -0.02833
 Alpha virt. eigenvalues --   -0.02335  -0.01334  -0.01228  -0.00335  -0.00229
 Alpha virt. eigenvalues --    0.00004   0.00369   0.00838   0.00901   0.00910

  Beta  occ. eigenvalues --  -38.44070 -38.43736 -38.43636 -38.43615 -38.43527
  Beta  occ. eigenvalues --  -38.43421 -38.43104  -2.19972  -2.19603  -2.19514
  Beta  occ. eigenvalues --   -2.19442  -2.19401  -2.19316  -2.19000  -1.13751
  Beta  occ. eigenvalues --   -1.13605  -1.13581  -1.13302  -1.13291  -1.13251
  Beta  occ. eigenvalues --   -1.13233  -1.13183  -1.13150  -1.13097  -1.13095
  Beta  occ. eigenvalues --   -1.13089  -1.13047  -1.13027  -1.13023  -1.13007
  Beta  occ. eigenvalues --   -1.12986  -1.12943  -1.12724  -1.12674  -1.12647
  Beta  occ. eigenvalues --   -0.18144  -0.13092  -0.12273
  Beta virt. eigenvalues --   -0.06762  -0.05511  -0.05000  -0.04899  -0.02573
  Beta virt. eigenvalues --   -0.02113  -0.01350  -0.01242  -0.01152  -0.00388
  Beta virt. eigenvalues --   -0.00250   0.00144   0.00396   0.00841   0.00907

 Mulliken charges and spin densities:
               1          2
     1  Na   0.144513  -0.070871
     2  Na  -0.378410   0.631047
     3  Na  -0.261094   0.662892
     4  Na   0.014421  -0.089089
     5  Na   0.386832  -0.096838
     6  Na   0.037414  -0.057331
     7  Na   0.056324   0.020189
 Sum of Mulliken charges =  -0.00000   1.00000

 Dipole moment (field-independent basis, Debye):
    X=             -0.2840    Y=              0.0373    Z=             -0.0347  Tot=              0.2885
 Quadrupole moment (field-independent basis, Debye-Ang):
   XX=            -60.2418   YY=            -59.3439   ZZ=            -74.5132
   XY=              0.1771   XZ=              2.0932   YZ=             -0.7885

 Normal termination of Gaussian 16 at Thu Dec  7 09:25:35 2023.
