 Gaussian 16, Revision B.01,
 Gaussian 16:  ES64L-G16RevB.01 20-Dec-2017

 -------------------------
 #P B3LYP/6-311+g(d) force
 -------------------------

 -----
 DPGEN
 -----
 Symbolic Z-matrix:
 Charge =  0 Multiplicity = 2

                         Standard orientation:
 ---------------------------------------------------------------------
 Center     Atomic      Atomic             Coordinates (Angstroms)
 Number     Number       Type             X           Y           Z
 ---------------------------------------------------------------------
      1         11           0        3.471050   -0.861396    1.589473
      2         11           0       -0.283043    3.522092   -0.695008
      3         11           0        2.947454    2.429979   -0.161691
      4         11           0        2.263463   -2.424772   -0.905927
      5         11           0       -3.479768    1.595526    0.108598
      6         11           0       -1.135571   -3.118727   -0.968502
      7         11           0       -3.783585   -1.142701    1.033057
 ---------------------------------------------------------------------

 SCF Done:  E(UB3LYP) =  -1136.10808754     A.U. after   21 cycles

 The electronic state is 2-A.
 Alpha  occ. eigenvalues --  -38.45077 -38.44742 -38.44550 -38.44546 -38.44334
 Alpha  occ. eigenvalues --  -38.44260 -38.43777  -2.20825  -2.20566  -2.20381
 Alpha  occ. eigenvalues --   -2.20344  -2.20119  -2.20083  -2.19554  -1.14515
 Alpha  occ. eigenvalues --   -1.14498  -1.14455  -1.14372  -1.14215  -1.14198
 Alpha  occ. eigenvalues --   -1.14048  -1.14021  -1.14016  -1.14000  -1.13997
 Alpha  occ. eigenvalues --   -1.13985  -1.13778  -1.13765  -1.13736  -1.13723
 Alpha  occ. eigenvalues --   -1.13720  -1.13703  -1.13219  -1.13209  -1.13188
 Alpha  occ. eigenvalues --   -0.15736  -0.14142  -0.13103  -0.10765
 Alpha virt. eigenvalues --   -0.07328  -0.05112  -0.04338  -0.03615  -0.03487
 Alpha virt. eigenvalues --   -0.02172  -0.01815  -0.01750  -0.01419  -0.01101
 Alpha virt. eigenvalues --   -0.00568  -0.00040   0.00011   0.00393   0.00697

  Beta  occ. eigenvalues --  -38.45074 -38.44719 -38.44541 -38.44527 -38.44263
  Beta  occ. eigenvalues --  -38.44197 -38.43740  -2.20824  -2.20527  -2.20343
  Beta  occ. eigenvalues --   -2.20341  -2.19990  -2.19964  -2.19485  -1.14518
  Beta  occ. eigenvalues --   -1.14500  -1.14425  -1.14329  -1.14192  -1.14167
  Beta  occ. eigenvalues --   -1.14041  -1.14019  -1.13997  -1.13977  -1.13956
  Beta  occ. eigenvalues --   -1.13940  -1.13691  -1.13680  -1.13651  -1.13640
  Beta  occ. eigenvalues --   -1.13640  -1.13623  -1.13172  -1.13164  -1.13139
  Beta  occ. eigenvalues --   -0.15209  -0.13528  -0.12314
  Beta virt. eigenvalues --   -0.07600  -0.07490  -0.04643  -0.03922  -0.03392
  Beta virt. eigenvalues --   -0.03133  -0.01894  -0.01718  -0.01573  -0.01103
  Beta virt. eigenvalues --   -0.00901  -0.00346   0.00219   0.00229   0.00387

 Mulliken charges and spin densities:
               1          2
     1  Na   0.027745   0.289754
     2  Na   0.161476   0.192093
     3  Na  -0.145332   0.004898
     4  Na   0.038077   0.052845
     5  Na  -0.034452   0.141944
     6  Na  -0.107049   0.286362
     7  Na   0.059534   0.032105
 Sum of Mulliken charges =  -0.00000   1.00000

 Dipole moment (field-independent basis, Debye):
    X=              0.0511    Y=             -0.2160    Z=              0.3523  Tot=              0.4164
 Quadrupole moment (field-independent basis, Debye-Ang):
   XX=            -62.5311   YY=            -70.2920   ZZ=            -68.9078
   XY=              1.7907   XZ=             -0.4245   YZ=             -1.7527

 Normal termination of Gaussian 16 at Mon Dec  4 01:54:53 2023.
