 Gaussian 16, Revision B.01,
 Gaussian 16:  ES64L-G16RevB.01 20-Dec-2017

 -------------------------
 #P B3LYP/6-311+g(d) force
 -------------------------

 -----
 DPGEN
 -----
 Symbolic Z-matrix:
 Charge =  0 Multiplicity = 2

                         Standard orientation:
 ---------------------------------------------------------------------
 Center     Atomic      Atomic             Coordinates (Angstroms)
 Number     Number       Type             X           Y           Z
 ---------------------------------------------------------------------
      1         11           0        0.459491   -0.952723    1.475481
      2         11           0        2.180816   -3.146131   -0.757661
      3         11           0        3.981508   -0.585465   -0.070481
      4         11           0       -0.488839    1.561333   -0.636587
      5         11           0       -2.833303    0.355945    0.981143
      6         11           0        2.436767    3.337080   -0.240578
      7         11           0       -5.736440   -0.570038   -0.751318
 ---------------------------------------------------------------------

 SCF Done:  E(UB3LYP) =  -1136.11614994     A.U. after   20 cycles

 The electronic state is 2-A.
 Alpha  occ. eigenvalues --  -38.44923 -38.44893 -38.44617 -38.44330 -38.44021
 Alpha  occ. eigenvalues --  -38.43509 -38.43091  -2.20732  -2.20721  -2.20412
 Alpha  occ. eigenvalues --   -2.20140  -2.19881  -2.19364  -2.18864  -1.14423
 Alpha  occ. eigenvalues --   -1.14413  -1.14402  -1.14377  -1.14337  -1.14322
 Alpha  occ. eigenvalues --   -1.14045  -1.14045  -1.14023  -1.13806  -1.13799
 Alpha  occ. eigenvalues --   -1.13771  -1.13574  -1.13562  -1.13514  -1.13062
 Alpha  occ. eigenvalues --   -1.13025  -1.13000  -1.12533  -1.12518  -1.12505
 Alpha  occ. eigenvalues --   -0.16876  -0.14012  -0.12008  -0.11118
 Alpha virt. eigenvalues --   -0.06246  -0.05728  -0.04627  -0.03727  -0.02797
 Alpha virt. eigenvalues --   -0.02412  -0.01969  -0.01618  -0.01129  -0.00805
 Alpha virt. eigenvalues --   -0.00445  -0.00120   0.00348   0.00429   0.00501

  Beta  occ. eigenvalues --  -38.44893 -38.44844 -38.44502 -38.44330 -38.44017
  Beta  occ. eigenvalues --  -38.43510 -38.43078  -2.20665  -2.20641  -2.20197
  Beta  occ. eigenvalues --   -2.20139  -2.19877  -2.19374  -2.18840  -1.14374
  Beta  occ. eigenvalues --   -1.14364  -1.14348  -1.14337  -1.14293  -1.14248
  Beta  occ. eigenvalues --   -1.13899  -1.13899  -1.13881  -1.13805  -1.13793
  Beta  occ. eigenvalues --   -1.13773  -1.13574  -1.13542  -1.13521  -1.13078
  Beta  occ. eigenvalues --   -1.13040  -1.12944  -1.12517  -1.12502  -1.12489
  Beta  occ. eigenvalues --   -0.16372  -0.13447  -0.11487
  Beta virt. eigenvalues --   -0.07767  -0.06061  -0.05199  -0.04423  -0.03499
  Beta virt. eigenvalues --   -0.02550  -0.01954  -0.01793  -0.01154  -0.00972
  Beta virt. eigenvalues --   -0.00418  -0.00299   0.00071   0.00453   0.00497

 Mulliken charges and spin densities:
               1          2
     1  Na  -0.347127   0.167690
     2  Na   0.257778   0.007609
     3  Na   0.032229   0.228574
     4  Na  -0.825901  -0.162443
     5  Na   0.467992   0.034925
     6  Na   0.424141   0.143424
     7  Na  -0.009112   0.580222
 Sum of Mulliken charges =  -0.00000   1.00000

 Dipole moment (field-independent basis, Debye):
    X=              0.7263    Y=             -1.4361    Z=             -0.0654  Tot=              1.6106
 Quadrupole moment (field-independent basis, Debye-Ang):
   XX=            -65.3778   YY=            -69.4690   ZZ=            -66.7154
   XY=             -0.9480   XZ=              2.6977   YZ=              3.3404

 Normal termination of Gaussian 16 at Tue Nov 28 22:48:53 2023.
