 Gaussian 16, Revision B.01,
 Gaussian 16:  ES64L-G16RevB.01 20-Dec-2017

 -------------------------
 #P B3LYP/6-311+g(d) force
 -------------------------

 -----
 DPGEN
 -----
 Symbolic Z-matrix:
 Charge =  0 Multiplicity = 2

                         Standard orientation:
 ---------------------------------------------------------------------
 Center     Atomic      Atomic             Coordinates (Angstroms)
 Number     Number       Type             X           Y           Z
 ---------------------------------------------------------------------
      1         11           0        0.567805   -0.663880    2.138379
      2         11           0        3.831923    0.511139    0.338657
      3         11           0       -3.288972   -1.209715    0.902052
      4         11           0        1.076997    1.893807   -0.588975
      5         11           0       -1.431253   -0.446628   -1.881516
      6         11           0       -2.146979    2.295849    0.096193
      7         11           0        1.390479   -2.380571   -1.004790
 ---------------------------------------------------------------------

 SCF Done:  E(UB3LYP) =  -1136.12375477     A.U. after   23 cycles

 The electronic state is 2-A.
 Alpha  occ. eigenvalues --  -38.45092 -38.44917 -38.44787 -38.43801 -38.43703
 Alpha  occ. eigenvalues --  -38.43403 -38.42766  -2.20880  -2.20702  -2.20565
 Alpha  occ. eigenvalues --   -2.19675  -2.19500  -2.19231  -2.18638  -1.14563
 Alpha  occ. eigenvalues --   -1.14540  -1.14502  -1.14380  -1.14354  -1.14309
 Alpha  occ. eigenvalues --   -1.14237  -1.14210  -1.14205  -1.13361  -1.13325
 Alpha  occ. eigenvalues --   -1.13296  -1.13172  -1.13155  -1.13125  -1.12910
 Alpha  occ. eigenvalues --   -1.12900  -1.12865  -1.12327  -1.12309  -1.12270
 Alpha  occ. eigenvalues --   -0.17771  -0.13519  -0.11350  -0.11153
 Alpha virt. eigenvalues --   -0.06883  -0.05183  -0.04558  -0.03276  -0.02829
 Alpha virt. eigenvalues --   -0.02697  -0.02388  -0.01049  -0.00807  -0.00301
 Alpha virt. eigenvalues --    0.00091   0.00193   0.00225   0.00626   0.00715

  Beta  occ. eigenvalues --  -38.45090 -38.44859 -38.44765 -38.43743 -38.43666
  Beta  occ. eigenvalues --  -38.43402 -38.42759  -2.20876  -2.20593  -2.20526
  Beta  occ. eigenvalues --   -2.19571  -2.19435  -2.19232  -2.18627  -1.14562
  Beta  occ. eigenvalues --   -1.14530  -1.14502  -1.14307  -1.14280  -1.14226
  Beta  occ. eigenvalues --   -1.14204  -1.14183  -1.14177  -1.13287  -1.13251
  Beta  occ. eigenvalues --   -1.13215  -1.13123  -1.13106  -1.13076  -1.12913
  Beta  occ. eigenvalues --   -1.12890  -1.12863  -1.12323  -1.12287  -1.12260
  Beta  occ. eigenvalues --   -0.17099  -0.13367  -0.11060
  Beta virt. eigenvalues --   -0.07399  -0.06681  -0.05087  -0.04012  -0.03044
  Beta virt. eigenvalues --   -0.02324  -0.02146  -0.01829  -0.01008  -0.00565
  Beta virt. eigenvalues --   -0.00179   0.00108   0.00237   0.00351   0.00722

 Mulliken charges and spin densities:
               1          2
     1  Na  -0.224644   0.409150
     2  Na   0.707990  -0.030376
     3  Na   0.021075   0.176776
     4  Na  -0.669806   0.070399
     5  Na   0.373061   0.151901
     6  Na   0.033863   0.086055
     7  Na  -0.241540   0.136095
 Sum of Mulliken charges =  -0.00000   1.00000

 Dipole moment (field-independent basis, Debye):
    X=              0.3992    Y=             -0.3722    Z=              0.5743  Tot=              0.7923
 Quadrupole moment (field-independent basis, Debye-Ang):
   XX=            -48.8836   YY=            -75.5095   ZZ=            -69.9214
   XY=             -0.4840   XZ=             -0.8809   YZ=              1.3050

 Normal termination of Gaussian 16 at Thu Dec  7 15:28:49 2023.
