 Gaussian 16, Revision B.01,
 Gaussian 16:  ES64L-G16RevB.01 20-Dec-2017

 -------------------------
 #P B3LYP/6-311+g(d) force
 -------------------------

 -----
 DPGEN
 -----
 Symbolic Z-matrix:
 Charge =  0 Multiplicity = 2

                         Standard orientation:
 ---------------------------------------------------------------------
 Center     Atomic      Atomic             Coordinates (Angstroms)
 Number     Number       Type             X           Y           Z
 ---------------------------------------------------------------------
      1         11           0        0.272207   -1.884838    0.816533
      2         11           0        3.240588   -2.722301   -0.282169
      3         11           0        3.938496    0.417429   -0.580852
      4         11           0        0.085382    1.168908   -0.707664
      5         11           0       -3.250895   -0.262220    0.739947
      6         11           0        2.187397    3.231911    0.639413
      7         11           0       -6.473174    0.051110   -0.625207
 ---------------------------------------------------------------------

 SCF Done:  E(UB3LYP) =  -1136.12089228     A.U. after   20 cycles

 The electronic state is 2-A.
 Alpha  occ. eigenvalues --  -38.45003 -38.44678 -38.44458 -38.44185 -38.43869
 Alpha  occ. eigenvalues --  -38.43594 -38.43266  -2.20792  -2.20507  -2.20297
 Alpha  occ. eigenvalues --   -2.20017  -2.19633  -2.19409  -2.19108  -1.14426
 Alpha  occ. eigenvalues --   -1.14426  -1.14401  -1.14193  -1.14165  -1.14118
 Alpha  occ. eigenvalues --   -1.13992  -1.13986  -1.13896  -1.13701  -1.13692
 Alpha  occ. eigenvalues --   -1.13620  -1.13328  -1.13326  -1.13269  -1.13077
 Alpha  occ. eigenvalues --   -1.13069  -1.13043  -1.12777  -1.12759  -1.12753
 Alpha  occ. eigenvalues --   -0.16817  -0.13872  -0.12170  -0.11685
 Alpha virt. eigenvalues --   -0.05876  -0.05593  -0.04706  -0.03727  -0.02745
 Alpha virt. eigenvalues --   -0.02299  -0.02126  -0.01889  -0.00998  -0.00822
 Alpha virt. eigenvalues --   -0.00231  -0.00052   0.00151   0.00307   0.00663

  Beta  occ. eigenvalues --  -38.44892 -38.44632 -38.44430 -38.44152 -38.43881
  Beta  occ. eigenvalues --  -38.43592 -38.43256  -2.20586  -2.20424  -2.20249
  Beta  occ. eigenvalues --   -2.19957  -2.19662  -2.19406  -2.19091  -1.14286
  Beta  occ. eigenvalues --   -1.14286  -1.14265  -1.14138  -1.14114  -1.14050
  Beta  occ. eigenvalues --   -1.13957  -1.13954  -1.13854  -1.13660  -1.13653
  Beta  occ. eigenvalues --   -1.13574  -1.13355  -1.13353  -1.13233  -1.13071
  Beta  occ. eigenvalues --   -1.13068  -1.13040  -1.12755  -1.12750  -1.12743
  Beta  occ. eigenvalues --   -0.16292  -0.12859  -0.12135
  Beta virt. eigenvalues --   -0.08213  -0.05543  -0.05180  -0.04400  -0.03531
  Beta virt. eigenvalues --   -0.02427  -0.01950  -0.01731  -0.01628  -0.00775
  Beta virt. eigenvalues --   -0.00470  -0.00144   0.00132   0.00292   0.00424

 Mulliken charges and spin densities:
               1          2
     1  Na  -0.199450  -0.004430
     2  Na   0.516089   0.113995
     3  Na  -0.094984   0.304213
     4  Na  -0.920292  -0.029825
     5  Na   0.016096   0.078711
     6  Na   0.630605   0.050140
     7  Na   0.051935   0.487195
 Sum of Mulliken charges =  -0.00000   1.00000

 Dipole moment (field-independent basis, Debye):
    X=              0.1160    Y=              0.3858    Z=             -0.0741  Tot=              0.4096
 Quadrupole moment (field-independent basis, Debye-Ang):
   XX=            -58.3374   YY=            -69.0431   ZZ=            -68.2853
   XY=              0.5040   XZ=              2.1721   YZ=              1.0103

 Normal termination of Gaussian 16 at Tue Nov 28 22:15:58 2023.
