 Gaussian 16, Revision B.01,
 Gaussian 16:  ES64L-G16RevB.01 20-Dec-2017

 -------------------------
 #P B3LYP/6-311+g(d) force
 -------------------------

 -----
 DPGEN
 -----
 Symbolic Z-matrix:
 Charge =  0 Multiplicity = 2

                         Standard orientation:
 ---------------------------------------------------------------------
 Center     Atomic      Atomic             Coordinates (Angstroms)
 Number     Number       Type             X           Y           Z
 ---------------------------------------------------------------------
      1         11           0        2.393439    2.463119    0.402147
      2         11           0       -1.289098    1.153477   -1.097836
      3         11           0       -4.322051    1.094738   -0.502535
      4         11           0       -1.884674   -1.132440    1.779394
      5         11           0        4.034339   -0.240955   -0.904898
      6         11           0       -0.049301   -2.477679   -1.793873
      7         11           0        1.117346   -0.860260    2.117601
 ---------------------------------------------------------------------

 SCF Done:  E(UB3LYP) =  -1136.11042267     A.U. after   23 cycles

 The electronic state is 2-A.
 Alpha  occ. eigenvalues --  -38.45700 -38.44793 -38.44620 -38.44137 -38.43892
 Alpha  occ. eigenvalues --  -38.43527 -38.43306  -2.21441  -2.20570  -2.20394
 Alpha  occ. eigenvalues --   -2.19961  -2.19694  -2.19373  -2.19146  -1.15116
 Alpha  occ. eigenvalues --   -1.15096  -1.15076  -1.14223  -1.14205  -1.14167
 Alpha  occ. eigenvalues --   -1.14062  -1.14055  -1.14023  -1.13650  -1.13641
 Alpha  occ. eigenvalues --   -1.13609  -1.13349  -1.13346  -1.13326  -1.13121
 Alpha  occ. eigenvalues --   -1.13018  -1.13003  -1.12819  -1.12781  -1.12754
 Alpha  occ. eigenvalues --   -0.16863  -0.13470  -0.11503  -0.11219
 Alpha virt. eigenvalues --   -0.07157  -0.05092  -0.04846  -0.03531  -0.03043
 Alpha virt. eigenvalues --   -0.02647  -0.02380  -0.01081  -0.00852  -0.00776
 Alpha virt. eigenvalues --   -0.00330  -0.00092   0.00230   0.00400   0.00604

  Beta  occ. eigenvalues --  -38.45697 -38.44678 -38.44607 -38.44129 -38.43895
  Beta  occ. eigenvalues --  -38.43507 -38.43275  -2.21435  -2.20369  -2.20356
  Beta  occ. eigenvalues --   -2.19947  -2.19699  -2.19339  -2.19091  -1.15112
  Beta  occ. eigenvalues --   -1.15089  -1.15070  -1.14074  -1.14058  -1.14046
  Beta  occ. eigenvalues --   -1.14033  -1.14025  -1.14009  -1.13643  -1.13615
  Beta  occ. eigenvalues --   -1.13603  -1.13350  -1.13350  -1.13328  -1.13089
  Beta  occ. eigenvalues --   -1.12992  -1.12977  -1.12776  -1.12742  -1.12716
  Beta  occ. eigenvalues --   -0.16290  -0.13391  -0.11049
  Beta virt. eigenvalues --   -0.07519  -0.06863  -0.04983  -0.04350  -0.03017
  Beta virt. eigenvalues --   -0.02777  -0.02380  -0.01759  -0.01038  -0.00734
  Beta virt. eigenvalues --   -0.00390  -0.00199  -0.00023   0.00303   0.00578

 Mulliken charges and spin densities:
               1          2
     1  Na   0.299396   0.012285
     2  Na  -0.842930   0.253157
     3  Na   0.520951  -0.085968
     4  Na   0.146020  -0.007033
     5  Na   0.088815   0.041773
     6  Na   0.031919   0.549742
     7  Na  -0.244170   0.236043
 Sum of Mulliken charges =  -0.00000   1.00000

 Dipole moment (field-independent basis, Debye):
    X=              0.8352    Y=             -0.1738    Z=             -0.1963  Tot=              0.8754
 Quadrupole moment (field-independent basis, Debye-Ang):
   XX=            -52.9865   YY=            -70.8201   ZZ=            -74.2039
   XY=             -0.5054   XZ=             -3.5737   YZ=              4.6555

 Normal termination of Gaussian 16 at Sun Dec  3 16:04:41 2023.
