 Gaussian 16, Revision B.01,
 Gaussian 16:  ES64L-G16RevB.01 20-Dec-2017

 -------------------------
 #P B3LYP/6-311+g(d) force
 -------------------------

 -----
 DPGEN
 -----
 Symbolic Z-matrix:
 Charge =  0 Multiplicity = 2

                         Standard orientation:
 ---------------------------------------------------------------------
 Center     Atomic      Atomic             Coordinates (Angstroms)
 Number     Number       Type             X           Y           Z
 ---------------------------------------------------------------------
      1         11           0       -0.264935   -2.050930    1.412452
      2         11           0        2.313925    0.544519    0.716944
      3         11           0       -0.823349    1.360619    1.449206
      4         11           0        2.466465   -2.297778   -0.852702
      5         11           0       -0.458709   -0.169244   -1.711897
      6         11           0        0.582837    3.382029   -0.600880
      7         11           0       -3.816232   -0.769216   -0.413122
 ---------------------------------------------------------------------

 SCF Done:  E(UB3LYP) =  -1136.13382837     A.U. after   19 cycles

 The electronic state is 2-A.
 Alpha  occ. eigenvalues --  -38.44051 -38.43949 -38.43762 -38.43709 -38.43566
 Alpha  occ. eigenvalues --  -38.43481 -38.43379  -2.19802  -2.19798  -2.19631
 Alpha  occ. eigenvalues --   -2.19605  -2.19398  -2.19321  -2.19306  -1.13500
 Alpha  occ. eigenvalues --   -1.13476  -1.13472  -1.13461  -1.13428  -1.13395
 Alpha  occ. eigenvalues --   -1.13335  -1.13313  -1.13290  -1.13273  -1.13237
 Alpha  occ. eigenvalues --   -1.13223  -1.13100  -1.13050  -1.13040  -1.13005
 Alpha  occ. eigenvalues --   -1.12984  -1.12972  -1.12952  -1.12948  -1.12885
 Alpha  occ. eigenvalues --   -0.18318  -0.12657  -0.12316  -0.10951
 Alpha virt. eigenvalues --   -0.05803  -0.05218  -0.04504  -0.03135  -0.03039
 Alpha virt. eigenvalues --   -0.02547  -0.01673  -0.01335  -0.00641  -0.00111
 Alpha virt. eigenvalues --    0.00256   0.00294   0.00621   0.00742   0.00813

  Beta  occ. eigenvalues --  -38.44050 -38.43902 -38.43702 -38.43695 -38.43560
  Beta  occ. eigenvalues --  -38.43468 -38.43336  -2.19801  -2.19716  -2.19583
  Beta  occ. eigenvalues --   -2.19521  -2.19387  -2.19298  -2.19230  -1.13474
  Beta  occ. eigenvalues --   -1.13465  -1.13441  -1.13429  -1.13383  -1.13344
  Beta  occ. eigenvalues --   -1.13299  -1.13255  -1.13247  -1.13211  -1.13193
  Beta  occ. eigenvalues --   -1.13155  -1.13086  -1.13033  -1.13030  -1.12970
  Beta  occ. eigenvalues --   -1.12954  -1.12944  -1.12937  -1.12875  -1.12838
  Beta  occ. eigenvalues --   -0.17534  -0.12499  -0.12140
  Beta virt. eigenvalues --   -0.07035  -0.05658  -0.05071  -0.04306  -0.02666
  Beta virt. eigenvalues --   -0.02483  -0.01763  -0.01436  -0.01246  -0.00261
  Beta virt. eigenvalues --   -0.00144   0.00300   0.00364   0.00710   0.00789

 Mulliken charges and spin densities:
               1          2
     1  Na  -0.166912   0.118880
     2  Na  -0.147368   0.227730
     3  Na   0.250051   0.270389
     4  Na   0.457867  -0.081950
     5  Na  -0.517657   0.733764
     6  Na   0.171824  -0.154979
     7  Na  -0.047805  -0.113834
 Sum of Mulliken charges =  -0.00000   1.00000

 Dipole moment (field-independent basis, Debye):
    X=             -0.0642    Y=             -0.0231    Z=             -0.0713  Tot=              0.0987
 Quadrupole moment (field-independent basis, Debye-Ang):
   XX=            -60.1820   YY=            -61.5888   ZZ=            -70.8155
   XY=             -0.2258   XZ=             -1.1996   YZ=             -1.4836

 Normal termination of Gaussian 16 at Mon Dec  4 04:19:40 2023.
