 Gaussian 16, Revision B.01,
 Gaussian 16:  ES64L-G16RevB.01 20-Dec-2017

 -------------------------
 #P B3LYP/6-311+g(d) force
 -------------------------

 -----
 DPGEN
 -----
 Symbolic Z-matrix:
 Charge =  0 Multiplicity = 2

                         Standard orientation:
 ---------------------------------------------------------------------
 Center     Atomic      Atomic             Coordinates (Angstroms)
 Number     Number       Type             X           Y           Z
 ---------------------------------------------------------------------
      1         11           0        2.817150    0.069928    1.797522
      2         11           0       -0.478332   -1.437851    1.908841
      3         11           0        2.481534   -1.489291   -1.123016
      4         11           0       -1.735664    2.893186   -0.217649
      5         11           0        1.633228    2.716112   -0.959612
      6         11           0       -0.808415   -2.374250   -1.828916
      7         11           0       -3.909501   -0.377835    0.422829
 ---------------------------------------------------------------------

 SCF Done:  E(UB3LYP) =  -1136.11824191     A.U. after   21 cycles

 The electronic state is 2-A.
 Alpha  occ. eigenvalues --  -38.44790 -38.44734 -38.44638 -38.44435 -38.44432
 Alpha  occ. eigenvalues --  -38.43822 -38.43727  -2.20565  -2.20469  -2.20421
 Alpha  occ. eigenvalues --   -2.20249  -2.20244  -2.19565  -2.19490  -1.14249
 Alpha  occ. eigenvalues --   -1.14224  -1.14179  -1.14148  -1.14122  -1.14107
 Alpha  occ. eigenvalues --   -1.14090  -1.14076  -1.14035  -1.13951  -1.13917
 Alpha  occ. eigenvalues --   -1.13907  -1.13888  -1.13873  -1.13847  -1.13253
 Alpha  occ. eigenvalues --   -1.13246  -1.13203  -1.13169  -1.13147  -1.13110
 Alpha  occ. eigenvalues --   -0.16725  -0.12857  -0.12212  -0.11354
 Alpha virt. eigenvalues --   -0.06463  -0.05617  -0.04959  -0.03608  -0.03123
 Alpha virt. eigenvalues --   -0.02596  -0.01954  -0.01011  -0.00895  -0.00651
 Alpha virt. eigenvalues --   -0.00359  -0.00086   0.00208   0.00385   0.00646

  Beta  occ. eigenvalues --  -38.44741 -38.44729 -38.44574 -38.44410 -38.44386
  Beta  occ. eigenvalues --  -38.43826 -38.43715  -2.20476  -2.20459  -2.20304
  Beta  occ. eigenvalues --   -2.20202  -2.20164  -2.19575  -2.19468  -1.14189
  Beta  occ. eigenvalues --   -1.14161  -1.14138  -1.14117  -1.14112  -1.14094
  Beta  occ. eigenvalues --   -1.14009  -1.14001  -1.13944  -1.13905  -1.13883
  Beta  occ. eigenvalues --   -1.13860  -1.13842  -1.13808  -1.13794  -1.13258
  Beta  occ. eigenvalues --   -1.13251  -1.13206  -1.13151  -1.13134  -1.13099
  Beta  occ. eigenvalues --   -0.16054  -0.12754  -0.11799
  Beta virt. eigenvalues --   -0.07667  -0.06239  -0.05576  -0.04273  -0.03404
  Beta virt. eigenvalues --   -0.02562  -0.01985  -0.01817  -0.00987  -0.00765
  Beta virt. eigenvalues --   -0.00364  -0.00232   0.00099   0.00344   0.00435

 Mulliken charges and spin densities:
               1          2
     1  Na   0.422149   0.280186
     2  Na  -0.389582   0.279729
     3  Na  -0.085144   0.126973
     4  Na  -0.011144  -0.053349
     5  Na  -0.211292   0.059752
     6  Na   0.077640   0.301836
     7  Na   0.197374   0.004871
 Sum of Mulliken charges =  -0.00000   1.00000

 Dipole moment (field-independent basis, Debye):
    X=             -0.1243    Y=             -0.7721    Z=              0.1443  Tot=              0.7952
 Quadrupole moment (field-independent basis, Debye-Ang):
   XX=            -55.7164   YY=            -74.6130   ZZ=            -68.6859
   XY=              1.6138   XZ=              0.6125   YZ=              1.7891

 Normal termination of Gaussian 16 at Sun Dec  3 16:32:58 2023.
