 Gaussian 16, Revision B.01,
 Gaussian 16:  ES64L-G16RevB.01 20-Dec-2017

 -------------------------
 #P B3LYP/6-311+g(d) force
 -------------------------

 -----
 DPGEN
 -----
 Symbolic Z-matrix:
 Charge =  0 Multiplicity = 2

                         Standard orientation:
 ---------------------------------------------------------------------
 Center     Atomic      Atomic             Coordinates (Angstroms)
 Number     Number       Type             X           Y           Z
 ---------------------------------------------------------------------
      1         11           0        3.051546    0.726993    1.005306
      2         11           0        3.981808   -2.630739   -0.049570
      3         11           0       -2.560109   -1.081494   -0.305407
      4         11           0        1.387685    3.667682   -0.122748
      5         11           0       -5.821936   -0.520683    0.653868
      6         11           0        0.875717   -1.553278   -0.422138
      7         11           0       -0.914712    1.391518   -0.759310
 ---------------------------------------------------------------------

 SCF Done:  E(UB3LYP) =  -1136.12393043     A.U. after   19 cycles

 The electronic state is 2-A.
 Alpha  occ. eigenvalues --  -38.44754 -38.44730 -38.44200 -38.44048 -38.43807
 Alpha  occ. eigenvalues --  -38.43264 -38.43194  -2.20559  -2.20534  -2.20003
 Alpha  occ. eigenvalues --   -2.19941  -2.19699  -2.19080  -2.19076  -1.14266
 Alpha  occ. eigenvalues --   -1.14246  -1.14164  -1.14163  -1.14144  -1.14138
 Alpha  occ. eigenvalues --   -1.13677  -1.13664  -1.13638  -1.13631  -1.13617
 Alpha  occ. eigenvalues --   -1.13585  -1.13395  -1.13387  -1.13286  -1.12784
 Alpha  occ. eigenvalues --   -1.12743  -1.12740  -1.12736  -1.12716  -1.12713
 Alpha  occ. eigenvalues --   -0.17110  -0.14048  -0.12456  -0.11359
 Alpha virt. eigenvalues --   -0.06130  -0.05022  -0.04653  -0.04002  -0.02485
 Alpha virt. eigenvalues --   -0.02198  -0.02074  -0.01844  -0.01001  -0.00911
 Alpha virt. eigenvalues --   -0.00193   0.00099   0.00213   0.00400   0.00682

  Beta  occ. eigenvalues --  -38.44731 -38.44607 -38.44193 -38.44031 -38.43772
  Beta  occ. eigenvalues --  -38.43258 -38.43186  -2.20517  -2.20304  -2.19990
  Beta  occ. eigenvalues --   -2.19912  -2.19638  -2.19076  -2.19065  -1.14236
  Beta  occ. eigenvalues --   -1.14220  -1.14104  -1.14007  -1.14006  -1.13993
  Beta  occ. eigenvalues --   -1.13667  -1.13656  -1.13621  -1.13619  -1.13585
  Beta  occ. eigenvalues --   -1.13568  -1.13358  -1.13351  -1.13216  -1.12787
  Beta  occ. eigenvalues --   -1.12748  -1.12735  -1.12729  -1.12705  -1.12640
  Beta  occ. eigenvalues --   -0.16569  -0.13333  -0.12200
  Beta virt. eigenvalues --   -0.07688  -0.06015  -0.04685  -0.04187  -0.03828
  Beta virt. eigenvalues --   -0.02295  -0.01890  -0.01764  -0.01303  -0.00847
  Beta virt. eigenvalues --   -0.00566   0.00070   0.00222   0.00391   0.00504

 Mulliken charges and spin densities:
               1          2
     1  Na  -0.190562   0.210109
     2  Na   0.992482   0.086082
     3  Na   0.162530   0.202320
     4  Na   0.497565   0.046349
     5  Na   0.234414   0.489742
     6  Na  -0.906311   0.033565
     7  Na  -0.790119  -0.068168
 Sum of Mulliken charges =  -0.00000   1.00000

 Dipole moment (field-independent basis, Debye):
    X=              1.0394    Y=             -0.2776    Z=              0.1262  Tot=              1.0832
 Quadrupole moment (field-independent basis, Debye-Ang):
   XX=            -58.9145   YY=            -64.5516   ZZ=            -70.9863
   XY=             -5.6570   XZ=              0.3283   YZ=              0.2039

 Normal termination of Gaussian 16 at Tue Nov 28 22:34:16 2023.
