 Gaussian 16, Revision B.01,
 Gaussian 16:  ES64L-G16RevB.01 20-Dec-2017

 -------------------------
 #P B3LYP/6-311+g(d) force
 -------------------------

 -----
 DPGEN
 -----
 Symbolic Z-matrix:
 Charge =  0 Multiplicity = 2

                         Standard orientation:
 ---------------------------------------------------------------------
 Center     Atomic      Atomic             Coordinates (Angstroms)
 Number     Number       Type             X           Y           Z
 ---------------------------------------------------------------------
      1         11           0        0.353893    0.233461   -1.570278
      2         11           0       -3.019289    1.131003   -0.958075
      3         11           0        1.382777   -2.466780    0.160588
      4         11           0        0.374666    3.215084    0.521582
      5         11           0       -0.892336    0.259472    1.973133
      6         11           0       -1.754919   -2.674884    0.102152
      7         11           0        3.555208    0.302644   -0.229102
 ---------------------------------------------------------------------

 SCF Done:  E(UB3LYP) =  -1136.13235813     A.U. after   19 cycles

 The electronic state is 2-A.
 Alpha  occ. eigenvalues --  -38.44247 -38.44204 -38.44012 -38.43754 -38.43662
 Alpha  occ. eigenvalues --  -38.43495 -38.43429  -2.20028  -2.19999  -2.19796
 Alpha  occ. eigenvalues --   -2.19608  -2.19497  -2.19399  -2.19300  -1.13702
 Alpha  occ. eigenvalues --   -1.13685  -1.13669  -1.13659  -1.13642  -1.13626
 Alpha  occ. eigenvalues --   -1.13473  -1.13451  -1.13439  -1.13286  -1.13255
 Alpha  occ. eigenvalues --   -1.13225  -1.13207  -1.13154  -1.13132  -1.13103
 Alpha  occ. eigenvalues --   -1.13059  -1.13016  -1.12970  -1.12962  -1.12905
 Alpha  occ. eigenvalues --   -0.17922  -0.12763  -0.12486  -0.10607
 Alpha virt. eigenvalues --   -0.05980  -0.05282  -0.04882  -0.03147  -0.02906
 Alpha virt. eigenvalues --   -0.02361  -0.01746  -0.01456  -0.00753  -0.00372
 Alpha virt. eigenvalues --   -0.00075   0.00294   0.00676   0.00699   0.00844

  Beta  occ. eigenvalues --  -38.44227 -38.44159 -38.44014 -38.43684 -38.43661
  Beta  occ. eigenvalues --  -38.43448 -38.43427  -2.19993  -2.19918  -2.19801
  Beta  occ. eigenvalues --   -2.19497  -2.19479  -2.19315  -2.19297  -1.13667
  Beta  occ. eigenvalues --   -1.13656  -1.13639  -1.13599  -1.13590  -1.13571
  Beta  occ. eigenvalues --   -1.13472  -1.13453  -1.13442  -1.13216  -1.13198
  Beta  occ. eigenvalues --   -1.13170  -1.13150  -1.13126  -1.13107  -1.13051
  Beta  occ. eigenvalues --   -1.13009  -1.12966  -1.12959  -1.12935  -1.12895
  Beta  occ. eigenvalues --   -0.17306  -0.12455  -0.12277
  Beta virt. eigenvalues --   -0.06851  -0.05834  -0.05141  -0.04807  -0.02528
  Beta virt. eigenvalues --   -0.02326  -0.01668  -0.01358  -0.01310  -0.00735
  Beta virt. eigenvalues --   -0.00370   0.00088   0.00367   0.00722   0.00778

 Mulliken charges and spin densities:
               1          2
     1  Na   0.041572   0.373396
     2  Na   0.043212   0.130385
     3  Na  -0.164984  -0.046775
     4  Na  -0.081230   0.019088
     5  Na  -0.130452   0.509554
     6  Na   0.166116   0.047258
     7  Na   0.125766  -0.032905
 Sum of Mulliken charges =  -0.00000   1.00000

 Dipole moment (field-independent basis, Debye):
    X=             -0.0050    Y=              0.3722    Z=              0.1598  Tot=              0.4051
 Quadrupole moment (field-independent basis, Debye-Ang):
   XX=            -57.6028   YY=            -61.5787   ZZ=            -74.5638
   XY=              1.6561   XZ=              1.9459   YZ=             -0.1950

 Normal termination of Gaussian 16 at Mon Dec  4 04:54:33 2023.
