 Gaussian 16, Revision B.01,
 Gaussian 16:  ES64L-G16RevB.01 20-Dec-2017

 -------------------------
 #P B3LYP/6-311+g(d) force
 -------------------------

 -----
 DPGEN
 -----
 Symbolic Z-matrix:
 Charge =  0 Multiplicity = 2

                         Standard orientation:
 ---------------------------------------------------------------------
 Center     Atomic      Atomic             Coordinates (Angstroms)
 Number     Number       Type             X           Y           Z
 ---------------------------------------------------------------------
      1         11           0        1.127997   -2.468377    0.776153
      2         11           0        1.708487    2.829983    0.199464
      3         11           0       -2.207982    2.096957   -0.413235
      4         11           0       -2.947290   -1.570560   -1.043015
      5         11           0        3.591844   -0.557873   -0.583065
      6         11           0        0.213917   -0.315494   -0.897644
      7         11           0       -1.486973   -0.014635    1.961342
 ---------------------------------------------------------------------

 SCF Done:  E(UB3LYP) =  -1136.12518524     A.U. after   20 cycles

 The electronic state is 2-A.
 Alpha  occ. eigenvalues --  -38.44417 -38.44183 -38.44080 -38.43888 -38.43617
 Alpha  occ. eigenvalues --  -38.43576 -38.43196  -2.20226  -2.20016  -2.19904
 Alpha  occ. eigenvalues --   -2.19638  -2.19500  -2.19472  -2.19236  -1.13904
 Alpha  occ. eigenvalues --   -1.13882  -1.13855  -1.13713  -1.13699  -1.13621
 Alpha  occ. eigenvalues --   -1.13576  -1.13536  -1.13530  -1.13344  -1.13322
 Alpha  occ. eigenvalues --   -1.13306  -1.13272  -1.13158  -1.13135  -1.13105
 Alpha  occ. eigenvalues --   -1.13093  -1.13076  -1.12926  -1.12860  -1.12835
 Alpha  occ. eigenvalues --   -0.18165  -0.13564  -0.11857  -0.10374
 Alpha virt. eigenvalues --   -0.06030  -0.05793  -0.04616  -0.03130  -0.02572
 Alpha virt. eigenvalues --   -0.02148  -0.01890  -0.01313  -0.00862  -0.00349
 Alpha virt. eigenvalues --   -0.00100   0.00255   0.00572   0.00613   0.00756

  Beta  occ. eigenvalues --  -38.44409 -38.44174 -38.44026 -38.43897 -38.43601
  Beta  occ. eigenvalues --  -38.43498 -38.43178  -2.20211  -2.20001  -2.19806
  Beta  occ. eigenvalues --   -2.19655  -2.19471  -2.19328  -2.19206  -1.13889
  Beta  occ. eigenvalues --   -1.13873  -1.13847  -1.13699  -1.13681  -1.13601
  Beta  occ. eigenvalues --   -1.13502  -1.13469  -1.13460  -1.13330  -1.13325
  Beta  occ. eigenvalues --   -1.13317  -1.13281  -1.13108  -1.13073  -1.13052
  Beta  occ. eigenvalues --   -1.12999  -1.12976  -1.12871  -1.12844  -1.12813
  Beta  occ. eigenvalues --   -0.17533  -0.13305  -0.11676
  Beta virt. eigenvalues --   -0.06579  -0.05890  -0.05570  -0.04455  -0.02693
  Beta virt. eigenvalues --   -0.02038  -0.01831  -0.01368  -0.01026  -0.00693
  Beta virt. eigenvalues --   -0.00286   0.00100   0.00352   0.00690   0.00753

 Mulliken charges and spin densities:
               1          2
     1  Na  -0.619537   0.010370
     2  Na  -0.263534  -0.091121
     3  Na   0.225732   0.105175
     4  Na   0.208832   0.210213
     5  Na   0.859162   0.033035
     6  Na  -0.377561   0.318376
     7  Na  -0.033094   0.413952
 Sum of Mulliken charges =  -0.00000   1.00000

 Dipole moment (field-independent basis, Debye):
    X=              0.2244    Y=             -0.0086    Z=              0.2869  Tot=              0.3644
 Quadrupole moment (field-independent basis, Debye-Ang):
   XX=            -52.7108   YY=            -65.3026   ZZ=            -73.9040
   XY=             -1.1300   XZ=              0.1885   YZ=             -0.2446

 Normal termination of Gaussian 16 at Tue Dec  5 13:02:31 2023.
