 Gaussian 16, Revision B.01,
 Gaussian 16:  ES64L-G16RevB.01 20-Dec-2017

 -------------------------
 #P B3LYP/6-311+g(d) force
 -------------------------

 -----
 DPGEN
 -----
 Symbolic Z-matrix:
 Charge =  0 Multiplicity = 2

                         Standard orientation:
 ---------------------------------------------------------------------
 Center     Atomic      Atomic             Coordinates (Angstroms)
 Number     Number       Type             X           Y           Z
 ---------------------------------------------------------------------
      1         11           0       -2.548675   -1.987950    0.221917
      2         11           0        0.020971   -0.322027   -1.642201
      3         11           0        3.664668   -0.396996   -0.477215
      4         11           0        1.474716    2.654353    0.404719
      5         11           0        1.404147   -2.052732    0.727796
      6         11           0       -1.170923    0.807906    1.736215
      7         11           0       -2.844905    1.297446   -0.971231
 ---------------------------------------------------------------------

 SCF Done:  E(UB3LYP) =  -1136.12721161     A.U. after   20 cycles

 The electronic state is 2-A.
 Alpha  occ. eigenvalues --  -38.44823 -38.44407 -38.43980 -38.43979 -38.43506
 Alpha  occ. eigenvalues --  -38.43339 -38.43264  -2.20644  -2.20273  -2.19888
 Alpha  occ. eigenvalues --   -2.19811  -2.19379  -2.19174  -2.19120  -1.14348
 Alpha  occ. eigenvalues --   -1.14293  -1.14265  -1.13945  -1.13943  -1.13889
 Alpha  occ. eigenvalues --   -1.13598  -1.13533  -1.13510  -1.13485  -1.13459
 Alpha  occ. eigenvalues --   -1.13452  -1.13066  -1.13025  -1.13014  -1.12852
 Alpha  occ. eigenvalues --   -1.12839  -1.12808  -1.12787  -1.12768  -1.12746
 Alpha  occ. eigenvalues --   -0.18342  -0.13854  -0.11539  -0.10703
 Alpha virt. eigenvalues --   -0.06481  -0.05608  -0.04264  -0.03358  -0.02568
 Alpha virt. eigenvalues --   -0.02361  -0.02178  -0.01297  -0.00697  -0.00148
 Alpha virt. eigenvalues --    0.00020   0.00267   0.00468   0.00684   0.00777

  Beta  occ. eigenvalues --  -38.44820 -38.44370 -38.43970 -38.43926 -38.43494
  Beta  occ. eigenvalues --  -38.43336 -38.43202  -2.20639  -2.20208  -2.19797
  Beta  occ. eigenvalues --   -2.19792  -2.19360  -2.19116  -2.19060  -1.14346
  Beta  occ. eigenvalues --   -1.14284  -1.14264  -1.13905  -1.13877  -1.13845
  Beta  occ. eigenvalues --   -1.13526  -1.13474  -1.13468  -1.13458  -1.13429
  Beta  occ. eigenvalues --   -1.13419  -1.13054  -1.13011  -1.12985  -1.12801
  Beta  occ. eigenvalues --   -1.12780  -1.12763  -1.12757  -1.12753  -1.12680
  Beta  occ. eigenvalues --   -0.17658  -0.13656  -0.11299
  Beta virt. eigenvalues --   -0.06865  -0.06321  -0.05596  -0.03850  -0.03029
  Beta virt. eigenvalues --   -0.02113  -0.01902  -0.01394  -0.01220  -0.00562
  Beta virt. eigenvalues --    0.00020   0.00038   0.00313   0.00610   0.00740

 Mulliken charges and spin densities:
               1          2
     1  Na   0.180968   0.083335
     2  Na  -0.264293   0.367714
     3  Na   0.521989   0.032984
     4  Na  -0.337859  -0.064393
     5  Na  -0.302923  -0.004720
     6  Na  -0.146809   0.534489
     7  Na   0.348927   0.050590
 Sum of Mulliken charges =  -0.00000   1.00000

 Dipole moment (field-independent basis, Debye):
    X=              0.1346    Y=             -0.1714    Z=             -0.2514  Tot=              0.3327
 Quadrupole moment (field-independent basis, Debye-Ang):
   XX=            -49.0822   YY=            -71.0217   ZZ=            -73.2408
   XY=              0.7942   XZ=             -0.3727   YZ=             -2.2688

 Normal termination of Gaussian 16 at Tue Dec  5 22:17:31 2023.
