 Gaussian 16, Revision B.01,
 Gaussian 16:  ES64L-G16RevB.01 20-Dec-2017

 -------------------------
 #P B3LYP/6-311+g(d) force
 -------------------------

 -----
 DPGEN
 -----
 Symbolic Z-matrix:
 Charge =  0 Multiplicity = 2

                         Standard orientation:
 ---------------------------------------------------------------------
 Center     Atomic      Atomic             Coordinates (Angstroms)
 Number     Number       Type             X           Y           Z
 ---------------------------------------------------------------------
      1         11           0       -1.254275    1.770217    0.792414
      2         11           0        1.928485    2.653637   -0.402972
      3         11           0        1.940048   -0.265926    1.387943
      4         11           0       -3.438412   -0.357792   -0.758088
      5         11           0        2.687767   -2.191589   -0.717967
      6         11           0       -1.529593   -1.456795    1.421232
      7         11           0       -0.334021   -0.151752   -1.722563
 ---------------------------------------------------------------------

 SCF Done:  E(UB3LYP) =  -1136.12777242     A.U. after   21 cycles

 The electronic state is 2-A.
 Alpha  occ. eigenvalues --  -38.44440 -38.43996 -38.43985 -38.43586 -38.43536
 Alpha  occ. eigenvalues --  -38.43409 -38.43279  -2.20337  -2.19908  -2.19902
 Alpha  occ. eigenvalues --   -2.19458  -2.19415  -2.19330  -2.19092  -1.14024
 Alpha  occ. eigenvalues --   -1.14005  -1.13979  -1.13613  -1.13583  -1.13547
 Alpha  occ. eigenvalues --   -1.13528  -1.13522  -1.13518  -1.13283  -1.13131
 Alpha  occ. eigenvalues --   -1.13098  -1.13050  -1.13042  -1.13035  -1.13006
 Alpha  occ. eigenvalues --   -1.12976  -1.12925  -1.12764  -1.12750  -1.12723
 Alpha  occ. eigenvalues --   -0.18749  -0.13806  -0.11546  -0.11187
 Alpha virt. eigenvalues --   -0.05963  -0.05333  -0.04651  -0.03296  -0.02654
 Alpha virt. eigenvalues --   -0.02575  -0.01863  -0.01019  -0.00687   0.00098
 Alpha virt. eigenvalues --    0.00277   0.00342   0.00455   0.00643   0.00763

  Beta  occ. eigenvalues --  -38.44425 -38.43942 -38.43915 -38.43583 -38.43515
  Beta  occ. eigenvalues --  -38.43387 -38.43280  -2.20312  -2.19811  -2.19777
  Beta  occ. eigenvalues --   -2.19425  -2.19404  -2.19294  -2.19095  -1.14010
  Beta  occ. eigenvalues --   -1.13969  -1.13954  -1.13539  -1.13502  -1.13462
  Beta  occ. eigenvalues --   -1.13457  -1.13438  -1.13425  -1.13266  -1.13102
  Beta  occ. eigenvalues --   -1.13072  -1.13038  -1.13031  -1.13015  -1.12961
  Beta  occ. eigenvalues --   -1.12942  -1.12906  -1.12763  -1.12747  -1.12726
  Beta  occ. eigenvalues --   -0.17968  -0.13643  -0.11403
  Beta virt. eigenvalues --   -0.07214  -0.05792  -0.05253  -0.04077  -0.03020
  Beta virt. eigenvalues --   -0.02106  -0.01888  -0.01570  -0.00950  -0.00328
  Beta virt. eigenvalues --    0.00122   0.00308   0.00401   0.00646   0.00748

 Mulliken charges and spin densities:
               1          2
     1  Na  -0.293946   0.249127
     2  Na  -0.001018  -0.067513
     3  Na   0.359081   0.030192
     4  Na   1.069828   0.092020
     5  Na  -0.154003  -0.002112
     6  Na  -0.339125   0.249778
     7  Na  -0.640817   0.448508
 Sum of Mulliken charges =  -0.00000   1.00000

 Dipole moment (field-independent basis, Debye):
    X=             -0.8138    Y=             -0.0451    Z=             -0.2543  Tot=              0.8538
 Quadrupole moment (field-independent basis, Debye-Ang):
   XX=            -54.1678   YY=            -70.9145   ZZ=            -69.6117
   XY=              1.5940   XZ=             -0.4300   YZ=              0.2748

 Normal termination of Gaussian 16 at Tue Dec  5 13:16:03 2023.
