 Gaussian 16, Revision B.01,
 Gaussian 16:  ES64L-G16RevB.01 20-Dec-2017

 -------------------------
 #P B3LYP/6-311+g(d) force
 -------------------------

 -----
 DPGEN
 -----
 Symbolic Z-matrix:
 Charge =  0 Multiplicity = 2

                         Standard orientation:
 ---------------------------------------------------------------------
 Center     Atomic      Atomic             Coordinates (Angstroms)
 Number     Number       Type             X           Y           Z
 ---------------------------------------------------------------------
      1         11           0       -0.246364    0.207858   -1.729537
      2         11           0        0.287009   -0.115528    2.009423
      3         11           0        2.856429   -1.548586   -0.201942
      4         11           0        2.142727    2.089022   -0.242778
      5         11           0       -1.246130    2.527437    0.302036
      6         11           0       -3.131566   -0.440873   -0.153782
      7         11           0       -0.662104   -2.719331    0.016581
 ---------------------------------------------------------------------

 SCF Done:  E(UB3LYP) =  -1136.14023842     A.U. after   20 cycles

 The electronic state is 2-A.
 Alpha  occ. eigenvalues --  -38.43955 -38.43805 -38.43652 -38.43513 -38.43336
 Alpha  occ. eigenvalues --  -38.43295 -38.43292  -2.19750  -2.19654  -2.19498
 Alpha  occ. eigenvalues --   -2.19415  -2.19260  -2.19202  -2.19178  -1.13425
 Alpha  occ. eigenvalues --   -1.13404  -1.13397  -1.13336  -1.13310  -1.13303
 Alpha  occ. eigenvalues --   -1.13189  -1.13166  -1.13128  -1.13090  -1.13050
 Alpha  occ. eigenvalues --   -1.13032  -1.12965  -1.12935  -1.12882  -1.12875
 Alpha  occ. eigenvalues --   -1.12858  -1.12843  -1.12819  -1.12818  -1.12799
 Alpha  occ. eigenvalues --   -0.18711  -0.12906  -0.12545  -0.10801
 Alpha virt. eigenvalues --   -0.05521  -0.05243  -0.04623  -0.03126  -0.03026
 Alpha virt. eigenvalues --   -0.02569  -0.01502  -0.01130  -0.00303  -0.00265
 Alpha virt. eigenvalues --   -0.00016   0.00362   0.00796   0.00885   0.00911

  Beta  occ. eigenvalues --  -38.43953 -38.43802 -38.43645 -38.43421 -38.43330
  Beta  occ. eigenvalues --  -38.43286 -38.43226  -2.19749  -2.19651  -2.19489
  Beta  occ. eigenvalues --   -2.19247  -2.19194  -2.19164  -2.19137  -1.13412
  Beta  occ. eigenvalues --   -1.13405  -1.13395  -1.13328  -1.13307  -1.13290
  Beta  occ. eigenvalues --   -1.13178  -1.13139  -1.13125  -1.12985  -1.12939
  Beta  occ. eigenvalues --   -1.12915  -1.12904  -1.12889  -1.12844  -1.12824
  Beta  occ. eigenvalues --   -1.12816  -1.12808  -1.12797  -1.12780  -1.12765
  Beta  occ. eigenvalues --   -0.17969  -0.12674  -0.12310
  Beta virt. eigenvalues --   -0.06881  -0.05489  -0.05235  -0.04574  -0.02373
  Beta virt. eigenvalues --   -0.02211  -0.01523  -0.01417  -0.01065  -0.00346
  Beta virt. eigenvalues --   -0.00310   0.00118   0.00381   0.00859   0.00873

 Mulliken charges and spin densities:
               1          2
     1  Na  -0.264325   0.608671
     2  Na  -0.397553   0.720552
     3  Na  -0.013232  -0.108330
     4  Na   0.125812  -0.077678
     5  Na   0.225481  -0.000813
     6  Na   0.207946  -0.039804
     7  Na   0.115872  -0.102598
 Sum of Mulliken charges =  -0.00000   1.00000

 Dipole moment (field-independent basis, Debye):
    X=              0.1245    Y=             -0.0354    Z=              0.0495  Tot=              0.1386
 Quadrupole moment (field-independent basis, Debye-Ang):
   XX=            -56.2926   YY=            -63.2603   ZZ=            -73.8723
   XY=             -0.1980   XZ=             -1.1263   YZ=              0.7266

 Normal termination of Gaussian 16 at Tue Dec  5 16:37:25 2023.
