 Gaussian 16, Revision B.01,
 Gaussian 16:  ES64L-G16RevB.01 20-Dec-2017

 -------------------------
 #P B3LYP/6-311+g(d) force
 -------------------------

 -----
 DPGEN
 -----
 Symbolic Z-matrix:
 Charge =  0 Multiplicity = 2

                         Standard orientation:
 ---------------------------------------------------------------------
 Center     Atomic      Atomic             Coordinates (Angstroms)
 Number     Number       Type             X           Y           Z
 ---------------------------------------------------------------------
      1         11           0        3.003126    2.232744   -0.334736
      2         11           0        3.701954   -1.157605    0.228738
      3         11           0       -0.518037    3.033784   -0.692758
      4         11           0       -3.216238    1.278808    1.021695
      5         11           0       -0.469475   -1.227685    2.360639
      6         11           0        0.094895   -3.014369   -0.934060
      7         11           0       -2.596224   -1.145677   -1.649517
 ---------------------------------------------------------------------

 SCF Done:  E(UB3LYP) =  -1136.11346614     A.U. after   21 cycles

 The electronic state is 2-A.
 Alpha  occ. eigenvalues --  -38.45070 -38.44882 -38.44624 -38.44486 -38.44480
 Alpha  occ. eigenvalues --  -38.44094 -38.44044  -2.20801  -2.20649  -2.20399
 Alpha  occ. eigenvalues --   -2.20281  -2.20230  -2.19875  -2.19804  -1.14483
 Alpha  occ. eigenvalues --   -1.14461  -1.14440  -1.14308  -1.14283  -1.14264
 Alpha  occ. eigenvalues --   -1.14072  -1.14054  -1.14044  -1.13953  -1.13928
 Alpha  occ. eigenvalues --   -1.13915  -1.13905  -1.13901  -1.13852  -1.13553
 Alpha  occ. eigenvalues --   -1.13537  -1.13509  -1.13483  -1.13470  -1.13440
 Alpha  occ. eigenvalues --   -0.16332  -0.13045  -0.12473  -0.10943
 Alpha virt. eigenvalues --   -0.07053  -0.06121  -0.04467  -0.03507  -0.03037
 Alpha virt. eigenvalues --   -0.02645  -0.02111  -0.01590  -0.01060  -0.00798
 Alpha virt. eigenvalues --   -0.00419   0.00020   0.00182   0.00357   0.00633

  Beta  occ. eigenvalues --  -38.45071 -38.44791 -38.44609 -38.44480 -38.44419
  Beta  occ. eigenvalues --  -38.44077 -38.44043  -2.20803  -2.20480  -2.20372
  Beta  occ. eigenvalues --   -2.20219  -2.20170  -2.19847  -2.19802  -1.14483
  Beta  occ. eigenvalues --   -1.14463  -1.14443  -1.14194  -1.14172  -1.14141
  Beta  occ. eigenvalues --   -1.14051  -1.14037  -1.14014  -1.13905  -1.13898
  Beta  occ. eigenvalues --   -1.13874  -1.13857  -1.13845  -1.13817  -1.13532
  Beta  occ. eigenvalues --   -1.13523  -1.13481  -1.13469  -1.13468  -1.13438
  Beta  occ. eigenvalues --   -0.15737  -0.12916  -0.12193
  Beta virt. eigenvalues --   -0.07304  -0.06752  -0.05953  -0.03987  -0.03195
  Beta virt. eigenvalues --   -0.02590  -0.02024  -0.01880  -0.01506  -0.00998
  Beta virt. eigenvalues --   -0.00732  -0.00184   0.00240   0.00341   0.00418

 Mulliken charges and spin densities:
               1          2
     1  Na   0.312638  -0.033451
     2  Na  -0.182215   0.009941
     3  Na  -0.275152   0.027235
     4  Na   0.064217   0.243404
     5  Na  -0.090353   0.419823
     6  Na   0.113829   0.127075
     7  Na   0.057037   0.205973
 Sum of Mulliken charges =  -0.00000   1.00000

 Dipole moment (field-independent basis, Debye):
    X=             -0.0327    Y=             -0.1177    Z=              0.1114  Tot=              0.1653
 Quadrupole moment (field-independent basis, Debye-Ang):
   XX=            -58.2171   YY=            -69.0389   ZZ=            -72.7111
   XY=             -5.0610   XZ=             -0.0743   YZ=             -0.2521

 Normal termination of Gaussian 16 at Sun Dec  3 16:48:46 2023.
