 Gaussian 16, Revision B.01,
 Gaussian 16:  ES64L-G16RevB.01 20-Dec-2017

 -------------------------
 #P B3LYP/6-311+g(d) force
 -------------------------

 -----
 DPGEN
 -----
 Symbolic Z-matrix:
 Charge =  0 Multiplicity = 2

                         Standard orientation:
 ---------------------------------------------------------------------
 Center     Atomic      Atomic             Coordinates (Angstroms)
 Number     Number       Type             X           Y           Z
 ---------------------------------------------------------------------
      1         11           0       -0.631212    2.777784   -0.456276
      2         11           0        3.121384    1.370494    0.102653
      3         11           0       -3.357111    0.382931    0.290852
      4         11           0        0.256559   -0.111808   -1.630531
      5         11           0        0.153268   -0.153330    2.253068
      6         11           0       -1.744282   -2.079381   -0.424077
      7         11           0        2.201394   -2.186690   -0.135690
 ---------------------------------------------------------------------

 SCF Done:  E(UB3LYP) =  -1136.12875968     A.U. after   19 cycles

 The electronic state is 2-A.
 Alpha  occ. eigenvalues --  -38.44732 -38.44518 -38.44283 -38.43699 -38.43377
 Alpha  occ. eigenvalues --  -38.43331 -38.43168  -2.20503  -2.20345  -2.20110
 Alpha  occ. eigenvalues --   -2.19531  -2.19323  -2.19281  -2.18982  -1.14183
 Alpha  occ. eigenvalues --   -1.14155  -1.14143  -1.14058  -1.13997  -1.13971
 Alpha  occ. eigenvalues --   -1.13768  -1.13740  -1.13725  -1.13243  -1.13191
 Alpha  occ. eigenvalues --   -1.13158  -1.13104  -1.12988  -1.12951  -1.12929
 Alpha  occ. eigenvalues --   -1.12902  -1.12874  -1.12677  -1.12641  -1.12598
 Alpha  occ. eigenvalues --   -0.18366  -0.13290  -0.11837  -0.10959
 Alpha virt. eigenvalues --   -0.06322  -0.05334  -0.04029  -0.03467  -0.02889
 Alpha virt. eigenvalues --   -0.02685  -0.01961  -0.01200  -0.00468  -0.00134
 Alpha virt. eigenvalues --   -0.00067   0.00322   0.00695   0.00707   0.00831

  Beta  occ. eigenvalues --  -38.44733 -38.44517 -38.44183 -38.43695 -38.43367
  Beta  occ. eigenvalues --  -38.43266 -38.43160  -2.20505  -2.20345  -2.19923
  Beta  occ. eigenvalues --   -2.19528  -2.19268  -2.19203  -2.18970  -1.14171
  Beta  occ. eigenvalues --   -1.14157  -1.14146  -1.14061  -1.13982  -1.13972
  Beta  occ. eigenvalues --   -1.13643  -1.13611  -1.13590  -1.13231  -1.13176
  Beta  occ. eigenvalues --   -1.13155  -1.13056  -1.12918  -1.12905  -1.12886
  Beta  occ. eigenvalues --   -1.12862  -1.12818  -1.12656  -1.12623  -1.12593
  Beta  occ. eigenvalues --   -0.17636  -0.13127  -0.11587
  Beta virt. eigenvalues --   -0.07030  -0.06195  -0.05332  -0.03991  -0.02732
  Beta virt. eigenvalues --   -0.01992  -0.01849  -0.01748  -0.01138  -0.00499
  Beta virt. eigenvalues --   -0.00162   0.00087   0.00345   0.00764   0.00832

 Mulliken charges and spin densities:
               1          2
     1  Na   0.063494  -0.003620
     2  Na   0.010578  -0.031850
     3  Na  -0.046811   0.055158
     4  Na   0.014266   0.228242
     5  Na  -0.593886   0.755309
     6  Na   0.389322   0.036517
     7  Na   0.163038  -0.039755
 Sum of Mulliken charges =  -0.00000   1.00000

 Dipole moment (field-independent basis, Debye):
    X=              0.3844    Y=              0.1047    Z=              0.4235  Tot=              0.5814
 Quadrupole moment (field-independent basis, Debye-Ang):
   XX=            -51.8383   YY=            -68.1015   ZZ=            -73.7189
   XY=             -0.2785   XZ=             -0.2385   YZ=              0.4719

 Normal termination of Gaussian 16 at Tue Dec  5 21:14:56 2023.
