 Gaussian 16, Revision B.01,
 Gaussian 16:  ES64L-G16RevB.01 20-Dec-2017

 -------------------------
 #P B3LYP/6-311+g(d) force
 -------------------------

 -----
 DPGEN
 -----
 Symbolic Z-matrix:
 Charge =  0 Multiplicity = 2

                         Standard orientation:
 ---------------------------------------------------------------------
 Center     Atomic      Atomic             Coordinates (Angstroms)
 Number     Number       Type             X           Y           Z
 ---------------------------------------------------------------------
      1         11           0        0.830455   -2.683816   -0.071165
      2         11           0       -2.421553   -1.783416   -0.238130
      3         11           0        0.195658    0.287320   -1.435227
      4         11           0       -2.961538    1.687308   -0.139374
      5         11           0        1.395682    2.802391   -0.037370
      6         11           0       -0.063597    0.039895    2.075112
      7         11           0        3.024892   -0.349681   -0.153846
 ---------------------------------------------------------------------

 SCF Done:  E(UB3LYP) =  -1136.13469503     A.U. after   20 cycles

 The electronic state is 2-A.
 Alpha  occ. eigenvalues --  -38.44379 -38.44046 -38.43794 -38.43766 -38.43425
 Alpha  occ. eigenvalues --  -38.43012 -38.42958  -2.20155  -2.19934  -2.19636
 Alpha  occ. eigenvalues --   -2.19602  -2.19309  -2.19033  -2.18863  -1.13829
 Alpha  occ. eigenvalues --   -1.13809  -1.13801  -1.13641  -1.13588  -1.13567
 Alpha  occ. eigenvalues --   -1.13319  -1.13314  -1.13301  -1.13272  -1.13254
 Alpha  occ. eigenvalues --   -1.13226  -1.12984  -1.12926  -1.12924  -1.12728
 Alpha  occ. eigenvalues --   -1.12684  -1.12655  -1.12531  -1.12515  -1.12507
 Alpha  occ. eigenvalues --   -0.18705  -0.13167  -0.12379  -0.10510
 Alpha virt. eigenvalues --   -0.05982  -0.05274  -0.04581  -0.03088  -0.02712
 Alpha virt. eigenvalues --   -0.02384  -0.01698  -0.01252  -0.00602  -0.00289
 Alpha virt. eigenvalues --    0.00002   0.00330   0.00760   0.00830   0.00886

  Beta  occ. eigenvalues --  -38.44379 -38.44038 -38.43788 -38.43762 -38.43321
  Beta  occ. eigenvalues --  -38.42962 -38.42951  -2.20157  -2.19923  -2.19629
  Beta  occ. eigenvalues --   -2.19599  -2.19116  -2.18943  -2.18855  -1.13817
  Beta  occ. eigenvalues --   -1.13812  -1.13802  -1.13631  -1.13569  -1.13550
  Beta  occ. eigenvalues --   -1.13312  -1.13308  -1.13277  -1.13270  -1.13236
  Beta  occ. eigenvalues --   -1.13225  -1.12857  -1.12789  -1.12788  -1.12663
  Beta  occ. eigenvalues --   -1.12621  -1.12587  -1.12523  -1.12511  -1.12471
  Beta  occ. eigenvalues --   -0.17980  -0.12938  -0.12155
  Beta virt. eigenvalues --   -0.06567  -0.05971  -0.05218  -0.04575  -0.02328
  Beta virt. eigenvalues --   -0.01954  -0.01634  -0.01311  -0.01158  -0.00648
  Beta virt. eigenvalues --   -0.00329   0.00157   0.00372   0.00784   0.00877

 Mulliken charges and spin densities:
               1          2
     1  Na   0.239662   0.070367
     2  Na   0.166133   0.022341
     3  Na  -0.563433   0.193363
     4  Na   0.071033  -0.060289
     5  Na   0.197522  -0.055067
     6  Na  -0.589742   0.742928
     7  Na   0.478824   0.086357
 Sum of Mulliken charges =  -0.00000   1.00000

 Dipole moment (field-independent basis, Debye):
    X=             -0.1889    Y=              0.4029    Z=              0.1716  Tot=              0.4769
 Quadrupole moment (field-independent basis, Debye-Ang):
   XX=            -55.1416   YY=            -61.3361   ZZ=            -75.9760
   XY=             -0.4115   XZ=              0.4934   YZ=              0.5815

 Normal termination of Gaussian 16 at Thu Dec  7 23:24:37 2023.
