 Gaussian 16, Revision B.01,
 Gaussian 16:  ES64L-G16RevB.01 20-Dec-2017

 -------------------------
 #P B3LYP/6-311+g(d) force
 -------------------------

 -----
 DPGEN
 -----
 Symbolic Z-matrix:
 Charge =  0 Multiplicity = 2

                         Standard orientation:
 ---------------------------------------------------------------------
 Center     Atomic      Atomic             Coordinates (Angstroms)
 Number     Number       Type             X           Y           Z
 ---------------------------------------------------------------------
      1         11           0        3.378453    0.666037   -0.384401
      2         11           0        0.479571    0.081671    2.040271
      3         11           0       -0.182363    2.823664    0.004102
      4         11           0       -2.786943    1.080347   -0.084910
      5         11           0        1.535848   -2.401156    0.149441
      6         11           0       -2.530737   -1.958056   -0.014377
      7         11           0        0.106171   -0.292507   -1.710125
 ---------------------------------------------------------------------

 SCF Done:  E(UB3LYP) =  -1136.13208645     A.U. after   20 cycles

 The electronic state is 2-A.
 Alpha  occ. eigenvalues --  -38.44928 -38.43766 -38.43753 -38.43673 -38.43600
 Alpha  occ. eigenvalues --  -38.43545 -38.42953  -2.20710  -2.19666  -2.19589
 Alpha  occ. eigenvalues --   -2.19543  -2.19493  -2.19484  -2.18816  -1.14383
 Alpha  occ. eigenvalues --   -1.14357  -1.14350  -1.13437  -1.13341  -1.13315
 Alpha  occ. eigenvalues --   -1.13303  -1.13249  -1.13243  -1.13218  -1.13201
 Alpha  occ. eigenvalues --   -1.13159  -1.13147  -1.13143  -1.13111  -1.13107
 Alpha  occ. eigenvalues --   -1.13102  -1.13083  -1.12497  -1.12475  -1.12452
 Alpha  occ. eigenvalues --   -0.18575  -0.13426  -0.12065  -0.10766
 Alpha virt. eigenvalues --   -0.06287  -0.05130  -0.04269  -0.03409  -0.02752
 Alpha virt. eigenvalues --   -0.02563  -0.02035  -0.00992  -0.00393  -0.00232
 Alpha virt. eigenvalues --   -0.00058   0.00315   0.00740   0.00813   0.00858

  Beta  occ. eigenvalues --  -38.44918 -38.43765 -38.43754 -38.43662 -38.43504
  Beta  occ. eigenvalues --  -38.43484 -38.42950  -2.20693  -2.19665  -2.19593
  Beta  occ. eigenvalues --   -2.19528  -2.19372  -2.19316  -2.18813  -1.14352
  Beta  occ. eigenvalues --   -1.14347  -1.14341  -1.13443  -1.13341  -1.13294
  Beta  occ. eigenvalues --   -1.13278  -1.13233  -1.13219  -1.13204  -1.13193
  Beta  occ. eigenvalues --   -1.13138  -1.13084  -1.13039  -1.13032  -1.13000
  Beta  occ. eigenvalues --   -1.12986  -1.12984  -1.12497  -1.12456  -1.12446
  Beta  occ. eigenvalues --   -0.17856  -0.13195  -0.11847
  Beta virt. eigenvalues --   -0.06861  -0.06210  -0.05099  -0.04255  -0.02642
  Beta virt. eigenvalues --   -0.01998  -0.01911  -0.01522  -0.00926  -0.00437
  Beta virt. eigenvalues --   -0.00269   0.00094   0.00354   0.00792   0.00862

 Mulliken charges and spin densities:
               1          2
     1  Na   0.112487  -0.047631
     2  Na  -0.400501   0.676787
     3  Na   0.095568  -0.060956
     4  Na   0.024045  -0.025887
     5  Na   0.229858  -0.043003
     6  Na   0.209208  -0.039218
     7  Na  -0.270665   0.539908
 Sum of Mulliken charges =  -0.00000   1.00000

 Dipole moment (field-independent basis, Debye):
    X=              0.7109    Y=             -0.1152    Z=              0.0179  Tot=              0.7204
 Quadrupole moment (field-independent basis, Debye-Ang):
   XX=            -53.6138   YY=            -66.0280   ZZ=            -74.2631
   XY=              1.4105   XZ=             -0.9940   YZ=             -0.9489

 Normal termination of Gaussian 16 at Tue Dec  5 16:51:56 2023.
