 Gaussian 16, Revision B.01,
 Gaussian 16:  ES64L-G16RevB.01 20-Dec-2017

 -------------------------
 #P B3LYP/6-311+g(d) force
 -------------------------

 -----
 DPGEN
 -----
 Symbolic Z-matrix:
 Charge =  0 Multiplicity = 2

                         Standard orientation:
 ---------------------------------------------------------------------
 Center     Atomic      Atomic             Coordinates (Angstroms)
 Number     Number       Type             X           Y           Z
 ---------------------------------------------------------------------
      1         11           0       -0.232848    0.051127   -1.657781
      2         11           0        0.541824   -2.146847   -0.002554
      3         11           0       -2.236012   -1.561954    0.059408
      4         11           0       -2.199851    1.656528    0.190573
      5         11           0        0.693513    2.131939    0.022792
      6         11           0        2.610454   -0.024734   -0.553958
      7         11           0        0.822920   -0.106059    1.941521
 ---------------------------------------------------------------------

 SCF Done:  E(UB3LYP) =  -1136.10286539     A.U. after   19 cycles

 The electronic state is 2-A.
 Alpha  occ. eigenvalues --  -38.44201 -38.43736 -38.43726 -38.43587 -38.43519
 Alpha  occ. eigenvalues --  -38.43272 -38.43225  -2.20274  -2.19952  -2.19805
 Alpha  occ. eigenvalues --   -2.19564  -2.19474  -2.19410  -2.19345  -1.14044
 Alpha  occ. eigenvalues --   -1.13971  -1.13858  -1.13764  -1.13724  -1.13635
 Alpha  occ. eigenvalues --   -1.13497  -1.13463  -1.13408  -1.13369  -1.13246
 Alpha  occ. eigenvalues --   -1.13220  -1.13191  -1.13109  -1.13081  -1.13041
 Alpha  occ. eigenvalues --   -1.13031  -1.12985  -1.12968  -1.12920  -1.12876
 Alpha  occ. eigenvalues --   -0.20888  -0.13616  -0.12900  -0.11946
 Alpha virt. eigenvalues --   -0.05099  -0.04676  -0.04145  -0.03535  -0.03203
 Alpha virt. eigenvalues --   -0.02867  -0.01120  -0.00551  -0.00090   0.00371
 Alpha virt. eigenvalues --    0.00546   0.00687   0.00987   0.01085   0.01102

  Beta  occ. eigenvalues --  -38.44110 -38.43714 -38.43645 -38.43585 -38.43516
  Beta  occ. eigenvalues --  -38.43254 -38.43208  -2.20108  -2.19809  -2.19769
  Beta  occ. eigenvalues --   -2.19562  -2.19471  -2.19386  -2.19322  -1.13948
  Beta  occ. eigenvalues --   -1.13852  -1.13741  -1.13684  -1.13634  -1.13551
  Beta  occ. eigenvalues --   -1.13480  -1.13419  -1.13358  -1.13328  -1.13242
  Beta  occ. eigenvalues --   -1.13208  -1.13160  -1.13087  -1.13076  -1.13024
  Beta  occ. eigenvalues --   -1.12972  -1.12951  -1.12913  -1.12889  -1.12868
  Beta  occ. eigenvalues --   -0.20061  -0.13348  -0.12567
  Beta virt. eigenvalues --   -0.07757  -0.05058  -0.04633  -0.04164  -0.02730
  Beta virt. eigenvalues --   -0.02302  -0.01736  -0.01038  -0.00507   0.00078
  Beta virt. eigenvalues --    0.00411   0.00522   0.00652   0.01034   0.01087

 Mulliken charges and spin densities:
               1          2
     1  Na  -0.159565   0.269853
     2  Na   0.240760   0.132450
     3  Na  -0.125840  -0.035950
     4  Na  -0.167977  -0.023140
     5  Na   0.135940   0.132061
     6  Na   0.473861   0.019541
     7  Na  -0.397179   0.505186
 Sum of Mulliken charges =  -0.00000   1.00000

 Dipole moment (field-independent basis, Debye):
    X=             -0.1752    Y=              0.0513    Z=              0.3629  Tot=              0.4062
 Quadrupole moment (field-independent basis, Debye-Ang):
   XX=            -59.1254   YY=            -68.9222   ZZ=            -68.8711
   XY=             -0.0862   XZ=             -1.8961   YZ=              0.3101

 Normal termination of Gaussian 16 at Sat Dec  9 07:24:07 2023.
