 Gaussian 16, Revision B.01,
 Gaussian 16:  ES64L-G16RevB.01 20-Dec-2017

 -------------------------
 #P B3LYP/6-311+g(d) force
 -------------------------

 -----
 DPGEN
 -----
 Symbolic Z-matrix:
 Charge =  0 Multiplicity = 2

                         Standard orientation:
 ---------------------------------------------------------------------
 Center     Atomic      Atomic             Coordinates (Angstroms)
 Number     Number       Type             X           Y           Z
 ---------------------------------------------------------------------
      1         11           0        0.229409   -2.136212   -1.018497
      2         11           0       -0.050715   -0.749857    2.633862
      3         11           0        1.790189    2.077969    0.462308
      4         11           0       -2.746105   -1.279660    0.138357
      5         11           0       -0.378962    0.775037   -2.224794
      6         11           0       -1.562700    2.348999    0.221271
      7         11           0        2.718884   -1.036276   -0.212506
 ---------------------------------------------------------------------

 SCF Done:  E(UB3LYP) =  -1136.12749115     A.U. after   21 cycles

 The electronic state is 2-A.
 Alpha  occ. eigenvalues --  -38.45502 -38.44648 -38.43511 -38.43345 -38.43326
 Alpha  occ. eigenvalues --  -38.43288 -38.43274  -2.21299  -2.20547  -2.19329
 Alpha  occ. eigenvalues --   -2.19253  -2.19216  -2.19171  -2.19142  -1.14944
 Alpha  occ. eigenvalues --   -1.14926  -1.14918  -1.14224  -1.14207  -1.14148
 Alpha  occ. eigenvalues --   -1.13169  -1.13018  -1.12996  -1.12970  -1.12924
 Alpha  occ. eigenvalues --   -1.12896  -1.12867  -1.12863  -1.12841  -1.12826
 Alpha  occ. eigenvalues --   -1.12822  -1.12800  -1.12785  -1.12746  -1.12737
 Alpha  occ. eigenvalues --   -0.18559  -0.12473  -0.12354  -0.12251
 Alpha virt. eigenvalues --   -0.05293  -0.04864  -0.04285  -0.03837  -0.03633
 Alpha virt. eigenvalues --   -0.03502  -0.00943  -0.00657  -0.00560   0.00212
 Alpha virt. eigenvalues --    0.00328   0.00415   0.00510   0.00706   0.00858

  Beta  occ. eigenvalues --  -38.45399 -38.44580 -38.43511 -38.43344 -38.43320
  Beta  occ. eigenvalues --  -38.43285 -38.43248  -2.21110  -2.20424  -2.19333
  Beta  occ. eigenvalues --   -2.19244  -2.19182  -2.19162  -2.19140  -1.14814
  Beta  occ. eigenvalues --   -1.14799  -1.14780  -1.14141  -1.14114  -1.14063
  Beta  occ. eigenvalues --   -1.13158  -1.13022  -1.12987  -1.12966  -1.12917
  Beta  occ. eigenvalues --   -1.12863  -1.12861  -1.12846  -1.12824  -1.12809
  Beta  occ. eigenvalues --   -1.12797  -1.12784  -1.12780  -1.12745  -1.12723
  Beta  occ. eigenvalues --   -0.17740  -0.12302  -0.12074
  Beta virt. eigenvalues --   -0.08324  -0.04967  -0.04639  -0.04042  -0.03435
  Beta virt. eigenvalues --   -0.02852  -0.02651  -0.00866  -0.00619  -0.00196
  Beta virt. eigenvalues --    0.00195   0.00330   0.00467   0.00702   0.00903

 Mulliken charges and spin densities:
               1          2
     1  Na   0.200706   0.127231
     2  Na  -0.431910   0.551042
     3  Na  -0.062727   0.053709
     4  Na   0.094909  -0.001226
     5  Na   0.028161   0.225907
     6  Na   0.040913   0.104279
     7  Na   0.129948  -0.060941
 Sum of Mulliken charges =  -0.00000   1.00000

 Dipole moment (field-independent basis, Debye):
    X=             -0.2738    Y=              0.1174    Z=              0.5480  Tot=              0.6237
 Quadrupole moment (field-independent basis, Debye-Ang):
   XX=            -65.3378   YY=            -71.1518   ZZ=            -61.9034
   XY=              0.2618   XZ=             -0.2126   YZ=              0.0068

 Normal termination of Gaussian 16 at Sun Dec  3 21:25:54 2023.
