 Gaussian 16, Revision B.01,
 Gaussian 16:  ES64L-G16RevB.01 20-Dec-2017

 -------------------------
 #P B3LYP/6-311+g(d) force
 -------------------------

 -----
 DPGEN
 -----
 Symbolic Z-matrix:
 Charge =  0 Multiplicity = 2

                         Standard orientation:
 ---------------------------------------------------------------------
 Center     Atomic      Atomic             Coordinates (Angstroms)
 Number     Number       Type             X           Y           Z
 ---------------------------------------------------------------------
      1         11           0       -3.298462    2.011817   -0.524099
      2         11           0        2.034968   -0.326871    2.046691
      3         11           0       -0.620411   -2.896511    0.671298
      4         11           0        2.608985   -1.686616   -1.530438
      5         11           0        2.970744    1.958447   -0.914597
      6         11           0       -0.509964    2.645923    0.759687
      7         11           0       -3.185861   -1.706189   -0.508542
 ---------------------------------------------------------------------

 SCF Done:  E(UB3LYP) =  -1136.11393292     A.U. after   21 cycles

 The electronic state is 2-A.
 Alpha  occ. eigenvalues --  -38.45219 -38.45065 -38.44445 -38.44439 -38.44169
 Alpha  occ. eigenvalues --  -38.44012 -38.43805  -2.20977  -2.20832  -2.20236
 Alpha  occ. eigenvalues --   -2.20233  -2.19962  -2.19800  -2.19607  -1.14658
 Alpha  occ. eigenvalues --   -1.14621  -1.14617  -1.14505  -1.14470  -1.14455
 Alpha  occ. eigenvalues --   -1.13941  -1.13900  -1.13896  -1.13875  -1.13863
 Alpha  occ. eigenvalues --   -1.13861  -1.13681  -1.13625  -1.13598  -1.13471
 Alpha  occ. eigenvalues --   -1.13464  -1.13415  -1.13286  -1.13267  -1.13241
 Alpha  occ. eigenvalues --   -0.16492  -0.13524  -0.12500  -0.10576
 Alpha virt. eigenvalues --   -0.07192  -0.06085  -0.04197  -0.03601  -0.03309
 Alpha virt. eigenvalues --   -0.02328  -0.01656  -0.01514  -0.01409  -0.00797
 Alpha virt. eigenvalues --   -0.00328  -0.00232   0.00163   0.00445   0.00555

  Beta  occ. eigenvalues --  -38.45195 -38.45008 -38.44435 -38.44374 -38.44169
  Beta  occ. eigenvalues --  -38.44002 -38.43800  -2.20935  -2.20728  -2.20224
  Beta  occ. eigenvalues --   -2.20105  -2.19961  -2.19783  -2.19598  -1.14630
  Beta  occ. eigenvalues --   -1.14597  -1.14566  -1.14434  -1.14401  -1.14371
  Beta  occ. eigenvalues --   -1.13936  -1.13889  -1.13856  -1.13807  -1.13783
  Beta  occ. eigenvalues --   -1.13768  -1.13680  -1.13624  -1.13595  -1.13458
  Beta  occ. eigenvalues --   -1.13453  -1.13402  -1.13282  -1.13257  -1.13228
  Beta  occ. eigenvalues --   -0.15934  -0.13163  -0.12482
  Beta virt. eigenvalues --   -0.07063  -0.06937  -0.05731  -0.03797  -0.03238
  Beta virt. eigenvalues --   -0.02943  -0.01725  -0.01504  -0.01435  -0.01171
  Beta virt. eigenvalues --   -0.00722  -0.00219   0.00107   0.00397   0.00552

 Mulliken charges and spin densities:
               1          2
     1  Na   0.250952   0.030368
     2  Na   0.125250   0.440168
     3  Na  -0.186894   0.043790
     4  Na  -0.015525   0.336201
     5  Na   0.301466   0.138234
     6  Na  -0.453540  -0.008963
     7  Na  -0.021708   0.020200
 Sum of Mulliken charges =  -0.00000   1.00000

 Dipole moment (field-independent basis, Debye):
    X=              0.4920    Y=              0.2181    Z=             -0.4513  Tot=              0.7023
 Quadrupole moment (field-independent basis, Debye-Ang):
   XX=            -61.3267   YY=            -65.7596   ZZ=            -72.6606
   XY=              1.2824   XZ=              2.7095   YZ=             -0.3461

 Normal termination of Gaussian 16 at Sun Dec  3 21:11:10 2023.
