 Gaussian 16, Revision B.01,
 Gaussian 16:  ES64L-G16RevB.01 20-Dec-2017

 -------------------------
 #P B3LYP/6-311+g(d) force
 -------------------------

 -----
 DPGEN
 -----
 Symbolic Z-matrix:
 Charge =  0 Multiplicity = 2

                         Standard orientation:
 ---------------------------------------------------------------------
 Center     Atomic      Atomic             Coordinates (Angstroms)
 Number     Number       Type             X           Y           Z
 ---------------------------------------------------------------------
      1         11           0        0.286606    2.112543    0.329894
      2         11           0       -2.907348   -1.082212   -1.500908
      3         11           0        3.500807    0.635706   -1.159936
      4         11           0        2.298718   -0.972086    1.809616
      5         11           0        1.090745   -0.867009   -1.291853
      6         11           0       -1.242540   -1.273914    1.311489
      7         11           0       -3.026988    1.446972    0.501698
 ---------------------------------------------------------------------

 SCF Done:  E(UB3LYP) =  -1136.11780715     A.U. after   27 cycles

 The electronic state is 2-A.
 Alpha  occ. eigenvalues --  -38.44777 -38.44576 -38.44320 -38.44275 -38.43758
 Alpha  occ. eigenvalues --  -38.43359 -38.43098  -2.20663  -2.20434  -2.20238
 Alpha  occ. eigenvalues --   -2.20174  -2.19628  -2.19264  -2.18933  -1.14476
 Alpha  occ. eigenvalues --   -1.14287  -1.14258  -1.14092  -1.14080  -1.14066
 Alpha  occ. eigenvalues --   -1.13924  -1.13890  -1.13835  -1.13834  -1.13800
 Alpha  occ. eigenvalues --   -1.13792  -1.13313  -1.13287  -1.13266  -1.12961
 Alpha  occ. eigenvalues --   -1.12924  -1.12890  -1.12642  -1.12606  -1.12537
 Alpha  occ. eigenvalues --   -0.18583  -0.14727  -0.11453  -0.10823
 Alpha virt. eigenvalues --   -0.06749  -0.05561  -0.04804  -0.03256  -0.02551
 Alpha virt. eigenvalues --   -0.02472  -0.02108  -0.01293  -0.00828  -0.00076
 Alpha virt. eigenvalues --    0.00082   0.00262   0.00394   0.00515   0.00668

  Beta  occ. eigenvalues --  -38.44741 -38.44526 -38.44273 -38.44244 -38.43753
  Beta  occ. eigenvalues --  -38.43342 -38.43081  -2.20599  -2.20339  -2.20183
  Beta  occ. eigenvalues --   -2.20088  -2.19621  -2.19237  -2.18905  -1.14422
  Beta  occ. eigenvalues --   -1.14240  -1.14218  -1.14031  -1.14014  -1.14004
  Beta  occ. eigenvalues --   -1.13878  -1.13849  -1.13790  -1.13762  -1.13744
  Beta  occ. eigenvalues --   -1.13735  -1.13303  -1.13282  -1.13251  -1.12949
  Beta  occ. eigenvalues --   -1.12885  -1.12857  -1.12627  -1.12571  -1.12515
  Beta  occ. eigenvalues --   -0.17967  -0.14404  -0.10511
  Beta virt. eigenvalues --   -0.07743  -0.06566  -0.04809  -0.04746  -0.02927
  Beta virt. eigenvalues --   -0.02359  -0.01977  -0.01533  -0.00840  -0.00655
  Beta virt. eigenvalues --    0.00059   0.00156   0.00366   0.00459   0.00619

 Mulliken charges and spin densities:
               1          2
     1  Na  -0.688588   0.189025
     2  Na   0.264608   0.250456
     3  Na   1.422676   0.069514
     4  Na   0.134047   0.167639
     5  Na  -1.153376   0.166657
     6  Na  -0.263472   0.374372
     7  Na   0.284105  -0.217664
 Sum of Mulliken charges =  -0.00000   1.00000

 Dipole moment (field-independent basis, Debye):
    X=              0.5566    Y=             -0.2435    Z=             -0.0773  Tot=              0.6124
 Quadrupole moment (field-independent basis, Debye-Ang):
   XX=            -47.6829   YY=            -81.2979   ZZ=            -66.5444
   XY=              1.3669   XZ=              2.5096   YZ=              1.2008

 Normal termination of Gaussian 16 at Tue Dec  5 19:21:51 2023.
