 Gaussian 16, Revision B.01,
 Gaussian 16:  ES64L-G16RevB.01 20-Dec-2017

 -------------------------
 #P B3LYP/6-311+g(d) force
 -------------------------

 -----
 DPGEN
 -----
 Symbolic Z-matrix:
 Charge =  0 Multiplicity = 2

                         Standard orientation:
 ---------------------------------------------------------------------
 Center     Atomic      Atomic             Coordinates (Angstroms)
 Number     Number       Type             X           Y           Z
 ---------------------------------------------------------------------
      1         11           0       -1.689059   -2.251286   -0.161126
      2         11           0        0.261506   -0.287030    2.133955
      3         11           0        2.761565    1.110679    0.136759
      4         11           0        1.999825   -2.384325   -0.526004
      5         11           0        0.085303    0.304597   -1.338850
      6         11           0       -0.023884    2.923422   -0.258848
      7         11           0       -3.395257    0.583942    0.014114
 ---------------------------------------------------------------------

 SCF Done:  E(UB3LYP) =  -1136.13222203     A.U. after   20 cycles

 The electronic state is 2-A.
 Alpha  occ. eigenvalues --  -38.44295 -38.43952 -38.43598 -38.43560 -38.43537
 Alpha  occ. eigenvalues --  -38.43475 -38.43000  -2.20085  -2.19843  -2.19480
 Alpha  occ. eigenvalues --   -2.19428  -2.19424  -2.19308  -2.19076  -1.13758
 Alpha  occ. eigenvalues --   -1.13748  -1.13725  -1.13552  -1.13509  -1.13467
 Alpha  occ. eigenvalues --   -1.13275  -1.13154  -1.13122  -1.13113  -1.13092
 Alpha  occ. eigenvalues --   -1.13078  -1.13056  -1.13043  -1.13023  -1.12988
 Alpha  occ. eigenvalues --   -1.12954  -1.12948  -1.12740  -1.12691  -1.12671
 Alpha  occ. eigenvalues --   -0.18726  -0.13120  -0.12448  -0.10620
 Alpha virt. eigenvalues --   -0.05808  -0.05135  -0.04691  -0.03096  -0.02778
 Alpha virt. eigenvalues --   -0.02395  -0.01680  -0.01189  -0.00437  -0.00293
 Alpha virt. eigenvalues --   -0.00008   0.00326   0.00803   0.00849   0.00880

  Beta  occ. eigenvalues --  -38.44298 -38.43944 -38.43554 -38.43530 -38.43495
  Beta  occ. eigenvalues --  -38.43461 -38.42951  -2.20091  -2.19832  -2.19419
  Beta  occ. eigenvalues --   -2.19417  -2.19290  -2.19283  -2.18989  -1.13763
  Beta  occ. eigenvalues --   -1.13744  -1.13730  -1.13546  -1.13468  -1.13464
  Beta  occ. eigenvalues --   -1.13255  -1.13121  -1.13071  -1.13041  -1.13035
  Beta  occ. eigenvalues --   -1.13021  -1.13016  -1.12966  -1.12961  -1.12958
  Beta  occ. eigenvalues --   -1.12936  -1.12926  -1.12672  -1.12633  -1.12608
  Beta  occ. eigenvalues --   -0.18013  -0.12924  -0.12193
  Beta virt. eigenvalues --   -0.06664  -0.05753  -0.05123  -0.04635  -0.02339
  Beta virt. eigenvalues --   -0.02046  -0.01616  -0.01318  -0.01108  -0.00461
  Beta virt. eigenvalues --   -0.00331   0.00153   0.00367   0.00845   0.00865

 Mulliken charges and spin densities:
               1          2
     1  Na   0.189278   0.005886
     2  Na  -0.503729   0.695064
     3  Na   0.425202   0.115469
     4  Na   0.143231   0.039635
     5  Na  -0.572940   0.160370
     6  Na   0.312270   0.011041
     7  Na   0.006690  -0.027466
 Sum of Mulliken charges =  -0.00000   1.00000

 Dipole moment (field-independent basis, Debye):
    X=             -0.1437    Y=              0.0596    Z=              0.2926  Tot=              0.3314
 Quadrupole moment (field-independent basis, Debye-Ang):
   XX=            -54.7204   YY=            -62.3523   ZZ=            -75.4652
   XY=             -1.0552   XZ=             -0.4917   YZ=              1.3654

 Normal termination of Gaussian 16 at Tue Dec  5 13:26:53 2023.
