 Gaussian 16, Revision B.01,
 Gaussian 16:  ES64L-G16RevB.01 20-Dec-2017

 -------------------------
 #P B3LYP/6-311+g(d) force
 -------------------------

 -----
 DPGEN
 -----
 Symbolic Z-matrix:
 Charge =  0 Multiplicity = 2

                         Standard orientation:
 ---------------------------------------------------------------------
 Center     Atomic      Atomic             Coordinates (Angstroms)
 Number     Number       Type             X           Y           Z
 ---------------------------------------------------------------------
      1         11           0       -0.913914   -0.439152    1.396498
      2         11           0       -1.747255    2.982851    0.002951
      3         11           0        1.851306   -2.118630    0.041318
      4         11           0       -1.938472   -2.760651   -0.417596
      5         11           0       -4.079687    0.343826   -0.569262
      6         11           0        1.987645    1.702547   -0.094688
      7         11           0        4.840377    0.289210   -0.359220
 ---------------------------------------------------------------------

 SCF Done:  E(UB3LYP) =  -1136.12745034     A.U. after   19 cycles

 The electronic state is 2-A.
 Alpha  occ. eigenvalues --  -38.44582 -38.44098 -38.44067 -38.44046 -38.43992
 Alpha  occ. eigenvalues --  -38.43847 -38.43555  -2.20371  -2.19986  -2.19882
 Alpha  occ. eigenvalues --   -2.19857  -2.19810  -2.19679  -2.19336  -1.14075
 Alpha  occ. eigenvalues --   -1.14064  -1.13959  -1.13713  -1.13667  -1.13600
 Alpha  occ. eigenvalues --   -1.13578  -1.13564  -1.13534  -1.13525  -1.13495
 Alpha  occ. eigenvalues --   -1.13485  -1.13479  -1.13465  -1.13416  -1.13322
 Alpha  occ. eigenvalues --   -1.13320  -1.13283  -1.13018  -1.12991  -1.12980
 Alpha  occ. eigenvalues --   -0.17105  -0.14117  -0.12215  -0.10593
 Alpha virt. eigenvalues --   -0.06163  -0.05597  -0.04795  -0.03579  -0.02706
 Alpha virt. eigenvalues --   -0.02472  -0.01611  -0.01440  -0.01159  -0.00754
 Alpha virt. eigenvalues --   -0.00413   0.00195   0.00516   0.00567   0.00579

  Beta  occ. eigenvalues --  -38.44572 -38.44068 -38.44055 -38.43990 -38.43978
  Beta  occ. eigenvalues --  -38.43782 -38.43550  -2.20355  -2.19933  -2.19867
  Beta  occ. eigenvalues --   -2.19808  -2.19729  -2.19556  -2.19329  -1.14064
  Beta  occ. eigenvalues --   -1.14045  -1.13941  -1.13684  -1.13617  -1.13574
  Beta  occ. eigenvalues --   -1.13562  -1.13546  -1.13488  -1.13486  -1.13463
  Beta  occ. eigenvalues --   -1.13437  -1.13410  -1.13395  -1.13379  -1.13240
  Beta  occ. eigenvalues --   -1.13235  -1.13207  -1.13015  -1.12989  -1.12957
  Beta  occ. eigenvalues --   -0.16519  -0.13462  -0.11973
  Beta virt. eigenvalues --   -0.07194  -0.06047  -0.05396  -0.04228  -0.03223
  Beta virt. eigenvalues --   -0.02231  -0.02154  -0.01482  -0.01253  -0.00828
  Beta virt. eigenvalues --   -0.00662  -0.00080   0.00374   0.00620   0.00652

 Mulliken charges and spin densities:
               1          2
     1  Na   0.341143   0.118734
     2  Na  -0.069818  -0.155494
     3  Na  -0.152612  -0.032785
     4  Na  -0.068551   0.055991
     5  Na  -0.079925   0.418818
     6  Na  -1.102574   0.121972
     7  Na   1.132337   0.472764
 Sum of Mulliken charges =  -0.00000   1.00000

 Dipole moment (field-independent basis, Debye):
    X=              0.2545    Y=             -0.6611    Z=             -0.1436  Tot=              0.7228
 Quadrupole moment (field-independent basis, Debye-Ang):
   XX=            -64.4414   YY=            -64.8530   ZZ=            -69.9352
   XY=             -2.3527   XZ=              0.6496   YZ=              1.1197

 Normal termination of Gaussian 16 at Sun Dec  3 23:12:35 2023.
