 Gaussian 16, Revision B.01,
 Gaussian 16:  ES64L-G16RevB.01 20-Dec-2017

 -------------------------
 #P B3LYP/6-311+g(d) force
 -------------------------

 -----
 DPGEN
 -----
 Symbolic Z-matrix:
 Charge =  0 Multiplicity = 2

                         Standard orientation:
 ---------------------------------------------------------------------
 Center     Atomic      Atomic             Coordinates (Angstroms)
 Number     Number       Type             X           Y           Z
 ---------------------------------------------------------------------
      1         11           0        3.373398   -0.322495   -1.365133
      2         11           0       -3.231439   -0.261783   -0.092920
      3         11           0       -1.623437   -2.952920   -0.034488
      4         11           0       -1.779607    2.895303   -0.026700
      5         11           0       -0.023687    0.194698   -1.016830
      6         11           0        1.612233    2.367134    1.067853
      7         11           0        1.672539   -1.919937    1.468218
 ---------------------------------------------------------------------

 SCF Done:  E(UB3LYP) =  -1136.12831672     A.U. after   20 cycles

 The electronic state is 2-A.
 Alpha  occ. eigenvalues --  -38.44379 -38.44139 -38.44018 -38.43882 -38.43781
 Alpha  occ. eigenvalues --  -38.43748 -38.43506  -2.20181  -2.19936  -2.19882
 Alpha  occ. eigenvalues --   -2.19706  -2.19604  -2.19576  -2.19451  -1.13855
 Alpha  occ. eigenvalues --   -1.13845  -1.13795  -1.13610  -1.13591  -1.13587
 Alpha  occ. eigenvalues --   -1.13557  -1.13543  -1.13538  -1.13374  -1.13354
 Alpha  occ. eigenvalues --   -1.13335  -1.13290  -1.13273  -1.13239  -1.13239
 Alpha  occ. eigenvalues --   -1.13221  -1.13191  -1.13158  -1.13101  -1.13072
 Alpha  occ. eigenvalues --   -0.17667  -0.13506  -0.12780  -0.09947
 Alpha virt. eigenvalues --   -0.06251  -0.05807  -0.05015  -0.03247  -0.02711
 Alpha virt. eigenvalues --   -0.02058  -0.01669  -0.01339  -0.00986  -0.00881
 Alpha virt. eigenvalues --   -0.00129   0.00284   0.00395   0.00606   0.00683

  Beta  occ. eigenvalues --  -38.44342 -38.44095 -38.44012 -38.43883 -38.43785
  Beta  occ. eigenvalues --  -38.43678 -38.43486  -2.20112  -2.19870  -2.19855
  Beta  occ. eigenvalues --   -2.19709  -2.19614  -2.19446  -2.19415  -1.13810
  Beta  occ. eigenvalues --   -1.13789  -1.13745  -1.13585  -1.13552  -1.13535
  Beta  occ. eigenvalues --   -1.13533  -1.13527  -1.13496  -1.13376  -1.13357
  Beta  occ. eigenvalues --   -1.13324  -1.13298  -1.13281  -1.13230  -1.13146
  Beta  occ. eigenvalues --   -1.13133  -1.13115  -1.13105  -1.13085  -1.13039
  Beta  occ. eigenvalues --   -0.17253  -0.13178  -0.12442
  Beta virt. eigenvalues --   -0.06486  -0.06049  -0.05598  -0.04687  -0.02839
  Beta virt. eigenvalues --   -0.02269  -0.01808  -0.01251  -0.01081  -0.00895
  Beta virt. eigenvalues --   -0.00620   0.00153   0.00407   0.00551   0.00722

 Mulliken charges and spin densities:
               1          2
     1  Na   0.305984   0.187780
     2  Na   0.352341   0.052321
     3  Na   0.019019  -0.023906
     4  Na   0.309250   0.000889
     5  Na  -0.467826   0.341575
     6  Na  -0.223399   0.158632
     7  Na  -0.295369   0.282708
 Sum of Mulliken charges =  -0.00000   1.00000

 Dipole moment (field-independent basis, Debye):
    X=             -0.3148    Y=              0.1955    Z=              0.4762  Tot=              0.6034
 Quadrupole moment (field-independent basis, Debye-Ang):
   XX=            -57.3187   YY=            -63.0758   ZZ=            -74.9414
   XY=             -0.2361   XZ=              1.4933   YZ=              0.9019

 Normal termination of Gaussian 16 at Sun Dec  3 23:24:22 2023.
