 Gaussian 16, Revision B.01,
 Gaussian 16:  ES64L-G16RevB.01 20-Dec-2017

 -------------------------
 #P B3LYP/6-311+g(d) force
 -------------------------

 -----
 DPGEN
 -----
 Symbolic Z-matrix:
 Charge =  0 Multiplicity = 2

                         Standard orientation:
 ---------------------------------------------------------------------
 Center     Atomic      Atomic             Coordinates (Angstroms)
 Number     Number       Type             X           Y           Z
 ---------------------------------------------------------------------
      1         11           0        2.944736   -1.514002   -0.243350
      2         11           0       -0.774433    2.704129   -0.093687
      3         11           0       -0.320792   -0.391639    2.035202
      4         11           0       -3.148773    0.292176   -0.307919
      5         11           0       -1.283303   -2.712188   -0.138489
      6         11           0        0.238174   -0.030774   -1.464354
      7         11           0        2.344392    1.652298    0.212595
 ---------------------------------------------------------------------

 SCF Done:  E(UB3LYP) =  -1136.13539354     A.U. after   19 cycles

 The electronic state is 2-A.
 Alpha  occ. eigenvalues --  -38.44304 -38.44149 -38.43618 -38.43575 -38.43410
 Alpha  occ. eigenvalues --  -38.43036 -38.42891  -2.20141  -2.19976  -2.19523
 Alpha  occ. eigenvalues --   -2.19422  -2.19307  -2.19064  -2.18784  -1.13812
 Alpha  occ. eigenvalues --   -1.13804  -1.13778  -1.13658  -1.13644  -1.13610
 Alpha  occ. eigenvalues --   -1.13233  -1.13173  -1.13156  -1.13119  -1.13101
 Alpha  occ. eigenvalues --   -1.13047  -1.12973  -1.12926  -1.12918  -1.12761
 Alpha  occ. eigenvalues --   -1.12713  -1.12685  -1.12460  -1.12431  -1.12425
 Alpha  occ. eigenvalues --   -0.18813  -0.13366  -0.12331  -0.10569
 Alpha virt. eigenvalues --   -0.05978  -0.05174  -0.04465  -0.03250  -0.02702
 Alpha virt. eigenvalues --   -0.02350  -0.01785  -0.01095  -0.00497  -0.00183
 Alpha virt. eigenvalues --   -0.00010   0.00330   0.00787   0.00831   0.00907

  Beta  occ. eigenvalues --  -38.44295 -38.44145 -38.43612 -38.43570 -38.43313
  Beta  occ. eigenvalues --  -38.42983 -38.42886  -2.20127  -2.19971  -2.19514
  Beta  occ. eigenvalues --   -2.19416  -2.19127  -2.18969  -2.18778  -1.13797
  Beta  occ. eigenvalues --   -1.13783  -1.13768  -1.13655  -1.13629  -1.13604
  Beta  occ. eigenvalues --   -1.13226  -1.13159  -1.13139  -1.13112  -1.13067
  Beta  occ. eigenvalues --   -1.13047  -1.12857  -1.12801  -1.12791  -1.12690
  Beta  occ. eigenvalues --   -1.12648  -1.12614  -1.12452  -1.12427  -1.12400
  Beta  occ. eigenvalues --   -0.18103  -0.13129  -0.12085
  Beta virt. eigenvalues --   -0.06670  -0.05928  -0.05126  -0.04454  -0.02474
  Beta virt. eigenvalues --   -0.01954  -0.01691  -0.01300  -0.01020  -0.00541
  Beta virt. eigenvalues --   -0.00215   0.00148   0.00371   0.00829   0.00849

 Mulliken charges and spin densities:
               1          2
     1  Na   0.277043  -0.034673
     2  Na   0.142771   0.038306
     3  Na  -0.567454   0.670231
     4  Na   0.224978   0.033494
     5  Na   0.206206  -0.070352
     6  Na  -0.544716   0.249696
     7  Na   0.261172   0.113299
 Sum of Mulliken charges =  -0.00000   1.00000

 Dipole moment (field-independent basis, Debye):
    X=             -0.0469    Y=             -0.3614    Z=              0.1475  Tot=              0.3931
 Quadrupole moment (field-independent basis, Debye-Ang):
   XX=            -54.1202   YY=            -63.3552   ZZ=            -75.2619
   XY=             -0.7334   XZ=              1.2422   YZ=              1.0834

 Normal termination of Gaussian 16 at Thu Dec  7 03:39:59 2023.
