 Gaussian 16, Revision B.01,
 Gaussian 16:  ES64L-G16RevB.01 20-Dec-2017

 -------------------------
 #P B3LYP/6-311+g(d) force
 -------------------------

 -----
 DPGEN
 -----
 Symbolic Z-matrix:
 Charge =  0 Multiplicity = 2

                         Standard orientation:
 ---------------------------------------------------------------------
 Center     Atomic      Atomic             Coordinates (Angstroms)
 Number     Number       Type             X           Y           Z
 ---------------------------------------------------------------------
      1         11           0        1.476721    2.030218   -0.128633
      2         11           0       -0.881831    0.067949    1.707392
      3         11           0        1.733877   -2.106386    1.343918
      4         11           0       -1.825623    2.433596    0.158344
      5         11           0       -0.301614   -1.076112   -1.739769
      6         11           0        3.457761   -0.014758   -0.811894
      7         11           0       -3.659292   -1.334508   -0.529357
 ---------------------------------------------------------------------

 SCF Done:  E(UB3LYP) =  -1136.12324432     A.U. after   21 cycles

 The electronic state is 2-A.
 Alpha  occ. eigenvalues --  -38.44565 -38.44512 -38.44441 -38.43954 -38.43674
 Alpha  occ. eigenvalues --  -38.43422 -38.43133  -2.20369  -2.20308  -2.20279
 Alpha  occ. eigenvalues --   -2.19794  -2.19617  -2.19291  -2.19040  -1.14060
 Alpha  occ. eigenvalues --   -1.14046  -1.14038  -1.13981  -1.13949  -1.13946
 Alpha  occ. eigenvalues --   -1.13933  -1.13916  -1.13902  -1.13474  -1.13433
 Alpha  occ. eigenvalues --   -1.13413  -1.13344  -1.13290  -1.13219  -1.12956
 Alpha  occ. eigenvalues --   -1.12946  -1.12899  -1.12707  -1.12698  -1.12682
 Alpha  occ. eigenvalues --   -0.18215  -0.13611  -0.11806  -0.11167
 Alpha virt. eigenvalues --   -0.06562  -0.05243  -0.04425  -0.03276  -0.02835
 Alpha virt. eigenvalues --   -0.02557  -0.02244  -0.01178  -0.00660  -0.00112
 Alpha virt. eigenvalues --    0.00036   0.00188   0.00400   0.00682   0.00749

  Beta  occ. eigenvalues --  -38.44531 -38.44499 -38.44420 -38.43892 -38.43611
  Beta  occ. eigenvalues --  -38.43421 -38.43122  -2.20306  -2.20269  -2.20256
  Beta  occ. eigenvalues --   -2.19680  -2.19505  -2.19290  -2.19022  -1.14019
  Beta  occ. eigenvalues --   -1.14016  -1.13990  -1.13939  -1.13929  -1.13915
  Beta  occ. eigenvalues --   -1.13909  -1.13893  -1.13882  -1.13383  -1.13359
  Beta  occ. eigenvalues --   -1.13335  -1.13266  -1.13213  -1.13146  -1.12947
  Beta  occ. eigenvalues --   -1.12930  -1.12900  -1.12698  -1.12690  -1.12643
  Beta  occ. eigenvalues --   -0.17585  -0.13342  -0.11459
  Beta virt. eigenvalues --   -0.07436  -0.06338  -0.05090  -0.03995  -0.02976
  Beta virt. eigenvalues --   -0.02284  -0.02200  -0.01607  -0.01110  -0.00348
  Beta virt. eigenvalues --   -0.00027   0.00106   0.00236   0.00505   0.00738

 Mulliken charges and spin densities:
               1          2
     1  Na  -0.856880   0.052368
     2  Na   0.211530   0.166418
     3  Na  -0.248124   0.178881
     4  Na   0.287922   0.076271
     5  Na  -0.463337   0.326549
     6  Na   1.019982   0.158686
     7  Na   0.048907   0.040828
 Sum of Mulliken charges =  -0.00000   1.00000

 Dipole moment (field-independent basis, Debye):
    X=             -0.2754    Y=             -0.4220    Z=             -0.2744  Tot=              0.5738
 Quadrupole moment (field-independent basis, Debye-Ang):
   XX=            -52.1230   YY=            -72.3697   ZZ=            -71.0288
   XY=             -2.5799   XZ=             -1.2096   YZ=             -2.1128

 Normal termination of Gaussian 16 at Tue Dec  5 13:20:54 2023.
