 Gaussian 16, Revision B.01,
 Gaussian 16:  ES64L-G16RevB.01 20-Dec-2017

 -------------------------
 #P B3LYP/6-311+g(d) force
 -------------------------

 -----
 DPGEN
 -----
 Symbolic Z-matrix:
 Charge =  0 Multiplicity = 2

                         Standard orientation:
 ---------------------------------------------------------------------
 Center     Atomic      Atomic             Coordinates (Angstroms)
 Number     Number       Type             X           Y           Z
 ---------------------------------------------------------------------
      1         11           0       -1.205914    2.604983   -0.171073
      2         11           0       -3.378801   -0.264811   -0.115366
      3         11           0        0.130766    0.169026   -1.000480
      4         11           0        2.500515    2.000714   -0.087492
      5         11           0       -0.324271   -0.318910    1.899623
      6         11           0        2.998895   -1.587113   -0.002495
      7         11           0       -0.721191   -2.603889   -0.522717
 ---------------------------------------------------------------------

 SCF Done:  E(UB3LYP) =  -1136.12544690     A.U. after   20 cycles

 The electronic state is 2-A.
 Alpha  occ. eigenvalues --  -38.44645 -38.44435 -38.44043 -38.43451 -38.43349
 Alpha  occ. eigenvalues --  -38.42953 -38.42819  -2.20461  -2.20224  -2.19872
 Alpha  occ. eigenvalues --   -2.19334  -2.19252  -2.18998  -2.18909  -1.14130
 Alpha  occ. eigenvalues --   -1.14114  -1.14105  -1.13899  -1.13881  -1.13865
 Alpha  occ. eigenvalues --   -1.13581  -1.13528  -1.13492  -1.13161  -1.13057
 Alpha  occ. eigenvalues --   -1.12978  -1.12930  -1.12909  -1.12839  -1.12801
 Alpha  occ. eigenvalues --   -1.12603  -1.12569  -1.12534  -1.12506  -1.12487
 Alpha  occ. eigenvalues --   -0.18855  -0.13286  -0.12398  -0.09957
 Alpha virt. eigenvalues --   -0.06226  -0.05510  -0.04381  -0.02830  -0.02385
 Alpha virt. eigenvalues --   -0.02172  -0.01771  -0.01397  -0.00523  -0.00382
 Alpha virt. eigenvalues --   -0.00005   0.00284   0.00696   0.00796   0.00839

  Beta  occ. eigenvalues --  -38.44638 -38.44435 -38.44042 -38.43444 -38.43330
  Beta  occ. eigenvalues --  -38.42851 -38.42781  -2.20452  -2.20227  -2.19871
  Beta  occ. eigenvalues --   -2.19324  -2.19222  -2.18934  -2.18722  -1.14111
  Beta  occ. eigenvalues --   -1.14103  -1.14097  -1.13889  -1.13882  -1.13868
  Beta  occ. eigenvalues --   -1.13578  -1.13513  -1.13496  -1.13147  -1.13035
  Beta  occ. eigenvalues --   -1.12944  -1.12927  -1.12857  -1.12820  -1.12710
  Beta  occ. eigenvalues --   -1.12561  -1.12525  -1.12423  -1.12374  -1.12355
  Beta  occ. eigenvalues --   -0.18140  -0.13075  -0.12140
  Beta virt. eigenvalues --   -0.06190  -0.06038  -0.05490  -0.04327  -0.02148
  Beta virt. eigenvalues --   -0.02090  -0.01678  -0.01352  -0.00787  -0.00554
  Beta virt. eigenvalues --   -0.00374   0.00176   0.00352   0.00732   0.00810

 Mulliken charges and spin densities:
               1          2
     1  Na   0.245627   0.036261
     2  Na   0.411511   0.082120
     3  Na  -1.109871   0.099887
     4  Na   0.253123   0.010080
     5  Na  -0.288380   0.667844
     6  Na   0.247038   0.000947
     7  Na   0.240952   0.102861
 Sum of Mulliken charges =  -0.00000   1.00000

 Dipole moment (field-independent basis, Debye):
    X=              0.0852    Y=             -0.0737    Z=              0.3302  Tot=              0.3489
 Quadrupole moment (field-independent basis, Debye-Ang):
   XX=            -47.7878   YY=            -62.5448   ZZ=            -78.3066
   XY=             -0.5721   XZ=              0.8178   YZ=              0.8153

 Normal termination of Gaussian 16 at Thu Dec  7 09:40:54 2023.
