 Gaussian 16, Revision B.01,
 Gaussian 16:  ES64L-G16RevB.01 20-Dec-2017

 -------------------------
 #P B3LYP/6-311+g(d) force
 -------------------------

 -----
 DPGEN
 -----
 Symbolic Z-matrix:
 Charge =  0 Multiplicity = 2

                         Standard orientation:
 ---------------------------------------------------------------------
 Center     Atomic      Atomic             Coordinates (Angstroms)
 Number     Number       Type             X           Y           Z
 ---------------------------------------------------------------------
      1         11           0        0.183770    3.348431   -0.267332
      2         11           0       -0.613055   -2.057441    2.056782
      3         11           0        3.124565    1.084278    0.179723
      4         11           0       -2.923668   -1.548817   -1.469834
      5         11           0        2.552870   -2.390388   -0.499938
      6         11           0        0.044865    0.006241   -0.940730
      7         11           0       -2.369347    1.557695    0.941328
 ---------------------------------------------------------------------

 SCF Done:  E(UB3LYP) =  -1136.12709066     A.U. after   20 cycles

 The electronic state is 2-A.
 Alpha  occ. eigenvalues --  -38.44453 -38.44444 -38.44303 -38.43975 -38.43863
 Alpha  occ. eigenvalues --  -38.43457 -38.43058  -2.20243  -2.20220  -2.20116
 Alpha  occ. eigenvalues --   -2.19762  -2.19670  -2.19282  -2.19019  -1.13924
 Alpha  occ. eigenvalues --   -1.13921  -1.13902  -1.13882  -1.13868  -1.13839
 Alpha  occ. eigenvalues --   -1.13801  -1.13779  -1.13742  -1.13425  -1.13393
 Alpha  occ. eigenvalues --   -1.13380  -1.13334  -1.13309  -1.13283  -1.12966
 Alpha  occ. eigenvalues --   -1.12946  -1.12919  -1.12732  -1.12671  -1.12652
 Alpha  occ. eigenvalues --   -0.17427  -0.12966  -0.12521  -0.10288
 Alpha virt. eigenvalues --   -0.06166  -0.05605  -0.05011  -0.03098  -0.02819
 Alpha virt. eigenvalues --   -0.02084  -0.01690  -0.01567  -0.00891  -0.00782
 Alpha virt. eigenvalues --   -0.00106   0.00266   0.00476   0.00589   0.00687

  Beta  occ. eigenvalues --  -38.44455 -38.44448 -38.44288 -38.43893 -38.43793
  Beta  occ. eigenvalues --  -38.43459 -38.43037  -2.20247  -2.20230  -2.20089
  Beta  occ. eigenvalues --   -2.19608  -2.19540  -2.19288  -2.18983  -1.13926
  Beta  occ. eigenvalues --   -1.13918  -1.13906  -1.13890  -1.13869  -1.13846
  Beta  occ. eigenvalues --   -1.13785  -1.13745  -1.13724  -1.13318  -1.13289
  Beta  occ. eigenvalues --   -1.13274  -1.13238  -1.13221  -1.13198  -1.12968
  Beta  occ. eigenvalues --   -1.12945  -1.12923  -1.12683  -1.12654  -1.12625
  Beta  occ. eigenvalues --   -0.16985  -0.12750  -0.12176
  Beta virt. eigenvalues --   -0.06586  -0.05979  -0.05458  -0.04766  -0.02640
  Beta virt. eigenvalues --   -0.02374  -0.01715  -0.01479  -0.01168  -0.00770
  Beta virt. eigenvalues --   -0.00595   0.00127   0.00374   0.00605   0.00679

 Mulliken charges and spin densities:
               1          2
     1  Na   0.143416  -0.105056
     2  Na  -0.329171   0.424694
     3  Na   0.359557   0.054260
     4  Na   0.147524   0.112708
     5  Na   0.221194  -0.045379
     6  Na  -0.443964   0.378698
     7  Na  -0.098556   0.180075
 Sum of Mulliken charges =  -0.00000   1.00000

 Dipole moment (field-independent basis, Debye):
    X=              0.6176    Y=              0.0645    Z=              0.2730  Tot=              0.6783
 Quadrupole moment (field-independent basis, Debye-Ang):
   XX=            -57.7653   YY=            -61.2881   ZZ=            -74.4842
   XY=             -1.4854   XZ=             -0.6892   YZ=              2.1311

 Normal termination of Gaussian 16 at Tue Dec  5 23:34:20 2023.
