 Gaussian 16, Revision B.01,
 Gaussian 16:  ES64L-G16RevB.01 20-Dec-2017

 -------------------------
 #P B3LYP/6-311+g(d) force
 -------------------------

 -----
 DPGEN
 -----
 Symbolic Z-matrix:
 Charge =  0 Multiplicity = 2

                         Standard orientation:
 ---------------------------------------------------------------------
 Center     Atomic      Atomic             Coordinates (Angstroms)
 Number     Number       Type             X           Y           Z
 ---------------------------------------------------------------------
      1         11           0        3.651610   -1.505485   -0.414517
      2         11           0       -1.362003    2.393038   -0.106508
      3         11           0        2.042970    2.354101    0.445477
      4         11           0       -3.487642    0.171591   -0.175331
      5         11           0        0.542956   -0.758002    1.952480
      6         11           0       -2.005662   -2.514931    0.061717
      7         11           0        0.617770   -0.140311   -1.763319
 ---------------------------------------------------------------------

 SCF Done:  E(UB3LYP) =  -1136.12267416     A.U. after   22 cycles

 The electronic state is 2-A.
 Alpha  occ. eigenvalues --  -38.44863 -38.44506 -38.44428 -38.44222 -38.43882
 Alpha  occ. eigenvalues --  -38.43839 -38.43012  -2.20621  -2.20366  -2.20265
 Alpha  occ. eigenvalues --   -2.20030  -2.19708  -2.19667  -2.18874  -1.14287
 Alpha  occ. eigenvalues --   -1.14283  -1.14251  -1.14068  -1.14029  -1.14007
 Alpha  occ. eigenvalues --   -1.13951  -1.13916  -1.13879  -1.13699  -1.13690
 Alpha  occ. eigenvalues --   -1.13661  -1.13376  -1.13365  -1.13363  -1.13332
 Alpha  occ. eigenvalues --   -1.13298  -1.13280  -1.12557  -1.12537  -1.12516
 Alpha  occ. eigenvalues --   -0.17840  -0.13570  -0.11906  -0.10520
 Alpha virt. eigenvalues --   -0.06797  -0.05883  -0.04108  -0.03371  -0.02787
 Alpha virt. eigenvalues --   -0.02487  -0.02222  -0.01548  -0.00829  -0.00215
 Alpha virt. eigenvalues --   -0.00160   0.00157   0.00480   0.00628   0.00683

  Beta  occ. eigenvalues --  -38.44843 -38.44502 -38.44378 -38.44206 -38.43880
  Beta  occ. eigenvalues --  -38.43755 -38.43011  -2.20586  -2.20360  -2.20172
  Beta  occ. eigenvalues --   -2.20003  -2.19706  -2.19512  -2.18873  -1.14262
  Beta  occ. eigenvalues --   -1.14247  -1.14230  -1.14068  -1.14026  -1.13992
  Beta  occ. eigenvalues --   -1.13882  -1.13856  -1.13808  -1.13674  -1.13659
  Beta  occ. eigenvalues --   -1.13647  -1.13377  -1.13361  -1.13340  -1.13232
  Beta  occ. eigenvalues --   -1.13192  -1.13168  -1.12559  -1.12535  -1.12498
  Beta  occ. eigenvalues --   -0.17238  -0.13320  -0.11644
  Beta virt. eigenvalues --   -0.06929  -0.06512  -0.05759  -0.03976  -0.02820
  Beta virt. eigenvalues --   -0.02323  -0.01973  -0.01610  -0.01329  -0.00823
  Beta virt. eigenvalues --   -0.00169   0.00000   0.00226   0.00622   0.00694

 Mulliken charges and spin densities:
               1          2
     1  Na   0.034047   0.035037
     2  Na   0.147297   0.017447
     3  Na   0.123190   0.091436
     4  Na  -0.262842  -0.001656
     5  Na  -0.266865   0.410447
     6  Na   0.389681   0.081906
     7  Na  -0.164508   0.365384
 Sum of Mulliken charges =  -0.00000   1.00000

 Dipole moment (field-independent basis, Debye):
    X=              0.6964    Y=             -0.2306    Z=              0.0611  Tot=              0.7361
 Quadrupole moment (field-independent basis, Debye-Ang):
   XX=            -52.3732   YY=            -68.4423   ZZ=            -74.6759
   XY=              0.9243   XZ=              1.5192   YZ=              1.3008

 Normal termination of Gaussian 16 at Thu Dec  7 08:46:30 2023.
