 Gaussian 16, Revision B.01,
 Gaussian 16:  ES64L-G16RevB.01 20-Dec-2017

 -------------------------
 #P B3LYP/6-311+g(d) force
 -------------------------

 -----
 DPGEN
 -----
 Symbolic Z-matrix:
 Charge =  0 Multiplicity = 2

                         Standard orientation:
 ---------------------------------------------------------------------
 Center     Atomic      Atomic             Coordinates (Angstroms)
 Number     Number       Type             X           Y           Z
 ---------------------------------------------------------------------
      1         11           0       -2.092574   -2.137861   -0.252393
      2         11           0        1.408570   -2.447018    0.298745
      3         11           0       -0.132623   -0.113336    2.048778
      4         11           0       -2.812055    1.410513   -0.221594
      5         11           0        0.445529    2.870952    0.262774
      6         11           0        3.101716    0.533573   -0.411708
      7         11           0        0.081437   -0.116825   -1.724601
 ---------------------------------------------------------------------

 SCF Done:  E(UB3LYP) =  -1136.14086262     A.U. after   19 cycles

 The electronic state is 2-A.
 Alpha  occ. eigenvalues --  -38.43817 -38.43721 -38.43674 -38.43546 -38.43388
 Alpha  occ. eigenvalues --  -38.43351 -38.43334  -2.19631  -2.19578  -2.19556
 Alpha  occ. eigenvalues --   -2.19399  -2.19298  -2.19235  -2.19222  -1.13309
 Alpha  occ. eigenvalues --   -1.13293  -1.13272  -1.13254  -1.13243  -1.13210
 Alpha  occ. eigenvalues --   -1.13209  -1.13199  -1.13197  -1.13105  -1.13059
 Alpha  occ. eigenvalues --   -1.13029  -1.12984  -1.12949  -1.12916  -1.12912
 Alpha  occ. eigenvalues --   -1.12900  -1.12886  -1.12874  -1.12850  -1.12848
 Alpha  occ. eigenvalues --   -0.18678  -0.12830  -0.12541  -0.10967
 Alpha virt. eigenvalues --   -0.05370  -0.05150  -0.04720  -0.03139  -0.03066
 Alpha virt. eigenvalues --   -0.02716  -0.01415  -0.01111  -0.00328  -0.00223
 Alpha virt. eigenvalues --   -0.00008   0.00365   0.00823   0.00896   0.00910

  Beta  occ. eigenvalues --  -38.43815 -38.43714 -38.43579 -38.43539 -38.43382
  Beta  occ. eigenvalues --  -38.43340 -38.43268  -2.19629  -2.19545  -2.19403
  Beta  occ. eigenvalues --   -2.19390  -2.19221  -2.19215  -2.19177  -1.13298
  Beta  occ. eigenvalues --   -1.13291  -1.13267  -1.13226  -1.13198  -1.13190
  Beta  occ. eigenvalues --   -1.13140  -1.13092  -1.13082  -1.13076  -1.13038
  Beta  occ. eigenvalues --   -1.13018  -1.12932  -1.12901  -1.12879  -1.12873
  Beta  occ. eigenvalues --   -1.12863  -1.12846  -1.12844  -1.12826  -1.12816
  Beta  occ. eigenvalues --   -0.17940  -0.12575  -0.12299
  Beta virt. eigenvalues --   -0.07045  -0.05344  -0.05141  -0.04650  -0.02388
  Beta virt. eigenvalues --   -0.02266  -0.01659  -0.01318  -0.01048  -0.00351
  Beta virt. eigenvalues --   -0.00270   0.00113   0.00386   0.00877   0.00898

 Mulliken charges and spin densities:
               1          2
     1  Na   0.154121  -0.080671
     2  Na   0.287006   0.014670
     3  Na  -0.336397   0.680258
     4  Na  -0.014404  -0.094454
     5  Na   0.023088  -0.046142
     6  Na   0.086677  -0.032093
     7  Na  -0.200091   0.558433
 Sum of Mulliken charges =  -0.00000   1.00000

 Dipole moment (field-independent basis, Debye):
    X=             -0.1027    Y=              0.0210    Z=              0.0639  Tot=              0.1228
 Quadrupole moment (field-independent basis, Debye-Ang):
   XX=            -57.7709   YY=            -62.8035   ZZ=            -73.2095
   XY=              0.1141   XZ=              0.3100   YZ=             -0.0357

 Normal termination of Gaussian 16 at Fri Dec  8 02:13:17 2023.
