 Gaussian 16, Revision B.01,
 Gaussian 16:  ES64L-G16RevB.01 20-Dec-2017

 -------------------------
 #P B3LYP/6-311+g(d) force
 -------------------------

 -----
 DPGEN
 -----
 Symbolic Z-matrix:
 Charge =  0 Multiplicity = 2

                         Standard orientation:
 ---------------------------------------------------------------------
 Center     Atomic      Atomic             Coordinates (Angstroms)
 Number     Number       Type             X           Y           Z
 ---------------------------------------------------------------------
      1         11           0       -2.207539   -1.951103    0.162665
      2         11           0        1.056566   -2.654394   -0.356736
      3         11           0       -0.173179    0.066102   -1.581633
      4         11           0        0.259324   -0.216115    2.131193
      5         11           0        3.387930    0.388001   -0.253641
      6         11           0        0.555111    2.860493    0.138526
      7         11           0       -2.878214    1.507016   -0.240374
 ---------------------------------------------------------------------

 SCF Done:  E(UB3LYP) =  -1136.13787726     A.U. after   19 cycles

 The electronic state is 2-A.
 Alpha  occ. eigenvalues --  -38.44344 -38.43794 -38.43650 -38.43599 -38.43548
 Alpha  occ. eigenvalues --  -38.43363 -38.43160  -2.20116  -2.19613  -2.19521
 Alpha  occ. eigenvalues --   -2.19422  -2.19416  -2.19234  -2.19142  -1.13793
 Alpha  occ. eigenvalues --   -1.13767  -1.13760  -1.13298  -1.13273  -1.13254
 Alpha  occ. eigenvalues --   -1.13189  -1.13153  -1.13143  -1.13117  -1.13105
 Alpha  occ. eigenvalues --   -1.13092  -1.13076  -1.13053  -1.13036  -1.12956
 Alpha  occ. eigenvalues --   -1.12890  -1.12848  -1.12820  -1.12770  -1.12753
 Alpha  occ. eigenvalues --   -0.18476  -0.12764  -0.12520  -0.10708
 Alpha virt. eigenvalues --   -0.05820  -0.05083  -0.04748  -0.03060  -0.02923
 Alpha virt. eigenvalues --   -0.02573  -0.01694  -0.01140  -0.00453  -0.00350
 Alpha virt. eigenvalues --   -0.00030   0.00330   0.00773   0.00859   0.00872

  Beta  occ. eigenvalues --  -38.44342 -38.43791 -38.43594 -38.43549 -38.43542
  Beta  occ. eigenvalues --  -38.43353 -38.43103  -2.20115  -2.19611  -2.19416
  Beta  occ. eigenvalues --   -2.19409  -2.19334  -2.19219  -2.19039  -1.13780
  Beta  occ. eigenvalues --   -1.13765  -1.13760  -1.13289  -1.13264  -1.13253
  Beta  occ. eigenvalues --   -1.13114  -1.13110  -1.13077  -1.13063  -1.13055
  Beta  occ. eigenvalues --   -1.13041  -1.13036  -1.13019  -1.12994  -1.12933
  Beta  occ. eigenvalues --   -1.12860  -1.12839  -1.12750  -1.12700  -1.12677
  Beta  occ. eigenvalues --   -0.17752  -0.12558  -0.12287
  Beta virt. eigenvalues --   -0.06774  -0.05789  -0.05076  -0.04679  -0.02316
  Beta virt. eigenvalues --   -0.02162  -0.01616  -0.01505  -0.01070  -0.00479
  Beta virt. eigenvalues --   -0.00396   0.00121   0.00362   0.00825   0.00861

 Mulliken charges and spin densities:
               1          2
     1  Na   0.285670   0.048837
     2  Na   0.199998  -0.028906
     3  Na  -0.201484   0.418308
     4  Na  -0.483294   0.731264
     5  Na   0.017385  -0.075341
     6  Na   0.044327  -0.058214
     7  Na   0.137398  -0.035947
 Sum of Mulliken charges =  -0.00000   1.00000

 Dipole moment (field-independent basis, Debye):
    X=              0.1920    Y=              0.1121    Z=              0.1409  Tot=              0.2632
 Quadrupole moment (field-independent basis, Debye-Ang):
   XX=            -55.2085   YY=            -62.9628   ZZ=            -74.6942
   XY=             -0.0319   XZ=             -0.9557   YZ=              0.4784

 Normal termination of Gaussian 16 at Fri Dec  8 04:08:52 2023.
