 Gaussian 16, Revision B.01,
 Gaussian 16:  ES64L-G16RevB.01 20-Dec-2017

 -------------------------
 #P B3LYP/6-311+g(d) force
 -------------------------

 -----
 DPGEN
 -----
 Symbolic Z-matrix:
 Charge =  0 Multiplicity = 2

                         Standard orientation:
 ---------------------------------------------------------------------
 Center     Atomic      Atomic             Coordinates (Angstroms)
 Number     Number       Type             X           Y           Z
 ---------------------------------------------------------------------
      1         11           0       -0.822244    2.959851    0.248235
      2         11           0       -3.677812    0.510260    0.302998
      3         11           0       -0.444204   -0.248957   -1.473490
      4         11           0       -2.537767   -2.482687   -0.256669
      5         11           0        3.898421   -1.385730    0.143436
      6         11           0        0.666099   -0.627629    1.584625
      7         11           0        2.917508    1.274893   -0.549136
 ---------------------------------------------------------------------

 SCF Done:  E(UB3LYP) =  -1136.11611936     A.U. after   27 cycles

 The electronic state is 2-A.
 Alpha  occ. eigenvalues --  -38.45132 -38.44959 -38.44500 -38.43808 -38.43737
 Alpha  occ. eigenvalues --  -38.43383 -38.42705  -2.20978  -2.20851  -2.20378
 Alpha  occ. eigenvalues --   -2.19679  -2.19583  -2.19226  -2.18497  -1.14686
 Alpha  occ. eigenvalues --   -1.14613  -1.14596  -1.14526  -1.14500  -1.14463
 Alpha  occ. eigenvalues --   -1.14097  -1.14063  -1.13995  -1.13348  -1.13317
 Alpha  occ. eigenvalues --   -1.13284  -1.13252  -1.13231  -1.13202  -1.12909
 Alpha  occ. eigenvalues --   -1.12883  -1.12858  -1.12184  -1.12159  -1.12135
 Alpha  occ. eigenvalues --   -0.17938  -0.14429  -0.11455  -0.09986
 Alpha virt. eigenvalues --   -0.07353  -0.05487  -0.04412  -0.03377  -0.03095
 Alpha virt. eigenvalues --   -0.02123  -0.02022  -0.01487  -0.00855  -0.00510
 Alpha virt. eigenvalues --   -0.00352   0.00019   0.00382   0.00545   0.00680

  Beta  occ. eigenvalues --  -38.45090 -38.44936 -38.44474 -38.43765 -38.43662
  Beta  occ. eigenvalues --  -38.43378 -38.42705  -2.20901  -2.20813  -2.20336
  Beta  occ. eigenvalues --   -2.19602  -2.19444  -2.19221  -2.18498  -1.14624
  Beta  occ. eigenvalues --   -1.14570  -1.14543  -1.14496  -1.14467  -1.14436
  Beta  occ. eigenvalues --   -1.14071  -1.14039  -1.13928  -1.13292  -1.13269
  Beta  occ. eigenvalues --   -1.13221  -1.13158  -1.13142  -1.13101  -1.12909
  Beta  occ. eigenvalues --   -1.12878  -1.12824  -1.12186  -1.12161  -1.12124
  Beta  occ. eigenvalues --   -0.17401  -0.13754  -0.11294
  Beta virt. eigenvalues --   -0.07158  -0.06446  -0.05301  -0.04155  -0.03206
  Beta virt. eigenvalues --   -0.02454  -0.02072  -0.01672  -0.01207  -0.00638
  Beta virt. eigenvalues --   -0.00184  -0.00157   0.00266   0.00576   0.00674

 Mulliken charges and spin densities:
               1          2
     1  Na  -0.217448  -0.042402
     2  Na  -0.069057   0.496940
     3  Na  -0.228556   0.102315
     4  Na   0.360164  -0.058088
     5  Na   0.188780   0.162387
     6  Na  -0.150207   0.043941
     7  Na   0.116323   0.294908
 Sum of Mulliken charges =  -0.00000   1.00000

 Dipole moment (field-independent basis, Debye):
    X=              0.6246    Y=             -0.6957    Z=              0.3003  Tot=              0.9820
 Quadrupole moment (field-independent basis, Debye-Ang):
   XX=            -78.1915   YY=            -69.5571   ZZ=            -61.2920
   XY=              1.3003   XZ=             -1.1070   YZ=             -0.2786

 Normal termination of Gaussian 16 at Thu Dec  7 21:02:16 2023.
