 Gaussian 16, Revision B.01,
 Gaussian 16:  ES64L-G16RevB.01 20-Dec-2017

 -------------------------
 #P B3LYP/6-311+g(d) force
 -------------------------

 -----
 DPGEN
 -----
 Symbolic Z-matrix:
 Charge =  0 Multiplicity = 2

                         Standard orientation:
 ---------------------------------------------------------------------
 Center     Atomic      Atomic             Coordinates (Angstroms)
 Number     Number       Type             X           Y           Z
 ---------------------------------------------------------------------
      1         11           0       -2.447701   -1.896683   -0.257232
      2         11           0       -2.489443    1.414156   -0.130696
      3         11           0        2.708162    0.581137   -0.755465
      4         11           0        0.103275   -0.377089   -1.762311
      5         11           0        1.526037   -2.401099    0.436691
      6         11           0        0.229911   -0.117575    2.191028
      7         11           0        0.369760    2.797154    0.277985
 ---------------------------------------------------------------------

 SCF Done:  E(UB3LYP) =  -1136.13477896     A.U. after   19 cycles

 The electronic state is 2-A.
 Alpha  occ. eigenvalues --  -38.44268 -38.43669 -38.43629 -38.43554 -38.43544
 Alpha  occ. eigenvalues --  -38.43481 -38.42989  -2.20164  -2.19631  -2.19581
 Alpha  occ. eigenvalues --   -2.19431  -2.19390  -2.19352  -2.18870  -1.13834
 Alpha  occ. eigenvalues --   -1.13795  -1.13780  -1.13472  -1.13298  -1.13261
 Alpha  occ. eigenvalues --   -1.13210  -1.13196  -1.13168  -1.13121  -1.13080
 Alpha  occ. eigenvalues --   -1.13077  -1.13060  -1.13043  -1.13036  -1.13023
 Alpha  occ. eigenvalues --   -1.13013  -1.12966  -1.12540  -1.12529  -1.12513
 Alpha  occ. eigenvalues --   -0.18958  -0.13009  -0.12470  -0.11600
 Alpha virt. eigenvalues --   -0.05155  -0.04922  -0.04507  -0.03457  -0.03254
 Alpha virt. eigenvalues --   -0.03151  -0.01177  -0.00969  -0.00194   0.00036
 Alpha virt. eigenvalues --    0.00128   0.00369   0.00893   0.00936   0.00946

  Beta  occ. eigenvalues --  -38.44167 -38.43645 -38.43562 -38.43551 -38.43529
  Beta  occ. eigenvalues --  -38.43480 -38.42985  -2.19978  -2.19548  -2.19503
  Beta  occ. eigenvalues --   -2.19409  -2.19387  -2.19352  -2.18866  -1.13711
  Beta  occ. eigenvalues --   -1.13658  -1.13653  -1.13405  -1.13224  -1.13198
  Beta  occ. eigenvalues --   -1.13169  -1.13156  -1.13114  -1.13089  -1.13077
  Beta  occ. eigenvalues --   -1.13042  -1.13036  -1.13035  -1.13030  -1.13018
  Beta  occ. eigenvalues --   -1.12998  -1.12965  -1.12536  -1.12525  -1.12495
  Beta  occ. eigenvalues --   -0.18209  -0.12743  -0.12220
  Beta virt. eigenvalues --   -0.07589  -0.05153  -0.04845  -0.04461  -0.02653
  Beta virt. eigenvalues --   -0.02433  -0.02123  -0.01082  -0.00894  -0.00113
  Beta virt. eigenvalues --    0.00034   0.00143   0.00407   0.00922   0.00950

 Mulliken charges and spin densities:
               1          2
     1  Na   0.127985  -0.063532
     2  Na  -0.039431  -0.023035
     3  Na   0.390769   0.073160
     4  Na  -0.234370   0.352531
     5  Na   0.185428   0.036181
     6  Na  -0.453659   0.593761
     7  Na   0.023278   0.030934
 Sum of Mulliken charges =  -0.00000   1.00000

 Dipole moment (field-independent basis, Debye):
    X=              0.0118    Y=             -0.2751    Z=              0.2336  Tot=              0.3611
 Quadrupole moment (field-independent basis, Debye-Ang):
   XX=            -61.5691   YY=            -64.2899   ZZ=            -70.2421
   XY=              0.3790   XZ=             -0.5407   YZ=             -0.5883

 Normal termination of Gaussian 16 at Tue Dec  5 10:39:01 2023.
