 Gaussian 16, Revision B.01,
 Gaussian 16:  ES64L-G16RevB.01 20-Dec-2017

 -------------------------
 #P B3LYP/6-311+g(d) force
 -------------------------

 -----
 DPGEN
 -----
 Symbolic Z-matrix:
 Charge =  0 Multiplicity = 2

                         Standard orientation:
 ---------------------------------------------------------------------
 Center     Atomic      Atomic             Coordinates (Angstroms)
 Number     Number       Type             X           Y           Z
 ---------------------------------------------------------------------
      1         11           0        2.967439    0.324552   -0.864374
      2         11           0       -0.068505    0.462192    2.049121
      3         11           0        0.954656    3.035968    0.272380
      4         11           0       -2.377809   -1.981107    0.027242
      5         11           0       -3.441383    0.960870   -0.377288
      6         11           0        2.024315   -2.591537    0.550501
      7         11           0       -0.058712   -0.210938   -1.657582
 ---------------------------------------------------------------------

 SCF Done:  E(UB3LYP) =  -1136.12889380     A.U. after   20 cycles

 The electronic state is 2-A.
 Alpha  occ. eigenvalues --  -38.44885 -38.44176 -38.43979 -38.43971 -38.43724
 Alpha  occ. eigenvalues --  -38.43474 -38.42952  -2.20685  -2.20017  -2.19872
 Alpha  occ. eigenvalues --   -2.19848  -2.19581  -2.19268  -2.18771  -1.14364
 Alpha  occ. eigenvalues --   -1.14343  -1.14321  -1.13711  -1.13677  -1.13647
 Alpha  occ. eigenvalues --   -1.13618  -1.13553  -1.13500  -1.13498  -1.13455
 Alpha  occ. eigenvalues --   -1.13452  -1.13247  -1.13214  -1.13203  -1.12941
 Alpha  occ. eigenvalues --   -1.12924  -1.12911  -1.12450  -1.12427  -1.12417
 Alpha  occ. eigenvalues --   -0.18007  -0.13542  -0.11693  -0.10810
 Alpha virt. eigenvalues --   -0.06122  -0.05293  -0.04596  -0.03380  -0.02892
 Alpha virt. eigenvalues --   -0.02562  -0.01967  -0.01218  -0.00555  -0.00344
 Alpha virt. eigenvalues --   -0.00045   0.00305   0.00672   0.00741   0.00807

  Beta  occ. eigenvalues --  -38.44878 -38.44173 -38.43953 -38.43920 -38.43634
  Beta  occ. eigenvalues --  -38.43465 -38.42952  -2.20674  -2.20014  -2.19804
  Beta  occ. eigenvalues --   -2.19778  -2.19416  -2.19254  -2.18774  -1.14359
  Beta  occ. eigenvalues --   -1.14326  -1.14312  -1.13704  -1.13672  -1.13632
  Beta  occ. eigenvalues --   -1.13565  -1.13485  -1.13458  -1.13443  -1.13425
  Beta  occ. eigenvalues --   -1.13394  -1.13138  -1.13100  -1.13080  -1.12933
  Beta  occ. eigenvalues --   -1.12903  -1.12898  -1.12443  -1.12432  -1.12407
  Beta  occ. eigenvalues --   -0.17316  -0.13301  -0.11479
  Beta virt. eigenvalues --   -0.07008  -0.06034  -0.05216  -0.04365  -0.02801
  Beta virt. eigenvalues --   -0.02197  -0.01855  -0.01639  -0.01091  -0.00497
  Beta virt. eigenvalues --   -0.00367   0.00086   0.00356   0.00739   0.00797

 Mulliken charges and spin densities:
               1          2
     1  Na   0.392783   0.097831
     2  Na  -0.214632   0.651955
     3  Na  -0.158523  -0.067877
     4  Na   0.085199   0.064171
     5  Na   0.041210  -0.031631
     6  Na  -0.271194   0.095516
     7  Na   0.125158   0.190034
 Sum of Mulliken charges =  -0.00000   1.00000

 Dipole moment (field-independent basis, Debye):
    X=             -0.9053    Y=              0.0055    Z=             -0.0961  Tot=              0.9104
 Quadrupole moment (field-independent basis, Debye-Ang):
   XX=            -55.2014   YY=            -65.4478   ZZ=            -73.9115
   XY=             -1.1013   XZ=             -0.2281   YZ=             -2.7801

 Normal termination of Gaussian 16 at Thu Dec  7 14:09:54 2023.
