 Gaussian 16, Revision B.01,
 Gaussian 16:  ES64L-G16RevB.01 20-Dec-2017

 -------------------------
 #P B3LYP/6-311+g(d) force
 -------------------------

 -----
 DPGEN
 -----
 Symbolic Z-matrix:
 Charge =  0 Multiplicity = 2

                         Standard orientation:
 ---------------------------------------------------------------------
 Center     Atomic      Atomic             Coordinates (Angstroms)
 Number     Number       Type             X           Y           Z
 ---------------------------------------------------------------------
      1         11           0        1.678249    0.809477    1.391224
      2         11           0       -1.603502    0.115371    2.035156
      3         11           0       -1.912465    1.936545   -0.724523
      4         11           0       -3.014646   -1.691669   -0.641585
      5         11           0        1.544917    1.660609   -1.261708
      6         11           0        0.054944   -1.272985   -0.674059
      7         11           0        3.252502   -1.557347   -0.124505
 ---------------------------------------------------------------------

 SCF Done:  E(UB3LYP) =  -1136.12246259     A.U. after   23 cycles

 The electronic state is 2-A.
 Alpha  occ. eigenvalues --  -38.44085 -38.44060 -38.43965 -38.43786 -38.43782
 Alpha  occ. eigenvalues --  -38.43712 -38.43068  -2.19990  -2.19969  -2.19909
 Alpha  occ. eigenvalues --   -2.19653  -2.19636  -2.19625  -2.19065  -1.13839
 Alpha  occ. eigenvalues --   -1.13696  -1.13641  -1.13639  -1.13620  -1.13586
 Alpha  occ. eigenvalues --   -1.13577  -1.13551  -1.13485  -1.13343  -1.13330
 Alpha  occ. eigenvalues --   -1.13305  -1.13289  -1.13282  -1.13270  -1.13262
 Alpha  occ. eigenvalues --   -1.13241  -1.13194  -1.12767  -1.12727  -1.12682
 Alpha  occ. eigenvalues --   -0.19035  -0.14089  -0.11387  -0.11348
 Alpha virt. eigenvalues --   -0.05968  -0.05528  -0.04512  -0.03335  -0.02532
 Alpha virt. eigenvalues --   -0.02377  -0.01954  -0.01127  -0.00475   0.00074
 Alpha virt. eigenvalues --    0.00231   0.00348   0.00529   0.00647   0.00748

  Beta  occ. eigenvalues --  -38.44061 -38.44009 -38.43925 -38.43775 -38.43765
  Beta  occ. eigenvalues --  -38.43681 -38.43046  -2.19914  -2.19899  -2.19851
  Beta  occ. eigenvalues --   -2.19616  -2.19599  -2.19595  -2.19029  -1.13785
  Beta  occ. eigenvalues --   -1.13622  -1.13609  -1.13582  -1.13553  -1.13547
  Beta  occ. eigenvalues --   -1.13547  -1.13487  -1.13449  -1.13326  -1.13289
  Beta  occ. eigenvalues --   -1.13269  -1.13262  -1.13258  -1.13250  -1.13227
  Beta  occ. eigenvalues --   -1.13220  -1.13155  -1.12729  -1.12686  -1.12661
  Beta  occ. eigenvalues --   -0.18311  -0.13938  -0.11127
  Beta virt. eigenvalues --   -0.07325  -0.05816  -0.05490  -0.03804  -0.03066
  Beta virt. eigenvalues --   -0.01982  -0.01889  -0.01569  -0.01006  -0.00088
  Beta virt. eigenvalues --    0.00079   0.00274   0.00375   0.00647   0.00713

 Mulliken charges and spin densities:
               1          2
     1  Na   0.403306   0.273273
     2  Na   0.177435   0.122891
     3  Na  -0.318249   0.237197
     4  Na   0.911811  -0.014313
     5  Na   0.137933   0.077570
     6  Na  -2.042311   0.495302
     7  Na   0.730075  -0.191919
 Sum of Mulliken charges =  -0.00000   1.00000

 Dipole moment (field-independent basis, Debye):
    X=             -0.0430    Y=              0.1206    Z=             -0.0035  Tot=              0.1281
 Quadrupole moment (field-independent basis, Debye-Ang):
   XX=            -50.8200   YY=            -74.0149   ZZ=            -68.8232
   XY=             -1.4777   XZ=              0.0637   YZ=             -0.4378

 Normal termination of Gaussian 16 at Tue Dec  5 18:39:11 2023.
