 Gaussian 16, Revision B.01,
 Gaussian 16:  ES64L-G16RevB.01 20-Dec-2017

 -------------------------
 #P B3LYP/6-311+g(d) force
 -------------------------

 -----
 DPGEN
 -----
 Symbolic Z-matrix:
 Charge =  0 Multiplicity = 2

                         Standard orientation:
 ---------------------------------------------------------------------
 Center     Atomic      Atomic             Coordinates (Angstroms)
 Number     Number       Type             X           Y           Z
 ---------------------------------------------------------------------
      1         11           0       -3.245305   -0.221637   -0.209230
      2         11           0        0.346421   -0.562399    1.929228
      3         11           0       -1.597135    2.436794    0.198929
      4         11           0       -0.344878   -3.011919   -0.031361
      5         11           0        2.057558    2.520039   -0.066775
      6         11           0        2.927160   -0.984504   -0.379330
      7         11           0       -0.143820   -0.176375   -1.441462
 ---------------------------------------------------------------------

 SCF Done:  E(UB3LYP) =  -1136.13497362     A.U. after   20 cycles

 The electronic state is 2-A.
 Alpha  occ. eigenvalues --  -38.44212 -38.44073 -38.43779 -38.43707 -38.43536
 Alpha  occ. eigenvalues --  -38.43211 -38.42941  -2.20051  -2.19915  -2.19574
 Alpha  occ. eigenvalues --   -2.19571  -2.19393  -2.19129  -2.18954  -1.13735
 Alpha  occ. eigenvalues --   -1.13720  -1.13668  -1.13607  -1.13582  -1.13547
 Alpha  occ. eigenvalues --   -1.13279  -1.13255  -1.13246  -1.13231  -1.13220
 Alpha  occ. eigenvalues --   -1.13186  -1.13075  -1.13054  -1.13025  -1.12809
 Alpha  occ. eigenvalues --   -1.12748  -1.12743  -1.12642  -1.12591  -1.12575
 Alpha  occ. eigenvalues --   -0.18593  -0.13144  -0.12541  -0.10302
 Alpha virt. eigenvalues --   -0.05828  -0.05272  -0.04918  -0.03038  -0.02727
 Alpha virt. eigenvalues --   -0.02164  -0.01667  -0.01325  -0.00583  -0.00438
 Alpha virt. eigenvalues --    0.00015   0.00333   0.00772   0.00827   0.00872

  Beta  occ. eigenvalues --  -38.44199 -38.44069 -38.43780 -38.43698 -38.43532
  Beta  occ. eigenvalues --  -38.43119 -38.42886  -2.20029  -2.19911  -2.19576
  Beta  occ. eigenvalues --   -2.19562  -2.19388  -2.18960  -2.18856  -1.13716
  Beta  occ. eigenvalues --   -1.13685  -1.13656  -1.13606  -1.13564  -1.13543
  Beta  occ. eigenvalues --   -1.13275  -1.13242  -1.13229  -1.13221  -1.13209
  Beta  occ. eigenvalues --   -1.13184  -1.13071  -1.13040  -1.13018  -1.12699
  Beta  occ. eigenvalues --   -1.12631  -1.12621  -1.12564  -1.12520  -1.12500
  Beta  occ. eigenvalues --   -0.17903  -0.12905  -0.12313
  Beta virt. eigenvalues --   -0.06435  -0.05788  -0.05245  -0.04846  -0.02302
  Beta virt. eigenvalues --   -0.02010  -0.01574  -0.01287  -0.01120  -0.00625
  Beta virt. eigenvalues --   -0.00456   0.00170   0.00381   0.00784   0.00863

 Mulliken charges and spin densities:
               1          2
     1  Na   0.277145  -0.022316
     2  Na  -0.443958   0.770869
     3  Na  -0.005546  -0.008214
     4  Na   0.336055  -0.089137
     5  Na  -0.060620  -0.033405
     6  Na   0.260896  -0.017012
     7  Na  -0.363971   0.399216
 Sum of Mulliken charges =  -0.00000   1.00000

 Dipole moment (field-independent basis, Debye):
    X=              0.0650    Y=             -0.2108    Z=              0.0713  Tot=              0.2318
 Quadrupole moment (field-independent basis, Debye-Ang):
   XX=            -55.4884   YY=            -59.9544   ZZ=            -76.7749
   XY=              0.7132   XZ=             -0.8043   YZ=              1.0999

 Normal termination of Gaussian 16 at Sun Dec  3 19:25:00 2023.
