 Gaussian 16, Revision B.01,
 Gaussian 16:  ES64L-G16RevB.01 20-Dec-2017

 -------------------------
 #P B3LYP/6-311+g(d) force
 -------------------------

 -----
 DPGEN
 -----
 Symbolic Z-matrix:
 Charge =  0 Multiplicity = 2

                         Standard orientation:
 ---------------------------------------------------------------------
 Center     Atomic      Atomic             Coordinates (Angstroms)
 Number     Number       Type             X           Y           Z
 ---------------------------------------------------------------------
      1         11           0        0.034763    1.006698   -1.950991
      2         11           0       -0.063962   -1.663555   -0.871188
      3         11           0        2.620709   -0.907463   -0.200446
      4         11           0        1.423158    1.535563    0.581766
      5         11           0       -0.010676   -0.801430    2.056825
      6         11           0       -1.324305    1.672985    0.561104
      7         11           0       -2.679687   -0.842798   -0.177071
 ---------------------------------------------------------------------

 SCF Done:  E(UB3LYP) =  -1136.09871663     A.U. after   22 cycles

 The electronic state is 2-A.
 Alpha  occ. eigenvalues --  -38.44364 -38.44305 -38.43779 -38.43777 -38.43330
 Alpha  occ. eigenvalues --  -38.43299 -38.43177  -2.20392  -2.20386  -2.19776
 Alpha  occ. eigenvalues --   -2.19761  -2.19487  -2.19462  -2.19298  -1.14160
 Alpha  occ. eigenvalues --   -1.14122  -1.14070  -1.14033  -1.13985  -1.13974
 Alpha  occ. eigenvalues --   -1.13630  -1.13596  -1.13507  -1.13480  -1.13376
 Alpha  occ. eigenvalues --   -1.13357  -1.13351  -1.13101  -1.13096  -1.13068
 Alpha  occ. eigenvalues --   -1.13041  -1.12994  -1.12923  -1.12900  -1.12811
 Alpha  occ. eigenvalues --   -0.21074  -0.13591  -0.13036  -0.12065
 Alpha virt. eigenvalues --   -0.05214  -0.04149  -0.04012  -0.03752  -0.03411
 Alpha virt. eigenvalues --   -0.03196  -0.01152  -0.00423  -0.00279   0.00345
 Alpha virt. eigenvalues --    0.00711   0.00813   0.00988   0.01013   0.01089

  Beta  occ. eigenvalues --  -38.44278 -38.44228 -38.43775 -38.43772 -38.43306
  Beta  occ. eigenvalues --  -38.43258 -38.43155  -2.20248  -2.20239  -2.19770
  Beta  occ. eigenvalues --   -2.19756  -2.19450  -2.19395  -2.19264  -1.14075
  Beta  occ. eigenvalues --   -1.14021  -1.13958  -1.13913  -1.13879  -1.13874
  Beta  occ. eigenvalues --   -1.13615  -1.13590  -1.13498  -1.13475  -1.13344
  Beta  occ. eigenvalues --   -1.13333  -1.13331  -1.13051  -1.13031  -1.13012
  Beta  occ. eigenvalues --   -1.12989  -1.12960  -1.12893  -1.12842  -1.12793
  Beta  occ. eigenvalues --   -0.20139  -0.13294  -0.11903
  Beta virt. eigenvalues --   -0.08624  -0.05178  -0.03962  -0.03561  -0.03040
  Beta virt. eigenvalues --   -0.02816  -0.02238  -0.01088  -0.00280  -0.00146
  Beta virt. eigenvalues --    0.00365   0.00748   0.00838   0.01068   0.01091

 Mulliken charges and spin densities:
               1          2
     1  Na  -1.267213   0.407668
     2  Na   1.090535   0.178503
     3  Na  -0.028867  -0.065884
     4  Na   0.751299   0.052305
     5  Na  -1.215022   0.448627
     6  Na   0.737328   0.039631
     7  Na  -0.068060  -0.060849
 Sum of Mulliken charges =  -0.00000   1.00000

 Dipole moment (field-independent basis, Debye):
    X=             -0.0589    Y=             -0.2264    Z=              0.1084  Tot=              0.2578
 Quadrupole moment (field-independent basis, Debye-Ang):
   XX=            -60.1085   YY=            -75.1283   ZZ=            -62.3912
   XY=             -0.2359   XZ=             -0.1300   YZ=              0.5722

 Normal termination of Gaussian 16 at Fri Dec  8 20:11:56 2023.
