 Gaussian 16, Revision B.01,
 Gaussian 16:  ES64L-G16RevB.01 20-Dec-2017

 -------------------------
 #P B3LYP/6-311+g(d) force
 -------------------------

 -----
 DPGEN
 -----
 Symbolic Z-matrix:
 Charge =  0 Multiplicity = 2

                         Standard orientation:
 ---------------------------------------------------------------------
 Center     Atomic      Atomic             Coordinates (Angstroms)
 Number     Number       Type             X           Y           Z
 ---------------------------------------------------------------------
      1         11           0       -0.016446   -2.903119    0.261472
      2         11           0       -0.320612   -0.405047   -1.489612
      3         11           0       -2.900458   -0.870145   -0.047802
      4         11           0        0.298808    0.146871    2.119672
      5         11           0        2.881751   -0.811786   -0.583694
      6         11           0       -1.681216    2.580669   -0.259911
      7         11           0        1.738172    2.262556   -0.000125
 ---------------------------------------------------------------------

 SCF Done:  E(UB3LYP) =  -1136.13708241     A.U. after   18 cycles

 The electronic state is 2-A.
 Alpha  occ. eigenvalues --  -38.43835 -38.43669 -38.43616 -38.43597 -38.43566
 Alpha  occ. eigenvalues --  -38.43427 -38.43069  -2.19702  -2.19560  -2.19496
 Alpha  occ. eigenvalues --   -2.19424  -2.19422  -2.19304  -2.19113  -1.13456
 Alpha  occ. eigenvalues --   -1.13353  -1.13317  -1.13237  -1.13222  -1.13201
 Alpha  occ. eigenvalues --   -1.13178  -1.13144  -1.13118  -1.13111  -1.13107
 Alpha  occ. eigenvalues --   -1.13082  -1.13079  -1.13065  -1.13057  -1.12974
 Alpha  occ. eigenvalues --   -1.12961  -1.12923  -1.12783  -1.12742  -1.12724
 Alpha  occ. eigenvalues --   -0.18838  -0.12964  -0.12674  -0.10847
 Alpha virt. eigenvalues --   -0.05350  -0.05032  -0.04915  -0.03205  -0.02948
 Alpha virt. eigenvalues --   -0.02563  -0.01294  -0.01178  -0.00281  -0.00266
 Alpha virt. eigenvalues --    0.00004   0.00358   0.00869   0.00887   0.00923

  Beta  occ. eigenvalues --  -38.43832 -38.43607 -38.43595 -38.43569 -38.43550
  Beta  occ. eigenvalues --  -38.43422 -38.43018  -2.19699  -2.19484  -2.19420
  Beta  occ. eigenvalues --   -2.19397  -2.19374  -2.19298  -2.19020  -1.13447
  Beta  occ. eigenvalues --   -1.13336  -1.13315  -1.13217  -1.13131  -1.13117
  Beta  occ. eigenvalues --   -1.13107  -1.13102  -1.13088  -1.13074  -1.13064
  Beta  occ. eigenvalues --   -1.13063  -1.13051  -1.13043  -1.13032  -1.12958
  Beta  occ. eigenvalues --   -1.12936  -1.12919  -1.12715  -1.12676  -1.12657
  Beta  occ. eigenvalues --   -0.18120  -0.12726  -0.12430
  Beta virt. eigenvalues --   -0.06909  -0.05344  -0.05006  -0.04823  -0.02394
  Beta virt. eigenvalues --   -0.02221  -0.01502  -0.01198  -0.01111  -0.00311
  Beta virt. eigenvalues --   -0.00299   0.00144   0.00395   0.00878   0.00917

 Mulliken charges and spin densities:
               1          2
     1  Na   0.255455   0.072593
     2  Na  -0.405796   0.267014
     3  Na   0.264376  -0.010673
     4  Na  -0.516786   0.678259
     5  Na   0.154781   0.021767
     6  Na   0.014335  -0.064411
     7  Na   0.233634   0.035450
 Sum of Mulliken charges =  -0.00000   1.00000

 Dipole moment (field-independent basis, Debye):
    X=             -0.1357    Y=             -0.0880    Z=              0.2286  Tot=              0.2801
 Quadrupole moment (field-independent basis, Debye-Ang):
   XX=            -59.2648   YY=            -60.6531   ZZ=            -73.8071
   XY=             -0.3678   XZ=             -1.3874   YZ=             -1.1477

 Normal termination of Gaussian 16 at Thu Dec  7 03:46:44 2023.
