 Gaussian 16, Revision B.01,
 Gaussian 16:  ES64L-G16RevB.01 20-Dec-2017

 -------------------------
 #P B3LYP/6-311+g(d) force
 -------------------------

 -----
 DPGEN
 -----
 Symbolic Z-matrix:
 Charge =  0 Multiplicity = 2

                         Standard orientation:
 ---------------------------------------------------------------------
 Center     Atomic      Atomic             Coordinates (Angstroms)
 Number     Number       Type             X           Y           Z
 ---------------------------------------------------------------------
      1         11           0        0.121816    0.078656   -1.634552
      2         11           0       -0.084854   -2.191028    0.385175
      3         11           0        2.558302   -0.947731   -0.276324
      4         11           0        1.473802    1.899551    0.141879
      5         11           0       -1.457505    1.869814   -0.042828
      6         11           0       -0.075640    0.144761    1.741698
      7         11           0       -2.535922   -0.854023   -0.315048
 ---------------------------------------------------------------------

 SCF Done:  E(UB3LYP) =  -1136.09325677     A.U. after   19 cycles

 The electronic state is 2-A.
 Alpha  occ. eigenvalues --  -38.44110 -38.43693 -38.43675 -38.43637 -38.43395
 Alpha  occ. eigenvalues --  -38.43378 -38.43369  -2.20352  -2.19943  -2.19734
 Alpha  occ. eigenvalues --   -2.19649  -2.19533  -2.19497  -2.19488  -1.14184
 Alpha  occ. eigenvalues --   -1.14131  -1.13955  -1.13744  -1.13710  -1.13651
 Alpha  occ. eigenvalues --   -1.13509  -1.13446  -1.13350  -1.13347  -1.13316
 Alpha  occ. eigenvalues --   -1.13277  -1.13260  -1.13149  -1.13138  -1.13120
 Alpha  occ. eigenvalues --   -1.13113  -1.13090  -1.13077  -1.13011  -1.12970
 Alpha  occ. eigenvalues --   -0.21340  -0.13778  -0.13030  -0.11944
 Alpha virt. eigenvalues --   -0.05119  -0.04448  -0.04147  -0.03520  -0.03186
 Alpha virt. eigenvalues --   -0.02693  -0.01153  -0.00601  -0.00045   0.00362
 Alpha virt. eigenvalues --    0.00683   0.00732   0.00998   0.01122   0.01123

  Beta  occ. eigenvalues --  -38.44013 -38.43682 -38.43628 -38.43591 -38.43381
  Beta  occ. eigenvalues --  -38.43364 -38.43350  -2.20178  -2.19793  -2.19719
  Beta  occ. eigenvalues --   -2.19636  -2.19514  -2.19471  -2.19468  -1.14058
  Beta  occ. eigenvalues --   -1.14032  -1.13838  -1.13658  -1.13622  -1.13576
  Beta  occ. eigenvalues --   -1.13500  -1.13419  -1.13336  -1.13307  -1.13284
  Beta  occ. eigenvalues --   -1.13236  -1.13225  -1.13120  -1.13101  -1.13089
  Beta  occ. eigenvalues --   -1.13061  -1.13044  -1.13010  -1.13002  -1.12963
  Beta  occ. eigenvalues --   -0.20557  -0.13423  -0.12672
  Beta virt. eigenvalues --   -0.07775  -0.05142  -0.04433  -0.04135  -0.02602
  Beta virt. eigenvalues --   -0.02255  -0.01572  -0.01072  -0.00563   0.00094
  Beta virt. eigenvalues --    0.00394   0.00659   0.00700   0.01027   0.01114

 Mulliken charges and spin densities:
               1          2
     1  Na  -0.505653   0.460157
     2  Na   0.477299   0.145578
     3  Na  -0.009002  -0.036023
     4  Na   0.250872   0.024316
     5  Na   0.245420   0.023134
     6  Na  -0.408515   0.412016
     7  Na  -0.050421  -0.029177
 Sum of Mulliken charges =  -0.00000   1.00000

 Dipole moment (field-independent basis, Debye):
    X=              0.0807    Y=             -0.1146    Z=             -0.0658  Tot=              0.1548
 Quadrupole moment (field-independent basis, Debye-Ang):
   XX=            -58.6491   YY=            -67.7127   ZZ=            -70.2114
   XY=             -0.0390   XZ=              0.4087   YZ=              0.2013

 Normal termination of Gaussian 16 at Fri Dec  8 19:51:28 2023.
