 Gaussian 16, Revision B.01,
 Gaussian 16:  ES64L-G16RevB.01 20-Dec-2017

 -------------------------
 #P B3LYP/6-311+g(d) force
 -------------------------

 -----
 DPGEN
 -----
 Symbolic Z-matrix:
 Charge =  0 Multiplicity = 2

                         Standard orientation:
 ---------------------------------------------------------------------
 Center     Atomic      Atomic             Coordinates (Angstroms)
 Number     Number       Type             X           Y           Z
 ---------------------------------------------------------------------
      1         11           0       -1.263285    2.582431   -0.135119
      2         11           0        2.286879    2.044528    0.035072
      3         11           0       -0.135937    0.006525    2.130304
      4         11           0       -0.509600   -2.698479    0.091600
      5         11           0       -3.030192   -0.372982   -0.245176
      6         11           0        2.596913   -1.507441   -0.217937
      7         11           0        0.055222   -0.054581   -1.658746
 ---------------------------------------------------------------------

 SCF Done:  E(UB3LYP) =  -1136.14075704     A.U. after   19 cycles

 The electronic state is 2-A.
 Alpha  occ. eigenvalues --  -38.43740 -38.43664 -38.43630 -38.43586 -38.43422
 Alpha  occ. eigenvalues --  -38.43168 -38.43161  -2.19630  -2.19521  -2.19456
 Alpha  occ. eigenvalues --   -2.19448  -2.19284  -2.19178  -2.19071  -1.13297
 Alpha  occ. eigenvalues --   -1.13260  -1.13249  -1.13203  -1.13176  -1.13171
 Alpha  occ. eigenvalues --   -1.13156  -1.13132  -1.13124  -1.13107  -1.13104
 Alpha  occ. eigenvalues --   -1.13069  -1.12985  -1.12948  -1.12904  -1.12880
 Alpha  occ. eigenvalues --   -1.12819  -1.12792  -1.12737  -1.12718  -1.12690
 Alpha  occ. eigenvalues --   -0.18908  -0.12899  -0.12631  -0.10983
 Alpha virt. eigenvalues --   -0.05282  -0.05149  -0.04683  -0.03112  -0.03040
 Alpha virt. eigenvalues --   -0.02763  -0.01351  -0.01071  -0.00233  -0.00170
 Alpha virt. eigenvalues --   -0.00016   0.00369   0.00836   0.00919   0.00936

  Beta  occ. eigenvalues --  -38.43659 -38.43639 -38.43628 -38.43581 -38.43416
  Beta  occ. eigenvalues --  -38.43153 -38.43103  -2.19515  -2.19456  -2.19446
  Beta  occ. eigenvalues --   -2.19439  -2.19277  -2.19062  -2.19058  -1.13199
  Beta  occ. eigenvalues --   -1.13175  -1.13171  -1.13155  -1.13145  -1.13132
  Beta  occ. eigenvalues --   -1.13122  -1.13117  -1.13112  -1.13097  -1.13084
  Beta  occ. eigenvalues --   -1.13069  -1.12972  -1.12925  -1.12901  -1.12823
  Beta  occ. eigenvalues --   -1.12748  -1.12710  -1.12707  -1.12687  -1.12669
  Beta  occ. eigenvalues --   -0.18159  -0.12657  -0.12390
  Beta virt. eigenvalues --   -0.07013  -0.05280  -0.05139  -0.04642  -0.02328
  Beta virt. eigenvalues --   -0.02216  -0.01662  -0.01271  -0.01006  -0.00291
  Beta virt. eigenvalues --   -0.00220   0.00119   0.00386   0.00893   0.00912

 Mulliken charges and spin densities:
               1          2
     1  Na   0.145166  -0.063276
     2  Na   0.065714  -0.067246
     3  Na  -0.627343   0.759523
     4  Na   0.347815   0.025149
     5  Na   0.222471  -0.033688
     6  Na   0.197261  -0.047478
     7  Na  -0.351084   0.427015
 Sum of Mulliken charges =  -0.00000   1.00000

 Dipole moment (field-independent basis, Debye):
    X=              0.0287    Y=              0.1155    Z=              0.1809  Tot=              0.2165
 Quadrupole moment (field-independent basis, Debye-Ang):
   XX=            -57.9971   YY=            -62.7863   ZZ=            -73.1544
   XY=              0.1696   XZ=              0.4650   YZ=              0.0026

 Normal termination of Gaussian 16 at Fri Dec  8 02:11:08 2023.
