 Gaussian 16, Revision B.01,
 Gaussian 16:  ES64L-G16RevB.01 20-Dec-2017

 -------------------------
 #P B3LYP/6-311+g(d) force
 -------------------------

 -----
 DPGEN
 -----
 Symbolic Z-matrix:
 Charge =  0 Multiplicity = 2

                         Standard orientation:
 ---------------------------------------------------------------------
 Center     Atomic      Atomic             Coordinates (Angstroms)
 Number     Number       Type             X           Y           Z
 ---------------------------------------------------------------------
      1         11           0       -0.588673   -1.021842   -1.733609
      2         11           0       -1.271889   -0.644603    1.439509
      3         11           0        1.451330   -2.171877    0.382614
      4         11           0       -0.500073    2.465862   -0.580384
      5         11           0        2.695301    0.315890   -1.318719
      6         11           0       -3.881577    0.017018    0.046018
      7         11           0        2.095581    1.039552    1.764570
 ---------------------------------------------------------------------

 SCF Done:  E(UB3LYP) =  -1136.12589993     A.U. after   21 cycles

 The electronic state is 2-A.
 Alpha  occ. eigenvalues --  -38.45142 -38.44488 -38.43771 -38.43687 -38.43598
 Alpha  occ. eigenvalues --  -38.43304 -38.42513  -2.20946  -2.20365  -2.19635
 Alpha  occ. eigenvalues --   -2.19613  -2.19554  -2.19099  -2.18451  -1.14661
 Alpha  occ. eigenvalues --   -1.14587  -1.14568  -1.14055  -1.14029  -1.13981
 Alpha  occ. eigenvalues --   -1.13348  -1.13305  -1.13293  -1.13258  -1.13243
 Alpha  occ. eigenvalues --   -1.13239  -1.13224  -1.13188  -1.13161  -1.12795
 Alpha  occ. eigenvalues --   -1.12774  -1.12704  -1.12137  -1.12111  -1.12083
 Alpha  occ. eigenvalues --   -0.18735  -0.13668  -0.11616  -0.11188
 Alpha virt. eigenvalues --   -0.06690  -0.04591  -0.04239  -0.03269  -0.03021
 Alpha virt. eigenvalues --   -0.02637  -0.02265  -0.00784  -0.00432  -0.00074
 Alpha virt. eigenvalues --    0.00194   0.00263   0.00344   0.00853   0.00868

  Beta  occ. eigenvalues --  -38.45143 -38.44463 -38.43724 -38.43634 -38.43557
  Beta  occ. eigenvalues --  -38.43289 -38.42502  -2.20949  -2.20322  -2.19548
  Beta  occ. eigenvalues --   -2.19517  -2.19480  -2.19073  -2.18435  -1.14659
  Beta  occ. eigenvalues --   -1.14589  -1.14569  -1.14024  -1.13982  -1.13952
  Beta  occ. eigenvalues --   -1.13293  -1.13247  -1.13231  -1.13188  -1.13177
  Beta  occ. eigenvalues --   -1.13175  -1.13158  -1.13123  -1.13105  -1.12776
  Beta  occ. eigenvalues --   -1.12741  -1.12690  -1.12132  -1.12089  -1.12047
  Beta  occ. eigenvalues --   -0.17940  -0.13514  -0.11000
  Beta virt. eigenvalues --   -0.07588  -0.06551  -0.04191  -0.03934  -0.03149
  Beta virt. eigenvalues --   -0.02281  -0.02195  -0.01727  -0.00443  -0.00353
  Beta virt. eigenvalues --   -0.00003   0.00237   0.00297   0.00426   0.00911

 Mulliken charges and spin densities:
               1          2
     1  Na  -0.152228   0.486962
     2  Na  -0.240701   0.196881
     3  Na   0.389973   0.046195
     4  Na  -0.435887  -0.006139
     5  Na   0.197671   0.114747
     6  Na   0.292599  -0.018257
     7  Na  -0.051427   0.179612
 Sum of Mulliken charges =  -0.00000   1.00000

 Dipole moment (field-independent basis, Debye):
    X=             -0.7956    Y=              0.1049    Z=             -0.2976  Tot=              0.8559
 Quadrupole moment (field-independent basis, Debye-Ang):
   XX=            -49.5484   YY=            -77.3221   ZZ=            -66.4194
   XY=             -0.9294   XZ=              0.5394   YZ=             -1.0214

 Normal termination of Gaussian 16 at Thu Dec  7 23:31:49 2023.
