 Gaussian 16, Revision B.01,
 Gaussian 16:  ES64L-G16RevB.01 20-Dec-2017

 -------------------------
 #P B3LYP/6-311+g(d) force
 -------------------------

 -----
 DPGEN
 -----
 Symbolic Z-matrix:
 Charge =  0 Multiplicity = 2

                         Standard orientation:
 ---------------------------------------------------------------------
 Center     Atomic      Atomic             Coordinates (Angstroms)
 Number     Number       Type             X           Y           Z
 ---------------------------------------------------------------------
      1         11           0       -0.252001   -0.246060    2.025097
      2         11           0       -2.088312    2.272049   -0.464719
      3         11           0       -2.913150   -1.184131    0.015255
      4         11           0        0.141041   -2.743106   -0.192857
      5         11           0        0.261829    0.249949   -1.680447
      6         11           0        3.246690   -0.665876   -0.259288
      7         11           0        1.603904    2.317176    0.556958
 ---------------------------------------------------------------------

 SCF Done:  E(UB3LYP) =  -1136.13878135     A.U. after   18 cycles

 The electronic state is 2-A.
 Alpha  occ. eigenvalues --  -38.44135 -38.43983 -38.43652 -38.43505 -38.43466
 Alpha  occ. eigenvalues --  -38.43290 -38.43120  -2.19949  -2.19817  -2.19555
 Alpha  occ. eigenvalues --   -2.19361  -2.19291  -2.19254  -2.18993  -1.13627
 Alpha  occ. eigenvalues --   -1.13603  -1.13593  -1.13498  -1.13480  -1.13456
 Alpha  occ. eigenvalues --   -1.13227  -1.13188  -1.13176  -1.13057  -1.13031
 Alpha  occ. eigenvalues --   -1.12998  -1.12979  -1.12947  -1.12932  -1.12925
 Alpha  occ. eigenvalues --   -1.12889  -1.12857  -1.12677  -1.12668  -1.12605
 Alpha  occ. eigenvalues --   -0.18607  -0.13048  -0.12309  -0.10889
 Alpha virt. eigenvalues --   -0.05734  -0.05152  -0.04463  -0.03285  -0.02912
 Alpha virt. eigenvalues --   -0.02616  -0.01668  -0.01079  -0.00317  -0.00219
 Alpha virt. eigenvalues --   -0.00015   0.00344   0.00768   0.00881   0.00891

  Beta  occ. eigenvalues --  -38.44132 -38.43981 -38.43561 -38.43489 -38.43456
  Beta  occ. eigenvalues --  -38.43228 -38.43113  -2.19946  -2.19816  -2.19388
  Beta  occ. eigenvalues --   -2.19335  -2.19276  -2.19141  -2.18984  -1.13616
  Beta  occ. eigenvalues --   -1.13596  -1.13591  -1.13487  -1.13478  -1.13450
  Beta  occ. eigenvalues --   -1.13119  -1.13073  -1.13060  -1.13030  -1.12982
  Beta  occ. eigenvalues --   -1.12975  -1.12962  -1.12929  -1.12912  -1.12862
  Beta  occ. eigenvalues --   -1.12816  -1.12777  -1.12671  -1.12640  -1.12595
  Beta  occ. eigenvalues --   -0.17882  -0.12824  -0.12042
  Beta virt. eigenvalues --   -0.06989  -0.05680  -0.05119  -0.04403  -0.02534
  Beta virt. eigenvalues --   -0.02173  -0.01585  -0.01568  -0.01003  -0.00304
  Beta virt. eigenvalues --   -0.00261   0.00108   0.00374   0.00845   0.00877

 Mulliken charges and spin densities:
               1          2
     1  Na  -0.302604   0.633851
     2  Na   0.085626  -0.031752
     3  Na   0.136374  -0.046077
     4  Na   0.079556  -0.090078
     5  Na  -0.223108   0.550362
     6  Na   0.123574  -0.078139
     7  Na   0.100583   0.061833
 Sum of Mulliken charges =  -0.00000   1.00000

 Dipole moment (field-independent basis, Debye):
    X=              0.0858    Y=             -0.0637    Z=              0.1079  Tot=              0.1518
 Quadrupole moment (field-independent basis, Debye-Ang):
   XX=            -54.8333   YY=            -64.9908   ZZ=            -73.5233
   XY=             -0.1339   XZ=              0.6993   YZ=              1.0367

 Normal termination of Gaussian 16 at Thu Dec  7 05:52:24 2023.
