 Gaussian 16, Revision B.01,
 Gaussian 16:  ES64L-G16RevB.01 20-Dec-2017

 -------------------------
 #P B3LYP/6-311+g(d) force
 -------------------------

 -----
 DPGEN
 -----
 Symbolic Z-matrix:
 Charge =  0 Multiplicity = 2

                         Standard orientation:
 ---------------------------------------------------------------------
 Center     Atomic      Atomic             Coordinates (Angstroms)
 Number     Number       Type             X           Y           Z
 ---------------------------------------------------------------------
      1         11           0        0.427200   -0.085448    1.788630
      2         11           0       -3.476561   -0.370747   -0.778345
      3         11           0       -1.662756    2.585548    0.101386
      4         11           0        1.902095    1.880706   -0.229489
      5         11           0       -1.674344   -2.039767    1.021342
      6         11           0        3.985222   -0.849774   -0.058739
      7         11           0        0.499144   -1.120518   -1.844784
 ---------------------------------------------------------------------

 SCF Done:  E(UB3LYP) =  -1136.11891071     A.U. after   22 cycles

 The electronic state is 2-A.
 Alpha  occ. eigenvalues --  -38.45362 -38.45122 -38.44785 -38.43755 -38.43558
 Alpha  occ. eigenvalues --  -38.43383 -38.42794  -2.21122  -2.20909  -2.20617
 Alpha  occ. eigenvalues --   -2.19706  -2.19431  -2.19305  -2.18591  -1.14800
 Alpha  occ. eigenvalues --   -1.14792  -1.14751  -1.14597  -1.14579  -1.14502
 Alpha  occ. eigenvalues --   -1.14314  -1.14255  -1.14248  -1.13461  -1.13375
 Alpha  occ. eigenvalues --   -1.13287  -1.13125  -1.13119  -1.13014  -1.12973
 Alpha  occ. eigenvalues --   -1.12947  -1.12911  -1.12268  -1.12258  -1.12229
 Alpha  occ. eigenvalues --   -0.18151  -0.13870  -0.11390  -0.10999
 Alpha virt. eigenvalues --   -0.07172  -0.05217  -0.04266  -0.03342  -0.02912
 Alpha virt. eigenvalues --   -0.02636  -0.02412  -0.01211  -0.00598  -0.00159
 Alpha virt. eigenvalues --   -0.00015   0.00104   0.00323   0.00619   0.00801

  Beta  occ. eigenvalues --  -38.45372 -38.45076 -38.44759 -38.43658 -38.43554
  Beta  occ. eigenvalues --  -38.43345 -38.42792  -2.21143  -2.20823  -2.20568
  Beta  occ. eigenvalues --   -2.19532  -2.19425  -2.19243  -2.18587  -1.14813
  Beta  occ. eigenvalues --   -1.14799  -1.14764  -1.14539  -1.14513  -1.14439
  Beta  occ. eigenvalues --   -1.14282  -1.14218  -1.14212  -1.13332  -1.13267
  Beta  occ. eigenvalues --   -1.13173  -1.13111  -1.13093  -1.13016  -1.12913
  Beta  occ. eigenvalues --   -1.12904  -1.12851  -1.12261  -1.12256  -1.12220
  Beta  occ. eigenvalues --   -0.17453  -0.13664  -0.11166
  Beta virt. eigenvalues --   -0.07230  -0.06896  -0.05141  -0.03798  -0.03091
  Beta virt. eigenvalues --   -0.02588  -0.02007  -0.01611  -0.01216  -0.00354
  Beta virt. eigenvalues --   -0.00127   0.00069   0.00132   0.00474   0.00687

 Mulliken charges and spin densities:
               1          2
     1  Na  -0.242952   0.487429
     2  Na  -0.124743   0.364883
     3  Na  -0.149180  -0.104514
     4  Na   0.054353   0.157497
     5  Na   0.470476  -0.151811
     6  Na   0.319468  -0.066365
     7  Na  -0.327421   0.312882
 Sum of Mulliken charges =  -0.00000   1.00000

 Dipole moment (field-independent basis, Debye):
    X=              1.0743    Y=             -0.5448    Z=             -0.4780  Tot=              1.2959
 Quadrupole moment (field-independent basis, Debye-Ang):
   XX=            -48.4668   YY=            -74.7863   ZZ=            -71.5797
   XY=             -0.8379   XZ=              1.9433   YZ=             -1.1891

 Normal termination of Gaussian 16 at Fri Dec  8 00:38:34 2023.
