 Gaussian 16, Revision B.01,
 Gaussian 16:  ES64L-G16RevB.01 20-Dec-2017

 -------------------------
 #P B3LYP/6-311+g(d) force
 -------------------------

 -----
 DPGEN
 -----
 Symbolic Z-matrix:
 Charge =  0 Multiplicity = 2

                         Standard orientation:
 ---------------------------------------------------------------------
 Center     Atomic      Atomic             Coordinates (Angstroms)
 Number     Number       Type             X           Y           Z
 ---------------------------------------------------------------------
      1         11           0        0.147557    0.394420    1.956443
      2         11           0       -1.256136    2.697371   -0.008890
      3         11           0        2.484921    1.771490   -0.109354
      4         11           0        2.298300   -1.933994   -0.166243
      5         11           0        0.183928    0.049954   -1.698817
      6         11           0       -2.997286   -0.373497   -0.322824
      7         11           0       -0.861284   -2.605744    0.349684
 ---------------------------------------------------------------------

 SCF Done:  E(UB3LYP) =  -1136.13932629     A.U. after   19 cycles

 The electronic state is 2-A.
 Alpha  occ. eigenvalues --  -38.43879 -38.43693 -38.43616 -38.43600 -38.43439
 Alpha  occ. eigenvalues --  -38.43178 -38.43154  -2.19725  -2.19541  -2.19478
 Alpha  occ. eigenvalues --   -2.19460  -2.19364  -2.19144  -2.19082  -1.13415
 Alpha  occ. eigenvalues --   -1.13402  -1.13346  -1.13236  -1.13218  -1.13179
 Alpha  occ. eigenvalues --   -1.13171  -1.13159  -1.13142  -1.13123  -1.13112
 Alpha  occ. eigenvalues --   -1.13090  -1.13028  -1.12986  -1.12982  -1.12822
 Alpha  occ. eigenvalues --   -1.12782  -1.12765  -1.12742  -1.12727  -1.12721
 Alpha  occ. eigenvalues --   -0.18927  -0.12894  -0.12752  -0.10842
 Alpha virt. eigenvalues --   -0.05547  -0.05040  -0.04671  -0.03127  -0.03060
 Alpha virt. eigenvalues --   -0.02557  -0.01335  -0.01212  -0.00259  -0.00157
 Alpha virt. eigenvalues --    0.00020   0.00372   0.00846   0.00914   0.00936

  Beta  occ. eigenvalues --  -38.43873 -38.43688 -38.43611 -38.43595 -38.43349
  Beta  occ. eigenvalues --  -38.43170 -38.43084  -2.19718  -2.19535  -2.19474
  Beta  occ. eigenvalues --   -2.19454  -2.19199  -2.19070  -2.19016  -1.13408
  Beta  occ. eigenvalues --   -1.13375  -1.13342  -1.13228  -1.13190  -1.13174
  Beta  occ. eigenvalues --   -1.13170  -1.13156  -1.13117  -1.13111  -1.13098
  Beta  occ. eigenvalues --   -1.13087  -1.12923  -1.12871  -1.12866  -1.12755
  Beta  occ. eigenvalues --   -1.12726  -1.12720  -1.12700  -1.12673  -1.12668
  Beta  occ. eigenvalues --   -0.18190  -0.12641  -0.12501
  Beta virt. eigenvalues --   -0.06920  -0.05560  -0.04981  -0.04645  -0.02327
  Beta virt. eigenvalues --   -0.02262  -0.01495  -0.01257  -0.01152  -0.00315
  Beta virt. eigenvalues --   -0.00174   0.00133   0.00390   0.00849   0.00928

 Mulliken charges and spin densities:
               1          2
     1  Na  -0.386235   0.717480
     2  Na   0.162759  -0.105011
     3  Na   0.163886  -0.143273
     4  Na   0.160250  -0.054521
     5  Na  -0.284770   0.561611
     6  Na   0.047845  -0.017062
     7  Na   0.136265   0.040775
 Sum of Mulliken charges =  -0.00000   1.00000

 Dipole moment (field-independent basis, Debye):
    X=              0.2131    Y=              0.3406    Z=              0.0570  Tot=              0.4058
 Quadrupole moment (field-independent basis, Debye-Ang):
   XX=            -58.3662   YY=            -61.4149   ZZ=            -73.8791
   XY=             -0.2522   XZ=              0.2124   YZ=             -0.7207

 Normal termination of Gaussian 16 at Thu Dec  7 17:26:54 2023.
