 Gaussian 16, Revision B.01,
 Gaussian 16:  ES64L-G16RevB.01 20-Dec-2017

 -------------------------
 #P B3LYP/6-311+g(d) force
 -------------------------

 -----
 DPGEN
 -----
 Symbolic Z-matrix:
 Charge =  0 Multiplicity = 2

                         Standard orientation:
 ---------------------------------------------------------------------
 Center     Atomic      Atomic             Coordinates (Angstroms)
 Number     Number       Type             X           Y           Z
 ---------------------------------------------------------------------
      1         11           0        2.305941   -2.223045    0.300308
      2         11           0        1.007009    0.355145   -1.878152
      3         11           0       -1.344925    1.984462   -0.574774
      4         11           0       -0.040083   -0.130352    2.303219
      5         11           0       -0.719278   -1.915877   -0.967740
      6         11           0       -3.532608   -0.268044    0.354636
      7         11           0        2.323945    2.197712    0.462503
 ---------------------------------------------------------------------

 SCF Done:  E(UB3LYP) =  -1136.13073448     A.U. after   20 cycles

 The electronic state is 2-A.
 Alpha  occ. eigenvalues --  -38.44820 -38.43912 -38.43698 -38.43608 -38.43569
 Alpha  occ. eigenvalues --  -38.43428 -38.43189  -2.20646  -2.19728  -2.19680
 Alpha  occ. eigenvalues --   -2.19420  -2.19391  -2.19311  -2.19117  -1.14303
 Alpha  occ. eigenvalues --   -1.14277  -1.14265  -1.13431  -1.13405  -1.13388
 Alpha  occ. eigenvalues --   -1.13374  -1.13327  -1.13305  -1.13093  -1.13074
 Alpha  occ. eigenvalues --   -1.13062  -1.13053  -1.13051  -1.13041  -1.13013
 Alpha  occ. eigenvalues --   -1.12978  -1.12901  -1.12829  -1.12765  -1.12694
 Alpha  occ. eigenvalues --   -0.18576  -0.12865  -0.11939  -0.11799
 Alpha virt. eigenvalues --   -0.05717  -0.05041  -0.03951  -0.03449  -0.03405
 Alpha virt. eigenvalues --   -0.03195  -0.01578  -0.01030  -0.00363   0.00179
 Alpha virt. eigenvalues --    0.00254   0.00343   0.00650   0.00758   0.00871

  Beta  occ. eigenvalues --  -38.44725 -38.43914 -38.43630 -38.43604 -38.43569
  Beta  occ. eigenvalues --  -38.43415 -38.43162  -2.20470  -2.19732  -2.19558
  Beta  occ. eigenvalues --   -2.19415  -2.19392  -2.19290  -2.19071  -1.14188
  Beta  occ. eigenvalues --   -1.14152  -1.14135  -1.13409  -1.13386  -1.13372
  Beta  occ. eigenvalues --   -1.13343  -1.13248  -1.13222  -1.13079  -1.13064
  Beta  occ. eigenvalues --   -1.13063  -1.13045  -1.13043  -1.13032  -1.12985
  Beta  occ. eigenvalues --   -1.12947  -1.12893  -1.12785  -1.12717  -1.12669
  Beta  occ. eigenvalues --   -0.17757  -0.12726  -0.11749
  Beta virt. eigenvalues --   -0.07752  -0.05500  -0.05007  -0.03722  -0.02928
  Beta virt. eigenvalues --   -0.02506  -0.02350  -0.01481  -0.00966  -0.00138
  Beta virt. eigenvalues --    0.00182   0.00273   0.00369   0.00817   0.00845

 Mulliken charges and spin densities:
               1          2
     1  Na  -0.004166  -0.048784
     2  Na   0.747833   0.148879
     3  Na  -0.313833   0.088855
     4  Na  -0.451253   0.744781
     5  Na  -0.238254   0.165770
     6  Na   0.366785  -0.067580
     7  Na  -0.107112  -0.031920
 Sum of Mulliken charges =  -0.00000   1.00000

 Dipole moment (field-independent basis, Debye):
    X=              0.0318    Y=             -0.0326    Z=              0.6523  Tot=              0.6539
 Quadrupole moment (field-independent basis, Debye-Ang):
   XX=            -56.7392   YY=            -70.7775   ZZ=            -67.8248
   XY=              0.2071   XZ=              0.8671   YZ=              0.1243

 Normal termination of Gaussian 16 at Thu Dec  7 21:05:26 2023.
