 Gaussian 16, Revision B.01,
 Gaussian 16:  ES64L-G16RevB.01 20-Dec-2017

 -------------------------
 #P B3LYP/6-311+g(d) force
 -------------------------

 -----
 DPGEN
 -----
 Symbolic Z-matrix:
 Charge =  0 Multiplicity = 2

                         Standard orientation:
 ---------------------------------------------------------------------
 Center     Atomic      Atomic             Coordinates (Angstroms)
 Number     Number       Type             X           Y           Z
 ---------------------------------------------------------------------
      1         11           0       -3.270304    1.197306   -0.318458
      2         11           0       -0.877877    3.505557    0.692319
      3         11           0        4.159802    1.313282   -0.140964
      4         11           0       -2.752384   -1.866955   -0.767065
      5         11           0        2.046939   -2.546039   -0.214340
      6         11           0        1.117130    0.600089   -0.780927
      7         11           0       -0.423305   -2.203240    1.529435
 ---------------------------------------------------------------------

 SCF Done:  E(UB3LYP) =  -1136.11841759     A.U. after   19 cycles

 The electronic state is 2-A.
 Alpha  occ. eigenvalues --  -38.44658 -38.44303 -38.44110 -38.44013 -38.43934
 Alpha  occ. eigenvalues --  -38.43632 -38.43570  -2.20509  -2.20169  -2.19918
 Alpha  occ. eigenvalues --   -2.19861  -2.19759  -2.19501  -2.19371  -1.14228
 Alpha  occ. eigenvalues --   -1.14183  -1.14122  -1.13825  -1.13816  -1.13805
 Alpha  occ. eigenvalues --   -1.13623  -1.13569  -1.13552  -1.13546  -1.13515
 Alpha  occ. eigenvalues --   -1.13470  -1.13451  -1.13434  -1.13399  -1.13152
 Alpha  occ. eigenvalues --   -1.13141  -1.13118  -1.13024  -1.13008  -1.12996
 Alpha  occ. eigenvalues --   -0.17087  -0.13690  -0.12906  -0.10227
 Alpha virt. eigenvalues --   -0.06146  -0.05754  -0.04722  -0.03049  -0.02926
 Alpha virt. eigenvalues --   -0.02568  -0.01731  -0.01344  -0.00975  -0.00812
 Alpha virt. eigenvalues --   -0.00113  -0.00002   0.00370   0.00538   0.00730

  Beta  occ. eigenvalues --  -38.44639 -38.44289 -38.44044 -38.44022 -38.43919
  Beta  occ. eigenvalues --  -38.43576 -38.43507  -2.20478  -2.20146  -2.19879
  Beta  occ. eigenvalues --   -2.19796  -2.19739  -2.19399  -2.19255  -1.14196
  Beta  occ. eigenvalues --   -1.14162  -1.14101  -1.13811  -1.13803  -1.13773
  Beta  occ. eigenvalues --   -1.13599  -1.13554  -1.13524  -1.13476  -1.13466
  Beta  occ. eigenvalues --   -1.13440  -1.13429  -1.13417  -1.13351  -1.13087
  Beta  occ. eigenvalues --   -1.13076  -1.13038  -1.12944  -1.12930  -1.12921
  Beta  occ. eigenvalues --   -0.16819  -0.12926  -0.12247
  Beta virt. eigenvalues --   -0.07041  -0.06068  -0.05534  -0.04414  -0.02690
  Beta virt. eigenvalues --   -0.02491  -0.02246  -0.01607  -0.01062  -0.00758
  Beta virt. eigenvalues --   -0.00580   0.00144   0.00242   0.00440   0.00575

 Mulliken charges and spin densities:
               1          2
     1  Na  -0.174931   0.054066
     2  Na   0.219270   0.267626
     3  Na   0.328673   0.221602
     4  Na   0.364509   0.359889
     5  Na   0.126978   0.032091
     6  Na  -1.202149  -0.000619
     7  Na   0.337650   0.065345
 Sum of Mulliken charges =  -0.00000   1.00000

 Dipole moment (field-independent basis, Debye):
    X=              0.8840    Y=             -0.9322    Z=              0.5068  Tot=              1.3810
 Quadrupole moment (field-independent basis, Debye-Ang):
   XX=            -66.0067   YY=            -66.6589   ZZ=            -67.8722
   XY=             -2.2994   XZ=              0.6080   YZ=              2.8540

 Normal termination of Gaussian 16 at Tue Nov 28 22:21:32 2023.
