 Gaussian 16, Revision B.01,
 Gaussian 16:  ES64L-G16RevB.01 20-Dec-2017

 -------------------------
 #P B3LYP/6-311+g(d) force
 -------------------------

 -----
 DPGEN
 -----
 Symbolic Z-matrix:
 Charge =  0 Multiplicity = 2

                         Standard orientation:
 ---------------------------------------------------------------------
 Center     Atomic      Atomic             Coordinates (Angstroms)
 Number     Number       Type             X           Y           Z
 ---------------------------------------------------------------------
      1         11           0        0.570639    1.557003    1.205662
      2         11           0        2.647554    3.504873   -0.511704
      3         11           0        3.414052   -0.417283   -0.538111
      4         11           0       -0.339519   -1.630588   -0.685516
      5         11           0       -2.391004    0.229228    0.510976
      6         11           0        2.242543   -3.419180    0.430171
      7         11           0       -6.144265    0.175948   -0.411478
 ---------------------------------------------------------------------

 SCF Done:  E(UB3LYP) =  -1136.11928962     A.U. after   19 cycles

 The electronic state is 2-A.
 Alpha  occ. eigenvalues --  -38.44901 -38.44543 -38.44287 -38.44002 -38.43992
 Alpha  occ. eigenvalues --  -38.43934 -38.42961  -2.20690  -2.20338  -2.20162
 Alpha  occ. eigenvalues --   -2.19850  -2.19773  -2.19752  -2.18833  -1.14316
 Alpha  occ. eigenvalues --   -1.14316  -1.14289  -1.14042  -1.14023  -1.13927
 Alpha  occ. eigenvalues --   -1.13847  -1.13836  -1.13804  -1.13543  -1.13527
 Alpha  occ. eigenvalues --   -1.13496  -1.13438  -1.13423  -1.13416  -1.13411
 Alpha  occ. eigenvalues --   -1.13385  -1.13384  -1.12535  -1.12486  -1.12476
 Alpha  occ. eigenvalues --   -0.16910  -0.13529  -0.12553  -0.11263
 Alpha virt. eigenvalues --   -0.06024  -0.05779  -0.04534  -0.03750  -0.02510
 Alpha virt. eigenvalues --   -0.02360  -0.01800  -0.01738  -0.01559  -0.00775
 Alpha virt. eigenvalues --   -0.00362  -0.00072   0.00356   0.00440   0.00548

  Beta  occ. eigenvalues --  -38.44755 -38.44525 -38.44273 -38.43986 -38.43984
  Beta  occ. eigenvalues --  -38.43932 -38.42956  -2.20418  -2.20303  -2.20137
  Beta  occ. eigenvalues --   -2.19820  -2.19762  -2.19748  -2.18832  -1.14132
  Beta  occ. eigenvalues --   -1.14132  -1.14108  -1.14018  -1.14000  -1.13900
  Beta  occ. eigenvalues --   -1.13829  -1.13806  -1.13796  -1.13526  -1.13509
  Beta  occ. eigenvalues --   -1.13469  -1.13431  -1.13411  -1.13409  -1.13407
  Beta  occ. eigenvalues --   -1.13382  -1.13372  -1.12536  -1.12492  -1.12425
  Beta  occ. eigenvalues --   -0.16563  -0.12592  -0.12497
  Beta virt. eigenvalues --   -0.07398  -0.05858  -0.05672  -0.03966  -0.03617
  Beta virt. eigenvalues --   -0.02281  -0.02234  -0.01652  -0.01097  -0.01001
  Beta virt. eigenvalues --   -0.00326  -0.00155   0.00070   0.00504   0.00566

 Mulliken charges and spin densities:
               1          2
     1  Na   0.058494  -0.131303
     2  Na   0.473956   0.055289
     3  Na  -0.093752   0.214081
     4  Na  -0.425959  -0.122885
     5  Na  -0.163997   0.316038
     6  Na   0.370054   0.043242
     7  Na  -0.218796   0.625538
 Sum of Mulliken charges =  -0.00000   1.00000

 Dipole moment (field-independent basis, Debye):
    X=              1.0837    Y=             -0.3026    Z=             -0.1455  Tot=              1.1345
 Quadrupole moment (field-independent basis, Debye-Ang):
   XX=            -69.1694   YY=            -62.3753   ZZ=            -68.0854
   XY=              0.8317   XZ=             -0.0545   YZ=             -2.6773

 Normal termination of Gaussian 16 at Wed Nov 29 00:01:06 2023.
