 Gaussian 16, Revision B.01,
 Gaussian 16:  ES64L-G16RevB.01 20-Dec-2017

 -------------------------
 #P B3LYP/6-311+g(d) force
 -------------------------

 -----
 DPGEN
 -----
 Symbolic Z-matrix:
 Charge =  0 Multiplicity = 2

                         Standard orientation:
 ---------------------------------------------------------------------
 Center     Atomic      Atomic             Coordinates (Angstroms)
 Number     Number       Type             X           Y           Z
 ---------------------------------------------------------------------
      1         11           0        3.029866    0.706985    0.126388
      2         11           0        0.026156    2.958570   -0.364044
      3         11           0       -0.106701   -0.115520   -1.694149
      4         11           0        0.386139    0.060723    2.044916
      5         11           0       -2.071539   -2.180165    0.211437
      6         11           0       -2.812549    1.044687    0.092453
      7         11           0        1.548629   -2.475281   -0.417001
 ---------------------------------------------------------------------

 SCF Done:  E(UB3LYP) =  -1136.14004767     A.U. after   18 cycles

 The electronic state is 2-A.
 Alpha  occ. eigenvalues --  -38.43921 -38.43724 -38.43642 -38.43514 -38.43491
 Alpha  occ. eigenvalues --  -38.43355 -38.43206  -2.19755  -2.19611  -2.19500
 Alpha  occ. eigenvalues --   -2.19378  -2.19341  -2.19197  -2.19190  -1.13452
 Alpha  occ. eigenvalues --   -1.13415  -1.13391  -1.13273  -1.13236  -1.13231
 Alpha  occ. eigenvalues --   -1.13188  -1.13164  -1.13153  -1.13111  -1.13032
 Alpha  occ. eigenvalues --   -1.13015  -1.13002  -1.12996  -1.12967  -1.12909
 Alpha  occ. eigenvalues --   -1.12861  -1.12848  -1.12826  -1.12808  -1.12792
 Alpha  occ. eigenvalues --   -0.18697  -0.12994  -0.12502  -0.10888
 Alpha virt. eigenvalues --   -0.05457  -0.05065  -0.04775  -0.03260  -0.02972
 Alpha virt. eigenvalues --   -0.02637  -0.01383  -0.01115  -0.00338  -0.00253
 Alpha virt. eigenvalues --   -0.00010   0.00371   0.00837   0.00896   0.00914

  Beta  occ. eigenvalues --  -38.43916 -38.43639 -38.43634 -38.43502 -38.43487
  Beta  occ. eigenvalues --  -38.43347 -38.43137  -2.19750  -2.19498  -2.19446
  Beta  occ. eigenvalues --   -2.19359  -2.19336  -2.19186  -2.19065  -1.13434
  Beta  occ. eigenvalues --   -1.13396  -1.13392  -1.13191  -1.13167  -1.13155
  Beta  occ. eigenvalues --   -1.13140  -1.13122  -1.13109  -1.13082  -1.13012
  Beta  occ. eigenvalues --   -1.13001  -1.12990  -1.12980  -1.12961  -1.12881
  Beta  occ. eigenvalues --   -1.12840  -1.12817  -1.12773  -1.12722  -1.12710
  Beta  occ. eigenvalues --   -0.17972  -0.12751  -0.12244
  Beta virt. eigenvalues --   -0.06989  -0.05399  -0.05072  -0.04716  -0.02462
  Beta virt. eigenvalues --   -0.02208  -0.01594  -0.01287  -0.01034  -0.00377
  Beta virt. eigenvalues --   -0.00305   0.00122   0.00393   0.00870   0.00897

 Mulliken charges and spin densities:
               1          2
     1  Na   0.187291  -0.049573
     2  Na   0.099446  -0.066017
     3  Na  -0.159296   0.480579
     4  Na  -0.466288   0.730649
     5  Na   0.074187  -0.016071
     6  Na   0.048896  -0.035335
     7  Na   0.215764  -0.044232
 Sum of Mulliken charges =  -0.00000   1.00000

 Dipole moment (field-independent basis, Debye):
    X=              0.1683    Y=              0.0081    Z=              0.1767  Tot=              0.2441
 Quadrupole moment (field-independent basis, Debye-Ang):
   XX=            -58.1750   YY=            -62.1585   ZZ=            -73.5840
   XY=              0.3432   XZ=             -1.1723   YZ=             -0.4277

 Normal termination of Gaussian 16 at Thu Dec  7 14:39:44 2023.
