 Gaussian 16, Revision B.01,
 Gaussian 16:  ES64L-G16RevB.01 20-Dec-2017

 -------------------------
 #P B3LYP/6-311+g(d) force
 -------------------------

 -----
 DPGEN
 -----
 Symbolic Z-matrix:
 Charge =  0 Multiplicity = 2

                         Standard orientation:
 ---------------------------------------------------------------------
 Center     Atomic      Atomic             Coordinates (Angstroms)
 Number     Number       Type             X           Y           Z
 ---------------------------------------------------------------------
      1         11           0       -3.162111   -0.178898    0.554978
      2         11           0        2.513818    2.070226   -0.008236
      3         11           0        0.802331   -0.299399    1.829390
      4         11           0        2.816629   -1.040670   -0.808520
      5         11           0       -1.411859    2.645674   -0.159469
      6         11           0       -0.126512   -2.636041    0.262759
      7         11           0       -1.432296   -0.560891   -1.670902
 ---------------------------------------------------------------------

 SCF Done:  E(UB3LYP) =  -1136.12454304     A.U. after   21 cycles

 The electronic state is 2-A.
 Alpha  occ. eigenvalues --  -38.44863 -38.44196 -38.43900 -38.43872 -38.43817
 Alpha  occ. eigenvalues --  -38.43426 -38.43086  -2.20741  -2.20053  -2.19827
 Alpha  occ. eigenvalues --   -2.19697  -2.19637  -2.19369  -2.19019  -1.14526
 Alpha  occ. eigenvalues --   -1.14380  -1.14344  -1.13731  -1.13712  -1.13692
 Alpha  occ. eigenvalues --   -1.13504  -1.13465  -1.13446  -1.13378  -1.13365
 Alpha  occ. eigenvalues --   -1.13325  -1.13309  -1.13303  -1.13272  -1.13121
 Alpha  occ. eigenvalues --   -1.12999  -1.12978  -1.12691  -1.12678  -1.12619
 Alpha  occ. eigenvalues --   -0.18475  -0.13842  -0.12221  -0.10491
 Alpha virt. eigenvalues --   -0.06041  -0.05578  -0.04419  -0.03836  -0.02743
 Alpha virt. eigenvalues --   -0.02307  -0.01615  -0.00852  -0.00627  -0.00381
 Alpha virt. eigenvalues --   -0.00030   0.00363   0.00711   0.00791   0.00848

  Beta  occ. eigenvalues --  -38.44860 -38.44171 -38.43899 -38.43823 -38.43814
  Beta  occ. eigenvalues --  -38.43348 -38.43069  -2.20737  -2.20008  -2.19734
  Beta  occ. eigenvalues --   -2.19698  -2.19633  -2.19227  -2.18996  -1.14515
  Beta  occ. eigenvalues --   -1.14368  -1.14337  -1.13703  -1.13669  -1.13660
  Beta  occ. eigenvalues --   -1.13443  -1.13404  -1.13394  -1.13364  -1.13353
  Beta  occ. eigenvalues --   -1.13323  -1.13303  -1.13289  -1.13270  -1.13031
  Beta  occ. eigenvalues --   -1.12899  -1.12873  -1.12676  -1.12622  -1.12593
  Beta  occ. eigenvalues --   -0.17814  -0.13606  -0.12005
  Beta virt. eigenvalues --   -0.06737  -0.05905  -0.05482  -0.04311  -0.03143
  Beta virt. eigenvalues --   -0.02061  -0.01551  -0.01363  -0.00786  -0.00614
  Beta virt. eigenvalues --   -0.00368   0.00146   0.00434   0.00821   0.00848

 Mulliken charges and spin densities:
               1          2
     1  Na   0.410754   0.025195
     2  Na   0.047102  -0.028984
     3  Na  -0.242172   0.515961
     4  Na  -0.195860   0.117693
     5  Na  -0.400473  -0.102356
     6  Na   0.383752   0.143518
     7  Na  -0.003104   0.328972
 Sum of Mulliken charges =  -0.00000   1.00000

 Dipole moment (field-independent basis, Debye):
    X=             -0.3304    Y=              0.1995    Z=             -0.0119  Tot=              0.3861
 Quadrupole moment (field-independent basis, Debye-Ang):
   XX=            -56.6800   YY=            -66.1067   ZZ=            -73.2502
   XY=              0.0329   XZ=             -3.6047   YZ=              0.0253

 Normal termination of Gaussian 16 at Tue Dec  5 20:52:46 2023.
