 Gaussian 16, Revision B.01,
 Gaussian 16:  ES64L-G16RevB.01 20-Dec-2017

 -------------------------
 #P B3LYP/6-311+g(d) force
 -------------------------

 -----
 DPGEN
 -----
 Symbolic Z-matrix:
 Charge =  0 Multiplicity = 2

                         Standard orientation:
 ---------------------------------------------------------------------
 Center     Atomic      Atomic             Coordinates (Angstroms)
 Number     Number       Type             X           Y           Z
 ---------------------------------------------------------------------
      1         11           0       -0.008699   -0.013413   -1.510746
      2         11           0       -2.391716   -2.398912   -0.233515
      3         11           0       -1.007298    0.062254    1.511550
      4         11           0       -3.109330    1.935461   -0.551255
      5         11           0        1.738996    2.119888    0.779004
      6         11           0        1.601663   -1.316554    1.354868
      7         11           0        3.176385   -0.388725   -1.349906
 ---------------------------------------------------------------------

 SCF Done:  E(UB3LYP) =  -1136.12122766     A.U. after   25 cycles

 The electronic state is 2-A.
 Alpha  occ. eigenvalues --  -38.44396 -38.43973 -38.43912 -38.43843 -38.43763
 Alpha  occ. eigenvalues --  -38.43738 -38.43252  -2.20277  -2.19801  -2.19759
 Alpha  occ. eigenvalues --   -2.19741  -2.19685  -2.19556  -2.19280  -1.13963
 Alpha  occ. eigenvalues --   -1.13930  -1.13889  -1.13552  -1.13480  -1.13444
 Alpha  occ. eigenvalues --   -1.13435  -1.13427  -1.13418  -1.13402  -1.13388
 Alpha  occ. eigenvalues --   -1.13381  -1.13376  -1.13319  -1.13261  -1.13243
 Alpha  occ. eigenvalues --   -1.13216  -1.13187  -1.12986  -1.12910  -1.12850
 Alpha  occ. eigenvalues --   -0.18846  -0.13622  -0.11628  -0.10939
 Alpha virt. eigenvalues --   -0.06065  -0.05599  -0.04362  -0.03079  -0.02548
 Alpha virt. eigenvalues --   -0.02469  -0.02016  -0.01247  -0.00797   0.00103
 Alpha virt. eigenvalues --    0.00223   0.00271   0.00432   0.00600   0.00723

  Beta  occ. eigenvalues --  -38.44347 -38.43973 -38.43885 -38.43796 -38.43766
  Beta  occ. eigenvalues --  -38.43692 -38.43199  -2.20188  -2.19742  -2.19717
  Beta  occ. eigenvalues --   -2.19712  -2.19607  -2.19563  -2.19188  -1.13892
  Beta  occ. eigenvalues --   -1.13868  -1.13830  -1.13490  -1.13425  -1.13413
  Beta  occ. eigenvalues --   -1.13397  -1.13389  -1.13383  -1.13365  -1.13359
  Beta  occ. eigenvalues --   -1.13351  -1.13344  -1.13256  -1.13244  -1.13218
  Beta  occ. eigenvalues --   -1.13205  -1.13191  -1.12930  -1.12811  -1.12787
  Beta  occ. eigenvalues --   -0.18030  -0.13395  -0.10773
  Beta virt. eigenvalues --   -0.07547  -0.05919  -0.05491  -0.03808  -0.02791
  Beta virt. eigenvalues --   -0.02073  -0.01886  -0.01522  -0.01181  -0.00439
  Beta virt. eigenvalues --    0.00166   0.00241   0.00287   0.00507   0.00709

 Mulliken charges and spin densities:
               1          2
     1  Na  -0.617646   0.442011
     2  Na   0.060893   0.034153
     3  Na   0.011473  -0.159086
     4  Na   0.087798   0.007377
     5  Na  -0.180177   0.172523
     6  Na   0.125861   0.297465
     7  Na   0.511798   0.205556
 Sum of Mulliken charges =  -0.00000   1.00000

 Dipole moment (field-independent basis, Debye):
    X=              0.3988    Y=             -0.0522    Z=             -0.3176  Tot=              0.5125
 Quadrupole moment (field-independent basis, Debye-Ang):
   XX=            -52.1170   YY=            -71.3699   ZZ=            -68.9868
   XY=              1.1985   XZ=              0.7886   YZ=              1.3771

 Normal termination of Gaussian 16 at Fri Dec  8 02:17:39 2023.
