 Gaussian 16, Revision B.01,
 Gaussian 16:  ES64L-G16RevB.01 20-Dec-2017

 -------------------------
 #P B3LYP/6-311+g(d) force
 -------------------------

 -----
 DPGEN
 -----
 Symbolic Z-matrix:
 Charge =  0 Multiplicity = 2

                         Standard orientation:
 ---------------------------------------------------------------------
 Center     Atomic      Atomic             Coordinates (Angstroms)
 Number     Number       Type             X           Y           Z
 ---------------------------------------------------------------------
      1         11           0       -3.040506    0.993224   -0.160069
      2         11           0        2.591038    1.131045   -0.124793
      3         11           0        2.282573   -2.072455   -0.199427
      4         11           0       -1.847814   -2.611560   -0.179651
      5         11           0       -0.003117    2.926689    0.188978
      6         11           0       -0.002792   -0.463956    2.106179
      7         11           0        0.020618    0.097012   -1.631216
 ---------------------------------------------------------------------

 SCF Done:  E(UB3LYP) =  -1136.13657209     A.U. after   19 cycles

 The electronic state is 2-A.
 Alpha  occ. eigenvalues --  -38.44160 -38.44028 -38.43767 -38.43630 -38.43425
 Alpha  occ. eigenvalues --  -38.43258 -38.43193  -2.19956  -2.19817  -2.19615
 Alpha  occ. eigenvalues --   -2.19495  -2.19355  -2.19173  -2.19128  -1.13637
 Alpha  occ. eigenvalues --   -1.13617  -1.13590  -1.13497  -1.13479  -1.13452
 Alpha  occ. eigenvalues --   -1.13311  -1.13280  -1.13254  -1.13158  -1.13118
 Alpha  occ. eigenvalues --   -1.13116  -1.13089  -1.13018  -1.12987  -1.12860
 Alpha  occ. eigenvalues --   -1.12823  -1.12794  -1.12780  -1.12768  -1.12754
 Alpha  occ. eigenvalues --   -0.18601  -0.12937  -0.12500  -0.10715
 Alpha virt. eigenvalues --   -0.05777  -0.05147  -0.04708  -0.03142  -0.02973
 Alpha virt. eigenvalues --   -0.02540  -0.01461  -0.01254  -0.00486  -0.00287
 Alpha virt. eigenvalues --   -0.00014   0.00358   0.00806   0.00820   0.00914

  Beta  occ. eigenvalues --  -38.44158 -38.44026 -38.43761 -38.43533 -38.43417
  Beta  occ. eigenvalues --  -38.43253 -38.43131  -2.19954  -2.19816  -2.19607
  Beta  occ. eigenvalues --   -2.19345  -2.19316  -2.19121  -2.19061  -1.13625
  Beta  occ. eigenvalues --   -1.13611  -1.13593  -1.13482  -1.13475  -1.13453
  Beta  occ. eigenvalues --   -1.13309  -1.13259  -1.13241  -1.13081  -1.13038
  Beta  occ. eigenvalues --   -1.13001  -1.12994  -1.12988  -1.12961  -1.12814
  Beta  occ. eigenvalues --   -1.12770  -1.12760  -1.12754  -1.12714  -1.12699
  Beta  occ. eigenvalues --   -0.17869  -0.12704  -0.12284
  Beta virt. eigenvalues --   -0.06789  -0.05793  -0.05064  -0.04684  -0.02350
  Beta virt. eigenvalues --   -0.02203  -0.01507  -0.01374  -0.01173  -0.00537
  Beta virt. eigenvalues --   -0.00336   0.00136   0.00387   0.00806   0.00878

 Mulliken charges and spin densities:
               1          2
     1  Na   0.068909  -0.059546
     2  Na   0.364378   0.103905
     3  Na   0.279184  -0.053677
     4  Na   0.030830  -0.134359
     5  Na   0.084366   0.029108
     6  Na  -0.583145   0.743007
     7  Na  -0.244521   0.371561
 Sum of Mulliken charges =  -0.00000   1.00000

 Dipole moment (field-independent basis, Debye):
    X=             -0.3755    Y=             -0.3331    Z=              0.1088  Tot=              0.5136
 Quadrupole moment (field-independent basis, Debye-Ang):
   XX=            -58.1207   YY=            -60.8355   ZZ=            -74.5514
   XY=             -0.6505   XZ=              0.0275   YZ=              1.3079

 Normal termination of Gaussian 16 at Thu Dec  7 21:40:39 2023.
