 Gaussian 16, Revision B.01,
 Gaussian 16:  ES64L-G16RevB.01 20-Dec-2017

 -------------------------
 #P B3LYP/6-311+g(d) force
 -------------------------

 -----
 DPGEN
 -----
 Symbolic Z-matrix:
 Charge =  0 Multiplicity = 2

                         Standard orientation:
 ---------------------------------------------------------------------
 Center     Atomic      Atomic             Coordinates (Angstroms)
 Number     Number       Type             X           Y           Z
 ---------------------------------------------------------------------
      1         11           0       -2.661692   -3.591457    0.445983
      2         11           0       -3.115947   -0.792103   -0.569949
      3         11           0       -1.721396    3.613647    1.358636
      4         11           0       -0.685481    2.631705   -1.210275
      5         11           0        0.528835   -0.889401   -0.514862
      6         11           0        4.113779   -0.154816   -0.952377
      7         11           0        3.541903   -0.817576    1.442844
 ---------------------------------------------------------------------

 SCF Done:  E(UB3LYP) =  -1136.10359051     A.U. after   19 cycles

 The electronic state is 2-A.
 Alpha  occ. eigenvalues --  -38.45719 -38.45168 -38.44347 -38.43663 -38.43650
 Alpha  occ. eigenvalues --  -38.43413 -38.43359  -2.21632  -2.21085  -2.20173
 Alpha  occ. eigenvalues --   -2.19502  -2.19486  -2.19250  -2.19197  -1.15721
 Alpha  occ. eigenvalues --   -1.15234  -1.15206  -1.14673  -1.14670  -1.14608
 Alpha  occ. eigenvalues --   -1.13866  -1.13835  -1.13821  -1.13197  -1.13155
 Alpha  occ. eigenvalues --   -1.13147  -1.13131  -1.13110  -1.13094  -1.13071
 Alpha  occ. eigenvalues --   -1.12890  -1.12883  -1.12848  -1.12830  -1.12758
 Alpha  occ. eigenvalues --   -0.16684  -0.14370  -0.12622  -0.09690
 Alpha virt. eigenvalues --   -0.06171  -0.05649  -0.04686  -0.03867  -0.02954
 Alpha virt. eigenvalues --   -0.02691  -0.01650  -0.01441  -0.01342  -0.00616
 Alpha virt. eigenvalues --    0.00058   0.00101   0.00260   0.00506   0.00570

  Beta  occ. eigenvalues --  -38.45706 -38.45140 -38.44344 -38.43638 -38.43581
  Beta  occ. eigenvalues --  -38.43363 -38.43356  -2.21613  -2.21035  -2.20170
  Beta  occ. eigenvalues --   -2.19439  -2.19375  -2.19202  -2.19151  -1.15698
  Beta  occ. eigenvalues --   -1.15226  -1.15162  -1.14640  -1.14616  -1.14583
  Beta  occ. eigenvalues --   -1.13865  -1.13835  -1.13798  -1.13113  -1.13108
  Beta  occ. eigenvalues --   -1.13099  -1.13079  -1.13058  -1.13032  -1.13016
  Beta  occ. eigenvalues --   -1.12872  -1.12840  -1.12806  -1.12796  -1.12712
  Beta  occ. eigenvalues --   -0.16089  -0.14002  -0.12217
  Beta virt. eigenvalues --   -0.06418  -0.06057  -0.05278  -0.04268  -0.03734
  Beta virt. eigenvalues --   -0.02627  -0.02469  -0.01393  -0.01214  -0.01161
  Beta virt. eigenvalues --   -0.00270   0.00226   0.00328   0.00364   0.00610

 Mulliken charges and spin densities:
               1          2
     1  Na   0.616976   0.108740
     2  Na   0.326805   0.149780
     3  Na   0.182350   0.257609
     4  Na  -0.181907   0.024088
     5  Na  -2.056121   0.143986
     6  Na   0.959713   0.093640
     7  Na   0.152185   0.222157
 Sum of Mulliken charges =  -0.00000   1.00000

 Dipole moment (field-independent basis, Debye):
    X=              1.6658    Y=             -0.8776    Z=             -0.2153  Tot=              1.8951
 Quadrupole moment (field-independent basis, Debye-Ang):
   XX=            -67.5885   YY=            -72.8527   ZZ=            -63.4484
   XY=              1.0308   XZ=             -3.2328   YZ=             -3.9451

 Normal termination of Gaussian 16 at Thu Dec  7 07:33:23 2023.
