 Gaussian 16, Revision B.01,
 Gaussian 16:  ES64L-G16RevB.01 20-Dec-2017

 -------------------------
 #P B3LYP/6-311+g(d) force
 -------------------------

 -----
 DPGEN
 -----
 Symbolic Z-matrix:
 Charge =  0 Multiplicity = 2

                         Standard orientation:
 ---------------------------------------------------------------------
 Center     Atomic      Atomic             Coordinates (Angstroms)
 Number     Number       Type             X           Y           Z
 ---------------------------------------------------------------------
      1         11           0        0.557023    3.172463    1.712054
      2         11           0        0.783569   -0.537285   -1.755000
      3         11           0       -1.299069   -3.090528    1.700085
      4         11           0        3.787367   -0.841745   -0.800904
      5         11           0        0.701251   -0.243301    1.243718
      6         11           0       -2.717911   -0.871411   -1.088237
      7         11           0       -1.812231    2.411806   -1.011716
 ---------------------------------------------------------------------

 SCF Done:  E(UB3LYP) =  -1136.12163235     A.U. after   20 cycles

 The electronic state is 2-A.
 Alpha  occ. eigenvalues --  -38.44288 -38.44189 -38.43982 -38.43954 -38.43868
 Alpha  occ. eigenvalues --  -38.43842 -38.43842  -2.20097  -2.20078  -2.19857
 Alpha  occ. eigenvalues --   -2.19775  -2.19662  -2.19658  -2.19650  -1.13885
 Alpha  occ. eigenvalues --   -1.13744  -1.13731  -1.13725  -1.13712  -1.13687
 Alpha  occ. eigenvalues --   -1.13558  -1.13488  -1.13467  -1.13462  -1.13449
 Alpha  occ. eigenvalues --   -1.13407  -1.13345  -1.13325  -1.13319  -1.13315
 Alpha  occ. eigenvalues --   -1.13307  -1.13300  -1.13276  -1.13273  -1.13272
 Alpha  occ. eigenvalues --   -0.17524  -0.12647  -0.12334  -0.11741
 Alpha virt. eigenvalues --   -0.05777  -0.05068  -0.04931  -0.03232  -0.03106
 Alpha virt. eigenvalues --   -0.02652  -0.01749  -0.01251  -0.00816  -0.00131
 Alpha virt. eigenvalues --   -0.00026   0.00280   0.00307   0.00532   0.00797

  Beta  occ. eigenvalues --  -38.44226 -38.44152 -38.43975 -38.43915 -38.43832
  Beta  occ. eigenvalues --  -38.43827 -38.43821  -2.20029  -2.19962  -2.19788
  Beta  occ. eigenvalues --   -2.19766  -2.19635  -2.19633  -2.19576  -1.13840
  Beta  occ. eigenvalues --   -1.13691  -1.13656  -1.13655  -1.13647  -1.13617
  Beta  occ. eigenvalues --   -1.13505  -1.13463  -1.13439  -1.13429  -1.13413
  Beta  occ. eigenvalues --   -1.13387  -1.13327  -1.13305  -1.13296  -1.13290
  Beta  occ. eigenvalues --   -1.13265  -1.13259  -1.13249  -1.13240  -1.13225
  Beta  occ. eigenvalues --   -0.16897  -0.12312  -0.11826
  Beta virt. eigenvalues --   -0.08175  -0.05569  -0.04668  -0.04487  -0.02959
  Beta virt. eigenvalues --   -0.02765  -0.02099  -0.01595  -0.01036  -0.00527
  Beta virt. eigenvalues --    0.00069   0.00117   0.00314   0.00453   0.00606

 Mulliken charges and spin densities:
               1          2
     1  Na   0.266041   0.136913
     2  Na  -0.082936   0.259931
     3  Na   0.119349   0.236031
     4  Na   0.291678   0.120375
     5  Na  -0.563628   0.202923
     6  Na   0.199612  -0.021911
     7  Na  -0.230116   0.065738
 Sum of Mulliken charges =  -0.00000   1.00000

 Dipole moment (field-independent basis, Debye):
    X=              0.2573    Y=             -0.2156    Z=             -0.1550  Tot=              0.3698
 Quadrupole moment (field-independent basis, Debye-Ang):
   XX=            -61.0802   YY=            -65.0372   ZZ=            -67.4767
   XY=              0.4225   XZ=              2.3128   YZ=             -1.5843

 Normal termination of Gaussian 16 at Tue Dec  5 16:48:40 2023.
