 Gaussian 16, Revision B.01,
 Gaussian 16:  ES64L-G16RevB.01 20-Dec-2017

 -------------------------
 #P B3LYP/6-311+g(d) force
 -------------------------

 -----
 DPGEN
 -----
 Symbolic Z-matrix:
 Charge =  0 Multiplicity = 2

                         Standard orientation:
 ---------------------------------------------------------------------
 Center     Atomic      Atomic             Coordinates (Angstroms)
 Number     Number       Type             X           Y           Z
 ---------------------------------------------------------------------
      1         11           0        1.388830    2.507040   -0.101086
      2         11           0       -0.143325   -0.290636   -1.529402
      3         11           0       -2.966686   -1.196476   -0.116711
      4         11           0       -2.105119    2.076633   -0.172931
      5         11           0        0.336158    0.214426    2.075572
      6         11           0        0.099116   -2.568127    0.291535
      7         11           0        3.391026   -0.742859   -0.446978
 ---------------------------------------------------------------------

 SCF Done:  E(UB3LYP) =  -1136.13417196     A.U. after   19 cycles

 The electronic state is 2-A.
 Alpha  occ. eigenvalues --  -38.44493 -38.43893 -38.43518 -38.43435 -38.43414
 Alpha  occ. eigenvalues --  -38.43330 -38.43190  -2.20268  -2.19754  -2.19425
 Alpha  occ. eigenvalues --   -2.19350  -2.19292  -2.19264  -2.19115  -1.13942
 Alpha  occ. eigenvalues --   -1.13920  -1.13902  -1.13440  -1.13411  -1.13403
 Alpha  occ. eigenvalues --   -1.13159  -1.13101  -1.13078  -1.13038  -1.13032
 Alpha  occ. eigenvalues --   -1.12973  -1.12958  -1.12942  -1.12934  -1.12925
 Alpha  occ. eigenvalues --   -1.12914  -1.12871  -1.12778  -1.12761  -1.12696
 Alpha  occ. eigenvalues --   -0.18781  -0.13057  -0.12406  -0.10758
 Alpha virt. eigenvalues --   -0.05975  -0.05108  -0.04346  -0.03143  -0.02872
 Alpha virt. eigenvalues --   -0.02467  -0.01925  -0.01064  -0.00258  -0.00192
 Alpha virt. eigenvalues --   -0.00026   0.00300   0.00753   0.00865   0.00903

  Beta  occ. eigenvalues --  -38.44481 -38.43891 -38.43431 -38.43417 -38.43408
  Beta  occ. eigenvalues --  -38.43280 -38.43176  -2.20248  -2.19753  -2.19288
  Beta  occ. eigenvalues --   -2.19260  -2.19257  -2.19239  -2.19095  -1.13913
  Beta  occ. eigenvalues --   -1.13908  -1.13891  -1.13436  -1.13412  -1.13388
  Beta  occ. eigenvalues --   -1.13103  -1.13020  -1.12978  -1.12963  -1.12951
  Beta  occ. eigenvalues --   -1.12934  -1.12926  -1.12905  -1.12901  -1.12882
  Beta  occ. eigenvalues --   -1.12869  -1.12863  -1.12752  -1.12708  -1.12688
  Beta  occ. eigenvalues --   -0.18068  -0.12800  -0.12165
  Beta virt. eigenvalues --   -0.06857  -0.05873  -0.05099  -0.04315  -0.02432
  Beta virt. eigenvalues --   -0.02092  -0.01789  -0.01428  -0.01025  -0.00298
  Beta virt. eigenvalues --   -0.00185   0.00108   0.00344   0.00815   0.00863

 Mulliken charges and spin densities:
               1          2
     1  Na   0.124080  -0.039336
     2  Na  -0.613032   0.447902
     3  Na   0.292808  -0.017220
     4  Na   0.162503  -0.044525
     5  Na  -0.440172   0.589427
     6  Na   0.428034   0.062527
     7  Na   0.045779   0.001225
 Sum of Mulliken charges =  -0.00000   1.00000

 Dipole moment (field-independent basis, Debye):
    X=              0.2209    Y=              0.0054    Z=              0.1226  Tot=              0.2527
 Quadrupole moment (field-independent basis, Debye-Ang):
   XX=            -53.0092   YY=            -65.5790   ZZ=            -74.1208
   XY=              0.1916   XZ=             -1.1418   YZ=             -0.7854

 Normal termination of Gaussian 16 at Thu Dec  7 21:56:02 2023.
