 Gaussian 16, Revision B.01,
 Gaussian 16:  ES64L-G16RevB.01 20-Dec-2017

 -------------------------
 #P B3LYP/6-311+g(d) force
 -------------------------

 -----
 DPGEN
 -----
 Symbolic Z-matrix:
 Charge =  0 Multiplicity = 2

                         Standard orientation:
 ---------------------------------------------------------------------
 Center     Atomic      Atomic             Coordinates (Angstroms)
 Number     Number       Type             X           Y           Z
 ---------------------------------------------------------------------
      1         11           0        0.940262   -2.780293   -0.440727
      2         11           0        3.574999   -0.629324    0.033690
      3         11           0       -2.244553   -1.370646    0.002550
      4         11           0        0.489016    0.146022    2.037665
      5         11           0        1.908079    3.047258   -0.150435
      6         11           0       -4.696248    0.876969    0.077794
      7         11           0        0.028444    0.710015   -1.560536
 ---------------------------------------------------------------------

 SCF Done:  E(UB3LYP) =  -1136.11697166     A.U. after   29 cycles

 The electronic state is 2-A.
 Alpha  occ. eigenvalues --  -38.45815 -38.45340 -38.44913 -38.43496 -38.43291
 Alpha  occ. eigenvalues --  -38.43184 -38.43028  -2.21607  -2.21117  -2.20689
 Alpha  occ. eigenvalues --   -2.19383  -2.19158  -2.18986  -2.18866  -1.15290
 Alpha  occ. eigenvalues --   -1.15238  -1.15236  -1.14800  -1.14775  -1.14743
 Alpha  occ. eigenvalues --   -1.14342  -1.14336  -1.14312  -1.13067  -1.13025
 Alpha  occ. eigenvalues --   -1.13005  -1.12851  -1.12839  -1.12787  -1.12655
 Alpha  occ. eigenvalues --   -1.12651  -1.12623  -1.12545  -1.12526  -1.12512
 Alpha  occ. eigenvalues --   -0.17792  -0.13404  -0.11732  -0.10390
 Alpha virt. eigenvalues --   -0.07797  -0.05042  -0.04326  -0.03158  -0.03046
 Alpha virt. eigenvalues --   -0.02464  -0.02324  -0.01595  -0.00891  -0.00597
 Alpha virt. eigenvalues --   -0.00394  -0.00017   0.00293   0.00564   0.00684

  Beta  occ. eigenvalues --  -38.45771 -38.45336 -38.44858 -38.43422 -38.43284
  Beta  occ. eigenvalues --  -38.43183 -38.43024  -2.21526  -2.21111  -2.20585
  Beta  occ. eigenvalues --   -2.19246  -2.19150  -2.18986  -2.18864  -1.15225
  Beta  occ. eigenvalues --   -1.15182  -1.15180  -1.14788  -1.14765  -1.14747
  Beta  occ. eigenvalues --   -1.14271  -1.14262  -1.14244  -1.12979  -1.12939
  Beta  occ. eigenvalues --   -1.12902  -1.12851  -1.12823  -1.12745  -1.12656
  Beta  occ. eigenvalues --   -1.12637  -1.12620  -1.12551  -1.12523  -1.12486
  Beta  occ. eigenvalues --   -0.17218  -0.12922  -0.11559
  Beta virt. eigenvalues --   -0.07534  -0.06811  -0.04909  -0.04178  -0.02873
  Beta virt. eigenvalues --   -0.02638  -0.01998  -0.01691  -0.01351  -0.00824
  Beta virt. eigenvalues --   -0.00325  -0.00251   0.00031   0.00502   0.00650

 Mulliken charges and spin densities:
               1          2
     1  Na   0.085971  -0.066274
     2  Na   0.122281   0.085180
     3  Na  -0.196120   0.169262
     4  Na  -0.095693   0.361873
     5  Na  -0.059097  -0.107019
     6  Na   0.239140   0.228475
     7  Na  -0.096483   0.328504
 Sum of Mulliken charges =  -0.00000   1.00000

 Dipole moment (field-independent basis, Debye):
    X=              0.4749    Y=              0.2805    Z=              0.1862  Tot=              0.5822
 Quadrupole moment (field-independent basis, Debye-Ang):
   XX=            -55.9787   YY=            -69.1928   ZZ=            -71.4598
   XY=             -2.2328   XZ=             -2.0422   YZ=              1.8589

 Normal termination of Gaussian 16 at Fri Dec  8 07:06:16 2023.
