 Gaussian 16, Revision B.01,
 Gaussian 16:  ES64L-G16RevB.01 20-Dec-2017

 -------------------------
 #P B3LYP/6-311+g(d) force
 -------------------------

 -----
 DPGEN
 -----
 Symbolic Z-matrix:
 Charge =  0 Multiplicity = 2

                         Standard orientation:
 ---------------------------------------------------------------------
 Center     Atomic      Atomic             Coordinates (Angstroms)
 Number     Number       Type             X           Y           Z
 ---------------------------------------------------------------------
      1         11           0       -0.297859    2.759096    0.199338
      2         11           0        2.939482    1.212977   -0.246143
      3         11           0       -2.043223   -1.977668    0.604205
      4         11           0        0.408353   -0.316414    2.541071
      5         11           0        2.301308   -1.951642   -0.946198
      6         11           0       -0.326041   -0.507515   -1.227740
      7         11           0       -2.982020    0.781166   -0.924534
 ---------------------------------------------------------------------

 SCF Done:  E(UB3LYP) =  -1136.12461229     A.U. after   22 cycles

 The electronic state is 2-A.
 Alpha  occ. eigenvalues --  -38.44851 -38.44172 -38.43979 -38.43821 -38.43676
 Alpha  occ. eigenvalues --  -38.43284 -38.42764  -2.20675  -2.19986  -2.19878
 Alpha  occ. eigenvalues --   -2.19721  -2.19542  -2.19369  -2.18587  -1.14327
 Alpha  occ. eigenvalues --   -1.14298  -1.14285  -1.13665  -1.13653  -1.13647
 Alpha  occ. eigenvalues --   -1.13629  -1.13543  -1.13494  -1.13473  -1.13362
 Alpha  occ. eigenvalues --   -1.13325  -1.13305  -1.13169  -1.13159  -1.13022
 Alpha  occ. eigenvalues --   -1.12974  -1.12961  -1.12269  -1.12260  -1.12220
 Alpha  occ. eigenvalues --   -0.18511  -0.13464  -0.11816  -0.11642
 Alpha virt. eigenvalues --   -0.05658  -0.05130  -0.04281  -0.03531  -0.03194
 Alpha virt. eigenvalues --   -0.02861  -0.01588  -0.00916  -0.00398   0.00014
 Alpha virt. eigenvalues --    0.00062   0.00352   0.00663   0.00799   0.00876

  Beta  occ. eigenvalues --  -38.44732 -38.44170 -38.43959 -38.43808 -38.43654
  Beta  occ. eigenvalues --  -38.43253 -38.42764  -2.20457  -2.19985  -2.19842
  Beta  occ. eigenvalues --   -2.19701  -2.19502  -2.19315  -2.18589  -1.14178
  Beta  occ. eigenvalues --   -1.14152  -1.14125  -1.13657  -1.13653  -1.13621
  Beta  occ. eigenvalues --   -1.13620  -1.13517  -1.13475  -1.13455  -1.13332
  Beta  occ. eigenvalues --   -1.13299  -1.13271  -1.13144  -1.13125  -1.12973
  Beta  occ. eigenvalues --   -1.12936  -1.12928  -1.12272  -1.12253  -1.12217
  Beta  occ. eigenvalues --   -0.17831  -0.13196  -0.11569
  Beta virt. eigenvalues --   -0.07627  -0.05593  -0.04963  -0.04026  -0.02990
  Beta virt. eigenvalues --   -0.02268  -0.02090  -0.01495  -0.00849  -0.00232
  Beta virt. eigenvalues --    0.00064   0.00105   0.00395   0.00835   0.00881

 Mulliken charges and spin densities:
               1          2
     1  Na  -0.404619   0.167668
     2  Na  -0.079989   0.024197
     3  Na  -0.387268   0.377721
     4  Na  -0.255234   0.535732
     5  Na   0.574311   0.204142
     6  Na  -0.800015  -0.223893
     7  Na   1.352814  -0.085566
 Sum of Mulliken charges =  -0.00000   1.00000

 Dipole moment (field-independent basis, Debye):
    X=              0.1355    Y=             -0.1695    Z=              0.4896  Tot=              0.5355
 Quadrupole moment (field-independent basis, Debye-Ang):
   XX=            -55.8256   YY=            -69.6847   ZZ=            -69.5254
   XY=              0.3998   XZ=              0.4973   YZ=             -0.8754

 Normal termination of Gaussian 16 at Thu Dec  7 23:51:14 2023.
