 Gaussian 16, Revision B.01,
 Gaussian 16:  ES64L-G16RevB.01 20-Dec-2017

 -------------------------
 #P B3LYP/6-311+g(d) force
 -------------------------

 -----
 DPGEN
 -----
 Symbolic Z-matrix:
 Charge =  0 Multiplicity = 2

                         Standard orientation:
 ---------------------------------------------------------------------
 Center     Atomic      Atomic             Coordinates (Angstroms)
 Number     Number       Type             X           Y           Z
 ---------------------------------------------------------------------
      1         11           0        0.424815   -0.509256    2.229785
      2         11           0        2.692980   -1.365790   -0.828307
      3         11           0       -0.690661   -1.971625   -1.031982
      4         11           0        3.341659    1.203594    0.593671
      5         11           0        0.474072    1.423972   -1.076007
      6         11           0       -2.527554    1.991102   -0.407393
      7         11           0       -3.715311   -0.771998    0.520234
 ---------------------------------------------------------------------

 SCF Done:  E(UB3LYP) =  -1136.11603016     A.U. after   29 cycles

 The electronic state is 2-A.
 Alpha  occ. eigenvalues --  -38.45605 -38.44883 -38.44715 -38.44451 -38.43414
 Alpha  occ. eigenvalues --  -38.43393 -38.42879  -2.21398  -2.20686  -2.20588
 Alpha  occ. eigenvalues --   -2.20340  -2.19301  -2.19265  -2.18729  -1.15075
 Alpha  occ. eigenvalues --   -1.15065  -1.15026  -1.14362  -1.14339  -1.14319
 Alpha  occ. eigenvalues --   -1.14296  -1.14232  -1.14211  -1.14001  -1.13971
 Alpha  occ. eigenvalues --   -1.13967  -1.13053  -1.12977  -1.12960  -1.12915
 Alpha  occ. eigenvalues --   -1.12906  -1.12863  -1.12424  -1.12381  -1.12356
 Alpha  occ. eigenvalues --   -0.18378  -0.14334  -0.11175  -0.10985
 Alpha virt. eigenvalues --   -0.07511  -0.05472  -0.04334  -0.03263  -0.02901
 Alpha virt. eigenvalues --   -0.02577  -0.02336  -0.01318  -0.00752  -0.00320
 Alpha virt. eigenvalues --    0.00033   0.00157   0.00266   0.00586   0.00737

  Beta  occ. eigenvalues --  -38.45603 -38.44797 -38.44696 -38.44430 -38.43414
  Beta  occ. eigenvalues --  -38.43363 -38.42852  -2.21395  -2.20555  -2.20526
  Beta  occ. eigenvalues --   -2.20306  -2.19268  -2.19248  -2.18681  -1.15075
  Beta  occ. eigenvalues --   -1.15058  -1.15024  -1.14321  -1.14254  -1.14215
  Beta  occ. eigenvalues --   -1.14210  -1.14180  -1.14159  -1.13962  -1.13944
  Beta  occ. eigenvalues --   -1.13938  -1.13035  -1.12944  -1.12920  -1.12910
  Beta  occ. eigenvalues --   -1.12893  -1.12844  -1.12391  -1.12343  -1.12310
  Beta  occ. eigenvalues --   -0.17664  -0.14190  -0.10862
  Beta virt. eigenvalues --   -0.07441  -0.06998  -0.05468  -0.03750  -0.03001
  Beta virt. eigenvalues --   -0.02652  -0.02014  -0.01554  -0.01198  -0.00476
  Beta virt. eigenvalues --   -0.00263   0.00082   0.00176   0.00439   0.00674

 Mulliken charges and spin densities:
               1          2
     1  Na  -0.590736   0.485084
     2  Na   0.251413   0.064938
     3  Na  -0.243334  -0.023860
     4  Na   1.071642   0.197646
     5  Na  -0.776138   0.274595
     6  Na  -0.165168  -0.153887
     7  Na   0.452319   0.155484
 Sum of Mulliken charges =  -0.00000   1.00000

 Dipole moment (field-independent basis, Debye):
    X=              0.0188    Y=             -0.4894    Z=              0.6329  Tot=              0.8003
 Quadrupole moment (field-independent basis, Debye-Ang):
   XX=            -44.7539   YY=            -77.8062   ZZ=            -72.1948
   XY=              2.0096   XZ=             -2.0742   YZ=              2.0445

 Normal termination of Gaussian 16 at Thu Dec  7 18:10:58 2023.
