 Gaussian 16, Revision B.01,
 Gaussian 16:  ES64L-G16RevB.01 20-Dec-2017

 -------------------------
 #P B3LYP/6-311+g(d) force
 -------------------------

 -----
 DPGEN
 -----
 Symbolic Z-matrix:
 Charge =  0 Multiplicity = 2

                         Standard orientation:
 ---------------------------------------------------------------------
 Center     Atomic      Atomic             Coordinates (Angstroms)
 Number     Number       Type             X           Y           Z
 ---------------------------------------------------------------------
      1         11           0        0.381068   -1.883076   -1.109115
      2         11           0        1.585075    1.164829   -1.695752
      3         11           0       -2.936839   -2.366399   -0.388199
      4         11           0        0.643214    0.419170    1.954107
      5         11           0        3.551276   -1.247294    0.785407
      6         11           0       -2.567391    0.706583    0.930372
      7         11           0       -0.656402    3.206187   -0.476821
 ---------------------------------------------------------------------

 SCF Done:  E(UB3LYP) =  -1136.12998259     A.U. after   19 cycles

 The electronic state is 2-A.
 Alpha  occ. eigenvalues --  -38.44544 -38.44517 -38.44085 -38.43806 -38.43793
 Alpha  occ. eigenvalues --  -38.43453 -38.43406  -2.20365  -2.20332  -2.19951
 Alpha  occ. eigenvalues --   -2.19648  -2.19640  -2.19278  -2.19209  -1.14050
 Alpha  occ. eigenvalues --   -1.14022  -1.14003  -1.13998  -1.13967  -1.13942
 Alpha  occ. eigenvalues --   -1.13645  -1.13598  -1.13561  -1.13347  -1.13340
 Alpha  occ. eigenvalues --   -1.13322  -1.13305  -1.13258  -1.13244  -1.12951
 Alpha  occ. eigenvalues --   -1.12946  -1.12910  -1.12873  -1.12868  -1.12854
 Alpha  occ. eigenvalues --   -0.17819  -0.13111  -0.12314  -0.11360
 Alpha virt. eigenvalues --   -0.06006  -0.05231  -0.04879  -0.03388  -0.02996
 Alpha virt. eigenvalues --   -0.02711  -0.01949  -0.01111  -0.00343  -0.00199
 Alpha virt. eigenvalues --   -0.00119   0.00315   0.00459   0.00597   0.00743

  Beta  occ. eigenvalues --  -38.44522 -38.44446 -38.44020 -38.43777 -38.43775
  Beta  occ. eigenvalues --  -38.43450 -38.43409  -2.20293  -2.20234  -2.19832
  Beta  occ. eigenvalues --   -2.19611  -2.19592  -2.19275  -2.19215  -1.13975
  Beta  occ. eigenvalues --   -1.13962  -1.13960  -1.13933  -1.13919  -1.13864
  Beta  occ. eigenvalues --   -1.13560  -1.13517  -1.13475  -1.13309  -1.13305
  Beta  occ. eigenvalues --   -1.13286  -1.13273  -1.13245  -1.13209  -1.12948
  Beta  occ. eigenvalues --   -1.12938  -1.12899  -1.12879  -1.12865  -1.12859
  Beta  occ. eigenvalues --   -0.17132  -0.12890  -0.12050
  Beta virt. eigenvalues --   -0.07617  -0.05716  -0.04962  -0.04598  -0.02934
  Beta virt. eigenvalues --   -0.02495  -0.01992  -0.01713  -0.01025  -0.00237
  Beta virt. eigenvalues --   -0.00116   0.00083   0.00363   0.00598   0.00739

 Mulliken charges and spin densities:
               1          2
     1  Na  -0.348277   0.356406
     2  Na  -0.059166   0.236065
     3  Na   0.123337  -0.156101
     4  Na  -0.215475   0.373010
     5  Na   0.413769   0.031148
     6  Na   0.055010   0.202356
     7  Na   0.030803  -0.042884
 Sum of Mulliken charges =  -0.00000   1.00000

 Dipole moment (field-independent basis, Debye):
    X=              0.8156    Y=              0.0153    Z=              0.1886  Tot=              0.8373
 Quadrupole moment (field-independent basis, Debye-Ang):
   XX=            -57.1320   YY=            -67.0793   ZZ=            -71.1329
   XY=             -2.7529   XZ=              0.2126   YZ=             -0.4808

 Normal termination of Gaussian 16 at Sun Dec  3 12:19:31 2023.
