 Gaussian 16, Revision B.01,
 Gaussian 16:  ES64L-G16RevB.01 20-Dec-2017

 -------------------------
 #P B3LYP/6-311+g(d) force
 -------------------------

 -----
 DPGEN
 -----
 Symbolic Z-matrix:
 Charge =  0 Multiplicity = 2

                         Standard orientation:
 ---------------------------------------------------------------------
 Center     Atomic      Atomic             Coordinates (Angstroms)
 Number     Number       Type             X           Y           Z
 ---------------------------------------------------------------------
      1         11           0        0.204530   -0.184341   -0.838739
      2         11           0       -1.763642    2.080410    0.319677
      3         11           0       -3.406522   -0.670289   -1.376365
      4         11           0       -1.920867   -1.171230    1.608362
      5         11           0        1.919904   -1.202831    1.609290
      6         11           0        2.081252    2.276097    0.172156
      7         11           0        2.885345   -1.127816   -1.494382
 ---------------------------------------------------------------------

 SCF Done:  E(UB3LYP) =  -1136.12094122     A.U. after   23 cycles

 The electronic state is 2-A.
 Alpha  occ. eigenvalues --  -38.44662 -38.44180 -38.44021 -38.44009 -38.43407
 Alpha  occ. eigenvalues --  -38.43241 -38.43169  -2.20488  -2.20081  -2.19905
 Alpha  occ. eigenvalues --   -2.19876  -2.19338  -2.19258  -2.18991  -1.14151
 Alpha  occ. eigenvalues --   -1.14137  -1.14113  -1.13843  -1.13724  -1.13680
 Alpha  occ. eigenvalues --   -1.13609  -1.13562  -1.13538  -1.13534  -1.13516
 Alpha  occ. eigenvalues --   -1.13486  -1.13079  -1.13017  -1.12966  -1.12941
 Alpha  occ. eigenvalues --   -1.12908  -1.12847  -1.12669  -1.12659  -1.12608
 Alpha  occ. eigenvalues --   -0.18530  -0.14361  -0.11178  -0.10818
 Alpha virt. eigenvalues --   -0.06072  -0.05449  -0.05119  -0.03213  -0.02415
 Alpha virt. eigenvalues --   -0.02188  -0.02025  -0.00952  -0.00782  -0.00078
 Alpha virt. eigenvalues --    0.00157   0.00230   0.00407   0.00530   0.00598

  Beta  occ. eigenvalues --  -38.44625 -38.44139 -38.43986 -38.43970 -38.43403
  Beta  occ. eigenvalues --  -38.43214 -38.43168  -2.20418  -2.20004  -2.19841
  Beta  occ. eigenvalues --   -2.19806  -2.19297  -2.19252  -2.18991  -1.14098
  Beta  occ. eigenvalues --   -1.14090  -1.14068  -1.13787  -1.13674  -1.13626
  Beta  occ. eigenvalues --   -1.13563  -1.13517  -1.13494  -1.13486  -1.13452
  Beta  occ. eigenvalues --   -1.13418  -1.13035  -1.12967  -1.12945  -1.12922
  Beta  occ. eigenvalues --   -1.12894  -1.12843  -1.12660  -1.12659  -1.12608
  Beta  occ. eigenvalues --   -0.17861  -0.14116  -0.10733
  Beta virt. eigenvalues --   -0.07331  -0.05734  -0.05211  -0.04632  -0.02974
  Beta virt. eigenvalues --   -0.02034  -0.01821  -0.01519  -0.00793  -0.00363
  Beta virt. eigenvalues --    0.00053   0.00285   0.00397   0.00497   0.00627

 Mulliken charges and spin densities:
               1          2
     1  Na  -0.927222   0.272537
     2  Na   0.131541   0.118746
     3  Na   0.629324   0.154877
     4  Na  -0.037135   0.099579
     5  Na   0.218957   0.240399
     6  Na  -0.220177  -0.059166
     7  Na   0.204711   0.173029
 Sum of Mulliken charges =  -0.00000   1.00000

 Dipole moment (field-independent basis, Debye):
    X=             -0.3321    Y=             -0.2064    Z=              0.0486  Tot=              0.3940
 Quadrupole moment (field-independent basis, Debye-Ang):
   XX=            -49.9881   YY=            -76.7788   ZZ=            -65.9051
   XY=              0.1211   XZ=              1.3465   YZ=              1.2568

 Normal termination of Gaussian 16 at Sat Dec  9 06:17:12 2023.
