 Gaussian 16, Revision B.01,
 Gaussian 16:  ES64L-G16RevB.01 20-Dec-2017

 -------------------------
 #P B3LYP/6-311+g(d) force
 -------------------------

 -----
 DPGEN
 -----
 Symbolic Z-matrix:
 Charge =  0 Multiplicity = 2

                         Standard orientation:
 ---------------------------------------------------------------------
 Center     Atomic      Atomic             Coordinates (Angstroms)
 Number     Number       Type             X           Y           Z
 ---------------------------------------------------------------------
      1         11           0        3.631630    0.360498    0.347476
      2         11           0       -2.542109   -1.645833    0.507791
      3         11           0        0.189063   -0.693533    2.135152
      4         11           0       -1.314512   -0.001461   -1.965323
      5         11           0        1.072297    1.906332   -0.304769
      6         11           0       -2.508090    1.888768    0.394803
      7         11           0        1.471721   -1.814770   -1.115129
 ---------------------------------------------------------------------

 SCF Done:  E(UB3LYP) =  -1136.12777687     A.U. after   22 cycles

 The electronic state is 2-A.
 Alpha  occ. eigenvalues --  -38.44785 -38.44292 -38.43864 -38.43798 -38.43767
 Alpha  occ. eigenvalues --  -38.43561 -38.42883  -2.20627  -2.20141  -2.19804
 Alpha  occ. eigenvalues --   -2.19657  -2.19621  -2.19406  -2.18776  -1.14320
 Alpha  occ. eigenvalues --   -1.14283  -1.14255  -1.13814  -1.13776  -1.13766
 Alpha  occ. eigenvalues --   -1.13498  -1.13485  -1.13422  -1.13331  -1.13306
 Alpha  occ. eigenvalues --   -1.13303  -1.13282  -1.13268  -1.13237  -1.13075
 Alpha  occ. eigenvalues --   -1.13061  -1.13039  -1.12463  -1.12458  -1.12402
 Alpha  occ. eigenvalues --   -0.18656  -0.13884  -0.11663  -0.11185
 Alpha virt. eigenvalues --   -0.06411  -0.05191  -0.04339  -0.03358  -0.02938
 Alpha virt. eigenvalues --   -0.02691  -0.02018  -0.00951  -0.00478  -0.00066
 Alpha virt. eigenvalues --    0.00239   0.00260   0.00381   0.00710   0.00835

  Beta  occ. eigenvalues --  -38.44784 -38.44221 -38.43795 -38.43793 -38.43728
  Beta  occ. eigenvalues --  -38.43555 -38.42875  -2.20627  -2.20011  -2.19678
  Beta  occ. eigenvalues --   -2.19652  -2.19551  -2.19395  -2.18765  -1.14322
  Beta  occ. eigenvalues --   -1.14275  -1.14255  -1.13730  -1.13685  -1.13669
  Beta  occ. eigenvalues --   -1.13433  -1.13399  -1.13329  -1.13307  -1.13284
  Beta  occ. eigenvalues --   -1.13272  -1.13249  -1.13205  -1.13192  -1.13060
  Beta  occ. eigenvalues --   -1.13050  -1.13027  -1.12460  -1.12421  -1.12401
  Beta  occ. eigenvalues --   -0.17886  -0.13737  -0.10957
  Beta virt. eigenvalues --   -0.07665  -0.06217  -0.05114  -0.03737  -0.03013
  Beta virt. eigenvalues --   -0.02284  -0.01950  -0.01885  -0.00851  -0.00245
  Beta virt. eigenvalues --    0.00022   0.00243   0.00314   0.00575   0.00771

 Mulliken charges and spin densities:
               1          2
     1  Na   0.695240  -0.013115
     2  Na   0.159890  -0.055194
     3  Na  -0.318191   0.499497
     4  Na   0.324951   0.421277
     5  Na  -0.651230   0.052213
     6  Na   0.025789   0.053705
     7  Na  -0.236448   0.041616
 Sum of Mulliken charges =  -0.00000   1.00000

 Dipole moment (field-independent basis, Debye):
    X=              0.5290    Y=             -0.2824    Z=              0.3737  Tot=              0.7066
 Quadrupole moment (field-independent basis, Debye-Ang):
   XX=            -50.6797   YY=            -76.1883   ZZ=            -68.2583
   XY=             -0.5615   XZ=              0.1870   YZ=              3.0574

 Normal termination of Gaussian 16 at Fri Dec  8 00:06:14 2023.
