 Gaussian 16, Revision B.01,
 Gaussian 16:  ES64L-G16RevB.01 20-Dec-2017

 -------------------------
 #P B3LYP/6-311+g(d) force
 -------------------------

 -----
 DPGEN
 -----
 Symbolic Z-matrix:
 Charge =  0 Multiplicity = 2

                         Standard orientation:
 ---------------------------------------------------------------------
 Center     Atomic      Atomic             Coordinates (Angstroms)
 Number     Number       Type             X           Y           Z
 ---------------------------------------------------------------------
      1         11           0        2.062027    1.829374    0.314101
      2         11           0       -0.886928   -2.727922    0.440281
      3         11           0        0.114439   -0.386698   -1.633567
      4         11           0       -3.147838   -0.193160   -0.414363
      5         11           0       -0.110413    0.034624    2.078195
      6         11           0        2.913778   -1.396063   -0.488923
      7         11           0       -0.945064    2.839845   -0.295725
 ---------------------------------------------------------------------

 SCF Done:  E(UB3LYP) =  -1136.13758186     A.U. after   19 cycles

 The electronic state is 2-A.
 Alpha  occ. eigenvalues --  -38.44011 -38.43816 -38.43684 -38.43603 -38.43355
 Alpha  occ. eigenvalues --  -38.43291 -38.43288  -2.19830  -2.19722  -2.19519
 Alpha  occ. eigenvalues --   -2.19469  -2.19266  -2.19255  -2.19130  -1.13511
 Alpha  occ. eigenvalues --   -1.13486  -1.13468  -1.13392  -1.13369  -1.13338
 Alpha  occ. eigenvalues --   -1.13227  -1.13172  -1.13161  -1.13149  -1.13140
 Alpha  occ. eigenvalues --   -1.13079  -1.12967  -1.12934  -1.12932  -1.12901
 Alpha  occ. eigenvalues --   -1.12887  -1.12874  -1.12797  -1.12779  -1.12758
 Alpha  occ. eigenvalues --   -0.18687  -0.12981  -0.12450  -0.11062
 Alpha virt. eigenvalues --   -0.05506  -0.04895  -0.04788  -0.03296  -0.02988
 Alpha virt. eigenvalues --   -0.02708  -0.01516  -0.01059  -0.00320  -0.00140
 Alpha virt. eigenvalues --   -0.00001   0.00343   0.00824   0.00876   0.00920

  Beta  occ. eigenvalues --  -38.44002 -38.43719 -38.43674 -38.43590 -38.43346
  Beta  occ. eigenvalues --  -38.43285 -38.43234  -2.19816  -2.19542  -2.19504
  Beta  occ. eigenvalues --   -2.19447  -2.19243  -2.19162  -2.19128  -1.13490
  Beta  occ. eigenvalues --   -1.13476  -1.13456  -1.13279  -1.13240  -1.13215
  Beta  occ. eigenvalues --   -1.13204  -1.13161  -1.13143  -1.13135  -1.13090
  Beta  occ. eigenvalues --   -1.13070  -1.12954  -1.12909  -1.12878  -1.12864
  Beta  occ. eigenvalues --   -1.12828  -1.12804  -1.12784  -1.12777  -1.12749
  Beta  occ. eigenvalues --   -0.17966  -0.12729  -0.12187
  Beta virt. eigenvalues --   -0.07153  -0.05453  -0.04846  -0.04708  -0.02518
  Beta virt. eigenvalues --   -0.02289  -0.01677  -0.01394  -0.00989  -0.00311
  Beta virt. eigenvalues --   -0.00158   0.00113   0.00379   0.00861   0.00906

 Mulliken charges and spin densities:
               1          2
     1  Na   0.252883   0.060388
     2  Na   0.194001   0.013734
     3  Na  -0.317136   0.495724
     4  Na   0.036730  -0.039503
     5  Na  -0.252552   0.543564
     6  Na   0.185893  -0.028191
     7  Na  -0.099818  -0.045716
 Sum of Mulliken charges =  -0.00000   1.00000

 Dipole moment (field-independent basis, Debye):
    X=             -0.2148    Y=             -0.2270    Z=              0.1142  Tot=              0.3327
 Quadrupole moment (field-independent basis, Debye-Ang):
   XX=            -57.9763   YY=            -63.2784   ZZ=            -72.8735
   XY=             -0.6497   XZ=              0.7676   YZ=             -0.8023

 Normal termination of Gaussian 16 at Thu Dec  7 05:23:18 2023.
