 Gaussian 16, Revision B.01,
 Gaussian 16:  ES64L-G16RevB.01 20-Dec-2017

 -------------------------
 #P B3LYP/6-311+g(d) force
 -------------------------

 -----
 DPGEN
 -----
 Symbolic Z-matrix:
 Charge =  0 Multiplicity = 2

                         Standard orientation:
 ---------------------------------------------------------------------
 Center     Atomic      Atomic             Coordinates (Angstroms)
 Number     Number       Type             X           Y           Z
 ---------------------------------------------------------------------
      1         11           0        0.768450   -3.596500    0.032492
      2         11           0        3.320261   -2.229299   -1.070130
      3         11           0        3.816194    1.203520    1.088499
      4         11           0        1.644131    3.547828   -0.035578
      5         11           0       -2.081634    3.220063   -0.586686
      6         11           0       -4.267161    0.397265   -0.037556
      7         11           0       -3.200240   -2.542876    0.608958
 ---------------------------------------------------------------------

 SCF Done:  E(UB3LYP) =  -1136.10641613     A.U. after   21 cycles

 The electronic state is 2-A.
 Alpha  occ. eigenvalues --  -38.44803 -38.44746 -38.44679 -38.44655 -38.44610
 Alpha  occ. eigenvalues --  -38.44329 -38.44272  -2.20584  -2.20530  -2.20475
 Alpha  occ. eigenvalues --   -2.20437  -2.20362  -2.20129  -2.20056  -1.14273
 Alpha  occ. eigenvalues --   -1.14242  -1.14231  -1.14213  -1.14193  -1.14181
 Alpha  occ. eigenvalues --   -1.14129  -1.14128  -1.14114  -1.14109  -1.14096
 Alpha  occ. eigenvalues --   -1.14067  -1.14048  -1.14038  -1.14000  -1.13777
 Alpha  occ. eigenvalues --   -1.13768  -1.13758  -1.13711  -1.13699  -1.13673
 Alpha  occ. eigenvalues --   -0.15304  -0.13908  -0.13443  -0.11028
 Alpha virt. eigenvalues --   -0.07618  -0.05116  -0.04349  -0.03527  -0.03416
 Alpha virt. eigenvalues --   -0.02434  -0.02308  -0.01827  -0.01451  -0.00994
 Alpha virt. eigenvalues --   -0.00738  -0.00269  -0.00020   0.00343   0.00625

  Beta  occ. eigenvalues --  -38.44742 -38.44730 -38.44659 -38.44657 -38.44619
  Beta  occ. eigenvalues --  -38.44270 -38.44190  -2.20504  -2.20472  -2.20451
  Beta  occ. eigenvalues --   -2.20437  -2.20384  -2.20021  -2.19904  -1.14239
  Beta  occ. eigenvalues --   -1.14178  -1.14166  -1.14161  -1.14158  -1.14134
  Beta  occ. eigenvalues --   -1.14130  -1.14129  -1.14105  -1.14084  -1.14072
  Beta  occ. eigenvalues --   -1.14067  -1.14056  -1.14030  -1.13977  -1.13704
  Beta  occ. eigenvalues --   -1.13699  -1.13684  -1.13607  -1.13597  -1.13575
  Beta  occ. eigenvalues --   -0.14757  -0.13182  -0.12726
  Beta virt. eigenvalues --   -0.07933  -0.07695  -0.04658  -0.03853  -0.03314
  Beta virt. eigenvalues --   -0.03131  -0.02223  -0.02094  -0.01659  -0.01337
  Beta virt. eigenvalues --   -0.00647  -0.00476  -0.00053   0.00203   0.00350

 Mulliken charges and spin densities:
               1          2
     1  Na  -0.178467   0.101127
     2  Na   0.031893   0.024241
     3  Na  -0.096949   0.246339
     4  Na  -0.126184  -0.020976
     5  Na   0.116201   0.422583
     6  Na   0.132322  -0.038888
     7  Na   0.121182   0.265574
 Sum of Mulliken charges =  -0.00000   1.00000

 Dipole moment (field-independent basis, Debye):
    X=              0.6796    Y=             -0.4773    Z=              0.0214  Tot=              0.8307
 Quadrupole moment (field-independent basis, Debye-Ang):
   XX=            -61.7874   YY=            -67.7292   ZZ=            -71.6265
   XY=             -0.8341   XZ=             -0.5442   YZ=             -2.4518

 Normal termination of Gaussian 16 at Mon Dec  4 04:14:50 2023.
