 Gaussian 16, Revision B.01,
 Gaussian 16:  ES64L-G16RevB.01 20-Dec-2017

 -------------------------
 #P B3LYP/6-311+g(d) force
 -------------------------

 -----
 DPGEN
 -----
 Symbolic Z-matrix:
 Charge =  0 Multiplicity = 2

                         Standard orientation:
 ---------------------------------------------------------------------
 Center     Atomic      Atomic             Coordinates (Angstroms)
 Number     Number       Type             X           Y           Z
 ---------------------------------------------------------------------
      1         11           0        1.529368    2.497113    0.643096
      2         11           0       -1.139529   -0.126587    2.135349
      3         11           0       -2.872948    2.013688   -0.685570
      4         11           0       -2.454808   -1.948023   -0.256101
      5         11           0        1.400395   -2.479084    0.225775
      6         11           0       -0.012095   -0.100903   -1.644311
      7         11           0        3.549618    0.143796   -0.418238
 ---------------------------------------------------------------------

 SCF Done:  E(UB3LYP) =  -1136.12905615     A.U. after   20 cycles

 The electronic state is 2-A.
 Alpha  occ. eigenvalues --  -38.44334 -38.44309 -38.44250 -38.43843 -38.43733
 Alpha  occ. eigenvalues --  -38.43731 -38.43484  -2.20142  -2.20097  -2.20072
 Alpha  occ. eigenvalues --   -2.19694  -2.19633  -2.19527  -2.19307  -1.13837
 Alpha  occ. eigenvalues --   -1.13825  -1.13770  -1.13756  -1.13746  -1.13744
 Alpha  occ. eigenvalues --   -1.13735  -1.13734  -1.13718  -1.13350  -1.13337
 Alpha  occ. eigenvalues --   -1.13326  -1.13302  -1.13281  -1.13255  -1.13195
 Alpha  occ. eigenvalues --   -1.13190  -1.13164  -1.12990  -1.12979  -1.12929
 Alpha  occ. eigenvalues --   -0.17925  -0.13419  -0.11722  -0.10739
 Alpha virt. eigenvalues --   -0.06028  -0.05880  -0.04447  -0.03286  -0.02795
 Alpha virt. eigenvalues --   -0.02593  -0.01869  -0.01398  -0.00724  -0.00211
 Alpha virt. eigenvalues --   -0.00122   0.00290   0.00594   0.00660   0.00761

  Beta  occ. eigenvalues --  -38.44316 -38.44302 -38.44251 -38.43752 -38.43722
  Beta  occ. eigenvalues --  -38.43677 -38.43483  -2.20134  -2.20075  -2.20065
  Beta  occ. eigenvalues --   -2.19537  -2.19526  -2.19508  -2.19308  -1.13824
  Beta  occ. eigenvalues --   -1.13799  -1.13748  -1.13742  -1.13739  -1.13737
  Beta  occ. eigenvalues --   -1.13720  -1.13717  -1.13716  -1.13264  -1.13233
  Beta  occ. eigenvalues --   -1.13222  -1.13215  -1.13183  -1.13182  -1.13177
  Beta  occ. eigenvalues --   -1.13167  -1.13153  -1.12989  -1.12966  -1.12928
  Beta  occ. eigenvalues --   -0.17267  -0.13203  -0.11496
  Beta virt. eigenvalues --   -0.06939  -0.05912  -0.05770  -0.04221  -0.02801
  Beta virt. eigenvalues --   -0.02133  -0.01767  -0.01600  -0.01352  -0.00663
  Beta virt. eigenvalues --   -0.00224   0.00064   0.00344   0.00734   0.00763

 Mulliken charges and spin densities:
               1          2
     1  Na  -0.271419   0.022527
     2  Na  -0.211178   0.649676
     3  Na  -0.084882   0.012180
     4  Na   0.311462   0.004540
     5  Na  -0.169051  -0.055574
     6  Na   0.108537   0.376328
     7  Na   0.316531  -0.009678
 Sum of Mulliken charges =  -0.00000   1.00000

 Dipole moment (field-independent basis, Debye):
    X=             -0.1532    Y=             -0.1625    Z=             -0.0913  Tot=              0.2412
 Quadrupole moment (field-independent basis, Debye-Ang):
   XX=            -53.3984   YY=            -67.1993   ZZ=            -73.6805
   XY=             -0.1934   XZ=              0.7475   YZ=             -0.1334

 Normal termination of Gaussian 16 at Tue Dec  5 22:52:51 2023.
