 Gaussian 16, Revision B.01,
 Gaussian 16:  ES64L-G16RevB.01 20-Dec-2017

 -------------------------
 #P B3LYP/6-311+g(d) force
 -------------------------

 -----
 DPGEN
 -----
 Symbolic Z-matrix:
 Charge =  0 Multiplicity = 2

                         Standard orientation:
 ---------------------------------------------------------------------
 Center     Atomic      Atomic             Coordinates (Angstroms)
 Number     Number       Type             X           Y           Z
 ---------------------------------------------------------------------
      1         11           0        3.620011   -0.443514   -0.208002
      2         11           0        1.364138   -1.554956    1.464164
      3         11           0       -1.643730   -2.394610   -0.246706
      4         11           0        1.295000    2.707008   -0.256796
      5         11           0       -3.555132    0.539865   -0.997125
      6         11           0       -1.557781    1.151187    2.446335
      7         11           0        0.477493   -0.004981   -2.201870
 ---------------------------------------------------------------------

 SCF Done:  E(UB3LYP) =  -1136.11570869     A.U. after   24 cycles

 The electronic state is 2-A.
 Alpha  occ. eigenvalues --  -38.45226 -38.45183 -38.44828 -38.44788 -38.43625
 Alpha  occ. eigenvalues --  -38.43381 -38.43049  -2.20964  -2.20950  -2.20648
 Alpha  occ. eigenvalues --   -2.20602  -2.19424  -2.19150  -2.18901  -1.14635
 Alpha  occ. eigenvalues --   -1.14624  -1.14609  -1.14598  -1.14577  -1.14567
 Alpha  occ. eigenvalues --   -1.14362  -1.14310  -1.14279  -1.14257  -1.14246
 Alpha  occ. eigenvalues --   -1.14215  -1.13110  -1.13090  -1.13051  -1.12831
 Alpha  occ. eigenvalues --   -1.12823  -1.12786  -1.12580  -1.12555  -1.12540
 Alpha  occ. eigenvalues --   -0.17304  -0.13227  -0.11762  -0.11082
 Alpha virt. eigenvalues --   -0.06798  -0.05282  -0.04594  -0.03454  -0.03161
 Alpha virt. eigenvalues --   -0.03110  -0.02147  -0.00890  -0.00709  -0.00344
 Alpha virt. eigenvalues --   -0.00135   0.00034   0.00266   0.00426   0.00724

  Beta  occ. eigenvalues --  -38.45230 -38.45076 -38.44826 -38.44733 -38.43613
  Beta  occ. eigenvalues --  -38.43386 -38.43030  -2.20972  -2.20752  -2.20645
  Beta  occ. eigenvalues --   -2.20500  -2.19404  -2.19160  -2.18867  -1.14638
  Beta  occ. eigenvalues --   -1.14622  -1.14615  -1.14460  -1.14439  -1.14436
  Beta  occ. eigenvalues --   -1.14358  -1.14305  -1.14254  -1.14214  -1.14178
  Beta  occ. eigenvalues --   -1.14139  -1.13094  -1.13070  -1.13036  -1.12838
  Beta  occ. eigenvalues --   -1.12823  -1.12788  -1.12556  -1.12533  -1.12509
  Beta  occ. eigenvalues --   -0.16645  -0.13028  -0.10934
  Beta virt. eigenvalues --   -0.07844  -0.06706  -0.04801  -0.04199  -0.03082
  Beta virt. eigenvalues --   -0.02628  -0.02445  -0.02038  -0.00738  -0.00452
  Beta virt. eigenvalues --   -0.00292   0.00054   0.00142   0.00302   0.00628

 Mulliken charges and spin densities:
               1          2
     1  Na   0.668717  -0.091085
     2  Na  -0.454206   0.243099
     3  Na   0.017278   0.154193
     4  Na  -0.385298  -0.003514
     5  Na   0.061187  -0.061359
     6  Na  -0.049317   0.523135
     7  Na   0.141639   0.235530
 Sum of Mulliken charges =  -0.00000   1.00000

 Dipole moment (field-independent basis, Debye):
    X=             -0.3847    Y=              0.2353    Z=             -0.4570  Tot=              0.6420
 Quadrupole moment (field-independent basis, Debye-Ang):
   XX=            -53.3630   YY=            -76.0165   ZZ=            -67.6891
   XY=             -1.0199   XZ=              0.0538   YZ=              3.9561

 Normal termination of Gaussian 16 at Sun Dec  3 19:46:19 2023.
