 Gaussian 16, Revision B.01,
 Gaussian 16:  ES64L-G16RevB.01 20-Dec-2017

 -------------------------
 #P B3LYP/6-311+g(d) force
 -------------------------

 -----
 DPGEN
 -----
 Symbolic Z-matrix:
 Charge =  0 Multiplicity = 2

                         Standard orientation:
 ---------------------------------------------------------------------
 Center     Atomic      Atomic             Coordinates (Angstroms)
 Number     Number       Type             X           Y           Z
 ---------------------------------------------------------------------
      1         11           0        0.380866   -2.037861   -0.936126
      2         11           0       -2.907470   -2.539639   -0.092918
      3         11           0        1.859052    3.188849    0.254041
      4         11           0        3.343751   -2.328910    1.146721
      5         11           0        4.082444    0.778971   -0.678408
      6         11           0       -1.958262    2.173568    0.007579
      7         11           0       -4.800383    0.765022    0.299110
 ---------------------------------------------------------------------

 SCF Done:  E(UB3LYP) =  -1136.11053794     A.U. after   23 cycles

 The electronic state is 2-A.
 Alpha  occ. eigenvalues --  -38.45311 -38.44947 -38.44710 -38.44347 -38.44300
 Alpha  occ. eigenvalues --  -38.44221 -38.43423  -2.21070  -2.20713  -2.20490
 Alpha  occ. eigenvalues --   -2.20133  -2.20074  -2.20043  -2.19207  -1.14762
 Alpha  occ. eigenvalues --   -1.14738  -1.14700  -1.14402  -1.14388  -1.14356
 Alpha  occ. eigenvalues --   -1.14158  -1.14147  -1.14114  -1.13792  -1.13780
 Alpha  occ. eigenvalues --   -1.13764  -1.13758  -1.13749  -1.13697  -1.13689
 Alpha  occ. eigenvalues --   -1.13686  -1.13663  -1.12868  -1.12858  -1.12847
 Alpha  occ. eigenvalues --   -0.15830  -0.14146  -0.12596  -0.10613
 Alpha virt. eigenvalues --   -0.07329  -0.05451  -0.04180  -0.03582  -0.03131
 Alpha virt. eigenvalues --   -0.02811  -0.02237  -0.01870  -0.01056  -0.00730
 Alpha virt. eigenvalues --   -0.00318  -0.00212   0.00226   0.00336   0.00540

  Beta  occ. eigenvalues --  -38.45310 -38.44936 -38.44664 -38.44292 -38.44284
  Beta  occ. eigenvalues --  -38.44165 -38.43389  -2.21071  -2.20699  -2.20410
  Beta  occ. eigenvalues --   -2.20049  -2.20031  -2.19941  -2.19144  -1.14766
  Beta  occ. eigenvalues --   -1.14740  -1.14676  -1.14397  -1.14378  -1.14316
  Beta  occ. eigenvalues --   -1.14106  -1.14086  -1.14050  -1.13751  -1.13743
  Beta  occ. eigenvalues --   -1.13722  -1.13707  -1.13690  -1.13637  -1.13622
  Beta  occ. eigenvalues --   -1.13620  -1.13597  -1.12825  -1.12817  -1.12805
  Beta  occ. eigenvalues --   -0.15344  -0.13500  -0.11850
  Beta virt. eigenvalues --   -0.07485  -0.07420  -0.05092  -0.03740  -0.03337
  Beta virt. eigenvalues --   -0.02822  -0.02552  -0.01985  -0.01616  -0.00754
  Beta virt. eigenvalues --   -0.00519  -0.00097   0.00003   0.00258   0.00409

 Mulliken charges and spin densities:
               1          2
     1  Na  -0.501507   0.043022
     2  Na  -0.028777   0.150831
     3  Na  -0.145446   0.088580
     4  Na   0.326440   0.289849
     5  Na   0.120523   0.077097
     6  Na  -0.647381   0.211316
     7  Na   0.876149   0.139304
 Sum of Mulliken charges =  -0.00000   1.00000

 Dipole moment (field-independent basis, Debye):
    X=             -0.1741    Y=             -0.7046    Z=              0.1705  Tot=              0.7455
 Quadrupole moment (field-independent basis, Debye-Ang):
   XX=            -54.5095   YY=            -73.9664   ZZ=            -70.0485
   XY=              4.8182   XZ=             -2.0522   YZ=             -2.4874

 Normal termination of Gaussian 16 at Sun Dec  3 19:07:14 2023.
