 Gaussian 16, Revision B.01,
 Gaussian 16:  ES64L-G16RevB.01 20-Dec-2017

 -------------------------
 #P B3LYP/6-311+g(d) force
 -------------------------

 -----
 DPGEN
 -----
 Symbolic Z-matrix:
 Charge =  0 Multiplicity = 2

                         Standard orientation:
 ---------------------------------------------------------------------
 Center     Atomic      Atomic             Coordinates (Angstroms)
 Number     Number       Type             X           Y           Z
 ---------------------------------------------------------------------
      1         11           0        8.197117    1.598867   -0.059198
      2         11           0        5.425619    0.689085    0.408602
      3         11           0       -0.563874   -3.074811   -0.117617
      4         11           0        2.179960   -1.212995   -0.501308
      5         11           0       -5.815462    3.999175    0.127491
      6         11           0       -5.408310    0.505770   -0.435326
      7         11           0       -4.015051   -2.505092    0.577356
 ---------------------------------------------------------------------

 SCF Done:  E(UB3LYP) =  -1136.10451969     A.U. after   19 cycles

 The electronic state is 2-A.
 Alpha  occ. eigenvalues --  -38.45345 -38.44811 -38.44738 -38.44620 -38.44436
 Alpha  occ. eigenvalues --  -38.44358 -38.44041  -2.21116  -2.20612  -2.20555
 Alpha  occ. eigenvalues --   -2.20413  -2.20199  -2.20108  -2.19851  -1.14759
 Alpha  occ. eigenvalues --   -1.14759  -1.14724  -1.14263  -1.14259  -1.14256
 Alpha  occ. eigenvalues --   -1.14235  -1.14188  -1.14187  -1.14065  -1.14065
 Alpha  occ. eigenvalues --   -1.14044  -1.13884  -1.13876  -1.13847  -1.13799
 Alpha  occ. eigenvalues --   -1.13797  -1.13754  -1.13514  -1.13507  -1.13503
 Alpha  occ. eigenvalues --   -0.15082  -0.14221  -0.13079  -0.11782
 Alpha virt. eigenvalues --   -0.07365  -0.05517  -0.03671  -0.03345  -0.03307
 Alpha virt. eigenvalues --   -0.02605  -0.02568  -0.02245  -0.01758  -0.01426
 Alpha virt. eigenvalues --   -0.01237  -0.00625  -0.00223   0.00343   0.00448

  Beta  occ. eigenvalues --  -38.45253 -38.44738 -38.44703 -38.44553 -38.44459
  Beta  occ. eigenvalues --  -38.44381 -38.44047  -2.20946  -2.20489  -2.20475
  Beta  occ. eigenvalues --   -2.20287  -2.20248  -2.20156  -2.19866  -1.14643
  Beta  occ. eigenvalues --   -1.14643  -1.14612  -1.14217  -1.14168  -1.14165
  Beta  occ. eigenvalues --   -1.14154  -1.14143  -1.14142  -1.13981  -1.13979
  Beta  occ. eigenvalues --   -1.13976  -1.13921  -1.13909  -1.13837  -1.13837
  Beta  occ. eigenvalues --   -1.13835  -1.13745  -1.13521  -1.13521  -1.13490
  Beta  occ. eigenvalues --   -0.14516  -0.13664  -0.12379
  Beta virt. eigenvalues --   -0.08747  -0.06909  -0.05034  -0.03359  -0.03200
  Beta virt. eigenvalues --   -0.03133  -0.02488  -0.02351  -0.01974  -0.01440
  Beta virt. eigenvalues --   -0.01050  -0.00801  -0.00332  -0.00083   0.00399

 Mulliken charges and spin densities:
               1          2
     1  Na   0.597148   0.146496
     2  Na  -0.388870  -0.028555
     3  Na   0.042338  -0.059623
     4  Na  -0.240749   0.285712
     5  Na   0.366314   0.448325
     6  Na  -0.576496  -0.085198
     7  Na   0.200315   0.292842
 Sum of Mulliken charges =  -0.00000   1.00000

 Dipole moment (field-independent basis, Debye):
    X=              0.0788    Y=              0.8927    Z=              0.0514  Tot=              0.8976
 Quadrupole moment (field-independent basis, Debye-Ang):
   XX=            -53.3782   YY=            -59.4458   ZZ=            -74.1384
   XY=              1.9999   XZ=             -2.9195   YZ=             -0.2588

 Normal termination of Gaussian 16 at Mon Dec  4 01:32:37 2023.
