 Gaussian 16, Revision B.01,
 Gaussian 16:  ES64L-G16RevB.01 20-Dec-2017

 -------------------------
 #P B3LYP/6-311+g(d) force
 -------------------------

 -----
 DPGEN
 -----
 Symbolic Z-matrix:
 Charge =  0 Multiplicity = 2

                         Standard orientation:
 ---------------------------------------------------------------------
 Center     Atomic      Atomic             Coordinates (Angstroms)
 Number     Number       Type             X           Y           Z
 ---------------------------------------------------------------------
      1         11           0        1.519328   -0.294201   -1.522617
      2         11           0       -0.395090   -2.174292   -0.462489
      3         11           0       -1.260386    1.134110   -1.483862
      4         11           0       -0.678747    0.201424    2.126374
      5         11           0        2.918174   -1.485296    0.736036
      6         11           0       -3.873967   -0.150996    0.268971
      7         11           0        1.770688    2.769251    0.337587
 ---------------------------------------------------------------------

 SCF Done:  E(UB3LYP) =  -1136.12128124     A.U. after   21 cycles

 The electronic state is 2-A.
 Alpha  occ. eigenvalues --  -38.44837 -38.44759 -38.44503 -38.43534 -38.43465
 Alpha  occ. eigenvalues --  -38.43459 -38.42790  -2.20618  -2.20583  -2.20350
 Alpha  occ. eigenvalues --   -2.19515  -2.19441  -2.19377  -2.18572  -1.14297
 Alpha  occ. eigenvalues --   -1.14282  -1.14263  -1.14247  -1.14219  -1.14184
 Alpha  occ. eigenvalues --   -1.14109  -1.13986  -1.13952  -1.13387  -1.13235
 Alpha  occ. eigenvalues --   -1.13144  -1.13086  -1.13078  -1.13043  -1.13019
 Alpha  occ. eigenvalues --   -1.13001  -1.12913  -1.12243  -1.12237  -1.12214
 Alpha  occ. eigenvalues --   -0.18598  -0.13336  -0.11570  -0.11334
 Alpha virt. eigenvalues --   -0.06622  -0.04638  -0.04261  -0.03359  -0.03018
 Alpha virt. eigenvalues --   -0.02711  -0.02232  -0.00877  -0.00636   0.00123
 Alpha virt. eigenvalues --    0.00189   0.00234   0.00388   0.00754   0.00843

  Beta  occ. eigenvalues --  -38.44840 -38.44681 -38.44492 -38.43483 -38.43438
  Beta  occ. eigenvalues --  -38.43419 -38.42791  -2.20624  -2.20438  -2.20331
  Beta  occ. eigenvalues --   -2.19437  -2.19352  -2.19342  -2.18574  -1.14299
  Beta  occ. eigenvalues --   -1.14279  -1.14252  -1.14165  -1.14117  -1.14096
  Beta  occ. eigenvalues --   -1.14079  -1.13964  -1.13938  -1.13329  -1.13166
  Beta  occ. eigenvalues --   -1.13075  -1.13034  -1.13013  -1.12996  -1.12965
  Beta  occ. eigenvalues --   -1.12945  -1.12890  -1.12244  -1.12230  -1.12216
  Beta  occ. eigenvalues --   -0.17759  -0.13221  -0.11165
  Beta virt. eigenvalues --   -0.07545  -0.06413  -0.04523  -0.03771  -0.03118
  Beta virt. eigenvalues --   -0.02280  -0.02045  -0.01960  -0.00763  -0.00335
  Beta virt. eigenvalues --    0.00155   0.00212   0.00258   0.00551   0.00815

 Mulliken charges and spin densities:
               1          2
     1  Na   0.822447  -0.086525
     2  Na  -0.220290   0.150498
     3  Na  -0.200253   0.114600
     4  Na  -0.472535   0.618368
     5  Na  -0.002062   0.195333
     6  Na   0.346585  -0.036199
     7  Na  -0.273891   0.043925
 Sum of Mulliken charges =  -0.00000   1.00000

 Dipole moment (field-independent basis, Debye):
    X=             -0.7925    Y=             -0.3655    Z=              0.7562  Tot=              1.1548
 Quadrupole moment (field-independent basis, Debye-Ang):
   XX=            -50.8206   YY=            -74.2893   ZZ=            -68.4162
   XY=             -0.6157   XZ=              2.2615   YZ=             -0.4308

 Normal termination of Gaussian 16 at Thu Dec  7 21:14:43 2023.
