 Gaussian 16, Revision B.01,
 Gaussian 16:  ES64L-G16RevB.01 20-Dec-2017

 -------------------------
 #P B3LYP/6-311+g(d) force
 -------------------------

 -----
 DPGEN
 -----
 Symbolic Z-matrix:
 Charge =  0 Multiplicity = 2

                         Standard orientation:
 ---------------------------------------------------------------------
 Center     Atomic      Atomic             Coordinates (Angstroms)
 Number     Number       Type             X           Y           Z
 ---------------------------------------------------------------------
      1         11           0       -2.463068   -1.708695    0.051098
      2         11           0        0.918275    2.851266    0.106830
      3         11           0       -2.617064    1.571143   -0.084515
      4         11           0        3.032721   -0.099909   -0.359996
      5         11           0        0.300856    0.194433    1.764615
      6         11           0       -0.088103   -0.102368   -1.714205
      7         11           0        0.916383   -2.705870    0.236173
 ---------------------------------------------------------------------

 SCF Done:  E(UB3LYP) =  -1136.14056281     A.U. after   19 cycles

 The electronic state is 2-A.
 Alpha  occ. eigenvalues --  -38.43893 -38.43789 -38.43588 -38.43474 -38.43246
 Alpha  occ. eigenvalues --  -38.43097 -38.43080  -2.19757  -2.19636  -2.19454
 Alpha  occ. eigenvalues --   -2.19326  -2.19133  -2.19078  -2.19055  -1.13435
 Alpha  occ. eigenvalues --   -1.13422  -1.13390  -1.13323  -1.13309  -1.13274
 Alpha  occ. eigenvalues --   -1.13133  -1.13113  -1.13088  -1.13039  -1.12987
 Alpha  occ. eigenvalues --   -1.12949  -1.12844  -1.12808  -1.12764  -1.12761
 Alpha  occ. eigenvalues --   -1.12715  -1.12698  -1.12692  -1.12671  -1.12666
 Alpha  occ. eigenvalues --   -0.18973  -0.13131  -0.12607  -0.10599
 Alpha virt. eigenvalues --   -0.05505  -0.05130  -0.04795  -0.03127  -0.02855
 Alpha virt. eigenvalues --   -0.02294  -0.01464  -0.01150  -0.00352  -0.00264
 Alpha virt. eigenvalues --    0.00028   0.00367   0.00849   0.00892   0.00918

  Beta  occ. eigenvalues --  -38.43882 -38.43786 -38.43585 -38.43469 -38.43237
  Beta  occ. eigenvalues --  -38.43023 -38.43001  -2.19739  -2.19633  -2.19451
  Beta  occ. eigenvalues --   -2.19319  -2.19120  -2.18944  -2.18910  -1.13423
  Beta  occ. eigenvalues --   -1.13387  -1.13380  -1.13323  -1.13292  -1.13267
  Beta  occ. eigenvalues --   -1.13128  -1.13100  -1.13080  -1.13024  -1.12964
  Beta  occ. eigenvalues --   -1.12948  -1.12824  -1.12769  -1.12752  -1.12681
  Beta  occ. eigenvalues --   -1.12619  -1.12604  -1.12595  -1.12568  -1.12565
  Beta  occ. eigenvalues --   -0.18250  -0.12877  -0.12341
  Beta virt. eigenvalues --   -0.06694  -0.05477  -0.05127  -0.04768  -0.02336
  Beta virt. eigenvalues --   -0.02070  -0.01379  -0.01250  -0.01076  -0.00402
  Beta virt. eigenvalues --   -0.00317   0.00151   0.00390   0.00877   0.00893

 Mulliken charges and spin densities:
               1          2
     1  Na   0.077299  -0.067879
     2  Na   0.090585  -0.125544
     3  Na   0.062063  -0.109507
     4  Na   0.179425  -0.017066
     5  Na  -0.308746   0.709744
     6  Na  -0.279765   0.644915
     7  Na   0.179140  -0.034662
 Sum of Mulliken charges =  -0.00000   1.00000

 Dipole moment (field-independent basis, Debye):
    X=              0.0240    Y=              0.1237    Z=             -0.0241  Tot=              0.1283
 Quadrupole moment (field-independent basis, Debye-Ang):
   XX=            -56.5810   YY=            -60.9203   ZZ=            -75.1743
   XY=             -0.0541   XZ=             -0.9846   YZ=             -0.7788

 Normal termination of Gaussian 16 at Thu Dec  7 23:25:18 2023.
