 Gaussian 16, Revision B.01,
 Gaussian 16:  ES64L-G16RevB.01 20-Dec-2017

 -------------------------
 #P B3LYP/6-311+g(d) force
 -------------------------

 -----
 DPGEN
 -----
 Symbolic Z-matrix:
 Charge =  0 Multiplicity = 2

                         Standard orientation:
 ---------------------------------------------------------------------
 Center     Atomic      Atomic             Coordinates (Angstroms)
 Number     Number       Type             X           Y           Z
 ---------------------------------------------------------------------
      1         11           0        6.014688    3.015642   -0.015520
      2         11           0        5.922348   -0.241667    0.129132
      3         11           0       -0.710457   -2.861538   -0.516030
      4         11           0        2.337884   -2.602399    0.040720
      5         11           0       -3.989603    2.946258   -0.288676
      6         11           0       -6.355180    0.550660    0.060897
      7         11           0       -3.219680   -0.806957    0.589477
 ---------------------------------------------------------------------

 SCF Done:  E(UB3LYP) =  -1136.10583656     A.U. after   21 cycles

 The electronic state is 2-A.
 Alpha  occ. eigenvalues --  -38.46180 -38.45667 -38.44168 -38.43984 -38.43806
 Alpha  occ. eigenvalues --  -38.43689 -38.43122  -2.21956  -2.21457  -2.20006
 Alpha  occ. eigenvalues --   -2.19759  -2.19565  -2.19497  -2.18943  -1.15631
 Alpha  occ. eigenvalues --   -1.15626  -1.15593  -1.15115  -1.15112  -1.15059
 Alpha  occ. eigenvalues --   -1.13681  -1.13672  -1.13601  -1.13415  -1.13414
 Alpha  occ. eigenvalues --   -1.13411  -1.13242  -1.13232  -1.13194  -1.13159
 Alpha  occ. eigenvalues --   -1.13143  -1.13135  -1.12611  -1.12610  -1.12605
 Alpha  occ. eigenvalues --   -0.15984  -0.13743  -0.12496  -0.10395
 Alpha virt. eigenvalues --   -0.07425  -0.05944  -0.04293  -0.03615  -0.02667
 Alpha virt. eigenvalues --   -0.02597  -0.02413  -0.01773  -0.01543  -0.01171
 Alpha virt. eigenvalues --   -0.00625  -0.00316  -0.00010   0.00117   0.00198

  Beta  occ. eigenvalues --  -38.46189 -38.45606 -38.44097 -38.43954 -38.43817
  Beta  occ. eigenvalues --  -38.43627 -38.43130  -2.21977  -2.21344  -2.19875
  Beta  occ. eigenvalues --   -2.19703  -2.19586  -2.19380  -2.18963  -1.15648
  Beta  occ. eigenvalues --   -1.15621  -1.15601  -1.15036  -1.15030  -1.14987
  Beta  occ. eigenvalues --   -1.13589  -1.13582  -1.13513  -1.13380  -1.13376
  Beta  occ. eigenvalues --   -1.13375  -1.13258  -1.13247  -1.13189  -1.13090
  Beta  occ. eigenvalues --   -1.13063  -1.13056  -1.12630  -1.12627  -1.12572
  Beta  occ. eigenvalues --   -0.15435  -0.13244  -0.12180
  Beta virt. eigenvalues --   -0.07237  -0.06957  -0.05594  -0.03980  -0.03325
  Beta virt. eigenvalues --   -0.02527  -0.02351  -0.02043  -0.01645  -0.01370
  Beta virt. eigenvalues --   -0.00910  -0.00394  -0.00032   0.00080   0.00264

 Mulliken charges and spin densities:
               1          2
     1  Na   0.021711   0.137295
     2  Na  -0.001468  -0.074993
     3  Na  -0.150657   0.009207
     4  Na   0.191731   0.302583
     5  Na   0.257122   0.338734
     6  Na   0.648111  -0.012353
     7  Na  -0.966549   0.299527
 Sum of Mulliken charges =  -0.00000   1.00000

 Dipole moment (field-independent basis, Debye):
    X=             -4.1463    Y=              1.9232    Z=             -0.0304  Tot=              4.5707
 Quadrupole moment (field-independent basis, Debye-Ang):
   XX=            -51.3742   YY=            -65.2477   ZZ=            -74.8269
   XY=              0.2786   XZ=              0.2917   YZ=             -0.2842

 Normal termination of Gaussian 16 at Mon Dec  4 00:10:45 2023.
