 Gaussian 16, Revision B.01,
 Gaussian 16:  ES64L-G16RevB.01 20-Dec-2017

 -------------------------
 #P B3LYP/6-311+g(d) force
 -------------------------

 -----
 DPGEN
 -----
 Symbolic Z-matrix:
 Charge =  0 Multiplicity = 2

                         Standard orientation:
 ---------------------------------------------------------------------
 Center     Atomic      Atomic             Coordinates (Angstroms)
 Number     Number       Type             X           Y           Z
 ---------------------------------------------------------------------
      1         11           0       -0.971404   -2.035119    0.959460
      2         11           0       -0.541111   -0.027014   -1.653894
      3         11           0       -1.180466    2.277348    1.126779
      4         11           0        1.371777   -0.308066    1.770753
      5         11           0        2.139102    1.932652   -0.752921
      6         11           0        2.726663   -1.520602   -0.732159
      7         11           0       -3.544561   -0.319199   -0.718018
 ---------------------------------------------------------------------

 SCF Done:  E(UB3LYP) =  -1136.13006544     A.U. after   21 cycles

 The electronic state is 2-A.
 Alpha  occ. eigenvalues --  -38.44384 -38.44052 -38.43761 -38.43574 -38.43564
 Alpha  occ. eigenvalues --  -38.43350 -38.43233  -2.20214  -2.19912  -2.19706
 Alpha  occ. eigenvalues --   -2.19543  -2.19380  -2.19202  -2.19127  -1.13914
 Alpha  occ. eigenvalues --   -1.13854  -1.13845  -1.13626  -1.13572  -1.13530
 Alpha  occ. eigenvalues --   -1.13399  -1.13342  -1.13335  -1.13282  -1.13177
 Alpha  occ. eigenvalues --   -1.13143  -1.13055  -1.13029  -1.13004  -1.12887
 Alpha  occ. eigenvalues --   -1.12866  -1.12823  -1.12819  -1.12786  -1.12715
 Alpha  occ. eigenvalues --   -0.18692  -0.13567  -0.11552  -0.11462
 Alpha virt. eigenvalues --   -0.05955  -0.05013  -0.04323  -0.03336  -0.02944
 Alpha virt. eigenvalues --   -0.02713  -0.01884  -0.00873  -0.00553   0.00044
 Alpha virt. eigenvalues --    0.00307   0.00383   0.00538   0.00738   0.00821

  Beta  occ. eigenvalues --  -38.44371 -38.44036 -38.43714 -38.43539 -38.43503
  Beta  occ. eigenvalues --  -38.43341 -38.43209  -2.20192  -2.19885  -2.19620
  Beta  occ. eigenvalues --   -2.19434  -2.19318  -2.19187  -2.19087  -1.13887
  Beta  occ. eigenvalues --   -1.13842  -1.13831  -1.13608  -1.13545  -1.13503
  Beta  occ. eigenvalues --   -1.13340  -1.13280  -1.13272  -1.13201  -1.13099
  Beta  occ. eigenvalues --   -1.13062  -1.13004  -1.12982  -1.12964  -1.12867
  Beta  occ. eigenvalues --   -1.12860  -1.12797  -1.12794  -1.12732  -1.12691
  Beta  occ. eigenvalues --   -0.17954  -0.13312  -0.11259
  Beta virt. eigenvalues --   -0.07583  -0.05790  -0.04920  -0.03886  -0.03050
  Beta virt. eigenvalues --   -0.02318  -0.01793  -0.01709  -0.00786  -0.00318
  Beta virt. eigenvalues --    0.00128   0.00334   0.00372   0.00691   0.00814

 Mulliken charges and spin densities:
               1          2
     1  Na  -0.303609  -0.008628
     2  Na  -0.414110   0.303245
     3  Na  -0.409442   0.089800
     4  Na   0.322994   0.459541
     5  Na   0.078455   0.036596
     6  Na   0.218942   0.070884
     7  Na   0.506770   0.048563
 Sum of Mulliken charges =  -0.00000   1.00000

 Dipole moment (field-independent basis, Debye):
    X=             -0.3461    Y=             -0.0199    Z=             -0.2713  Tot=              0.4402
 Quadrupole moment (field-independent basis, Debye-Ang):
   XX=            -52.4724   YY=            -72.4613   ZZ=            -68.7966
   XY=             -0.8576   XZ=             -1.9926   YZ=              2.0116

 Normal termination of Gaussian 16 at Thu Dec  7 12:08:57 2023.
