 Gaussian 16, Revision B.01,
 Gaussian 16:  ES64L-G16RevB.01 20-Dec-2017

 -------------------------
 #P B3LYP/6-311+g(d) force
 -------------------------

 -----
 DPGEN
 -----
 Symbolic Z-matrix:
 Charge =  0 Multiplicity = 2

                         Standard orientation:
 ---------------------------------------------------------------------
 Center     Atomic      Atomic             Coordinates (Angstroms)
 Number     Number       Type             X           Y           Z
 ---------------------------------------------------------------------
      1         11           0        2.949268   -1.526997   -0.954452
      2         11           0       -2.415659    1.314585    0.695043
      3         11           0        0.270399   -1.410857    1.725202
      4         11           0       -0.337592   -0.423040   -1.642058
      5         11           0       -2.886314   -1.613608   -0.079050
      6         11           0        0.027663    2.323874   -1.114005
      7         11           0        2.392234    1.336042    1.369321
 ---------------------------------------------------------------------

 SCF Done:  E(UB3LYP) =  -1136.12342860     A.U. after   22 cycles

 The electronic state is 2-A.
 Alpha  occ. eigenvalues --  -38.44505 -38.44393 -38.44243 -38.43823 -38.43762
 Alpha  occ. eigenvalues --  -38.43747 -38.42553  -2.20294  -2.20208  -2.20137
 Alpha  occ. eigenvalues --   -2.19775  -2.19665  -2.19628  -2.18481  -1.13966
 Alpha  occ. eigenvalues --   -1.13949  -1.13923  -1.13888  -1.13847  -1.13828
 Alpha  occ. eigenvalues --   -1.13828  -1.13803  -1.13783  -1.13537  -1.13439
 Alpha  occ. eigenvalues --   -1.13387  -1.13353  -1.13326  -1.13291  -1.13276
 Alpha  occ. eigenvalues --   -1.13269  -1.13236  -1.12206  -1.12111  -1.12076
 Alpha  occ. eigenvalues --   -0.18574  -0.13523  -0.11635  -0.11382
 Alpha virt. eigenvalues --   -0.05981  -0.05553  -0.03898  -0.03530  -0.02976
 Alpha virt. eigenvalues --   -0.02813  -0.01828  -0.01162  -0.00260   0.00009
 Alpha virt. eigenvalues --    0.00222   0.00343   0.00577   0.00648   0.00696

  Beta  occ. eigenvalues --  -38.44481 -38.44349 -38.44233 -38.43786 -38.43748
  Beta  occ. eigenvalues --  -38.43689 -38.42541  -2.20251  -2.20128  -2.20120
  Beta  occ. eigenvalues --   -2.19644  -2.19631  -2.19599  -2.18462  -1.13923
  Beta  occ. eigenvalues --   -1.13920  -1.13895  -1.13821  -1.13819  -1.13794
  Beta  occ. eigenvalues --   -1.13793  -1.13776  -1.13758  -1.13449  -1.13366
  Beta  occ. eigenvalues --   -1.13322  -1.13294  -1.13286  -1.13260  -1.13252
  Beta  occ. eigenvalues --   -1.13229  -1.13214  -1.12180  -1.12088  -1.12062
  Beta  occ. eigenvalues --   -0.17890  -0.13244  -0.11440
  Beta virt. eigenvalues --   -0.07548  -0.05792  -0.05277  -0.03570  -0.03262
  Beta virt. eigenvalues --   -0.02387  -0.01883  -0.01695  -0.00899  -0.00102
  Beta virt. eigenvalues --    0.00043   0.00295   0.00374   0.00663   0.00732

 Mulliken charges and spin densities:
               1          2
     1  Na   0.098873  -0.055559
     2  Na  -0.189840   0.045914
     3  Na  -0.325006   0.423788
     4  Na  -0.660794   0.306191
     5  Na   0.624998  -0.004142
     6  Na   0.611782   0.100961
     7  Na  -0.160014   0.182846
 Sum of Mulliken charges =  -0.00000   1.00000

 Dipole moment (field-independent basis, Debye):
    X=              0.2749    Y=             -0.2945    Z=              0.4739  Tot=              0.6220
 Quadrupole moment (field-independent basis, Debye-Ang):
   XX=            -54.3819   YY=            -71.1759   ZZ=            -69.2020
   XY=              0.3484   XZ=             -1.5870   YZ=              3.8590

 Normal termination of Gaussian 16 at Tue Dec  5 19:15:51 2023.
