 Gaussian 16, Revision B.01,
 Gaussian 16:  ES64L-G16RevB.01 20-Dec-2017

 -------------------------
 #P B3LYP/6-311+g(d) force
 -------------------------

 -----
 DPGEN
 -----
 Symbolic Z-matrix:
 Charge =  0 Multiplicity = 2

                         Standard orientation:
 ---------------------------------------------------------------------
 Center     Atomic      Atomic             Coordinates (Angstroms)
 Number     Number       Type             X           Y           Z
 ---------------------------------------------------------------------
      1         11           0       -0.194639    0.154175   -1.454540
      2         11           0        0.466578   -2.765819   -0.528201
      3         11           0       -2.092259    2.329210   -0.248206
      4         11           0       -2.941698   -1.213383   -0.025770
      5         11           0        2.069230    2.344299   -0.130188
      6         11           0       -0.410487   -0.115705    2.211195
      7         11           0        3.103275   -0.732777    0.175709
 ---------------------------------------------------------------------

 SCF Done:  E(UB3LYP) =  -1136.13408417     A.U. after   19 cycles

 The electronic state is 2-A.
 Alpha  occ. eigenvalues --  -38.44343 -38.44025 -38.43880 -38.43872 -38.43720
 Alpha  occ. eigenvalues --  -38.43096 -38.43008  -2.20172  -2.19858  -2.19730
 Alpha  occ. eigenvalues --   -2.19703  -2.19538  -2.19027  -2.18961  -1.13850
 Alpha  occ. eigenvalues --   -1.13840  -1.13803  -1.13534  -1.13522  -1.13513
 Alpha  occ. eigenvalues --   -1.13419  -1.13387  -1.13361  -1.13351  -1.13342
 Alpha  occ. eigenvalues --   -1.13323  -1.13219  -1.13197  -1.13172  -1.12772
 Alpha  occ. eigenvalues --   -1.12703  -1.12647  -1.12608  -1.12596  -1.12575
 Alpha  occ. eigenvalues --   -0.18470  -0.13242  -0.12167  -0.10725
 Alpha virt. eigenvalues --   -0.05835  -0.05529  -0.04376  -0.03270  -0.02700
 Alpha virt. eigenvalues --   -0.02627  -0.01675  -0.01227  -0.00521  -0.00334
 Alpha virt. eigenvalues --   -0.00023   0.00336   0.00752   0.00817   0.00890

  Beta  occ. eigenvalues --  -38.44338 -38.44024 -38.43865 -38.43775 -38.43720
  Beta  occ. eigenvalues --  -38.43084 -38.42953  -2.20167  -2.19859  -2.19693
  Beta  occ. eigenvalues --   -2.19542  -2.19535  -2.18943  -2.18928  -1.13842
  Beta  occ. eigenvalues --   -1.13814  -1.13803  -1.13538  -1.13516  -1.13505
  Beta  occ. eigenvalues --   -1.13404  -1.13336  -1.13319  -1.13256  -1.13218
  Beta  occ. eigenvalues --   -1.13216  -1.13209  -1.13188  -1.13176  -1.12725
  Beta  occ. eigenvalues --   -1.12631  -1.12588  -1.12576  -1.12565  -1.12542
  Beta  occ. eigenvalues --   -0.17768  -0.13051  -0.11926
  Beta virt. eigenvalues --   -0.06772  -0.05767  -0.05502  -0.04350  -0.02514
  Beta virt. eigenvalues --   -0.01976  -0.01580  -0.01528  -0.01164  -0.00564
  Beta virt. eigenvalues --   -0.00358   0.00142   0.00374   0.00809   0.00833

 Mulliken charges and spin densities:
               1          2
     1  Na  -0.216304   0.149298
     2  Na   0.230281   0.052573
     3  Na   0.127759  -0.027454
     4  Na   0.306545   0.040259
     5  Na   0.090191  -0.022133
     6  Na  -0.582311   0.775545
     7  Na   0.043840   0.031912
 Sum of Mulliken charges =  -0.00000   1.00000

 Dipole moment (field-independent basis, Debye):
    X=             -0.3170    Y=              0.0838    Z=              0.2666  Tot=              0.4226
 Quadrupole moment (field-independent basis, Debye-Ang):
   XX=            -54.4464   YY=            -63.7408   ZZ=            -75.1031
   XY=              0.1543   XZ=              0.7925   YZ=              0.3986

 Normal termination of Gaussian 16 at Thu Dec  7 17:10:40 2023.
