 Gaussian 16, Revision B.01,
 Gaussian 16:  ES64L-G16RevB.01 20-Dec-2017

 -------------------------
 #P B3LYP/6-311+g(d) force
 -------------------------

 -----
 DPGEN
 -----
 Symbolic Z-matrix:
 Charge =  0 Multiplicity = 2

                         Standard orientation:
 ---------------------------------------------------------------------
 Center     Atomic      Atomic             Coordinates (Angstroms)
 Number     Number       Type             X           Y           Z
 ---------------------------------------------------------------------
      1         11           0       -1.253210    2.518010    0.295666
      2         11           0        2.651931   -1.596151   -0.569696
      3         11           0       -3.171840   -0.260714   -0.488302
      4         11           0        0.219997   -0.335566    1.940525
      5         11           0       -1.054448   -2.099825    0.550718
      6         11           0       -0.056822    0.112481   -1.871518
      7         11           0        2.664393    1.661765    0.142607
 ---------------------------------------------------------------------

 SCF Done:  E(UB3LYP) =  -1136.12301053     A.U. after   21 cycles

 The electronic state is 2-A.
 Alpha  occ. eigenvalues --  -38.44397 -38.44230 -38.44107 -38.43969 -38.43882
 Alpha  occ. eigenvalues --  -38.43267 -38.43090  -2.20283  -2.20234  -2.19924
 Alpha  occ. eigenvalues --   -2.19814  -2.19812  -2.19282  -2.18925  -1.14206
 Alpha  occ. eigenvalues --   -1.13994  -1.13938  -1.13908  -1.13821  -1.13787
 Alpha  occ. eigenvalues --   -1.13604  -1.13601  -1.13564  -1.13512  -1.13491
 Alpha  occ. eigenvalues --   -1.13455  -1.13445  -1.13437  -1.13419  -1.12930
 Alpha  occ. eigenvalues --   -1.12886  -1.12839  -1.12604  -1.12597  -1.12554
 Alpha  occ. eigenvalues --   -0.19039  -0.13592  -0.11815  -0.11389
 Alpha virt. eigenvalues --   -0.05980  -0.05179  -0.03888  -0.03572  -0.03069
 Alpha virt. eigenvalues --   -0.02732  -0.01827  -0.00974  -0.00223  -0.00038
 Alpha virt. eigenvalues --    0.00177   0.00345   0.00716   0.00819   0.00898

  Beta  occ. eigenvalues --  -38.44387 -38.44137 -38.44105 -38.43955 -38.43814
  Beta  occ. eigenvalues --  -38.43248 -38.43084  -2.20268  -2.20065  -2.19923
  Beta  occ. eigenvalues --   -2.19787  -2.19689  -2.19253  -2.18917  -1.14094
  Beta  occ. eigenvalues --   -1.13987  -1.13906  -1.13901  -1.13703  -1.13671
  Beta  occ. eigenvalues --   -1.13603  -1.13583  -1.13561  -1.13468  -1.13440
  Beta  occ. eigenvalues --   -1.13421  -1.13415  -1.13356  -1.13332  -1.12891
  Beta  occ. eigenvalues --   -1.12848  -1.12808  -1.12598  -1.12578  -1.12546
  Beta  occ. eigenvalues --   -0.18290  -0.13338  -0.11545
  Beta virt. eigenvalues --   -0.07448  -0.05897  -0.05139  -0.03712  -0.02958
  Beta virt. eigenvalues --   -0.02206  -0.01779  -0.01693  -0.00897  -0.00187
  Beta virt. eigenvalues --    0.00036   0.00173   0.00375   0.00802   0.00883

 Mulliken charges and spin densities:
               1          2
     1  Na  -0.127833  -0.013544
     2  Na   0.088182   0.028191
     3  Na   0.041502  -0.006538
     4  Na  -0.281289   0.392280
     5  Na   0.663764   0.162734
     6  Na  -0.287200   0.524486
     7  Na  -0.097127  -0.087609
 Sum of Mulliken charges =  -0.00000   1.00000

 Dipole moment (field-independent basis, Debye):
    X=              0.3001    Y=              0.1968    Z=             -0.3520  Tot=              0.5027
 Quadrupole moment (field-independent basis, Debye-Ang):
   XX=            -53.2515   YY=            -70.1893   ZZ=            -71.3667
   XY=             -0.1977   XZ=              0.4463   YZ=              2.4729

 Normal termination of Gaussian 16 at Thu Dec  7 18:01:03 2023.
