 Gaussian 16, Revision B.01,
 Gaussian 16:  ES64L-G16RevB.01 20-Dec-2017

 -------------------------
 #P B3LYP/6-311+g(d) force
 -------------------------

 -----
 DPGEN
 -----
 Symbolic Z-matrix:
 Charge =  0 Multiplicity = 2

                         Standard orientation:
 ---------------------------------------------------------------------
 Center     Atomic      Atomic             Coordinates (Angstroms)
 Number     Number       Type             X           Y           Z
 ---------------------------------------------------------------------
      1         11           0        1.912217    2.871951    1.696408
      2         11           0       -3.838331   -1.771923    1.168317
      3         11           0       -4.234868    0.606280   -1.124046
      4         11           0       -1.079625    1.007339   -0.952098
      5         11           0        3.917361   -2.329612   -0.664960
      6         11           0        1.063481   -1.133346    1.390445
      7         11           0        2.259765    0.749311   -1.514066
 ---------------------------------------------------------------------

 SCF Done:  E(UB3LYP) =  -1136.10798461     A.U. after   25 cycles

 The electronic state is 2-A.
 Alpha  occ. eigenvalues --  -38.45346 -38.44937 -38.44675 -38.44643 -38.44360
 Alpha  occ. eigenvalues --  -38.44083 -38.43218  -2.21118  -2.20712  -2.20502
 Alpha  occ. eigenvalues --   -2.20476  -2.20122  -2.19929  -2.18987  -1.14822
 Alpha  occ. eigenvalues --   -1.14761  -1.14729  -1.14375  -1.14367  -1.14348
 Alpha  occ. eigenvalues --   -1.14198  -1.14190  -1.14157  -1.14134  -1.14121
 Alpha  occ. eigenvalues --   -1.14067  -1.13793  -1.13779  -1.13725  -1.13625
 Alpha  occ. eigenvalues --   -1.13600  -1.13525  -1.12667  -1.12660  -1.12626
 Alpha  occ. eigenvalues --   -0.16867  -0.14168  -0.11236  -0.10726
 Alpha virt. eigenvalues --   -0.07157  -0.06730  -0.04144  -0.03376  -0.02949
 Alpha virt. eigenvalues --   -0.02493  -0.02222  -0.01820  -0.01332  -0.01063
 Alpha virt. eigenvalues --   -0.00265  -0.00100   0.00119   0.00240   0.00414

  Beta  occ. eigenvalues --  -38.45314 -38.44897 -38.44666 -38.44620 -38.44309
  Beta  occ. eigenvalues --  -38.44047 -38.43234  -2.21057  -2.20634  -2.20487
  Beta  occ. eigenvalues --   -2.20434  -2.20026  -2.19864  -2.19018  -1.14781
  Beta  occ. eigenvalues --   -1.14716  -1.14681  -1.14321  -1.14314  -1.14299
  Beta  occ. eigenvalues --   -1.14174  -1.14159  -1.14149  -1.14103  -1.14100
  Beta  occ. eigenvalues --   -1.14042  -1.13728  -1.13707  -1.13665  -1.13578
  Beta  occ. eigenvalues --   -1.13537  -1.13489  -1.12688  -1.12676  -1.12647
  Beta  occ. eigenvalues --   -0.16388  -0.13935  -0.11042
  Beta virt. eigenvalues --   -0.07418  -0.06751  -0.05891  -0.04045  -0.03129
  Beta virt. eigenvalues --   -0.02607  -0.02166  -0.01993  -0.01444  -0.01011
  Beta virt. eigenvalues --   -0.00756  -0.00143  -0.00051   0.00293   0.00398

 Mulliken charges and spin densities:
               1          2
     1  Na   0.110091   0.227948
     2  Na  -0.020770   0.215459
     3  Na   0.393680  -0.067624
     4  Na  -1.266087   0.208498
     5  Na   0.093914  -0.125241
     6  Na  -0.226293   0.365219
     7  Na   0.915466   0.175742
 Sum of Mulliken charges =  -0.00000   1.00000

 Dipole moment (field-independent basis, Debye):
    X=             -0.8228    Y=              0.4445    Z=              0.1265  Tot=              0.9437
 Quadrupole moment (field-independent basis, Debye-Ang):
   XX=            -56.5686   YY=            -71.5898   ZZ=            -69.7560
   XY=              3.6257   XZ=              0.2569   YZ=             -2.2351

 Normal termination of Gaussian 16 at Mon Dec  4 02:07:34 2023.
