 Gaussian 16, Revision B.01,
 Gaussian 16:  ES64L-G16RevB.01 20-Dec-2017

 -------------------------
 #P B3LYP/6-311+g(d) force
 -------------------------

 -----
 DPGEN
 -----
 Symbolic Z-matrix:
 Charge =  0 Multiplicity = 2

                         Standard orientation:
 ---------------------------------------------------------------------
 Center     Atomic      Atomic             Coordinates (Angstroms)
 Number     Number       Type             X           Y           Z
 ---------------------------------------------------------------------
      1         11           0       -0.406140    0.178507   -1.916748
      2         11           0       -0.814385   -2.644834   -0.424231
      3         11           0        2.510557    1.524490    0.162131
      4         11           0        2.629738   -1.727707   -0.092498
      5         11           0        0.069280   -0.294475    1.974929
      6         11           0       -0.644803    3.173802   -0.160508
      7         11           0       -3.344247   -0.209783    0.456924
 ---------------------------------------------------------------------

 SCF Done:  E(UB3LYP) =  -1136.13689195     A.U. after   20 cycles

 The electronic state is 2-A.
 Alpha  occ. eigenvalues --  -38.44385 -38.43862 -38.43636 -38.43609 -38.43594
 Alpha  occ. eigenvalues --  -38.43549 -38.43441  -2.20165  -2.19740  -2.19506
 Alpha  occ. eigenvalues --   -2.19482  -2.19390  -2.19385  -2.19316  -1.13837
 Alpha  occ. eigenvalues --   -1.13814  -1.13810  -1.13417  -1.13384  -1.13354
 Alpha  occ. eigenvalues --   -1.13202  -1.13183  -1.13160  -1.13158  -1.13131
 Alpha  occ. eigenvalues --   -1.13121  -1.13057  -1.13052  -1.13041  -1.13037
 Alpha  occ. eigenvalues --   -1.13032  -1.13018  -1.12989  -1.12978  -1.12921
 Alpha  occ. eigenvalues --   -0.18303  -0.12853  -0.12342  -0.10893
 Alpha virt. eigenvalues --   -0.05803  -0.05054  -0.04772  -0.03278  -0.02974
 Alpha virt. eigenvalues --   -0.02707  -0.01618  -0.01147  -0.00423  -0.00326
 Alpha virt. eigenvalues --   -0.00051   0.00358   0.00769   0.00840   0.00893

  Beta  occ. eigenvalues --  -38.44374 -38.43783 -38.43632 -38.43593 -38.43548
  Beta  occ. eigenvalues --  -38.43532 -38.43425  -2.20147  -2.19596  -2.19479
  Beta  occ. eigenvalues --   -2.19391  -2.19387  -2.19363  -2.19293  -1.13808
  Beta  occ. eigenvalues --   -1.13802  -1.13801  -1.13322  -1.13285  -1.13248
  Beta  occ. eigenvalues --   -1.13181  -1.13145  -1.13120  -1.13115  -1.13076
  Beta  occ. eigenvalues --   -1.13048  -1.13043  -1.13038  -1.13035  -1.13028
  Beta  occ. eigenvalues --   -1.13016  -1.13013  -1.12963  -1.12932  -1.12905
  Beta  occ. eigenvalues --   -0.17566  -0.12623  -0.12129
  Beta virt. eigenvalues --   -0.07023  -0.05730  -0.04993  -0.04706  -0.02536
  Beta virt. eigenvalues --   -0.02257  -0.01706  -0.01486  -0.01066  -0.00457
  Beta virt. eigenvalues --   -0.00363   0.00090   0.00387   0.00818   0.00857

 Mulliken charges and spin densities:
               1          2
     1  Na  -0.181473   0.555730
     2  Na   0.335318   0.036430
     3  Na   0.068253  -0.058758
     4  Na   0.064144  -0.052304
     5  Na  -0.285059   0.671144
     6  Na  -0.009410  -0.123999
     7  Na   0.008227  -0.028243
 Sum of Mulliken charges =  -0.00000   1.00000

 Dipole moment (field-independent basis, Debye):
    X=             -0.3631    Y=              0.0117    Z=              0.1327  Tot=              0.3868
 Quadrupole moment (field-independent basis, Debye-Ang):
   XX=            -57.5989   YY=            -63.3464   ZZ=            -73.2918
   XY=             -1.0772   XZ=             -1.2370   YZ=              1.1379

 Normal termination of Gaussian 16 at Tue Dec  5 21:22:10 2023.
