 Gaussian 16, Revision B.01,
 Gaussian 16:  ES64L-G16RevB.01 20-Dec-2017

 -------------------------
 #P B3LYP/6-311+g(d) force
 -------------------------

 -----
 DPGEN
 -----
 Symbolic Z-matrix:
 Charge =  0 Multiplicity = 2

                         Standard orientation:
 ---------------------------------------------------------------------
 Center     Atomic      Atomic             Coordinates (Angstroms)
 Number     Number       Type             X           Y           Z
 ---------------------------------------------------------------------
      1         11           0       -0.734535   -2.957964   -0.418871
      2         11           0        3.800443    0.613541   -1.464934
      3         11           0        2.656904   -1.429597    0.397793
      4         11           0       -2.586818    2.425793   -0.760562
      5         11           0        0.860510    2.483343    0.805022
      6         11           0       -0.300050   -0.224919    2.023108
      7         11           0       -3.696455   -0.910197   -0.581556
 ---------------------------------------------------------------------

 SCF Done:  E(UB3LYP) =  -1136.11990310     A.U. after   21 cycles

 The electronic state is 2-A.
 Alpha  occ. eigenvalues --  -38.44625 -38.44520 -38.44293 -38.44290 -38.44080
 Alpha  occ. eigenvalues --  -38.43855 -38.43778  -2.20485  -2.20356  -2.20078
 Alpha  occ. eigenvalues --   -2.20049  -2.19926  -2.19662  -2.19555  -1.14171
 Alpha  occ. eigenvalues --   -1.14117  -1.14101  -1.14076  -1.13985  -1.13962
 Alpha  occ. eigenvalues --   -1.13756  -1.13746  -1.13731  -1.13713  -1.13691
 Alpha  occ. eigenvalues --   -1.13675  -1.13609  -1.13579  -1.13558  -1.13365
 Alpha  occ. eigenvalues --   -1.13323  -1.13265  -1.13237  -1.13218  -1.13192
 Alpha  occ. eigenvalues --   -0.17036  -0.13749  -0.12022  -0.11286
 Alpha virt. eigenvalues --   -0.06152  -0.05856  -0.04375  -0.03708  -0.03122
 Alpha virt. eigenvalues --   -0.02278  -0.01856  -0.01275  -0.01113  -0.00645
 Alpha virt. eigenvalues --   -0.00370   0.00307   0.00382   0.00505   0.00595

  Beta  occ. eigenvalues --  -38.44545 -38.44443 -38.44277 -38.44259 -38.44073
  Beta  occ. eigenvalues --  -38.43836 -38.43780  -2.20339  -2.20214  -2.20028
  Beta  occ. eigenvalues --   -2.20015  -2.19920  -2.19629  -2.19558  -1.14072
  Beta  occ. eigenvalues --   -1.14020  -1.13990  -1.13983  -1.13888  -1.13865
  Beta  occ. eigenvalues --   -1.13720  -1.13714  -1.13710  -1.13678  -1.13667
  Beta  occ. eigenvalues --   -1.13640  -1.13597  -1.13573  -1.13520  -1.13324
  Beta  occ. eigenvalues --   -1.13298  -1.13252  -1.13239  -1.13218  -1.13191
  Beta  occ. eigenvalues --   -0.16378  -0.12954  -0.11930
  Beta virt. eigenvalues --   -0.07820  -0.05958  -0.05589  -0.03847  -0.03549
  Beta virt. eigenvalues --   -0.02566  -0.01759  -0.01609  -0.01142  -0.00972
  Beta virt. eigenvalues --   -0.00633  -0.00068   0.00437   0.00485   0.00610

 Mulliken charges and spin densities:
               1          2
     1  Na  -0.165527  -0.043003
     2  Na   0.272444   0.332345
     3  Na  -0.568636   0.074428
     4  Na  -0.043556   0.037149
     5  Na  -0.722013   0.074329
     6  Na   1.355081   0.288550
     7  Na  -0.127793   0.236202
 Sum of Mulliken charges =  -0.00000   1.00000

 Dipole moment (field-independent basis, Debye):
    X=             -0.0063    Y=              0.1302    Z=             -0.2462  Tot=              0.2785
 Quadrupole moment (field-independent basis, Debye-Ang):
   XX=            -65.0121   YY=            -67.0783   ZZ=            -67.8242
   XY=              1.6683   XZ=             -0.6135   YZ=             -2.1684

 Normal termination of Gaussian 16 at Sun Dec  3 20:35:58 2023.
