 Gaussian 16, Revision B.01,
 Gaussian 16:  ES64L-G16RevB.01 20-Dec-2017

 -------------------------
 #P B3LYP/6-311+g(d) force
 -------------------------

 -----
 DPGEN
 -----
 Symbolic Z-matrix:
 Charge =  0 Multiplicity = 2

                         Standard orientation:
 ---------------------------------------------------------------------
 Center     Atomic      Atomic             Coordinates (Angstroms)
 Number     Number       Type             X           Y           Z
 ---------------------------------------------------------------------
      1         11           0       -2.508271   -1.679349    0.082324
      2         11           0       -5.716320   -0.381181    0.795253
      3         11           0       -3.900304    2.025852    0.343204
      4         11           0        0.005391    1.336335   -1.235140
      5         11           0        0.646473   -1.776428   -0.714196
      6         11           0        4.355626    0.263495   -0.497490
      7         11           0        7.117406    0.211277    1.226045
 ---------------------------------------------------------------------

 SCF Done:  E(UB3LYP) =  -1136.11560652     A.U. after   20 cycles

 The electronic state is 2-A.
 Alpha  occ. eigenvalues --  -38.44843 -38.44640 -38.44595 -38.44540 -38.44197
 Alpha  occ. eigenvalues --  -38.43910 -38.43764  -2.20666  -2.20446  -2.20427
 Alpha  occ. eigenvalues --   -2.20382  -2.20043  -2.19675  -2.19536  -1.14364
 Alpha  occ. eigenvalues --   -1.14327  -1.14309  -1.14113  -1.14098  -1.14084
 Alpha  occ. eigenvalues --   -1.14082  -1.14079  -1.14064  -1.14054  -1.14037
 Alpha  occ. eigenvalues --   -1.13996  -1.13705  -1.13690  -1.13683  -1.13340
 Alpha  occ. eigenvalues --   -1.13338  -1.13337  -1.13218  -1.13212  -1.13135
 Alpha  occ. eigenvalues --   -0.16774  -0.14030  -0.12168  -0.11147
 Alpha virt. eigenvalues --   -0.06946  -0.05792  -0.04427  -0.03829  -0.03088
 Alpha virt. eigenvalues --   -0.02517  -0.02308  -0.01568  -0.01166  -0.00860
 Alpha virt. eigenvalues --   -0.00713  -0.00285   0.00143   0.00152   0.00560

  Beta  occ. eigenvalues --  -38.44801 -38.44591 -38.44585 -38.44473 -38.44183
  Beta  occ. eigenvalues --  -38.43912 -38.43763  -2.20588  -2.20421  -2.20343
  Beta  occ. eigenvalues --   -2.20261  -2.20020  -2.19679  -2.19533  -1.14315
  Beta  occ. eigenvalues --   -1.14274  -1.14255  -1.14076  -1.14062  -1.14043
  Beta  occ. eigenvalues --   -1.14040  -1.14031  -1.14006  -1.13985  -1.13951
  Beta  occ. eigenvalues --   -1.13908  -1.13690  -1.13676  -1.13642  -1.13343
  Beta  occ. eigenvalues --   -1.13341  -1.13340  -1.13215  -1.13210  -1.13135
  Beta  occ. eigenvalues --   -0.16080  -0.13947  -0.12040
  Beta virt. eigenvalues --   -0.07469  -0.06605  -0.04974  -0.04282  -0.03667
  Beta virt. eigenvalues --   -0.02524  -0.02384  -0.02029  -0.01459  -0.01121
  Beta virt. eigenvalues --   -0.00433  -0.00391   0.00029   0.00206   0.00365

 Mulliken charges and spin densities:
               1          2
     1  Na  -0.374860   0.469233
     2  Na   0.486271   0.014032
     3  Na  -0.091403   0.183059
     4  Na  -0.291392   0.390265
     5  Na   0.232894  -0.040552
     6  Na  -0.290872  -0.014911
     7  Na   0.329361  -0.001127
 Sum of Mulliken charges =  -0.00000   1.00000

 Dipole moment (field-independent basis, Debye):
    X=             -2.0364    Y=             -0.0856    Z=              0.2433  Tot=              2.0527
 Quadrupole moment (field-independent basis, Debye-Ang):
   XX=            -56.5464   YY=            -69.5021   ZZ=            -70.8860
   XY=             -0.6579   XZ=              0.9162   YZ=             -0.2185

 Normal termination of Gaussian 16 at Wed Nov 29 02:01:09 2023.
