 Gaussian 16, Revision B.01,
 Gaussian 16:  ES64L-G16RevB.01 20-Dec-2017

 -------------------------
 #P B3LYP/6-311+g(d) force
 -------------------------

 -----
 DPGEN
 -----
 Symbolic Z-matrix:
 Charge =  0 Multiplicity = 2

                         Standard orientation:
 ---------------------------------------------------------------------
 Center     Atomic      Atomic             Coordinates (Angstroms)
 Number     Number       Type             X           Y           Z
 ---------------------------------------------------------------------
      1         11           0        3.841415   -1.077861    0.300148
      2         11           0       -1.107992    3.232245    0.551034
      3         11           0       -2.945772   -2.308272    0.034505
      4         11           0        1.580907    1.733711   -0.665821
      5         11           0       -1.917973    0.312347   -1.405336
      6         11           0        1.068776   -1.386725   -0.924301
      7         11           0       -0.519360   -0.505444    2.109772
 ---------------------------------------------------------------------

 SCF Done:  E(UB3LYP) =  -1136.12865463     A.U. after   19 cycles

 The electronic state is 2-A.
 Alpha  occ. eigenvalues --  -38.44488 -38.44043 -38.43990 -38.43767 -38.43701
 Alpha  occ. eigenvalues --  -38.43474 -38.43306  -2.20304  -2.19876  -2.19801
 Alpha  occ. eigenvalues --   -2.19644  -2.19638  -2.19376  -2.19118  -1.14008
 Alpha  occ. eigenvalues --   -1.13947  -1.13943  -1.13552  -1.13507  -1.13500
 Alpha  occ. eigenvalues --   -1.13489  -1.13453  -1.13432  -1.13430  -1.13323
 Alpha  occ. eigenvalues --   -1.13303  -1.13301  -1.13253  -1.13207  -1.13067
 Alpha  occ. eigenvalues --   -1.13029  -1.12974  -1.12791  -1.12768  -1.12757
 Alpha  occ. eigenvalues --   -0.18151  -0.13325  -0.12157  -0.10686
 Alpha virt. eigenvalues --   -0.06300  -0.05202  -0.04317  -0.03334  -0.02907
 Alpha virt. eigenvalues --   -0.02575  -0.02022  -0.01379  -0.00637  -0.00187
 Alpha virt. eigenvalues --    0.00168   0.00304   0.00648   0.00756   0.00812

  Beta  occ. eigenvalues --  -38.44491 -38.43991 -38.43945 -38.43756 -38.43677
  Beta  occ. eigenvalues --  -38.43429 -38.43302  -2.20311  -2.19807  -2.19695
  Beta  occ. eigenvalues --   -2.19622  -2.19601  -2.19294  -2.19112  -1.14013
  Beta  occ. eigenvalues --   -1.13949  -1.13946  -1.13504  -1.13451  -1.13441
  Beta  occ. eigenvalues --   -1.13431  -1.13406  -1.13376  -1.13351  -1.13288
  Beta  occ. eigenvalues --   -1.13283  -1.13243  -1.13237  -1.13190  -1.13008
  Beta  occ. eigenvalues --   -1.12966  -1.12918  -1.12788  -1.12755  -1.12750
  Beta  occ. eigenvalues --   -0.17423  -0.13178  -0.12011
  Beta virt. eigenvalues --   -0.06751  -0.06083  -0.05170  -0.04215  -0.02763
  Beta virt. eigenvalues --   -0.02307  -0.01889  -0.01625  -0.01237  -0.00532
  Beta virt. eigenvalues --   -0.00047   0.00223   0.00370   0.00717   0.00764

 Mulliken charges and spin densities:
               1          2
     1  Na   0.480913  -0.034103
     2  Na   0.244670  -0.073017
     3  Na   0.265986  -0.138064
     4  Na  -0.257744   0.072932
     5  Na   0.077718   0.300506
     6  Na  -0.175171   0.116688
     7  Na  -0.636372   0.755058
 Sum of Mulliken charges =  -0.00000   1.00000

 Dipole moment (field-independent basis, Debye):
    X=              0.4890    Y=             -0.3188    Z=              0.3241  Tot=              0.6677
 Quadrupole moment (field-independent basis, Debye-Ang):
   XX=            -53.4056   YY=            -65.5291   ZZ=            -73.5982
   XY=              0.2047   XZ=              1.4803   YZ=              0.0961

 Normal termination of Gaussian 16 at Wed Nov 29 16:33:40 2023.
