 Gaussian 16, Revision B.01,
 Gaussian 16:  ES64L-G16RevB.01 20-Dec-2017

 -------------------------
 #P B3LYP/6-311+g(d) force
 -------------------------

 -----
 DPGEN
 -----
 Symbolic Z-matrix:
 Charge =  0 Multiplicity = 2

                         Standard orientation:
 ---------------------------------------------------------------------
 Center     Atomic      Atomic             Coordinates (Angstroms)
 Number     Number       Type             X           Y           Z
 ---------------------------------------------------------------------
      1         11           0        1.121012   -1.518472    0.555107
      2         11           0       -0.068063    2.573685    0.558253
      3         11           0        4.145310   -1.618282    0.112981
      4         11           0        2.346119    1.673499   -0.688695
      5         11           0       -2.318389    0.066124    2.085326
      6         11           0       -1.452274    0.160578   -1.938718
      7         11           0       -3.773715   -1.337132   -0.684255
 ---------------------------------------------------------------------

 SCF Done:  E(UB3LYP) =  -1136.11856716     A.U. after   19 cycles

 The electronic state is 2-A.
 Alpha  occ. eigenvalues --  -38.44589 -38.44435 -38.44431 -38.44338 -38.44243
 Alpha  occ. eigenvalues --  -38.43652 -38.42998  -2.20453  -2.20275  -2.20268
 Alpha  occ. eigenvalues --   -2.20173  -2.20116  -2.19472  -2.18883  -1.14171
 Alpha  occ. eigenvalues --   -1.14125  -1.14075  -1.13956  -1.13926  -1.13925
 Alpha  occ. eigenvalues --   -1.13922  -1.13915  -1.13895  -1.13865  -1.13829
 Alpha  occ. eigenvalues --   -1.13811  -1.13777  -1.13771  -1.13724  -1.13140
 Alpha  occ. eigenvalues --   -1.13124  -1.13111  -1.12581  -1.12517  -1.12515
 Alpha  occ. eigenvalues --   -0.17766  -0.14091  -0.11759  -0.11280
 Alpha virt. eigenvalues --   -0.06662  -0.05393  -0.04482  -0.03262  -0.03134
 Alpha virt. eigenvalues --   -0.02556  -0.02413  -0.01383  -0.00763  -0.00212
 Alpha virt. eigenvalues --    0.00014   0.00218   0.00259   0.00414   0.00635

  Beta  occ. eigenvalues --  -38.44518 -38.44425 -38.44413 -38.44249 -38.44239
  Beta  occ. eigenvalues --  -38.43656 -38.42991  -2.20324  -2.20252  -2.20247
  Beta  occ. eigenvalues --   -2.20109  -2.20008  -2.19479  -2.18873  -1.14095
  Beta  occ. eigenvalues --   -1.14039  -1.13980  -1.13937  -1.13917  -1.13908
  Beta  occ. eigenvalues --   -1.13906  -1.13882  -1.13864  -1.13843  -1.13761
  Beta  occ. eigenvalues --   -1.13718  -1.13715  -1.13696  -1.13671  -1.13144
  Beta  occ. eigenvalues --   -1.13129  -1.13115  -1.12576  -1.12513  -1.12484
  Beta  occ. eigenvalues --   -0.17150  -0.13812  -0.11621
  Beta virt. eigenvalues --   -0.07345  -0.06510  -0.05152  -0.03997  -0.03100
  Beta virt. eigenvalues --   -0.02481  -0.02125  -0.02002  -0.01275  -0.00350
  Beta virt. eigenvalues --   -0.00198   0.00078   0.00348   0.00537   0.00559

 Mulliken charges and spin densities:
               1          2
     1  Na  -1.010455   0.072118
     2  Na  -0.147144   0.048235
     3  Na   0.459442  -0.018952
     4  Na   0.168560   0.018193
     5  Na   0.310482   0.488740
     6  Na  -0.093037   0.495276
     7  Na   0.312152  -0.103610
 Sum of Mulliken charges =  -0.00000   1.00000

 Dipole moment (field-independent basis, Debye):
    X=             -0.1450    Y=             -0.0906    Z=             -0.2044  Tot=              0.2665
 Quadrupole moment (field-independent basis, Debye-Ang):
   XX=            -53.6489   YY=            -73.1258   ZZ=            -71.3344
   XY=              3.5159   XZ=             -3.1868   YZ=              0.3145

 Normal termination of Gaussian 16 at Sun Dec  3 17:52:40 2023.
