 Gaussian 16, Revision B.01,
 Gaussian 16:  ES64L-G16RevB.01 20-Dec-2017

 -------------------------
 #P B3LYP/6-311+g(d) force
 -------------------------

 -----
 DPGEN
 -----
 Symbolic Z-matrix:
 Charge =  0 Multiplicity = 2

                         Standard orientation:
 ---------------------------------------------------------------------
 Center     Atomic      Atomic             Coordinates (Angstroms)
 Number     Number       Type             X           Y           Z
 ---------------------------------------------------------------------
      1         11           0        2.030550    3.308782   -0.295098
      2         11           0        2.972773   -2.770827   -0.005723
      3         11           0        4.536455    0.418654    0.448540
      4         11           0       -0.741730   -3.546479   -0.132530
      5         11           0       -3.221310   -2.113966   -0.342739
      6         11           0       -4.324531    1.279459    0.719575
      7         11           0       -1.252206    3.424377   -0.392026
 ---------------------------------------------------------------------

 SCF Done:  E(UB3LYP) =  -1136.10366478     A.U. after   21 cycles

 The electronic state is 2-A.
 Alpha  occ. eigenvalues --  -38.45338 -38.45104 -38.44913 -38.44882 -38.44367
 Alpha  occ. eigenvalues --  -38.44317 -38.44050  -2.21079  -2.20854  -2.20736
 Alpha  occ. eigenvalues --   -2.20643  -2.20152  -2.20105  -2.19894  -1.14761
 Alpha  occ. eigenvalues --   -1.14748  -1.14709  -1.14529  -1.14510  -1.14497
 Alpha  occ. eigenvalues --   -1.14485  -1.14389  -1.14365  -1.14324  -1.14323
 Alpha  occ. eigenvalues --   -1.14282  -1.13801  -1.13783  -1.13779  -1.13766
 Alpha  occ. eigenvalues --   -1.13763  -1.13731  -1.13562  -1.13524  -1.13510
 Alpha  occ. eigenvalues --   -0.15434  -0.13909  -0.13592  -0.11104
 Alpha virt. eigenvalues --   -0.07884  -0.04828  -0.04456  -0.03594  -0.03555
 Alpha virt. eigenvalues --   -0.02438  -0.02246  -0.01989  -0.01498  -0.00958
 Alpha virt. eigenvalues --   -0.00647  -0.00162  -0.00001   0.00265   0.00447

  Beta  occ. eigenvalues --  -38.45328 -38.45082 -38.44899 -38.44870 -38.44279
  Beta  occ. eigenvalues --  -38.44273 -38.44007  -2.21062  -2.20815  -2.20719
  Beta  occ. eigenvalues --   -2.20627  -2.20025  -2.19988  -2.19817  -1.14752
  Beta  occ. eigenvalues --   -1.14739  -1.14681  -1.14503  -1.14487  -1.14455
  Beta  occ. eigenvalues --   -1.14447  -1.14384  -1.14341  -1.14318  -1.14314
  Beta  occ. eigenvalues --   -1.14233  -1.13713  -1.13709  -1.13689  -1.13673
  Beta  occ. eigenvalues --   -1.13670  -1.13668  -1.13509  -1.13472  -1.13458
  Beta  occ. eigenvalues --   -0.14891  -0.13184  -0.12765
  Beta virt. eigenvalues --   -0.08134  -0.07961  -0.04259  -0.03983  -0.03382
  Beta virt. eigenvalues --   -0.03332  -0.02229  -0.02041  -0.01797  -0.01355
  Beta virt. eigenvalues --   -0.00591  -0.00354   0.00144   0.00199   0.00229

 Mulliken charges and spin densities:
               1          2
     1  Na   0.166447   0.154204
     2  Na   0.054160   0.081282
     3  Na   0.154633   0.105690
     4  Na   0.260603   0.183641
     5  Na  -0.477632   0.044637
     6  Na   0.038953   0.411209
     7  Na  -0.197164   0.019338
 Sum of Mulliken charges =  -0.00000   1.00000

 Dipole moment (field-independent basis, Debye):
    X=              0.7201    Y=             -0.1117    Z=              0.0593  Tot=              0.7312
 Quadrupole moment (field-independent basis, Debye-Ang):
   XX=            -59.3954   YY=            -66.5995   ZZ=            -73.8706
   XY=              0.2472   XZ=              0.7633   YZ=              0.5574

 Normal termination of Gaussian 16 at Sun Dec  3 17:18:41 2023.
