 Gaussian 16, Revision B.01,
 Gaussian 16:  ES64L-G16RevB.01 20-Dec-2017

 -------------------------
 #P B3LYP/6-311+g(d) force
 -------------------------

 -----
 DPGEN
 -----
 Symbolic Z-matrix:
 Charge =  0 Multiplicity = 2

                         Standard orientation:
 ---------------------------------------------------------------------
 Center     Atomic      Atomic             Coordinates (Angstroms)
 Number     Number       Type             X           Y           Z
 ---------------------------------------------------------------------
      1         11           0        0.548841    0.103698   -1.749687
      2         11           0       -3.190123    0.355646   -0.227651
      3         11           0       -0.532567    2.677308    0.139189
      4         11           0        2.704879    1.549339    0.076565
      5         11           0       -0.583948   -0.238858    1.807174
      6         11           0        2.256817   -2.074908    0.318288
      7         11           0       -1.203899   -2.372224   -0.363878
 ---------------------------------------------------------------------

 SCF Done:  E(UB3LYP) =  -1136.13790745     A.U. after   19 cycles

 The electronic state is 2-A.
 Alpha  occ. eigenvalues --  -38.44076 -38.43907 -38.43683 -38.43290 -38.43269
 Alpha  occ. eigenvalues --  -38.43197 -38.43182  -2.19922  -2.19757  -2.19518
 Alpha  occ. eigenvalues --   -2.19253  -2.19188  -2.19156  -2.19077  -1.13594
 Alpha  occ. eigenvalues --   -1.13581  -1.13570  -1.13459  -1.13411  -1.13391
 Alpha  occ. eigenvalues --   -1.13189  -1.13185  -1.13159  -1.13009  -1.12926
 Alpha  occ. eigenvalues --   -1.12885  -1.12857  -1.12837  -1.12811  -1.12796
 Alpha  occ. eigenvalues --   -1.12784  -1.12775  -1.12748  -1.12728  -1.12692
 Alpha  occ. eigenvalues --   -0.18928  -0.13193  -0.12544  -0.10641
 Alpha virt. eigenvalues --   -0.05656  -0.05264  -0.04490  -0.03270  -0.02891
 Alpha virt. eigenvalues --   -0.02319  -0.01585  -0.01080  -0.00230  -0.00198
 Alpha virt. eigenvalues --   -0.00001   0.00358   0.00803   0.00890   0.00914

  Beta  occ. eigenvalues --  -38.44072 -38.43905 -38.43677 -38.43255 -38.43215
  Beta  occ. eigenvalues --  -38.43189 -38.43111  -2.19917  -2.19755  -2.19509
  Beta  occ. eigenvalues --   -2.19167  -2.19114  -2.19067  -2.19026  -1.13591
  Beta  occ. eigenvalues --   -1.13570  -1.13555  -1.13451  -1.13400  -1.13391
  Beta  occ. eigenvalues --   -1.13182  -1.13161  -1.13154  -1.12954  -1.12847
  Beta  occ. eigenvalues --   -1.12832  -1.12786  -1.12773  -1.12753  -1.12749
  Beta  occ. eigenvalues --   -1.12721  -1.12710  -1.12692  -1.12682  -1.12662
  Beta  occ. eigenvalues --   -0.18198  -0.12980  -0.12283
  Beta virt. eigenvalues --   -0.06746  -0.05576  -0.05260  -0.04457  -0.02511
  Beta virt. eigenvalues --   -0.02104  -0.01500  -0.01300  -0.01017  -0.00268
  Beta virt. eigenvalues --   -0.00228   0.00136   0.00388   0.00867   0.00884

 Mulliken charges and spin densities:
               1          2
     1  Na  -0.262145   0.596278
     2  Na   0.144279  -0.036817
     3  Na   0.093035  -0.126256
     4  Na   0.121961  -0.076497
     5  Na  -0.416875   0.700315
     6  Na   0.054792  -0.058507
     7  Na   0.264952   0.001484
 Sum of Mulliken charges =  -0.00000   1.00000

 Dipole moment (field-independent basis, Debye):
    X=              0.0495    Y=              0.0480    Z=              0.0464  Tot=              0.0831
 Quadrupole moment (field-independent basis, Debye-Ang):
   XX=            -54.4387   YY=            -64.2932   ZZ=            -74.3061
   XY=             -0.5903   XZ=              2.4565   YZ=              0.4530

 Normal termination of Gaussian 16 at Thu Dec  7 23:40:33 2023.
