 Gaussian 16, Revision B.01,
 Gaussian 16:  ES64L-G16RevB.01 20-Dec-2017

 -------------------------
 #P B3LYP/6-311+g(d) force
 -------------------------

 -----
 DPGEN
 -----
 Symbolic Z-matrix:
 Charge =  0 Multiplicity = 2

                         Standard orientation:
 ---------------------------------------------------------------------
 Center     Atomic      Atomic             Coordinates (Angstroms)
 Number     Number       Type             X           Y           Z
 ---------------------------------------------------------------------
      1         11           0        3.566134    0.655005    1.588038
      2         11           0       -1.982584    1.941369    0.083868
      3         11           0        0.398092   -1.779900    0.972143
      4         11           0        1.623062    2.297983   -0.986197
      5         11           0        3.602738   -1.307008   -1.322079
      6         11           0       -2.344032   -2.218670   -0.457699
      7         11           0       -4.863410    0.411221    0.121927
 ---------------------------------------------------------------------

 SCF Done:  E(UB3LYP) =  -1136.11068802     A.U. after   22 cycles

 The electronic state is 2-A.
 Alpha  occ. eigenvalues --  -38.46153 -38.45733 -38.43789 -38.43707 -38.43658
 Alpha  occ. eigenvalues --  -38.43634 -38.43125  -2.21921  -2.21505  -2.19600
 Alpha  occ. eigenvalues --   -2.19496  -2.19467  -2.19439  -2.18951  -1.15601
 Alpha  occ. eigenvalues --   -1.15567  -1.15559  -1.15175  -1.15142  -1.15125
 Alpha  occ. eigenvalues --   -1.13302  -1.13273  -1.13223  -1.13176  -1.13163
 Alpha  occ. eigenvalues --   -1.13149  -1.13139  -1.13117  -1.13112  -1.13106
 Alpha  occ. eigenvalues --   -1.13088  -1.13029  -1.12628  -1.12603  -1.12578
 Alpha  occ. eigenvalues --   -0.16618  -0.14333  -0.11445  -0.10416
 Alpha virt. eigenvalues --   -0.07267  -0.06024  -0.04194  -0.03282  -0.03186
 Alpha virt. eigenvalues --   -0.02257  -0.02105  -0.01705  -0.00908  -0.00809
 Alpha virt. eigenvalues --   -0.00633  -0.00058   0.00165   0.00291   0.00575

  Beta  occ. eigenvalues --  -38.46148 -38.45688 -38.43778 -38.43671 -38.43654
  Beta  occ. eigenvalues --  -38.43557 -38.43096  -2.21915  -2.21422  -2.19583
  Beta  occ. eigenvalues --   -2.19439  -2.19430  -2.19323  -2.18898  -1.15594
  Beta  occ. eigenvalues --   -1.15561  -1.15545  -1.15114  -1.15084  -1.15070
  Beta  occ. eigenvalues --   -1.13275  -1.13264  -1.13203  -1.13143  -1.13134
  Beta  occ. eigenvalues --   -1.13114  -1.13107  -1.13090  -1.13060  -1.13009
  Beta  occ. eigenvalues --   -1.12994  -1.12964  -1.12591  -1.12565  -1.12538
  Beta  occ. eigenvalues --   -0.16130  -0.13702  -0.10869
  Beta virt. eigenvalues --   -0.07167  -0.07069  -0.06055  -0.03604  -0.03042
  Beta virt. eigenvalues --   -0.02915  -0.01957  -0.01700  -0.01523  -0.00768
  Beta virt. eigenvalues --   -0.00515  -0.00202  -0.00014   0.00247   0.00338

 Mulliken charges and spin densities:
               1          2
     1  Na   0.519128   0.224703
     2  Na  -0.326063   0.028333
     3  Na  -0.673476   0.104681
     4  Na  -0.215150   0.057050
     5  Na   0.155980   0.209579
     6  Na   0.197324  -0.020708
     7  Na   0.342257   0.396363
 Sum of Mulliken charges =  -0.00000   1.00000

 Dipole moment (field-independent basis, Debye):
    X=              2.2444    Y=             -0.3785    Z=              0.0735  Tot=              2.2773
 Quadrupole moment (field-independent basis, Debye-Ang):
   XX=            -60.6567   YY=            -79.3009   ZZ=            -59.9302
   XY=              4.0125   XZ=              1.8786   YZ=              5.7323

 Normal termination of Gaussian 16 at Mon Dec  4 05:19:41 2023.
