 Gaussian 16, Revision B.01,
 Gaussian 16:  ES64L-G16RevB.01 20-Dec-2017

 -------------------------
 #P B3LYP/6-311+g(d) force
 -------------------------

 -----
 DPGEN
 -----
 Symbolic Z-matrix:
 Charge =  0 Multiplicity = 2

                         Standard orientation:
 ---------------------------------------------------------------------
 Center     Atomic      Atomic             Coordinates (Angstroms)
 Number     Number       Type             X           Y           Z
 ---------------------------------------------------------------------
      1         11           0       -0.735274    3.617942   -0.223610
      2         11           0       -4.636675    0.250362    0.450095
      3         11           0       -3.831690   -2.518982   -0.598606
      4         11           0       -0.342878    0.095748   -0.084852
      5         11           0        2.797737    1.776390    0.037467
      6         11           0        2.662630   -1.682726    1.558972
      7         11           0        4.086150   -1.538734   -1.139466
 ---------------------------------------------------------------------

 SCF Done:  E(UB3LYP) =  -1136.11120817     A.U. after   22 cycles

 The electronic state is 2-A.
 Alpha  occ. eigenvalues --  -38.44709 -38.44706 -38.44541 -38.44069 -38.43812
 Alpha  occ. eigenvalues --  -38.43793 -38.43719  -2.20505  -2.20497  -2.20331
 Alpha  occ. eigenvalues --   -2.19901  -2.19664  -2.19552  -2.19537  -1.14216
 Alpha  occ. eigenvalues --   -1.14203  -1.14182  -1.14163  -1.14141  -1.14077
 Alpha  occ. eigenvalues --   -1.13989  -1.13977  -1.13947  -1.13619  -1.13553
 Alpha  occ. eigenvalues --   -1.13529  -1.13332  -1.13295  -1.13283  -1.13240
 Alpha  occ. eigenvalues --   -1.13229  -1.13222  -1.13189  -1.13182  -1.13136
 Alpha  occ. eigenvalues --   -0.16439  -0.14033  -0.11971  -0.09551
 Alpha virt. eigenvalues --   -0.06554  -0.05864  -0.05275  -0.03165  -0.02996
 Alpha virt. eigenvalues --   -0.02250  -0.02020  -0.01554  -0.01267  -0.00949
 Alpha virt. eigenvalues --   -0.00188   0.00029   0.00248   0.00418   0.00486

  Beta  occ. eigenvalues --  -38.44694 -38.44671 -38.44543 -38.44035 -38.43794
  Beta  occ. eigenvalues --  -38.43777 -38.43670  -2.20477  -2.20434  -2.20335
  Beta  occ. eigenvalues --   -2.19838  -2.19601  -2.19554  -2.19449  -1.14202
  Beta  occ. eigenvalues --   -1.14161  -1.14144  -1.14126  -1.14119  -1.14026
  Beta  occ. eigenvalues --   -1.13993  -1.13972  -1.13945  -1.13576  -1.13510
  Beta  occ. eigenvalues --   -1.13475  -1.13291  -1.13252  -1.13231  -1.13221
  Beta  occ. eigenvalues --   -1.13216  -1.13187  -1.13176  -1.13126  -1.13069
  Beta  occ. eigenvalues --   -0.15796  -0.13822  -0.11859
  Beta virt. eigenvalues --   -0.06420  -0.05972  -0.05514  -0.05033  -0.02902
  Beta virt. eigenvalues --   -0.02780  -0.01924  -0.01767  -0.01454  -0.01066
  Beta virt. eigenvalues --   -0.00555   0.00092   0.00235   0.00399   0.00463

 Mulliken charges and spin densities:
               1          2
     1  Na   0.399533  -0.022475
     2  Na   0.152162   0.095313
     3  Na   0.332762  -0.010880
     4  Na  -2.294164  -0.008002
     5  Na   0.895000   0.486474
     6  Na   0.007986   0.119690
     7  Na   0.506720   0.339880
 Sum of Mulliken charges =  -0.00000   1.00000

 Dipole moment (field-independent basis, Debye):
    X=             -1.0826    Y=             -0.3540    Z=              0.0871  Tot=              1.1423
 Quadrupole moment (field-independent basis, Debye-Ang):
   XX=            -68.7429   YY=            -60.3490   ZZ=            -69.4571
   XY=             -6.2521   XZ=              1.2469   YZ=              5.6788

 Normal termination of Gaussian 16 at Sat Dec  9 05:45:40 2023.
