 Gaussian 16, Revision B.01,
 Gaussian 16:  ES64L-G16RevB.01 20-Dec-2017

 -------------------------
 #P B3LYP/6-311+g(d) force
 -------------------------

 -----
 DPGEN
 -----
 Symbolic Z-matrix:
 Charge =  0 Multiplicity = 2

                         Standard orientation:
 ---------------------------------------------------------------------
 Center     Atomic      Atomic             Coordinates (Angstroms)
 Number     Number       Type             X           Y           Z
 ---------------------------------------------------------------------
      1         11           0        0.025187    1.212096    1.089570
      2         11           0       -1.848851    3.374910   -0.945507
      3         11           0       -3.002080    0.623148    0.562665
      4         11           0       -0.416175   -2.210443   -0.037358
      5         11           0        2.888037   -0.465234    1.108129
      6         11           0       -3.637760   -2.460098   -0.763069
      7         11           0        5.991643   -0.074378   -1.014431
 ---------------------------------------------------------------------

 SCF Done:  E(UB3LYP) =  -1136.12165985     A.U. after   20 cycles

 The electronic state is 2-A.
 Alpha  occ. eigenvalues --  -38.44877 -38.44262 -38.44214 -38.44196 -38.43749
 Alpha  occ. eigenvalues --  -38.43522 -38.43318  -2.20663  -2.20086  -2.20077
 Alpha  occ. eigenvalues --   -2.20018  -2.19655  -2.19348  -2.19115  -1.14294
 Alpha  occ. eigenvalues --   -1.14293  -1.14264  -1.13839  -1.13778  -1.13773
 Alpha  occ. eigenvalues --   -1.13765  -1.13702  -1.13682  -1.13679  -1.13670
 Alpha  occ. eigenvalues --   -1.13610  -1.13368  -1.13331  -1.13232  -1.13010
 Alpha  occ. eigenvalues --   -1.13003  -1.12981  -1.12809  -1.12791  -1.12752
 Alpha  occ. eigenvalues --   -0.17066  -0.13601  -0.12449  -0.11307
 Alpha virt. eigenvalues --   -0.06138  -0.05359  -0.04598  -0.03802  -0.02514
 Alpha virt. eigenvalues --   -0.02320  -0.02110  -0.01729  -0.00912  -0.00618
 Alpha virt. eigenvalues --   -0.00519  -0.00185   0.00096   0.00450   0.00645

  Beta  occ. eigenvalues --  -38.44743 -38.44248 -38.44204 -38.44186 -38.43722
  Beta  occ. eigenvalues --  -38.43507 -38.43323  -2.20412  -2.20070  -2.20054
  Beta  occ. eigenvalues --   -2.19999  -2.19607  -2.19320  -2.19133  -1.14123
  Beta  occ. eigenvalues --   -1.14123  -1.14097  -1.13819  -1.13765  -1.13759
  Beta  occ. eigenvalues --   -1.13749  -1.13687  -1.13668  -1.13657  -1.13652
  Beta  occ. eigenvalues --   -1.13598  -1.13343  -1.13301  -1.13182  -1.12988
  Beta  occ. eigenvalues --   -1.12983  -1.12965  -1.12826  -1.12810  -1.12714
  Beta  occ. eigenvalues --   -0.16702  -0.12641  -0.12372
  Beta virt. eigenvalues --   -0.07621  -0.06011  -0.04899  -0.04306  -0.03681
  Beta virt. eigenvalues --   -0.02349  -0.01975  -0.01534  -0.01364  -0.00696
  Beta virt. eigenvalues --   -0.00340  -0.00270   0.00016   0.00268   0.00575

 Mulliken charges and spin densities:
               1          2
     1  Na  -0.632093   0.058176
     2  Na   0.406048   0.100065
     3  Na   0.034647   0.137458
     4  Na  -0.298635   0.075031
     5  Na   0.077395  -0.121408
     6  Na   0.413206   0.071724
     7  Na  -0.000568   0.678955
 Sum of Mulliken charges =  -0.00000   1.00000

 Dipole moment (field-independent basis, Debye):
    X=             -0.9997    Y=              0.4822    Z=             -0.8261  Tot=              1.3836
 Quadrupole moment (field-independent basis, Debye-Ang):
   XX=            -65.9162   YY=            -65.1066   ZZ=            -67.4202
   XY=              0.2244   XZ=             -0.3510   YZ=             -1.8576

 Normal termination of Gaussian 16 at Tue Nov 28 23:30:48 2023.
