 Gaussian 16, Revision B.01,
 Gaussian 16:  ES64L-G16RevB.01 20-Dec-2017

 -------------------------
 #P B3LYP/6-311+g(d) force
 -------------------------

 -----
 DPGEN
 -----
 Symbolic Z-matrix:
 Charge =  0 Multiplicity = 2

                         Standard orientation:
 ---------------------------------------------------------------------
 Center     Atomic      Atomic             Coordinates (Angstroms)
 Number     Number       Type             X           Y           Z
 ---------------------------------------------------------------------
      1         11           0        0.417503   -0.297571    2.007283
      2         11           0        2.580602    1.750001    0.063252
      3         11           0       -0.213617    0.079397   -1.658728
      4         11           0       -0.968694    2.707183   -0.083757
      5         11           0       -3.171455    0.025310    0.134553
      6         11           0       -1.034532   -2.487906   -0.027943
      7         11           0        2.390193   -1.776414   -0.434661
 ---------------------------------------------------------------------

 SCF Done:  E(UB3LYP) =  -1136.13875627     A.U. after   19 cycles

 The electronic state is 2-A.
 Alpha  occ. eigenvalues --  -38.43983 -38.43851 -38.43675 -38.43526 -38.43346
 Alpha  occ. eigenvalues --  -38.43149 -38.43112  -2.19830  -2.19673  -2.19538
 Alpha  occ. eigenvalues --   -2.19435  -2.19201  -2.19156  -2.19035  -1.13504
 Alpha  occ. eigenvalues --   -1.13488  -1.13480  -1.13349  -1.13339  -1.13315
 Alpha  occ. eigenvalues --   -1.13218  -1.13207  -1.13169  -1.13106  -1.13063
 Alpha  occ. eigenvalues --   -1.13049  -1.12957  -1.12879  -1.12857  -1.12819
 Alpha  occ. eigenvalues --   -1.12785  -1.12756  -1.12700  -1.12680  -1.12648
 Alpha  occ. eigenvalues --   -0.18890  -0.13114  -0.12490  -0.10793
 Alpha virt. eigenvalues --   -0.05590  -0.05241  -0.04489  -0.03238  -0.02883
 Alpha virt. eigenvalues --   -0.02529  -0.01530  -0.01081  -0.00292  -0.00173
 Alpha virt. eigenvalues --   -0.00009   0.00360   0.00805   0.00898   0.00920

  Beta  occ. eigenvalues --  -38.43981 -38.43848 -38.43664 -38.43437 -38.43343
  Beta  occ. eigenvalues --  -38.43103 -38.43081  -2.19829  -2.19671  -2.19520
  Beta  occ. eigenvalues --   -2.19271  -2.19197  -2.19034  -2.19021  -1.13504
  Beta  occ. eigenvalues --   -1.13484  -1.13468  -1.13341  -1.13324  -1.13316
  Beta  occ. eigenvalues --   -1.13203  -1.13169  -1.13159  -1.13001  -1.12948
  Beta  occ. eigenvalues --   -1.12934  -1.12931  -1.12845  -1.12818  -1.12812
  Beta  occ. eigenvalues --   -1.12714  -1.12671  -1.12670  -1.12644  -1.12624
  Beta  occ. eigenvalues --   -0.18153  -0.12892  -0.12233
  Beta virt. eigenvalues --   -0.06859  -0.05546  -0.05233  -0.04460  -0.02461
  Beta virt. eigenvalues --   -0.02097  -0.01467  -0.01441  -0.01008  -0.00334
  Beta virt. eigenvalues --   -0.00228   0.00132   0.00383   0.00866   0.00896

 Mulliken charges and spin densities:
               1          2
     1  Na  -0.560855   0.738254
     2  Na   0.053503  -0.077310
     3  Na  -0.312612   0.482162
     4  Na   0.114149  -0.095519
     5  Na   0.048797  -0.037051
     6  Na   0.392045   0.014622
     7  Na   0.264974  -0.025157
 Sum of Mulliken charges =  -0.00000   1.00000

 Dipole moment (field-independent basis, Debye):
    X=              0.0939    Y=              0.0946    Z=              0.1610  Tot=              0.2090
 Quadrupole moment (field-independent basis, Debye-Ang):
   XX=            -55.4098   YY=            -63.9934   ZZ=            -73.9479
   XY=             -0.0299   XZ=             -1.4662   YZ=              0.9470

 Normal termination of Gaussian 16 at Thu Dec  7 18:31:29 2023.
