 Gaussian 16, Revision B.01,
 Gaussian 16:  ES64L-G16RevB.01 20-Dec-2017

 -------------------------
 #P B3LYP/6-311+g(d) force
 -------------------------

 -----
 DPGEN
 -----
 Symbolic Z-matrix:
 Charge =  0 Multiplicity = 2

                         Standard orientation:
 ---------------------------------------------------------------------
 Center     Atomic      Atomic             Coordinates (Angstroms)
 Number     Number       Type             X           Y           Z
 ---------------------------------------------------------------------
      1         11           0       -2.368927   -1.859473   -1.056397
      2         11           0        3.975466   -0.551972    0.421443
      3         11           0       -2.845506    0.671088    1.581646
      4         11           0        0.147908   -0.412396    1.797371
      5         11           0        0.996540   -1.374039   -0.824905
      6         11           0        1.579047    2.077596   -0.643108
      7         11           0       -1.484527    1.449196   -1.276050
 ---------------------------------------------------------------------

 SCF Done:  E(UB3LYP) =  -1136.12086097     A.U. after   25 cycles

 The electronic state is 2-A.
 Alpha  occ. eigenvalues --  -38.45411 -38.44772 -38.44707 -38.43718 -38.43537
 Alpha  occ. eigenvalues --  -38.42722 -38.42618  -2.21196  -2.20647  -2.20621
 Alpha  occ. eigenvalues --   -2.19569  -2.19496  -2.18644  -2.18480  -1.14877
 Alpha  occ. eigenvalues --   -1.14845  -1.14824  -1.14395  -1.14361  -1.14289
 Alpha  occ. eigenvalues --   -1.14256  -1.14231  -1.14189  -1.13258  -1.13241
 Alpha  occ. eigenvalues --   -1.13220  -1.13191  -1.13125  -1.13077  -1.12351
 Alpha  occ. eigenvalues --   -1.12308  -1.12285  -1.12161  -1.12147  -1.12088
 Alpha  occ. eigenvalues --   -0.18756  -0.14054  -0.11673  -0.10953
 Alpha virt. eigenvalues --   -0.06983  -0.04760  -0.04492  -0.03239  -0.02797
 Alpha virt. eigenvalues --   -0.02502  -0.02326  -0.01119  -0.00769   0.00047
 Alpha virt. eigenvalues --    0.00113   0.00292   0.00346   0.00724   0.00817

  Beta  occ. eigenvalues --  -38.45410 -38.44710 -38.44650 -38.43677 -38.43513
  Beta  occ. eigenvalues --  -38.42698 -38.42615  -2.21195  -2.20533  -2.20519
  Beta  occ. eigenvalues --   -2.19496  -2.19455  -2.18603  -2.18477  -1.14875
  Beta  occ. eigenvalues --   -1.14845  -1.14822  -1.14306  -1.14277  -1.14209
  Beta  occ. eigenvalues --   -1.14181  -1.14163  -1.14112  -1.13223  -1.13184
  Beta  occ. eigenvalues --   -1.13172  -1.13141  -1.13088  -1.13033  -1.12324
  Beta  occ. eigenvalues --   -1.12276  -1.12243  -1.12154  -1.12139  -1.12084
  Beta  occ. eigenvalues --   -0.18056  -0.13829  -0.10725
  Beta virt. eigenvalues --   -0.07603  -0.06834  -0.04719  -0.03895  -0.02974
  Beta virt. eigenvalues --   -0.02572  -0.01862  -0.01597  -0.00857  -0.00521
  Beta virt. eigenvalues --    0.00045   0.00157   0.00349   0.00449   0.00791

 Mulliken charges and spin densities:
               1          2
     1  Na  -0.139052  -0.059932
     2  Na   1.337139   0.079379
     3  Na   0.298438   0.013299
     4  Na  -0.325442   0.480792
     5  Na  -0.670627   0.267718
     6  Na  -0.570439  -0.239274
     7  Na   0.069982   0.458019
 Sum of Mulliken charges =  -0.00000   1.00000

 Dipole moment (field-independent basis, Debye):
    X=              0.7489    Y=             -0.2715    Z=              0.5786  Tot=              0.9845
 Quadrupole moment (field-independent basis, Debye-Ang):
   XX=            -43.2993   YY=            -79.0073   ZZ=            -69.6071
   XY=             -0.2912   XZ=              1.2453   YZ=              3.3286

 Normal termination of Gaussian 16 at Fri Dec  8 02:51:23 2023.
