 Gaussian 16, Revision B.01,
 Gaussian 16:  ES64L-G16RevB.01 20-Dec-2017

 -------------------------
 #P B3LYP/6-311+g(d) force
 -------------------------

 -----
 DPGEN
 -----
 Symbolic Z-matrix:
 Charge =  0 Multiplicity = 2

                         Standard orientation:
 ---------------------------------------------------------------------
 Center     Atomic      Atomic             Coordinates (Angstroms)
 Number     Number       Type             X           Y           Z
 ---------------------------------------------------------------------
      1         11           0        2.119631    2.088112   -0.389932
      2         11           0        0.052994   -0.132296   -1.800444
      3         11           0       -0.271306   -0.088908    2.356189
      4         11           0        2.713433   -1.336296    0.091699
      5         11           0       -3.079102   -0.461177   -0.538566
      6         11           0       -0.295965   -2.461825    0.002619
      7         11           0       -1.239686    2.392391    0.278435
 ---------------------------------------------------------------------

 SCF Done:  E(UB3LYP) =  -1136.13574109     A.U. after   19 cycles

 The electronic state is 2-A.
 Alpha  occ. eigenvalues --  -38.44487 -38.43811 -38.43698 -38.43624 -38.43295
 Alpha  occ. eigenvalues --  -38.43131 -38.42941  -2.20357  -2.19700  -2.19656
 Alpha  occ. eigenvalues --   -2.19483  -2.19139  -2.19004  -2.18899  -1.14009
 Alpha  occ. eigenvalues --   -1.13992  -1.13967  -1.13439  -1.13360  -1.13347
 Alpha  occ. eigenvalues --   -1.13307  -1.13300  -1.13279  -1.13160  -1.13144
 Alpha  occ. eigenvalues --   -1.13129  -1.12824  -1.12797  -1.12779  -1.12690
 Alpha  occ. eigenvalues --   -1.12670  -1.12622  -1.12604  -1.12562  -1.12494
 Alpha  occ. eigenvalues --   -0.18939  -0.12899  -0.12378  -0.11640
 Alpha virt. eigenvalues --   -0.05339  -0.04895  -0.04243  -0.03461  -0.03276
 Alpha virt. eigenvalues --   -0.03169  -0.01424  -0.00801  -0.00185   0.00081
 Alpha virt. eigenvalues --    0.00159   0.00364   0.00806   0.00954   0.00982

  Beta  occ. eigenvalues --  -38.44377 -38.43801 -38.43633 -38.43623 -38.43292
  Beta  occ. eigenvalues --  -38.43124 -38.42931  -2.20155  -2.19641  -2.19581
  Beta  occ. eigenvalues --   -2.19484  -2.19135  -2.18994  -2.18886  -1.13876
  Beta  occ. eigenvalues --   -1.13845  -1.13827  -1.13367  -1.13319  -1.13297
  Beta  occ. eigenvalues --   -1.13284  -1.13262  -1.13213  -1.13158  -1.13137
  Beta  occ. eigenvalues --   -1.13117  -1.12814  -1.12787  -1.12778  -1.12679
  Beta  occ. eigenvalues --   -1.12641  -1.12621  -1.12592  -1.12520  -1.12486
  Beta  occ. eigenvalues --   -0.18166  -0.12669  -0.12127
  Beta virt. eigenvalues --   -0.07616  -0.05281  -0.04880  -0.04186  -0.02634
  Beta virt. eigenvalues --   -0.02362  -0.02235  -0.01333  -0.00748  -0.00045
  Beta virt. eigenvalues --    0.00089   0.00112   0.00390   0.00906   0.00943

 Mulliken charges and spin densities:
               1          2
     1  Na   0.133452  -0.039465
     2  Na  -0.432510   0.367723
     3  Na  -0.599557   0.526159
     4  Na   0.105943  -0.022521
     5  Na   0.297134  -0.019072
     6  Na   0.408826   0.104826
     7  Na   0.086713   0.082350
 Sum of Mulliken charges =  -0.00000   1.00000

 Dipole moment (field-independent basis, Debye):
    X=             -0.0793    Y=             -0.0060    Z=              0.2791  Tot=              0.2902
 Quadrupole moment (field-independent basis, Debye-Ang):
   XX=            -58.1355   YY=            -68.2497   ZZ=            -69.1677
   XY=             -0.0647   XZ=              1.0010   YZ=             -0.2781

 Normal termination of Gaussian 16 at Tue Dec  5 15:14:56 2023.
