 Gaussian 16, Revision B.01,
 Gaussian 16:  ES64L-G16RevB.01 20-Dec-2017

 -------------------------
 #P B3LYP/6-311+g(d) force
 -------------------------

 -----
 DPGEN
 -----
 Symbolic Z-matrix:
 Charge =  0 Multiplicity = 2

                         Standard orientation:
 ---------------------------------------------------------------------
 Center     Atomic      Atomic             Coordinates (Angstroms)
 Number     Number       Type             X           Y           Z
 ---------------------------------------------------------------------
      1         11           0       -3.614580   -1.351174    0.125576
      2         11           0        1.188086    0.225156    3.131225
      3         11           0        0.318276   -2.581563    0.854286
      4         11           0        1.081838    0.865588   -1.993361
      5         11           0        1.216898    3.148197    0.519779
      6         11           0        2.666539   -1.805361   -1.728889
      7         11           0       -2.857057    1.499157   -0.908616
 ---------------------------------------------------------------------

 SCF Done:  E(UB3LYP) =  -1136.11137797     A.U. after   23 cycles

 The electronic state is 2-A.
 Alpha  occ. eigenvalues --  -38.46337 -38.44349 -38.44275 -38.44181 -38.44062
 Alpha  occ. eigenvalues --  -38.43739 -38.43597  -2.22110  -2.20190  -2.20098
 Alpha  occ. eigenvalues --   -2.19943  -2.19846  -2.19508  -2.19381  -1.15754
 Alpha  occ. eigenvalues --   -1.15735  -1.15713  -1.13919  -1.13846  -1.13839
 Alpha  occ. eigenvalues --   -1.13740  -1.13719  -1.13713  -1.13631  -1.13607
 Alpha  occ. eigenvalues --   -1.13574  -1.13528  -1.13522  -1.13477  -1.13178
 Alpha  occ. eigenvalues --   -1.13172  -1.13156  -1.13046  -1.13041  -1.13024
 Alpha  occ. eigenvalues --   -0.16592  -0.12779  -0.12610  -0.11887
 Alpha virt. eigenvalues --   -0.05982  -0.05540  -0.04969  -0.03604  -0.03431
 Alpha virt. eigenvalues --   -0.03066  -0.01256  -0.01085  -0.00838  -0.00569
 Alpha virt. eigenvalues --   -0.00223   0.00042   0.00132   0.00322   0.00479

  Beta  occ. eigenvalues --  -38.46210 -38.44308 -38.44239 -38.44172 -38.44055
  Beta  occ. eigenvalues --  -38.43741 -38.43603  -2.21875  -2.20114  -2.20033
  Beta  occ. eigenvalues --   -2.19928  -2.19833  -2.19512  -2.19393  -1.15596
  Beta  occ. eigenvalues --   -1.15578  -1.15542  -1.13857  -1.13796  -1.13788
  Beta  occ. eigenvalues --   -1.13697  -1.13678  -1.13660  -1.13615  -1.13588
  Beta  occ. eigenvalues --   -1.13563  -1.13522  -1.13512  -1.13471  -1.13184
  Beta  occ. eigenvalues --   -1.13171  -1.13150  -1.13054  -1.13047  -1.13031
  Beta  occ. eigenvalues --   -0.15831  -0.12405  -0.11851
  Beta virt. eigenvalues --   -0.08685  -0.05377  -0.05185  -0.04613  -0.03198
  Beta virt. eigenvalues --   -0.03000  -0.02674  -0.01132  -0.01045  -0.00463
  Beta virt. eigenvalues --   -0.00339  -0.00188   0.00268   0.00427   0.00564

 Mulliken charges and spin densities:
               1          2
     1  Na   0.097305  -0.029514
     2  Na   0.230128   0.541073
     3  Na  -0.289587   0.118390
     4  Na   0.251557   0.232594
     5  Na  -0.186330  -0.004822
     6  Na   0.019305   0.127727
     7  Na  -0.122378   0.014553
 Sum of Mulliken charges =  -0.00000   1.00000

 Dipole moment (field-independent basis, Debye):
    X=              0.7707    Y=             -0.0671    Z=              0.7537  Tot=              1.0801
 Quadrupole moment (field-independent basis, Debye-Ang):
   XX=            -69.2539   YY=            -68.1383   ZZ=            -62.7850
   XY=             -0.6888   XZ=             -0.3138   YZ=              0.4567

 Normal termination of Gaussian 16 at Sun Dec  3 16:46:47 2023.
