 Gaussian 16, Revision B.01,
 Gaussian 16:  ES64L-G16RevB.01 20-Dec-2017

 -------------------------
 #P B3LYP/6-311+g(d) force
 -------------------------

 -----
 DPGEN
 -----
 Symbolic Z-matrix:
 Charge =  0 Multiplicity = 2

                         Standard orientation:
 ---------------------------------------------------------------------
 Center     Atomic      Atomic             Coordinates (Angstroms)
 Number     Number       Type             X           Y           Z
 ---------------------------------------------------------------------
      1         11           0        1.154710   -2.369783   -0.763706
      2         11           0       -1.791029   -2.555963    0.975659
      3         11           0        3.701935    0.414548    0.425895
      4         11           0       -0.167441    0.536914    1.726937
      5         11           0       -2.397755   -0.030288   -1.178480
      6         11           0        0.795264    0.875160   -1.444782
      7         11           0       -1.295684    3.129412    0.258477
 ---------------------------------------------------------------------

 SCF Done:  E(UB3LYP) =  -1136.13323157     A.U. after   19 cycles

 The electronic state is 2-A.
 Alpha  occ. eigenvalues --  -38.44205 -38.44143 -38.43912 -38.43689 -38.43527
 Alpha  occ. eigenvalues --  -38.43209 -38.43130  -2.19973  -2.19962  -2.19783
 Alpha  occ. eigenvalues --   -2.19531  -2.19448  -2.19087  -2.19055  -1.13669
 Alpha  occ. eigenvalues --   -1.13649  -1.13636  -1.13632  -1.13603  -1.13564
 Alpha  occ. eigenvalues --   -1.13482  -1.13445  -1.13391  -1.13253  -1.13189
 Alpha  occ. eigenvalues --   -1.13167  -1.13134  -1.13066  -1.13051  -1.12796
 Alpha  occ. eigenvalues --   -1.12743  -1.12718  -1.12713  -1.12694  -1.12678
 Alpha  occ. eigenvalues --   -0.18374  -0.12668  -0.12472  -0.10837
 Alpha virt. eigenvalues --   -0.05886  -0.05265  -0.04305  -0.03165  -0.03105
 Alpha virt. eigenvalues --   -0.02487  -0.01663  -0.01377  -0.00477  -0.00074
 Alpha virt. eigenvalues --    0.00202   0.00329   0.00567   0.00736   0.00876

  Beta  occ. eigenvalues --  -38.44205 -38.44131 -38.43874 -38.43686 -38.43456
  Beta  occ. eigenvalues --  -38.43192 -38.43082  -2.19973  -2.19944  -2.19718
  Beta  occ. eigenvalues --   -2.19527  -2.19319  -2.19025  -2.19003  -1.13648
  Beta  occ. eigenvalues --   -1.13648  -1.13628  -1.13611  -1.13604  -1.13557
  Beta  occ. eigenvalues --   -1.13431  -1.13382  -1.13352  -1.13229  -1.13185
  Beta  occ. eigenvalues --   -1.13151  -1.13050  -1.12971  -1.12970  -1.12744
  Beta  occ. eigenvalues --   -1.12699  -1.12685  -1.12668  -1.12661  -1.12614
  Beta  occ. eigenvalues --   -0.17624  -0.12476  -0.12292
  Beta virt. eigenvalues --   -0.06930  -0.05770  -0.05145  -0.04191  -0.02624
  Beta virt. eigenvalues --   -0.02465  -0.01661  -0.01451  -0.01231  -0.00236
  Beta virt. eigenvalues --   -0.00084   0.00255   0.00370   0.00690   0.00737

 Mulliken charges and spin densities:
               1          2
     1  Na  -0.254110  -0.020865
     2  Na   0.421688  -0.002611
     3  Na   0.113439  -0.126301
     4  Na  -0.628572   0.685068
     5  Na  -0.164730   0.117486
     6  Na   0.165418   0.411252
     7  Na   0.346868  -0.064029
 Sum of Mulliken charges =  -0.00000   1.00000

 Dipole moment (field-independent basis, Debye):
    X=              0.2459    Y=              0.1905    Z=              0.0297  Tot=              0.3125
 Quadrupole moment (field-independent basis, Debye-Ang):
   XX=            -58.6519   YY=            -61.3730   ZZ=            -72.2054
   XY=             -0.9706   XZ=              1.9994   YZ=              0.2555

 Normal termination of Gaussian 16 at Tue Dec  5 18:56:15 2023.
