 Gaussian 16, Revision B.01,
 Gaussian 16:  ES64L-G16RevB.01 20-Dec-2017

 -------------------------
 #P B3LYP/6-311+g(d) force
 -------------------------

 -----
 DPGEN
 -----
 Symbolic Z-matrix:
 Charge =  0 Multiplicity = 2

                         Standard orientation:
 ---------------------------------------------------------------------
 Center     Atomic      Atomic             Coordinates (Angstroms)
 Number     Number       Type             X           Y           Z
 ---------------------------------------------------------------------
      1         11           0       -1.463227    0.129636    2.034685
      2         11           0        1.290406    1.836612    0.046073
      3         11           0       -1.794160    1.396621   -1.071903
      4         11           0        5.170205   -0.080741   -0.475237
      5         11           0       -0.747625   -1.701014   -1.196483
      6         11           0        1.994711   -1.173813    0.854473
      7         11           0       -4.450310   -0.407301   -0.191607
 ---------------------------------------------------------------------

 SCF Done:  E(UB3LYP) =  -1136.10618778     A.U. after   31 cycles

 The electronic state is 2-A.
 Alpha  occ. eigenvalues --  -38.45800 -38.45687 -38.44177 -38.43940 -38.43687
 Alpha  occ. eigenvalues --  -38.43545 -38.43214  -2.21627  -2.21517  -2.20123
 Alpha  occ. eigenvalues --   -2.19747  -2.19451  -2.19418  -2.19091  -1.15337
 Alpha  occ. eigenvalues --   -1.15272  -1.15220  -1.15197  -1.15178  -1.15130
 Alpha  occ. eigenvalues --   -1.13846  -1.13781  -1.13704  -1.13426  -1.13415
 Alpha  occ. eigenvalues --   -1.13369  -1.13133  -1.13117  -1.13110  -1.13109
 Alpha  occ. eigenvalues --   -1.13077  -1.13012  -1.12789  -1.12761  -1.12673
 Alpha  occ. eigenvalues --   -0.18482  -0.13853  -0.11227  -0.10648
 Alpha virt. eigenvalues --   -0.08356  -0.04985  -0.04426  -0.03376  -0.03136
 Alpha virt. eigenvalues --   -0.02332  -0.02232  -0.01736  -0.01445  -0.00778
 Alpha virt. eigenvalues --   -0.00081   0.00158   0.00167   0.00525   0.00710

  Beta  occ. eigenvalues --  -38.45746 -38.45668 -38.44137 -38.43940 -38.43649
  Beta  occ. eigenvalues --  -38.43524 -38.43194  -2.21531  -2.21484  -2.20050
  Beta  occ. eigenvalues --   -2.19748  -2.19385  -2.19380  -2.19053  -1.15266
  Beta  occ. eigenvalues --   -1.15200  -1.15164  -1.15150  -1.15137  -1.15117
  Beta  occ. eigenvalues --   -1.13794  -1.13734  -1.13647  -1.13428  -1.13405
  Beta  occ. eigenvalues --   -1.13370  -1.13118  -1.13084  -1.13067  -1.13060
  Beta  occ. eigenvalues --   -1.13032  -1.12952  -1.12763  -1.12731  -1.12646
  Beta  occ. eigenvalues --   -0.17836  -0.13535  -0.10355
  Beta virt. eigenvalues --   -0.08093  -0.07571  -0.04776  -0.03934  -0.03187
  Beta virt. eigenvalues --   -0.02882  -0.01874  -0.01735  -0.01543  -0.00998
  Beta virt. eigenvalues --   -0.00667   0.00013   0.00184   0.00280   0.00610

 Mulliken charges and spin densities:
               1          2
     1  Na  -0.045237   0.063234
     2  Na  -0.255746   0.189940
     3  Na   0.026902   0.346641
     4  Na   0.021306   0.177701
     5  Na  -0.087818   0.156936
     6  Na   0.012250   0.087025
     7  Na   0.328343  -0.021477
 Sum of Mulliken charges =  -0.00000   1.00000

 Dipole moment (field-independent basis, Debye):
    X=             -1.6747    Y=              0.1414    Z=              0.8488  Tot=              1.8828
 Quadrupole moment (field-independent basis, Debye-Ang):
   XX=            -68.1714   YY=            -76.3747   ZZ=            -61.5955
   XY=              1.5972   XZ=             -5.6643   YZ=             -2.2078

 Normal termination of Gaussian 16 at Thu Dec  7 07:50:33 2023.
