 Gaussian 16, Revision B.01,
 Gaussian 16:  ES64L-G16RevB.01 20-Dec-2017

 -------------------------
 #P B3LYP/6-311+g(d) force
 -------------------------

 -----
 DPGEN
 -----
 Symbolic Z-matrix:
 Charge =  0 Multiplicity = 2

                         Standard orientation:
 ---------------------------------------------------------------------
 Center     Atomic      Atomic             Coordinates (Angstroms)
 Number     Number       Type             X           Y           Z
 ---------------------------------------------------------------------
      1         11           0       -2.690123   -1.423904   -0.440204
      2         11           0        0.506024   -2.706978    0.591734
      3         11           0        0.108997    0.336628    1.882914
      4         11           0        0.859399    2.799688   -0.437461
      5         11           0       -2.425365    1.712020    0.347187
      6         11           0        0.057950   -0.516167   -1.842559
      7         11           0        3.583118   -0.201287   -0.101611
 ---------------------------------------------------------------------

 SCF Done:  E(UB3LYP) =  -1136.13414372     A.U. after   20 cycles

 The electronic state is 2-A.
 Alpha  occ. eigenvalues --  -38.44819 -38.43615 -38.43595 -38.43580 -38.43502
 Alpha  occ. eigenvalues --  -38.43496 -38.43452  -2.20559  -2.19510  -2.19488
 Alpha  occ. eigenvalues --   -2.19419  -2.19396  -2.19371  -2.19312  -1.14241
 Alpha  occ. eigenvalues --   -1.14213  -1.14197  -1.13248  -1.13183  -1.13177
 Alpha  occ. eigenvalues --   -1.13153  -1.13131  -1.13123  -1.13100  -1.13086
 Alpha  occ. eigenvalues --   -1.13083  -1.13072  -1.13032  -1.13030  -1.13012
 Alpha  occ. eigenvalues --   -1.13003  -1.12983  -1.12972  -1.12969  -1.12916
 Alpha  occ. eigenvalues --   -0.18464  -0.12774  -0.12397  -0.10887
 Alpha virt. eigenvalues --   -0.06164  -0.04776  -0.04586  -0.03169  -0.03138
 Alpha virt. eigenvalues --   -0.02603  -0.01871  -0.00995  -0.00402  -0.00221
 Alpha virt. eigenvalues --   -0.00016   0.00337   0.00749   0.00781   0.00877

  Beta  occ. eigenvalues --  -38.44822 -38.43605 -38.43572 -38.43525 -38.43494
  Beta  occ. eigenvalues --  -38.43434 -38.43415  -2.20567  -2.19473  -2.19385
  Beta  occ. eigenvalues --   -2.19382  -2.19361  -2.19280  -2.19272  -1.14238
  Beta  occ. eigenvalues --   -1.14216  -1.14204  -1.13205  -1.13160  -1.13115
  Beta  occ. eigenvalues --   -1.13097  -1.13091  -1.13068  -1.13053  -1.13049
  Beta  occ. eigenvalues --   -1.13022  -1.13016  -1.13008  -1.12993  -1.12980
  Beta  occ. eigenvalues --   -1.12958  -1.12935  -1.12924  -1.12907  -1.12891
  Beta  occ. eigenvalues --   -0.17724  -0.12562  -0.12154
  Beta virt. eigenvalues --   -0.06988  -0.06138  -0.04725  -0.04492  -0.02470
  Beta virt. eigenvalues --   -0.02383  -0.01825  -0.01544  -0.00926  -0.00394
  Beta virt. eigenvalues --   -0.00229   0.00097   0.00362   0.00798   0.00864

 Mulliken charges and spin densities:
               1          2
     1  Na   0.275679   0.051782
     2  Na   0.034886  -0.025495
     3  Na  -0.013827   0.524359
     4  Na  -0.121751  -0.034742
     5  Na   0.134946  -0.004802
     6  Na  -0.205093   0.610870
     7  Na  -0.104839  -0.121972
 Sum of Mulliken charges =  -0.00000   1.00000

 Dipole moment (field-independent basis, Debye):
    X=              0.5655    Y=             -0.0283    Z=             -0.0561  Tot=              0.5690
 Quadrupole moment (field-independent basis, Debye-Ang):
   XX=            -54.8333   YY=            -65.0275   ZZ=            -73.4589
   XY=              0.0998   XZ=             -0.1808   YZ=             -1.6049

 Normal termination of Gaussian 16 at Tue Dec  5 13:18:13 2023.
