 Gaussian 16, Revision B.01,
 Gaussian 16:  ES64L-G16RevB.01 20-Dec-2017

 -------------------------
 #P B3LYP/6-311+g(d) force
 -------------------------

 -----
 DPGEN
 -----
 Symbolic Z-matrix:
 Charge =  0 Multiplicity = 2

                         Standard orientation:
 ---------------------------------------------------------------------
 Center     Atomic      Atomic             Coordinates (Angstroms)
 Number     Number       Type             X           Y           Z
 ---------------------------------------------------------------------
      1         11           0        0.176351    1.072630    1.328645
      2         11           0        1.683068    3.490780   -0.397147
      3         11           0        3.151446    0.757293   -0.320326
      4         11           0        3.492104   -2.870915   -0.370351
      5         11           0       -0.094109   -1.939429    0.635813
      6         11           0       -2.709740   -0.507306   -0.735703
      7         11           0       -5.699119   -0.003053   -0.140931
 ---------------------------------------------------------------------

 SCF Done:  E(UB3LYP) =  -1136.11906756     A.U. after   18 cycles

 The electronic state is 2-A.
 Alpha  occ. eigenvalues --  -38.44718 -38.44478 -38.44198 -38.43849 -38.43721
 Alpha  occ. eigenvalues --  -38.43685 -38.43656  -2.20618  -2.20301  -2.20068
 Alpha  occ. eigenvalues --   -2.19724  -2.19574  -2.19534  -2.19436  -1.14323
 Alpha  occ. eigenvalues --   -1.14283  -1.14226  -1.13962  -1.13926  -1.13925
 Alpha  occ. eigenvalues --   -1.13760  -1.13747  -1.13689  -1.13430  -1.13404
 Alpha  occ. eigenvalues --   -1.13319  -1.13239  -1.13220  -1.13212  -1.13205
 Alpha  occ. eigenvalues --   -1.13202  -1.13172  -1.13100  -1.13091  -1.13057
 Alpha  occ. eigenvalues --   -0.17268  -0.14058  -0.12294  -0.11359
 Alpha virt. eigenvalues --   -0.05962  -0.05225  -0.04705  -0.03718  -0.03099
 Alpha virt. eigenvalues --   -0.02210  -0.01441  -0.01427  -0.01304  -0.00937
 Alpha virt. eigenvalues --   -0.00542  -0.00008   0.00408   0.00550   0.00569

  Beta  occ. eigenvalues --  -38.44675 -38.44388 -38.44167 -38.43814 -38.43716
  Beta  occ. eigenvalues --  -38.43687 -38.43618  -2.20542  -2.20135  -2.20012
  Beta  occ. eigenvalues --   -2.19664  -2.19566  -2.19547  -2.19365  -1.14274
  Beta  occ. eigenvalues --   -1.14235  -1.14156  -1.13854  -1.13813  -1.13811
  Beta  occ. eigenvalues --   -1.13724  -1.13707  -1.13642  -1.13386  -1.13360
  Beta  occ. eigenvalues --   -1.13276  -1.13226  -1.13220  -1.13215  -1.13214
  Beta  occ. eigenvalues --   -1.13201  -1.13126  -1.13052  -1.13034  -1.13015
  Beta  occ. eigenvalues --   -0.16695  -0.13316  -0.11888
  Beta virt. eigenvalues --   -0.07983  -0.05614  -0.05005  -0.04383  -0.03373
  Beta virt. eigenvalues --   -0.02784  -0.02012  -0.01290  -0.01086  -0.00969
  Beta virt. eigenvalues --   -0.00533  -0.00325   0.00148   0.00521   0.00604

 Mulliken charges and spin densities:
               1          2
     1  Na   0.138511   0.244446
     2  Na   0.320410   0.015265
     3  Na  -0.572348   0.269730
     4  Na   0.417076   0.190837
     5  Na  -0.336724  -0.125946
     6  Na  -0.219379   0.078774
     7  Na   0.252453   0.326893
 Sum of Mulliken charges =  -0.00000   1.00000

 Dipole moment (field-independent basis, Debye):
    X=             -0.2295    Y=              0.7976    Z=              0.2585  Tot=              0.8693
 Quadrupole moment (field-independent basis, Debye-Ang):
   XX=            -65.9080   YY=            -63.9227   ZZ=            -69.0013
   XY=             -0.9366   XZ=             -3.1809   YZ=             -0.6403

 Normal termination of Gaussian 16 at Tue Nov 28 20:34:05 2023.
