 Gaussian 16, Revision B.01,
 Gaussian 16:  ES64L-G16RevB.01 20-Dec-2017

 -------------------------
 #P B3LYP/6-311+g(d) force
 -------------------------

 -----
 DPGEN
 -----
 Symbolic Z-matrix:
 Charge =  0 Multiplicity = 2

                         Standard orientation:
 ---------------------------------------------------------------------
 Center     Atomic      Atomic             Coordinates (Angstroms)
 Number     Number       Type             X           Y           Z
 ---------------------------------------------------------------------
      1         11           0        3.218912    0.922651   -0.266939
      2         11           0       -1.884141   -2.369424   -0.113756
      3         11           0       -0.258920    2.899041    0.227671
      4         11           0        0.213939   -0.002262   -1.629617
      5         11           0        1.741754   -2.303717    0.109273
      6         11           0       -2.942319    0.909355   -0.354524
      7         11           0       -0.089226   -0.055643    2.027892
 ---------------------------------------------------------------------

 SCF Done:  E(UB3LYP) =  -1136.13979810     A.U. after   19 cycles

 The electronic state is 2-A.
 Alpha  occ. eigenvalues --  -38.44160 -38.43814 -38.43579 -38.43493 -38.43388
 Alpha  occ. eigenvalues --  -38.43331 -38.43226  -2.19959  -2.19662  -2.19444
 Alpha  occ. eigenvalues --   -2.19394  -2.19233  -2.19195  -2.19176  -1.13638
 Alpha  occ. eigenvalues --   -1.13611  -1.13602  -1.13337  -1.13321  -1.13308
 Alpha  occ. eigenvalues --   -1.13154  -1.13128  -1.13062  -1.13058  -1.13017
 Alpha  occ. eigenvalues --   -1.13013  -1.12914  -1.12898  -1.12886  -1.12870
 Alpha  occ. eigenvalues --   -1.12856  -1.12846  -1.12813  -1.12808  -1.12798
 Alpha  occ. eigenvalues --   -0.18623  -0.13022  -0.12401  -0.10721
 Alpha virt. eigenvalues --   -0.05684  -0.05152  -0.04687  -0.03139  -0.02867
 Alpha virt. eigenvalues --   -0.02530  -0.01638  -0.01130  -0.00391  -0.00321
 Alpha virt. eigenvalues --   -0.00015   0.00344   0.00785   0.00870   0.00889

  Beta  occ. eigenvalues --  -38.44156 -38.43806 -38.43572 -38.43395 -38.43384
  Beta  occ. eigenvalues --  -38.43324 -38.43167  -2.19954  -2.19649  -2.19435
  Beta  occ. eigenvalues --   -2.19229  -2.19214  -2.19167  -2.19087  -1.13621
  Beta  occ. eigenvalues --   -1.13609  -1.13598  -1.13324  -1.13310  -1.13291
  Beta  occ. eigenvalues --   -1.13145  -1.13092  -1.13054  -1.12950  -1.12912
  Beta  occ. eigenvalues --   -1.12893  -1.12892  -1.12880  -1.12856  -1.12849
  Beta  occ. eigenvalues --   -1.12810  -1.12804  -1.12798  -1.12749  -1.12724
  Beta  occ. eigenvalues --   -0.17899  -0.12772  -0.12162
  Beta virt. eigenvalues --   -0.06822  -0.05630  -0.05148  -0.04643  -0.02380
  Beta virt. eigenvalues --   -0.02100  -0.01554  -0.01456  -0.01068  -0.00419
  Beta virt. eigenvalues --   -0.00373   0.00122   0.00372   0.00837   0.00878

 Mulliken charges and spin densities:
               1          2
     1  Na   0.095340  -0.072311
     2  Na   0.121684  -0.050369
     3  Na   0.098492  -0.043901
     4  Na  -0.274361   0.508909
     5  Na   0.204146  -0.053963
     6  Na   0.128014  -0.009395
     7  Na  -0.373316   0.721030
 Sum of Mulliken charges =  -0.00000   1.00000

 Dipole moment (field-independent basis, Debye):
    X=              0.2153    Y=              0.0472    Z=              0.0782  Tot=              0.2339
 Quadrupole moment (field-independent basis, Debye-Ang):
   XX=            -55.8405   YY=            -62.6588   ZZ=            -74.5276
   XY=              0.6535   XZ=              0.7246   YZ=             -0.0323

 Normal termination of Gaussian 16 at Thu Dec  7 02:15:59 2023.
