 Gaussian 16, Revision B.01,
 Gaussian 16:  ES64L-G16RevB.01 20-Dec-2017

 -------------------------
 #P B3LYP/6-311+g(d) force
 -------------------------

 -----
 DPGEN
 -----
 Symbolic Z-matrix:
 Charge =  0 Multiplicity = 2

                         Standard orientation:
 ---------------------------------------------------------------------
 Center     Atomic      Atomic             Coordinates (Angstroms)
 Number     Number       Type             X           Y           Z
 ---------------------------------------------------------------------
      1         11           0       -1.048420    0.074034    2.403105
      2         11           0        2.771401    1.902245    0.500824
      3         11           0       -1.305100    2.345034   -0.167340
      4         11           0        2.983503   -1.514645   -0.161933
      5         11           0       -3.069382   -0.607532   -0.383346
      6         11           0       -0.221583   -2.497320    0.201373
      7         11           0       -0.110419    0.298184   -2.392682
 ---------------------------------------------------------------------

 SCF Done:  E(UB3LYP) =  -1136.12777848     A.U. after   21 cycles

 The electronic state is 2-A.
 Alpha  occ. eigenvalues --  -38.44835 -38.44796 -38.44437 -38.44256 -38.43748
 Alpha  occ. eigenvalues --  -38.43138 -38.42646  -2.20674  -2.20645  -2.20284
 Alpha  occ. eigenvalues --   -2.20006  -2.19542  -2.18998  -2.18500  -1.14343
 Alpha  occ. eigenvalues --   -1.14307  -1.14296  -1.14287  -1.14281  -1.14261
 Alpha  occ. eigenvalues --   -1.13956  -1.13944  -1.13924  -1.13684  -1.13664
 Alpha  occ. eigenvalues --   -1.13646  -1.13215  -1.13208  -1.13185  -1.12690
 Alpha  occ. eigenvalues --   -1.12675  -1.12621  -1.12186  -1.12176  -1.12132
 Alpha  occ. eigenvalues --   -0.18055  -0.12969  -0.11814  -0.11630
 Alpha virt. eigenvalues --   -0.06007  -0.05333  -0.04315  -0.03491  -0.03388
 Alpha virt. eigenvalues --   -0.03136  -0.01541  -0.00819  -0.00362  -0.00258
 Alpha virt. eigenvalues --   -0.00060   0.00211   0.00388   0.00668   0.00831

  Beta  occ. eigenvalues --  -38.44750 -38.44707 -38.44432 -38.44249 -38.43751
  Beta  occ. eigenvalues --  -38.43131 -38.42641  -2.20518  -2.20479  -2.20278
  Beta  occ. eigenvalues --   -2.19994  -2.19548  -2.18990  -2.18494  -1.14242
  Beta  occ. eigenvalues --   -1.14195  -1.14189  -1.14172  -1.14165  -1.14142
  Beta  occ. eigenvalues --   -1.13947  -1.13936  -1.13903  -1.13671  -1.13657
  Beta  occ. eigenvalues --   -1.13639  -1.13216  -1.13209  -1.13191  -1.12684
  Beta  occ. eigenvalues --   -1.12637  -1.12619  -1.12183  -1.12152  -1.12129
  Beta  occ. eigenvalues --   -0.17239  -0.12829  -0.11453
  Beta virt. eigenvalues --   -0.07881  -0.05774  -0.05250  -0.03831  -0.03123
  Beta virt. eigenvalues --   -0.02656  -0.02309  -0.01463  -0.00767  -0.00283
  Beta virt. eigenvalues --   -0.00126  -0.00026   0.00433   0.00510   0.00792

 Mulliken charges and spin densities:
               1          2
     1  Na  -0.047220   0.498791
     2  Na  -0.089253  -0.014790
     3  Na  -0.121330   0.035809
     4  Na   0.079196  -0.074382
     5  Na   0.656721   0.057082
     6  Na  -0.335235   0.015629
     7  Na  -0.142879   0.481862
 Sum of Mulliken charges =  -0.00000   1.00000

 Dipole moment (field-independent basis, Debye):
    X=             -0.3739    Y=              0.1921    Z=              0.0089  Tot=              0.4205
 Quadrupole moment (field-independent basis, Debye-Ang):
   XX=            -58.8188   YY=            -73.0767   ZZ=            -65.7133
   XY=              1.0135   XZ=              0.9181   YZ=              2.5943

 Normal termination of Gaussian 16 at Sun Dec  3 21:03:15 2023.
