 Gaussian 16, Revision B.01,
 Gaussian 16:  ES64L-G16RevB.01 20-Dec-2017

 -------------------------
 #P B3LYP/6-311+g(d) force
 -------------------------

 -----
 DPGEN
 -----
 Symbolic Z-matrix:
 Charge =  0 Multiplicity = 2

                         Standard orientation:
 ---------------------------------------------------------------------
 Center     Atomic      Atomic             Coordinates (Angstroms)
 Number     Number       Type             X           Y           Z
 ---------------------------------------------------------------------
      1         11           0       -0.316685    3.000618   -0.375344
      2         11           0       -2.951722    0.668271    0.076157
      3         11           0        3.074941    0.963588    0.170352
      4         11           0        0.048556    0.060601   -1.561241
      5         11           0       -1.877478   -2.460003   -0.134701
      6         11           0       -0.028714    0.039164    2.085660
      7         11           0        2.051102   -2.272239   -0.260883
 ---------------------------------------------------------------------

 SCF Done:  E(UB3LYP) =  -1136.13849184     A.U. after   19 cycles

 The electronic state is 2-A.
 Alpha  occ. eigenvalues --  -38.44227 -38.43894 -38.43725 -38.43673 -38.43501
 Alpha  occ. eigenvalues --  -38.43278 -38.43028  -2.20036  -2.19755  -2.19556
 Alpha  occ. eigenvalues --   -2.19542  -2.19334  -2.19120  -2.19017  -1.13709
 Alpha  occ. eigenvalues --   -1.13698  -1.13678  -1.13436  -1.13425  -1.13394
 Alpha  occ. eigenvalues --   -1.13247  -1.13220  -1.13206  -1.13185  -1.13166
 Alpha  occ. eigenvalues --   -1.13158  -1.13011  -1.12991  -1.12975  -1.12850
 Alpha  occ. eigenvalues --   -1.12771  -1.12749  -1.12697  -1.12640  -1.12632
 Alpha  occ. eigenvalues --   -0.18522  -0.13122  -0.12290  -0.10646
 Alpha virt. eigenvalues --   -0.05686  -0.05271  -0.04730  -0.03217  -0.02730
 Alpha virt. eigenvalues --   -0.02528  -0.01579  -0.01188  -0.00482  -0.00435
 Alpha virt. eigenvalues --   -0.00006   0.00357   0.00785   0.00852   0.00879

  Beta  occ. eigenvalues --  -38.44224 -38.43889 -38.43720 -38.43576 -38.43499
  Beta  occ. eigenvalues --  -38.43270 -38.42968  -2.20033  -2.19750  -2.19548
  Beta  occ. eigenvalues --   -2.19363  -2.19332  -2.19108  -2.18908  -1.13699
  Beta  occ. eigenvalues --   -1.13685  -1.13680  -1.13434  -1.13403  -1.13386
  Beta  occ. eigenvalues --   -1.13235  -1.13198  -1.13182  -1.13090  -1.13043
  Beta  occ. eigenvalues --   -1.13028  -1.13006  -1.12980  -1.12970  -1.12826
  Beta  occ. eigenvalues --   -1.12751  -1.12741  -1.12621  -1.12563  -1.12556
  Beta  occ. eigenvalues --   -0.17803  -0.12913  -0.12041
  Beta virt. eigenvalues --   -0.06736  -0.05626  -0.05273  -0.04689  -0.02430
  Beta virt. eigenvalues --   -0.02009  -0.01482  -0.01447  -0.01107  -0.00533
  Beta virt. eigenvalues --   -0.00486   0.00138   0.00384   0.00829   0.00869

 Mulliken charges and spin densities:
               1          2
     1  Na   0.152121  -0.032436
     2  Na   0.279312   0.028614
     3  Na   0.109503  -0.014125
     4  Na  -0.213717   0.404532
     5  Na   0.044099  -0.071241
     6  Na  -0.467984   0.754299
     7  Na   0.096666  -0.069642
 Sum of Mulliken charges =  -0.00000   1.00000

 Dipole moment (field-independent basis, Debye):
    X=              0.2215    Y=              0.0044    Z=              0.1967  Tot=              0.2963
 Quadrupole moment (field-independent basis, Debye-Ang):
   XX=            -55.9412   YY=            -61.7795   ZZ=            -75.2437
   XY=              0.4761   XZ=              0.1743   YZ=              0.2698

 Normal termination of Gaussian 16 at Thu Dec  7 07:55:09 2023.
