 Gaussian 16, Revision B.01,
 Gaussian 16:  ES64L-G16RevB.01 20-Dec-2017

 -------------------------
 #P B3LYP/6-311+g(d) force
 -------------------------

 -----
 DPGEN
 -----
 Symbolic Z-matrix:
 Charge =  0 Multiplicity = 2

                         Standard orientation:
 ---------------------------------------------------------------------
 Center     Atomic      Atomic             Coordinates (Angstroms)
 Number     Number       Type             X           Y           Z
 ---------------------------------------------------------------------
      1         11           0       -2.698389   -2.509759    0.281717
      2         11           0       -0.278124   -0.164458    1.669619
      3         11           0        1.207403    1.912107   -0.685112
      4         11           0        4.354788    0.007967    0.351621
      5         11           0        1.226385   -2.022588   -0.534928
      6         11           0       -2.382816    2.844389    0.389286
      7         11           0       -1.429247   -0.067660   -1.472202
 ---------------------------------------------------------------------

 SCF Done:  E(UB3LYP) =  -1136.12490931     A.U. after   22 cycles

 The electronic state is 2-A.
 Alpha  occ. eigenvalues --  -38.44868 -38.44250 -38.44137 -38.43885 -38.43881
 Alpha  occ. eigenvalues --  -38.43773 -38.42791  -2.20610  -2.20052  -2.19977
 Alpha  occ. eigenvalues --   -2.19785  -2.19660  -2.19611  -2.18765  -1.14284
 Alpha  occ. eigenvalues --   -1.14281  -1.14230  -1.13744  -1.13726  -1.13708
 Alpha  occ. eigenvalues --   -1.13676  -1.13664  -1.13548  -1.13494  -1.13408
 Alpha  occ. eigenvalues --   -1.13399  -1.13340  -1.13324  -1.13321  -1.13299
 Alpha  occ. eigenvalues --   -1.13283  -1.13186  -1.12474  -1.12422  -1.12352
 Alpha  occ. eigenvalues --   -0.18187  -0.12893  -0.12136  -0.10038
 Alpha virt. eigenvalues --   -0.06870  -0.05553  -0.04349  -0.02868  -0.02601
 Alpha virt. eigenvalues --   -0.02389  -0.01944  -0.01797  -0.00793  -0.00239
 Alpha virt. eigenvalues --   -0.00103   0.00102   0.00602   0.00625   0.00679

  Beta  occ. eigenvalues --  -38.44866 -38.44246 -38.44118 -38.43879 -38.43819
  Beta  occ. eigenvalues --  -38.43753 -38.42733  -2.20605  -2.20047  -2.19948
  Beta  occ. eigenvalues --   -2.19673  -2.19651  -2.19579  -2.18661  -1.14281
  Beta  occ. eigenvalues --   -1.14274  -1.14227  -1.13740  -1.13706  -1.13688
  Beta  occ. eigenvalues --   -1.13674  -1.13609  -1.13532  -1.13414  -1.13335
  Beta  occ. eigenvalues --   -1.13331  -1.13328  -1.13303  -1.13290  -1.13279
  Beta  occ. eigenvalues --   -1.13245  -1.13169  -1.12404  -1.12327  -1.12278
  Beta  occ. eigenvalues --   -0.17450  -0.12762  -0.11929
  Beta virt. eigenvalues --   -0.06735  -0.06162  -0.05479  -0.04281  -0.02501
  Beta virt. eigenvalues --   -0.02212  -0.02042  -0.01662  -0.01074  -0.00473
  Beta virt. eigenvalues --   -0.00258   0.00015   0.00165   0.00625   0.00667

 Mulliken charges and spin densities:
               1          2
     1  Na   0.056182  -0.086887
     2  Na  -0.273743   0.832240
     3  Na  -0.211937  -0.040273
     4  Na   0.209040   0.031258
     5  Na  -0.096319  -0.023586
     6  Na  -0.113286  -0.077478
     7  Na   0.430062   0.364726
 Sum of Mulliken charges =  -0.00000   1.00000

 Dipole moment (field-independent basis, Debye):
    X=              0.1974    Y=             -0.1836    Z=              0.0170  Tot=              0.2702
 Quadrupole moment (field-independent basis, Debye-Ang):
   XX=            -48.7641   YY=            -63.5770   ZZ=            -76.7870
   XY=              0.9845   XZ=              0.2862   YZ=              0.3249

 Normal termination of Gaussian 16 at Wed Dec  6 01:21:49 2023.
