 Gaussian 16, Revision B.01,
 Gaussian 16:  ES64L-G16RevB.01 20-Dec-2017

 -------------------------
 #P B3LYP/6-311+g(d) force
 -------------------------

 -----
 DPGEN
 -----
 Symbolic Z-matrix:
 Charge =  0 Multiplicity = 2

                         Standard orientation:
 ---------------------------------------------------------------------
 Center     Atomic      Atomic             Coordinates (Angstroms)
 Number     Number       Type             X           Y           Z
 ---------------------------------------------------------------------
      1         11           0        0.378251    0.423109    2.011131
      2         11           0        2.525751    1.761008   -0.141451
      3         11           0        3.058578   -1.520683   -0.226079
      4         11           0       -0.953397   -2.737597    0.206684
      5         11           0       -1.627575    2.691577   -0.182450
      6         11           0       -3.275297   -0.551693   -0.003417
      7         11           0       -0.106310   -0.065720   -1.664418
 ---------------------------------------------------------------------

 SCF Done:  E(UB3LYP) =  -1136.13341233     A.U. after   19 cycles

 The electronic state is 2-A.
 Alpha  occ. eigenvalues --  -38.44490 -38.44415 -38.44181 -38.43527 -38.43456
 Alpha  occ. eigenvalues --  -38.43373 -38.43167  -2.20316  -2.20209  -2.20028
 Alpha  occ. eigenvalues --   -2.19400  -2.19376  -2.19180  -2.19013  -1.13990
 Alpha  occ. eigenvalues --   -1.13985  -1.13954  -1.13884  -1.13875  -1.13854
 Alpha  occ. eigenvalues --   -1.13712  -1.13695  -1.13648  -1.13085  -1.13055
 Alpha  occ. eigenvalues --   -1.13033  -1.13026  -1.13012  -1.12995  -1.12852
 Alpha  occ. eigenvalues --   -1.12840  -1.12819  -1.12692  -1.12672  -1.12652
 Alpha  occ. eigenvalues --   -0.18256  -0.13451  -0.11943  -0.10467
 Alpha virt. eigenvalues --   -0.06101  -0.05652  -0.04376  -0.03360  -0.02650
 Alpha virt. eigenvalues --   -0.02377  -0.01913  -0.01356  -0.00592  -0.00408
 Alpha virt. eigenvalues --   -0.00042   0.00322   0.00679   0.00788   0.00866

  Beta  occ. eigenvalues --  -38.44490 -38.44410 -38.44174 -38.43434 -38.43395
  Beta  occ. eigenvalues --  -38.43371 -38.43161  -2.20318  -2.20203  -2.20019
  Beta  occ. eigenvalues --   -2.19266  -2.19227  -2.19177  -2.19006  -1.13993
  Beta  occ. eigenvalues --   -1.13969  -1.13958  -1.13882  -1.13854  -1.13850
  Beta  occ. eigenvalues --   -1.13701  -1.13666  -1.13644  -1.13001  -1.12952
  Beta  occ. eigenvalues --   -1.12945  -1.12916  -1.12909  -1.12892  -1.12838
  Beta  occ. eigenvalues --   -1.12833  -1.12814  -1.12687  -1.12652  -1.12643
  Beta  occ. eigenvalues --   -0.17552  -0.13241  -0.11727
  Beta virt. eigenvalues --   -0.06613  -0.06010  -0.05638  -0.04336  -0.02597
  Beta virt. eigenvalues --   -0.01928  -0.01800  -0.01383  -0.01288  -0.00639
  Beta virt. eigenvalues --   -0.00432   0.00123   0.00357   0.00760   0.00786

 Mulliken charges and spin densities:
               1          2
     1  Na  -0.371543   0.749063
     2  Na   0.322667  -0.054338
     3  Na   0.022662  -0.021973
     4  Na  -0.027542  -0.053023
     5  Na   0.054354  -0.124513
     6  Na   0.112060  -0.039167
     7  Na  -0.112660   0.543951
 Sum of Mulliken charges =  -0.00000   1.00000

 Dipole moment (field-independent basis, Debye):
    X=              0.1954    Y=              0.0192    Z=              0.0129  Tot=              0.1968
 Quadrupole moment (field-independent basis, Debye-Ang):
   XX=            -52.4147   YY=            -64.9204   ZZ=            -75.8696
   XY=             -0.9463   XZ=             -1.0126   YZ=             -0.9625

 Normal termination of Gaussian 16 at Thu Dec  7 09:20:39 2023.
