 Gaussian 16, Revision B.01,
 Gaussian 16:  ES64L-G16RevB.01 20-Dec-2017

 -------------------------
 #P B3LYP/6-311+g(d) force
 -------------------------

 -----
 DPGEN
 -----
 Symbolic Z-matrix:
 Charge =  0 Multiplicity = 2

                         Standard orientation:
 ---------------------------------------------------------------------
 Center     Atomic      Atomic             Coordinates (Angstroms)
 Number     Number       Type             X           Y           Z
 ---------------------------------------------------------------------
      1         11           0       -1.990684    2.134464   -0.414696
      2         11           0       -1.816935   -1.289038   -1.871363
      3         11           0       -2.567838   -1.156340    1.554908
      4         11           0        0.453647    1.402162    1.865309
      5         11           0        1.562754    1.357701   -1.505553
      6         11           0        3.690417   -0.722332    0.339326
      7         11           0        0.668639   -1.726617    0.032069
 ---------------------------------------------------------------------

 SCF Done:  E(UB3LYP) =  -1136.13119262     A.U. after   20 cycles

 The electronic state is 2-A.
 Alpha  occ. eigenvalues --  -38.44350 -38.44333 -38.44157 -38.43709 -38.43644
 Alpha  occ. eigenvalues --  -38.43318 -38.42843  -2.20163  -2.20152  -2.19998
 Alpha  occ. eigenvalues --   -2.19554  -2.19504  -2.19135  -2.18772  -1.13838
 Alpha  occ. eigenvalues --   -1.13833  -1.13812  -1.13807  -1.13789  -1.13786
 Alpha  occ. eigenvalues --   -1.13688  -1.13654  -1.13602  -1.13243  -1.13205
 Alpha  occ. eigenvalues --   -1.13194  -1.13176  -1.13141  -1.13119  -1.12806
 Alpha  occ. eigenvalues --   -1.12796  -1.12775  -1.12481  -1.12454  -1.12377
 Alpha  occ. eigenvalues --   -0.18239  -0.13389  -0.11425  -0.11338
 Alpha virt. eigenvalues --   -0.06011  -0.05260  -0.04405  -0.03221  -0.03042
 Alpha virt. eigenvalues --   -0.02781  -0.01895  -0.00989  -0.00516  -0.00068
 Alpha virt. eigenvalues --    0.00255   0.00282   0.00414   0.00594   0.00803

  Beta  occ. eigenvalues --  -38.44334 -38.44312 -38.44122 -38.43668 -38.43601
  Beta  occ. eigenvalues --  -38.43311 -38.42829  -2.20155  -2.20095  -2.19933
  Beta  occ. eigenvalues --   -2.19478  -2.19426  -2.19125  -2.18751  -1.13834
  Beta  occ. eigenvalues --   -1.13808  -1.13790  -1.13782  -1.13765  -1.13734
  Beta  occ. eigenvalues --   -1.13643  -1.13601  -1.13556  -1.13194  -1.13151
  Beta  occ. eigenvalues --   -1.13131  -1.13121  -1.13089  -1.13054  -1.12793
  Beta  occ. eigenvalues --   -1.12774  -1.12769  -1.12454  -1.12415  -1.12369
  Beta  occ. eigenvalues --   -0.17484  -0.13220  -0.11188
  Beta virt. eigenvalues --   -0.07575  -0.05843  -0.04858  -0.04029  -0.03059
  Beta virt. eigenvalues --   -0.02453  -0.01958  -0.01762  -0.00774  -0.00271
  Beta virt. eigenvalues --    0.00033   0.00313   0.00341   0.00518   0.00705

 Mulliken charges and spin densities:
               1          2
     1  Na   0.005863   0.039557
     2  Na   0.220346   0.291121
     3  Na   0.121630   0.044904
     4  Na  -0.221161   0.357245
     5  Na  -0.071776   0.168489
     6  Na   0.393615  -0.035923
     7  Na  -0.448516   0.134607
 Sum of Mulliken charges =  -0.00000   1.00000

 Dipole moment (field-independent basis, Debye):
    X=              0.3848    Y=              0.1762    Z=              0.1664  Tot=              0.4548
 Quadrupole moment (field-independent basis, Debye-Ang):
   XX=            -52.3434   YY=            -76.9058   ZZ=            -64.5138
   XY=              0.3110   XZ=              0.1486   YZ=             -2.5882

 Normal termination of Gaussian 16 at Mon Dec  4 02:54:08 2023.
