 Gaussian 16, Revision B.01,
 Gaussian 16:  ES64L-G16RevB.01 20-Dec-2017

 -------------------------
 #P B3LYP/6-311+g(d) force
 -------------------------

 -----
 DPGEN
 -----
 Symbolic Z-matrix:
 Charge =  0 Multiplicity = 2

                         Standard orientation:
 ---------------------------------------------------------------------
 Center     Atomic      Atomic             Coordinates (Angstroms)
 Number     Number       Type             X           Y           Z
 ---------------------------------------------------------------------
      1         11           0        2.257423    1.608349    0.247350
      2         11           0        5.869937    0.347034   -0.074023
      3         11           0        3.065870   -2.264407   -0.081117
      4         11           0       -0.049995   -1.295991   -0.251765
      5         11           0       -0.875907    2.304448   -0.249632
      6         11           0       -3.648170   -0.471689    0.875821
      7         11           0       -6.619158   -0.227744   -0.466635
 ---------------------------------------------------------------------

 SCF Done:  E(UB3LYP) =  -1136.11726556     A.U. after   22 cycles

 The electronic state is 2-A.
 Alpha  occ. eigenvalues --  -38.44640 -38.44620 -38.44563 -38.44362 -38.44130
 Alpha  occ. eigenvalues --  -38.44074 -38.43845  -2.20475  -2.20469  -2.20376
 Alpha  occ. eigenvalues --   -2.20129  -2.19953  -2.19834  -2.19636  -1.14175
 Alpha  occ. eigenvalues --   -1.14168  -1.14150  -1.14140  -1.14087  -1.14075
 Alpha  occ. eigenvalues --   -1.14048  -1.14025  -1.13973  -1.13794  -1.13787
 Alpha  occ. eigenvalues --   -1.13742  -1.13617  -1.13608  -1.13574  -1.13500
 Alpha  occ. eigenvalues --   -1.13499  -1.13496  -1.13321  -1.13305  -1.13243
 Alpha  occ. eigenvalues --   -0.16900  -0.13687  -0.12113  -0.11603
 Alpha virt. eigenvalues --   -0.06830  -0.05416  -0.04520  -0.03457  -0.03364
 Alpha virt. eigenvalues --   -0.02416  -0.02347  -0.01347  -0.01092  -0.00798
 Alpha virt. eigenvalues --   -0.00664  -0.00211  -0.00010   0.00220   0.00591

  Beta  occ. eigenvalues --  -38.44599 -38.44553 -38.44517 -38.44320 -38.44103
  Beta  occ. eigenvalues --  -38.44083 -38.43841  -2.20396  -2.20353  -2.20297
  Beta  occ. eigenvalues --   -2.20051  -2.19904  -2.19851  -2.19629  -1.14119
  Beta  occ. eigenvalues --   -1.14098  -1.14072  -1.14071  -1.14018  -1.14001
  Beta  occ. eigenvalues --   -1.13996  -1.13957  -1.13888  -1.13741  -1.13728
  Beta  occ. eigenvalues --   -1.13695  -1.13585  -1.13563  -1.13546  -1.13511
  Beta  occ. eigenvalues --   -1.13511  -1.13506  -1.13313  -1.13300  -1.13245
  Beta  occ. eigenvalues --   -0.16147  -0.13513  -0.11525
  Beta virt. eigenvalues --   -0.08064  -0.06487  -0.05038  -0.04291  -0.03166
  Beta virt. eigenvalues --   -0.02782  -0.02289  -0.01984  -0.01246  -0.00869
  Beta virt. eigenvalues --   -0.00443  -0.00410  -0.00038   0.00099   0.00358

 Mulliken charges and spin densities:
               1          2
     1  Na  -0.511068   0.279693
     2  Na   0.034351   0.251257
     3  Na   0.565324  -0.165218
     4  Na  -0.972740   0.701768
     5  Na   0.689691   0.007504
     6  Na  -0.177735  -0.014419
     7  Na   0.372177  -0.060585
 Sum of Mulliken charges =  -0.00000   1.00000

 Dipole moment (field-independent basis, Debye):
    X=              0.7333    Y=              0.3750    Z=             -0.3430  Tot=              0.8922
 Quadrupole moment (field-independent basis, Debye-Ang):
   XX=            -59.9423   YY=            -67.0804   ZZ=            -71.9463
   XY=             -3.1299   XZ=              3.7643   YZ=             -0.5851

 Normal termination of Gaussian 16 at Wed Nov 29 00:11:18 2023.
