 Gaussian 16, Revision B.01,
 Gaussian 16:  ES64L-G16RevB.01 20-Dec-2017

 -------------------------
 #P B3LYP/6-311+g(d) force
 -------------------------

 -----
 DPGEN
 -----
 Symbolic Z-matrix:
 Charge =  0 Multiplicity = 2

                         Standard orientation:
 ---------------------------------------------------------------------
 Center     Atomic      Atomic             Coordinates (Angstroms)
 Number     Number       Type             X           Y           Z
 ---------------------------------------------------------------------
      1         11           0        2.154033    2.261124    0.046770
      2         11           0       -3.355866    0.787050    1.132191
      3         11           0       -0.707556    1.763235   -1.198328
      4         11           0       -2.354573   -1.443436   -0.917807
      5         11           0       -0.112248   -1.048432    2.017742
      6         11           0        0.984344   -1.399571   -1.902969
      7         11           0        3.391866   -0.919970    0.822401
 ---------------------------------------------------------------------

 SCF Done:  E(UB3LYP) =  -1136.12499079     A.U. after   24 cycles

 The electronic state is 2-A.
 Alpha  occ. eigenvalues --  -38.44835 -38.44671 -38.44498 -38.44281 -38.44275
 Alpha  occ. eigenvalues --  -38.43159 -38.42458  -2.20665  -2.20507  -2.20282
 Alpha  occ. eigenvalues --   -2.20147  -2.20078  -2.18984  -2.18325  -1.14344
 Alpha  occ. eigenvalues --   -1.14308  -1.14292  -1.14185  -1.14137  -1.14124
 Alpha  occ. eigenvalues --   -1.13965  -1.13953  -1.13891  -1.13823  -1.13793
 Alpha  occ. eigenvalues --   -1.13787  -1.13753  -1.13732  -1.13714  -1.12674
 Alpha  occ. eigenvalues --   -1.12646  -1.12621  -1.12014  -1.12000  -1.11949
 Alpha  occ. eigenvalues --   -0.18049  -0.13745  -0.11876  -0.11009
 Alpha virt. eigenvalues --   -0.06430  -0.05358  -0.04733  -0.03397  -0.02876
 Alpha virt. eigenvalues --   -0.02743  -0.02141  -0.01013  -0.00696  -0.00215
 Alpha virt. eigenvalues --    0.00163   0.00227   0.00265   0.00571   0.00717

  Beta  occ. eigenvalues --  -38.44802 -38.44588 -38.44462 -38.44274 -38.44250
  Beta  occ. eigenvalues --  -38.43156 -38.42449  -2.20602  -2.20357  -2.20215
  Beta  occ. eigenvalues --   -2.20106  -2.20067  -2.18978  -2.18311  -1.14306
  Beta  occ. eigenvalues --   -1.14263  -1.14245  -1.14078  -1.14032  -1.14014
  Beta  occ. eigenvalues --   -1.13921  -1.13902  -1.13841  -1.13789  -1.13766
  Beta  occ. eigenvalues --   -1.13737  -1.13729  -1.13725  -1.13707  -1.12672
  Beta  occ. eigenvalues --   -1.12636  -1.12617  -1.12008  -1.11964  -1.11947
  Beta  occ. eigenvalues --   -0.17275  -0.13526  -0.10878
  Beta virt. eigenvalues --   -0.07935  -0.06226  -0.05061  -0.04248  -0.03059
  Beta virt. eigenvalues --   -0.02325  -0.02111  -0.01957  -0.00695  -0.00546
  Beta virt. eigenvalues --   -0.00111   0.00248   0.00281   0.00319   0.00695

 Mulliken charges and spin densities:
               1          2
     1  Na   0.044316  -0.154804
     2  Na   0.573978   0.096239
     3  Na  -0.682674   0.342476
     4  Na   0.374431   0.115103
     5  Na  -0.568423   0.294725
     6  Na  -0.022453   0.191547
     7  Na   0.280825   0.114713
 Sum of Mulliken charges =  -0.00000   1.00000

 Dipole moment (field-independent basis, Debye):
    X=             -0.4415    Y=             -0.6129    Z=              0.4875  Tot=              0.8990
 Quadrupole moment (field-independent basis, Debye-Ang):
   XX=            -51.6862   YY=            -77.3269   ZZ=            -67.3026
   XY=             -1.6008   XZ=             -0.9249   YZ=              6.4133

 Normal termination of Gaussian 16 at Mon Dec  4 00:26:27 2023.
