 Gaussian 16, Revision B.01,
 Gaussian 16:  ES64L-G16RevB.01 20-Dec-2017

 -------------------------
 #P B3LYP/6-311+g(d) force
 -------------------------

 -----
 DPGEN
 -----
 Symbolic Z-matrix:
 Charge =  0 Multiplicity = 2

                         Standard orientation:
 ---------------------------------------------------------------------
 Center     Atomic      Atomic             Coordinates (Angstroms)
 Number     Number       Type             X           Y           Z
 ---------------------------------------------------------------------
      1         11           0       -3.129080   -1.459003    0.557264
      2         11           0        0.938947    2.045147   -0.911958
      3         11           0        0.323979   -0.222495    2.144737
      4         11           0        1.533882   -2.399846   -0.676116
      5         11           0        3.787742    0.638963    0.508695
      6         11           0       -2.750344    2.037660    0.062937
      7         11           0       -0.705126   -0.640426   -1.685559
 ---------------------------------------------------------------------

 SCF Done:  E(UB3LYP) =  -1136.12203664     A.U. after   22 cycles

 The electronic state is 2-A.
 Alpha  occ. eigenvalues --  -38.45118 -38.45038 -38.44752 -38.43929 -38.43321
 Alpha  occ. eigenvalues --  -38.43291 -38.43138  -2.20910  -2.20805  -2.20546
 Alpha  occ. eigenvalues --   -2.19711  -2.19252  -2.19158  -2.18986  -1.14584
 Alpha  occ. eigenvalues --   -1.14554  -1.14521  -1.14476  -1.14463  -1.14436
 Alpha  occ. eigenvalues --   -1.14225  -1.14195  -1.14179  -1.13390  -1.13365
 Alpha  occ. eigenvalues --   -1.13359  -1.13025  -1.12935  -1.12883  -1.12799
 Alpha  occ. eigenvalues --   -1.12779  -1.12758  -1.12679  -1.12649  -1.12589
 Alpha  occ. eigenvalues --   -0.17976  -0.13390  -0.11308  -0.11197
 Alpha virt. eigenvalues --   -0.06808  -0.05493  -0.04086  -0.03241  -0.02807
 Alpha virt. eigenvalues --   -0.02740  -0.02445  -0.01271  -0.00715  -0.00235
 Alpha virt. eigenvalues --    0.00092   0.00209   0.00325   0.00617   0.00692

  Beta  occ. eigenvalues --  -38.45049 -38.45032 -38.44737 -38.43932 -38.43304
  Beta  occ. eigenvalues --  -38.43222 -38.43110  -2.20795  -2.20780  -2.20518
  Beta  occ. eigenvalues --   -2.19719  -2.19137  -2.19123  -2.18938  -1.14495
  Beta  occ. eigenvalues --   -1.14467  -1.14462  -1.14457  -1.14434  -1.14416
  Beta  occ. eigenvalues --   -1.14200  -1.14173  -1.14161  -1.13393  -1.13372
  Beta  occ. eigenvalues --   -1.13354  -1.12961  -1.12850  -1.12798  -1.12768
  Beta  occ. eigenvalues --   -1.12759  -1.12703  -1.12640  -1.12601  -1.12556
  Beta  occ. eigenvalues --   -0.17243  -0.13195  -0.11047
  Beta virt. eigenvalues --   -0.07419  -0.06502  -0.05502  -0.03614  -0.03002
  Beta virt. eigenvalues --   -0.02292  -0.02021  -0.01861  -0.01218  -0.00603
  Beta virt. eigenvalues --   -0.00110   0.00096   0.00235   0.00487   0.00694

 Mulliken charges and spin densities:
               1          2
     1  Na   0.035433   0.097316
     2  Na  -0.424466  -0.014605
     3  Na  -0.221134   0.569537
     4  Na  -0.296844  -0.040068
     5  Na   0.215441   0.111513
     6  Na  -0.061117  -0.005740
     7  Na   0.752687   0.282048
 Sum of Mulliken charges =  -0.00000   1.00000

 Dipole moment (field-independent basis, Debye):
    X=              0.1121    Y=             -0.2075    Z=              0.8104  Tot=              0.8441
 Quadrupole moment (field-independent basis, Debye-Ang):
   XX=            -49.0352   YY=            -73.2773   ZZ=            -71.3951
   XY=              0.1046   XZ=             -0.6896   YZ=             -0.6579

 Normal termination of Gaussian 16 at Thu Dec  7 05:14:00 2023.
