 Gaussian 16, Revision B.01,
 Gaussian 16:  ES64L-G16RevB.01 20-Dec-2017

 -------------------------
 #P B3LYP/6-311+g(d) force
 -------------------------

 -----
 DPGEN
 -----
 Symbolic Z-matrix:
 Charge =  0 Multiplicity = 2

                         Standard orientation:
 ---------------------------------------------------------------------
 Center     Atomic      Atomic             Coordinates (Angstroms)
 Number     Number       Type             X           Y           Z
 ---------------------------------------------------------------------
      1         11           0       -3.148160    0.164900   -0.171253
      2         11           0       -0.882854    2.621608   -0.136376
      3         11           0        0.187194    0.182328   -1.633988
      4         11           0       -1.334402   -2.480427    0.009277
      5         11           0        2.739101    1.512208    0.268645
      6         11           0       -0.102958   -0.163795    2.006161
      7         11           0        2.542077   -1.836823   -0.342466
 ---------------------------------------------------------------------

 SCF Done:  E(UB3LYP) =  -1136.13674512     A.U. after   19 cycles

 The electronic state is 2-A.
 Alpha  occ. eigenvalues --  -38.44176 -38.44103 -38.43872 -38.43543 -38.43208
 Alpha  occ. eigenvalues --  -38.43155 -38.42986  -2.20041  -2.19934  -2.19701
 Alpha  occ. eigenvalues --   -2.19451  -2.19206  -2.19035  -2.18879  -1.13716
 Alpha  occ. eigenvalues --   -1.13699  -1.13693  -1.13608  -1.13603  -1.13574
 Alpha  occ. eigenvalues --   -1.13385  -1.13354  -1.13333  -1.13130  -1.13085
 Alpha  occ. eigenvalues --   -1.13065  -1.12925  -1.12867  -1.12820  -1.12711
 Alpha  occ. eigenvalues --   -1.12698  -1.12663  -1.12558  -1.12532  -1.12494
 Alpha  occ. eigenvalues --   -0.18861  -0.13389  -0.12193  -0.10775
 Alpha virt. eigenvalues --   -0.05831  -0.05338  -0.04231  -0.03349  -0.02754
 Alpha virt. eigenvalues --   -0.02512  -0.01721  -0.01114  -0.00280  -0.00206
 Alpha virt. eigenvalues --   -0.00012   0.00347   0.00757   0.00879   0.00918

  Beta  occ. eigenvalues --  -38.44172 -38.44098 -38.43865 -38.43449 -38.43149
  Beta  occ. eigenvalues --  -38.43144 -38.42979  -2.20037  -2.19928  -2.19690
  Beta  occ. eigenvalues --   -2.19279  -2.19090  -2.19028  -2.18870  -1.13715
  Beta  occ. eigenvalues --   -1.13697  -1.13669  -1.13603  -1.13582  -1.13569
  Beta  occ. eigenvalues --   -1.13367  -1.13339  -1.13329  -1.13017  -1.12961
  Beta  occ. eigenvalues --   -1.12943  -1.12847  -1.12790  -1.12738  -1.12701
  Beta  occ. eigenvalues --   -1.12672  -1.12653  -1.12543  -1.12509  -1.12482
  Beta  occ. eigenvalues --   -0.18128  -0.13158  -0.11929
  Beta virt. eigenvalues --   -0.06860  -0.05772  -0.05328  -0.04222  -0.02562
  Beta virt. eigenvalues --   -0.01974  -0.01622  -0.01450  -0.01041  -0.00328
  Beta virt. eigenvalues --   -0.00247   0.00125   0.00373   0.00826   0.00873

 Mulliken charges and spin densities:
               1          2
     1  Na   0.139818  -0.025878
     2  Na   0.269648  -0.026913
     3  Na  -0.347219   0.462042
     4  Na   0.233273  -0.055416
     5  Na   0.123282  -0.005309
     6  Na  -0.515813   0.720710
     7  Na   0.097011  -0.069235
 Sum of Mulliken charges =  -0.00000   1.00000

 Dipole moment (field-independent basis, Debye):
    X=              0.2169    Y=             -0.0032    Z=              0.1535  Tot=              0.2657
 Quadrupole moment (field-independent basis, Debye-Ang):
   XX=            -53.6283   YY=            -65.3198   ZZ=            -74.2764
   XY=              0.0442   XZ=              0.7893   YZ=              1.1760

 Normal termination of Gaussian 16 at Fri Dec  8 02:32:24 2023.
