 Gaussian 16, Revision B.01,
 Gaussian 16:  ES64L-G16RevB.01 20-Dec-2017

 -------------------------
 #P B3LYP/6-311+g(d) force
 -------------------------

 -----
 DPGEN
 -----
 Symbolic Z-matrix:
 Charge =  0 Multiplicity = 2

                         Standard orientation:
 ---------------------------------------------------------------------
 Center     Atomic      Atomic             Coordinates (Angstroms)
 Number     Number       Type             X           Y           Z
 ---------------------------------------------------------------------
      1         11           0       -0.896414    2.945014   -0.690551
      2         11           0        2.447426   -1.418318   -0.994347
      3         11           0       -0.309835    0.729041    1.711838
      4         11           0       -0.016172   -2.872385    0.734274
      5         11           0        2.474445    1.583913    0.720429
      6         11           0       -0.549814   -0.259725   -1.574132
      7         11           0       -3.149637   -0.707542    0.092489
 ---------------------------------------------------------------------

 SCF Done:  E(UB3LYP) =  -1136.13271909     A.U. after   19 cycles

 The electronic state is 2-A.
 Alpha  occ. eigenvalues --  -38.44086 -38.44022 -38.43961 -38.43759 -38.43272
 Alpha  occ. eigenvalues --  -38.43257 -38.43100  -2.19915  -2.19852  -2.19790
 Alpha  occ. eigenvalues --   -2.19606  -2.19236  -2.19125  -2.19100  -1.13600
 Alpha  occ. eigenvalues --   -1.13583  -1.13564  -1.13530  -1.13511  -1.13472
 Alpha  occ. eigenvalues --   -1.13466  -1.13457  -1.13418  -1.13342  -1.13251
 Alpha  occ. eigenvalues --   -1.13225  -1.12920  -1.12872  -1.12849  -1.12846
 Alpha  occ. eigenvalues --   -1.12775  -1.12764  -1.12756  -1.12734  -1.12699
 Alpha  occ. eigenvalues --   -0.18591  -0.12704  -0.12656  -0.10895
 Alpha virt. eigenvalues --   -0.05767  -0.04963  -0.04491  -0.03308  -0.03124
 Alpha virt. eigenvalues --   -0.02426  -0.01412  -0.01360  -0.00362   0.00026
 Alpha virt. eigenvalues --    0.00122   0.00384   0.00649   0.00790   0.00882

  Beta  occ. eigenvalues --  -38.44068 -38.44021 -38.43949 -38.43742 -38.43237
  Beta  occ. eigenvalues --  -38.43209 -38.43039  -2.19883  -2.19852  -2.19769
  Beta  occ. eigenvalues --   -2.19579  -2.19121  -2.19089  -2.18990  -1.13573
  Beta  occ. eigenvalues --   -1.13559  -1.13553  -1.13507  -1.13504  -1.13465
  Beta  occ. eigenvalues --   -1.13453  -1.13429  -1.13402  -1.13308  -1.13225
  Beta  occ. eigenvalues --   -1.13210  -1.12847  -1.12803  -1.12785  -1.12760
  Beta  occ. eigenvalues --   -1.12744  -1.12731  -1.12691  -1.12659  -1.12620
  Beta  occ. eigenvalues --   -0.17897  -0.12450  -0.12399
  Beta virt. eigenvalues --   -0.07051  -0.05734  -0.04827  -0.04365  -0.02639
  Beta virt. eigenvalues --   -0.02464  -0.01467  -0.01332  -0.01249  -0.00226
  Beta virt. eigenvalues --    0.00019   0.00179   0.00426   0.00728   0.00821

 Mulliken charges and spin densities:
               1          2
     1  Na   0.023708  -0.002448
     2  Na   0.360854   0.017618
     3  Na   0.217348   0.372488
     4  Na  -0.327333   0.120455
     5  Na  -0.305080   0.068814
     6  Na  -0.190165   0.403584
     7  Na   0.220667   0.019490
 Sum of Mulliken charges =  -0.00000   1.00000

 Dipole moment (field-independent basis, Debye):
    X=             -0.4050    Y=              0.1212    Z=              0.1243  Tot=              0.4407
 Quadrupole moment (field-independent basis, Debye-Ang):
   XX=            -59.5303   YY=            -60.7066   ZZ=            -72.6137
   XY=              0.2890   XZ=             -0.6634   YZ=             -2.7730

 Normal termination of Gaussian 16 at Sun Dec  3 21:51:13 2023.
