 Gaussian 16, Revision B.01,
 Gaussian 16:  ES64L-G16RevB.01 20-Dec-2017

 -------------------------
 #P B3LYP/6-311+g(d) force
 -------------------------

 -----
 DPGEN
 -----
 Symbolic Z-matrix:
 Charge =  0 Multiplicity = 2

                         Standard orientation:
 ---------------------------------------------------------------------
 Center     Atomic      Atomic             Coordinates (Angstroms)
 Number     Number       Type             X           Y           Z
 ---------------------------------------------------------------------
      1         11           0       -1.989356    2.223788   -0.211237
      2         11           0       -0.005961    0.054225   -1.471739
      3         11           0       -0.223069   -2.477999    0.297271
      4         11           0       -3.153937   -0.995171   -0.193969
      5         11           0        2.831128   -1.476133   -0.377685
      6         11           0        2.205115    2.147692   -0.301229
      7         11           0        0.336080    0.523598    2.258587
 ---------------------------------------------------------------------

 SCF Done:  E(UB3LYP) =  -1136.13398519     A.U. after   19 cycles

 The electronic state is 2-A.
 Alpha  occ. eigenvalues --  -38.44063 -38.43985 -38.43831 -38.43805 -38.43804
 Alpha  occ. eigenvalues --  -38.43173 -38.42811  -2.19897  -2.19827  -2.19664
 Alpha  occ. eigenvalues --   -2.19660  -2.19642  -2.19203  -2.18733  -1.13565
 Alpha  occ. eigenvalues --   -1.13560  -1.13549  -1.13506  -1.13488  -1.13465
 Alpha  occ. eigenvalues --   -1.13359  -1.13349  -1.13337  -1.13317  -1.13304
 Alpha  occ. eigenvalues --   -1.13286  -1.13280  -1.13269  -1.13256  -1.12918
 Alpha  occ. eigenvalues --   -1.12854  -1.12814  -1.12428  -1.12381  -1.12355
 Alpha  occ. eigenvalues --   -0.18663  -0.13211  -0.12201  -0.10902
 Alpha virt. eigenvalues --   -0.05688  -0.05591  -0.04092  -0.03185  -0.02953
 Alpha virt. eigenvalues --   -0.02644  -0.01717  -0.01266  -0.00370  -0.00118
 Alpha virt. eigenvalues --    0.00008   0.00316   0.00722   0.00821   0.00944

  Beta  occ. eigenvalues --  -38.44063 -38.43978 -38.43825 -38.43800 -38.43694
  Beta  occ. eigenvalues --  -38.43124 -38.42801  -2.19898  -2.19816  -2.19652
  Beta  occ. eigenvalues --   -2.19636  -2.19460  -2.19116  -2.18718  -1.13567
  Beta  occ. eigenvalues --   -1.13553  -1.13546  -1.13497  -1.13464  -1.13461
  Beta  occ. eigenvalues --   -1.13348  -1.13337  -1.13307  -1.13287  -1.13278
  Beta  occ. eigenvalues --   -1.13253  -1.13179  -1.13146  -1.13131  -1.12853
  Beta  occ. eigenvalues --   -1.12796  -1.12748  -1.12418  -1.12352  -1.12340
  Beta  occ. eigenvalues --   -0.17957  -0.12979  -0.11986
  Beta virt. eigenvalues --   -0.06907  -0.05674  -0.05536  -0.04057  -0.02464
  Beta virt. eigenvalues --   -0.02118  -0.01628  -0.01582  -0.01226  -0.00416
  Beta virt. eigenvalues --   -0.00062   0.00123   0.00359   0.00787   0.00840

 Mulliken charges and spin densities:
               1          2
     1  Na   0.334974   0.014610
     2  Na  -0.612630   0.083604
     3  Na   0.348633   0.176333
     4  Na   0.078258   0.013261
     5  Na   0.250375   0.049628
     6  Na   0.264003  -0.000359
     7  Na  -0.663614   0.662922
 Sum of Mulliken charges =  -0.00000   1.00000

 Dipole moment (field-independent basis, Debye):
    X=              0.0401    Y=              0.2782    Z=              0.1461  Tot=              0.3167
 Quadrupole moment (field-independent basis, Debye-Ang):
   XX=            -53.4997   YY=            -65.9631   ZZ=            -73.7311
   XY=              0.0616   XZ=             -0.7379   YZ=             -0.5031

 Normal termination of Gaussian 16 at Tue Dec  5 17:34:46 2023.
