 Gaussian 16, Revision B.01,
 Gaussian 16:  ES64L-G16RevB.01 20-Dec-2017

 -------------------------
 #P B3LYP/6-311+g(d) force
 -------------------------

 -----
 DPGEN
 -----
 Symbolic Z-matrix:
 Charge =  0 Multiplicity = 2

                         Standard orientation:
 ---------------------------------------------------------------------
 Center     Atomic      Atomic             Coordinates (Angstroms)
 Number     Number       Type             X           Y           Z
 ---------------------------------------------------------------------
      1         11           0       -2.903491   -1.733798   -0.156960
      2         11           0        0.978270    3.086021   -0.636609
      3         11           0       -2.446916    1.765146    0.002169
      4         11           0       -0.107881   -0.111630   -0.891859
      5         11           0        0.579052   -2.798870   -0.081835
      6         11           0        0.589472    0.529081    2.101956
      7         11           0        3.311493   -0.735950   -0.336863
 ---------------------------------------------------------------------

 SCF Done:  E(UB3LYP) =  -1136.12865131     A.U. after   20 cycles

 The electronic state is 2-A.
 Alpha  occ. eigenvalues --  -38.44389 -38.44141 -38.43893 -38.43799 -38.43733
 Alpha  occ. eigenvalues --  -38.43140 -38.42755  -2.20191  -2.19982  -2.19701
 Alpha  occ. eigenvalues --   -2.19683  -2.19556  -2.19030  -2.18883  -1.13861
 Alpha  occ. eigenvalues --   -1.13841  -1.13836  -1.13701  -1.13644  -1.13593
 Alpha  occ. eigenvalues --   -1.13478  -1.13379  -1.13349  -1.13332  -1.13327
 Alpha  occ. eigenvalues --   -1.13276  -1.13229  -1.13210  -1.13196  -1.12765
 Alpha  occ. eigenvalues --   -1.12642  -1.12625  -1.12562  -1.12544  -1.12476
 Alpha  occ. eigenvalues --   -0.18440  -0.13007  -0.12632  -0.10023
 Alpha virt. eigenvalues --   -0.05975  -0.05352  -0.04931  -0.02758  -0.02665
 Alpha virt. eigenvalues --   -0.01924  -0.01797  -0.01463  -0.00707  -0.00588
 Alpha virt. eigenvalues --   -0.00026   0.00299   0.00729   0.00744   0.00847

  Beta  occ. eigenvalues --  -38.44382 -38.44137 -38.43873 -38.43794 -38.43734
  Beta  occ. eigenvalues --  -38.43032 -38.42728  -2.20179  -2.19978  -2.19677
  Beta  occ. eigenvalues --   -2.19665  -2.19559  -2.18840  -2.18830  -1.13843
  Beta  occ. eigenvalues --   -1.13834  -1.13824  -1.13699  -1.13619  -1.13595
  Beta  occ. eigenvalues --   -1.13473  -1.13348  -1.13318  -1.13309  -1.13300
  Beta  occ. eigenvalues --   -1.13277  -1.13227  -1.13206  -1.13200  -1.12647
  Beta  occ. eigenvalues --   -1.12524  -1.12503  -1.12483  -1.12468  -1.12445
  Beta  occ. eigenvalues --   -0.17775  -0.12800  -0.12406
  Beta virt. eigenvalues --   -0.06165  -0.05916  -0.05259  -0.04834  -0.02084
  Beta virt. eigenvalues --   -0.02024  -0.01743  -0.01420  -0.00916  -0.00714
  Beta virt. eigenvalues --   -0.00551   0.00185   0.00379   0.00761   0.00777

 Mulliken charges and spin densities:
               1          2
     1  Na   0.294078  -0.011283
     2  Na   0.110478   0.096258
     3  Na   0.447472   0.045325
     4  Na  -1.026386   0.348797
     5  Na   0.424927   0.055141
     6  Na  -0.502272   0.434643
     7  Na   0.251703   0.031119
 Sum of Mulliken charges =  -0.00000   1.00000

 Dipole moment (field-independent basis, Debye):
    X=              0.1542    Y=              0.0787    Z=              0.2073  Tot=              0.2701
 Quadrupole moment (field-independent basis, Debye-Ang):
   XX=            -53.2035   YY=            -59.2948   ZZ=            -77.6913
   XY=              0.3339   XZ=             -1.4147   YZ=             -1.0334

 Normal termination of Gaussian 16 at Fri Dec  8 05:43:09 2023.
