 Gaussian 16, Revision B.01,
 Gaussian 16:  ES64L-G16RevB.01 20-Dec-2017

 -------------------------
 #P B3LYP/6-311+g(d) force
 -------------------------

 -----
 DPGEN
 -----
 Symbolic Z-matrix:
 Charge =  0 Multiplicity = 2

                         Standard orientation:
 ---------------------------------------------------------------------
 Center     Atomic      Atomic             Coordinates (Angstroms)
 Number     Number       Type             X           Y           Z
 ---------------------------------------------------------------------
      1         11           0       -0.246247   -0.371284    1.876820
      2         11           0       -3.038948   -1.189649    0.020276
      3         11           0        1.514680   -2.900502   -0.130705
      4         11           0        2.592613    0.110772    0.212443
      5         11           0       -0.614946   -0.409492   -1.849256
      6         11           0       -1.654025    2.173475    0.251133
      7         11           0        1.446874    2.586679   -0.380710
 ---------------------------------------------------------------------

 SCF Done:  E(UB3LYP) =  -1136.12979313     A.U. after   19 cycles

 The electronic state is 2-A.
 Alpha  occ. eigenvalues --  -38.44167 -38.43856 -38.43836 -38.43659 -38.43564
 Alpha  occ. eigenvalues --  -38.43519 -38.43458  -2.20010  -2.19743  -2.19658
 Alpha  occ. eigenvalues --   -2.19616  -2.19482  -2.19454  -2.19369  -1.13710
 Alpha  occ. eigenvalues --   -1.13671  -1.13641  -1.13501  -1.13446  -1.13421
 Alpha  occ. eigenvalues --   -1.13369  -1.13354  -1.13320  -1.13304  -1.13274
 Alpha  occ. eigenvalues --   -1.13222  -1.13149  -1.13118  -1.13117  -1.13096
 Alpha  occ. eigenvalues --   -1.13081  -1.13065  -1.12989  -1.12979  -1.12957
 Alpha  occ. eigenvalues --   -0.18897  -0.13214  -0.12589  -0.10916
 Alpha virt. eigenvalues --   -0.05850  -0.05172  -0.04397  -0.03414  -0.02974
 Alpha virt. eigenvalues --   -0.02634  -0.01478  -0.01285  -0.00171  -0.00099
 Alpha virt. eigenvalues --    0.00069   0.00357   0.00815   0.00913   0.00921

  Beta  occ. eigenvalues --  -38.44163 -38.43845 -38.43837 -38.43652 -38.43488
  Beta  occ. eigenvalues --  -38.43453 -38.43435  -2.20006  -2.19728  -2.19660
  Beta  occ. eigenvalues --   -2.19607  -2.19364  -2.19342  -2.19300  -1.13698
  Beta  occ. eigenvalues --   -1.13653  -1.13637  -1.13500  -1.13437  -1.13375
  Beta  occ. eigenvalues --   -1.13365  -1.13355  -1.13308  -1.13301  -1.13246
  Beta  occ. eigenvalues --   -1.13208  -1.13059  -1.13018  -1.13017  -1.12997
  Beta  occ. eigenvalues --   -1.12987  -1.12973  -1.12959  -1.12952  -1.12950
  Beta  occ. eigenvalues --   -0.18153  -0.12965  -0.12377
  Beta virt. eigenvalues --   -0.06998  -0.05838  -0.05069  -0.04370  -0.02585
  Beta virt. eigenvalues --   -0.02239  -0.01615  -0.01416  -0.01192  -0.00218
  Beta virt. eigenvalues --   -0.00040   0.00150   0.00390   0.00816   0.00932

 Mulliken charges and spin densities:
               1          2
     1  Na  -0.082967   0.341249
     2  Na   0.138682  -0.084968
     3  Na   0.081786  -0.073587
     4  Na   0.109313   0.181216
     5  Na  -0.289320   0.554572
     6  Na   0.196166   0.140192
     7  Na  -0.153661  -0.058674
 Sum of Mulliken charges =  -0.00000   1.00000

 Dipole moment (field-independent basis, Debye):
    X=             -0.6412    Y=             -0.4921    Z=             -0.0071  Tot=              0.8083
 Quadrupole moment (field-independent basis, Debye-Ang):
   XX=            -60.2018   YY=            -61.2379   ZZ=            -73.4776
   XY=              0.0875   XZ=             -0.9847   YZ=             -0.0883

 Normal termination of Gaussian 16 at Thu Dec  7 17:20:31 2023.
