 Gaussian 16, Revision B.01,
 Gaussian 16:  ES64L-G16RevB.01 20-Dec-2017

 -------------------------
 #P B3LYP/6-311+g(d) force
 -------------------------

 -----
 DPGEN
 -----
 Symbolic Z-matrix:
 Charge =  0 Multiplicity = 2

                         Standard orientation:
 ---------------------------------------------------------------------
 Center     Atomic      Atomic             Coordinates (Angstroms)
 Number     Number       Type             X           Y           Z
 ---------------------------------------------------------------------
      1         11           0        2.686698    0.430336   -0.136508
      2         11           0        0.050841   -0.047252   -1.843579
      3         11           0       -2.566297    1.275494   -0.019347
      4         11           0       -1.942475   -1.925865   -0.102622
      5         11           0        0.527955    2.727490    0.071605
      6         11           0        1.251616   -2.446070    0.151293
      7         11           0       -0.008338   -0.014132    1.879159
 ---------------------------------------------------------------------

 SCF Done:  E(UB3LYP) =  -1136.13783887     A.U. after   17 cycles

 The electronic state is 2-A.
 Alpha  occ. eigenvalues --  -38.43423 -38.43394 -38.43374 -38.43287 -38.43280
 Alpha  occ. eigenvalues --  -38.43272 -38.43195  -2.19432  -2.19416  -2.19267
 Alpha  occ. eigenvalues --   -2.19234  -2.19222  -2.19190  -2.19138  -1.13156
 Alpha  occ. eigenvalues --   -1.13109  -1.13090  -1.13089  -1.13071  -1.13051
 Alpha  occ. eigenvalues --   -1.12958  -1.12950  -1.12926  -1.12924  -1.12906
 Alpha  occ. eigenvalues --   -1.12896  -1.12883  -1.12869  -1.12844  -1.12841
 Alpha  occ. eigenvalues --   -1.12829  -1.12794  -1.12788  -1.12774  -1.12734
 Alpha  occ. eigenvalues --   -0.19715  -0.13065  -0.12923  -0.11297
 Alpha virt. eigenvalues --   -0.04934  -0.04822  -0.04734  -0.03247  -0.03157
 Alpha virt. eigenvalues --   -0.02770  -0.01043  -0.00988  -0.00035   0.00130
 Alpha virt. eigenvalues --    0.00190   0.00380   0.00965   0.00984   0.01007

  Beta  occ. eigenvalues --  -38.43370 -38.43336 -38.43309 -38.43280 -38.43271
  Beta  occ. eigenvalues --  -38.43266 -38.43187  -2.19273  -2.19263  -2.19261
  Beta  occ. eigenvalues --   -2.19223  -2.19213  -2.19183  -2.19128  -1.13078
  Beta  occ. eigenvalues --   -1.13032  -1.13002  -1.12993  -1.12970  -1.12954
  Beta  occ. eigenvalues --   -1.12948  -1.12944  -1.12904  -1.12887  -1.12874
  Beta  occ. eigenvalues --   -1.12871  -1.12838  -1.12837  -1.12826  -1.12815
  Beta  occ. eigenvalues --   -1.12804  -1.12790  -1.12771  -1.12740  -1.12732
  Beta  occ. eigenvalues --   -0.18934  -0.12774  -0.12638
  Beta virt. eigenvalues --   -0.07295  -0.04941  -0.04813  -0.04735  -0.02372
  Beta virt. eigenvalues --   -0.02302  -0.01675  -0.00979  -0.00923   0.00068
  Beta virt. eigenvalues --    0.00079   0.00139   0.00384   0.00975   0.00989

 Mulliken charges and spin densities:
               1          2
     1  Na   0.349267  -0.024945
     2  Na  -0.616096   0.625857
     3  Na   0.118711  -0.097246
     4  Na   0.263825  -0.060090
     5  Na   0.186868  -0.078402
     6  Na   0.347793  -0.032326
     7  Na  -0.650369   0.667152
 Sum of Mulliken charges =  -0.00000   1.00000

 Dipole moment (field-independent basis, Debye):
    X=             -0.1057    Y=              0.0622    Z=              0.0280  Tot=              0.1258
 Quadrupole moment (field-independent basis, Debye-Ang):
   XX=            -61.4234   YY=            -61.9911   ZZ=            -71.6052
   XY=             -0.3172   XZ=              0.1239   YZ=             -0.0596

 Normal termination of Gaussian 16 at Sat Dec  9 06:30:32 2023.
