 Gaussian 16, Revision B.01,
 Gaussian 16:  ES64L-G16RevB.01 20-Dec-2017

 -------------------------
 #P B3LYP/6-311+g(d) force
 -------------------------

 -----
 DPGEN
 -----
 Symbolic Z-matrix:
 Charge =  0 Multiplicity = 2

                         Standard orientation:
 ---------------------------------------------------------------------
 Center     Atomic      Atomic             Coordinates (Angstroms)
 Number     Number       Type             X           Y           Z
 ---------------------------------------------------------------------
      1         11           0        2.800271    2.514056   -0.513422
      2         11           0        2.089501   -3.026684    0.690238
      3         11           0       -1.513944   -3.582006   -0.107900
      4         11           0       -4.128808   -0.869736   -0.886043
      5         11           0       -2.787642    1.675533    0.962973
      6         11           0       -0.609043    3.931004    0.112751
      7         11           0        4.149664   -0.642166   -0.258598
 ---------------------------------------------------------------------

 SCF Done:  E(UB3LYP) =  -1136.10799815     A.U. after   24 cycles

 The electronic state is 2-A.
 Alpha  occ. eigenvalues --  -38.45567 -38.45260 -38.45163 -38.44300 -38.44288
 Alpha  occ. eigenvalues --  -38.43895 -38.43693  -2.21296  -2.21017  -2.20955
 Alpha  occ. eigenvalues --   -2.20092  -2.20085  -2.19695  -2.19503  -1.14986
 Alpha  occ. eigenvalues --   -1.14968  -1.14915  -1.14699  -1.14686  -1.14643
 Alpha  occ. eigenvalues --   -1.14635  -1.14624  -1.14597  -1.13798  -1.13763
 Alpha  occ. eigenvalues --   -1.13754  -1.13744  -1.13738  -1.13678  -1.13346
 Alpha  occ. eigenvalues --   -1.13345  -1.13320  -1.13165  -1.13154  -1.13135
 Alpha  occ. eigenvalues --   -0.15536  -0.13980  -0.13426  -0.10721
 Alpha virt. eigenvalues --   -0.07855  -0.04891  -0.04395  -0.03572  -0.03493
 Alpha virt. eigenvalues --   -0.02312  -0.02157  -0.01784  -0.01594  -0.00939
 Alpha virt. eigenvalues --   -0.00592  -0.00088   0.00046   0.00368   0.00647

  Beta  occ. eigenvalues --  -38.45547 -38.45235 -38.45142 -38.44273 -38.44272
  Beta  occ. eigenvalues --  -38.43833 -38.43650  -2.21264  -2.20975  -2.20922
  Beta  occ. eigenvalues --   -2.20066  -2.20035  -2.19580  -2.19424  -1.14968
  Beta  occ. eigenvalues --   -1.14950  -1.14863  -1.14674  -1.14661  -1.14618
  Beta  occ. eigenvalues --   -1.14607  -1.14591  -1.14531  -1.13777  -1.13744
  Beta  occ. eigenvalues --   -1.13725  -1.13713  -1.13704  -1.13642  -1.13268
  Beta  occ. eigenvalues --   -1.13265  -1.13246  -1.13107  -1.13100  -1.13085
  Beta  occ. eigenvalues --   -0.15015  -0.13351  -0.12673
  Beta virt. eigenvalues --   -0.08077  -0.07504  -0.04406  -0.03909  -0.03422
  Beta virt. eigenvalues --   -0.03115  -0.02083  -0.01962  -0.01624  -0.01452
  Beta virt. eigenvalues --   -0.00569  -0.00433   0.00136   0.00258   0.00333

 Mulliken charges and spin densities:
               1          2
     1  Na   0.032847   0.157296
     2  Na  -0.105738   0.105165
     3  Na  -0.051750   0.095383
     4  Na   0.205986   0.291282
     5  Na  -0.507536   0.094896
     6  Na   0.159034   0.231526
     7  Na   0.267157   0.024452
 Sum of Mulliken charges =  -0.00000   1.00000

 Dipole moment (field-independent basis, Debye):
    X=              0.0513    Y=             -0.1139    Z=             -0.1016  Tot=              0.1611
 Quadrupole moment (field-independent basis, Debye-Ang):
   XX=            -64.6764   YY=            -64.8738   ZZ=            -71.0937
   XY=              1.9458   XZ=             -0.2023   YZ=             -0.4313

 Normal termination of Gaussian 16 at Sun Dec  3 16:41:38 2023.
