 Gaussian 16, Revision B.01,
 Gaussian 16:  ES64L-G16RevB.01 20-Dec-2017

 -------------------------
 #P B3LYP/6-311+g(d) force
 -------------------------

 -----
 DPGEN
 -----
 Symbolic Z-matrix:
 Charge =  0 Multiplicity = 2

                         Standard orientation:
 ---------------------------------------------------------------------
 Center     Atomic      Atomic             Coordinates (Angstroms)
 Number     Number       Type             X           Y           Z
 ---------------------------------------------------------------------
      1         11           0       -4.585699   -0.683217   -0.069587
      2         11           0        1.393952    1.572621   -1.571844
      3         11           0       -2.154571    1.994003    0.269462
      4         11           0        1.143159    0.283514    1.857594
      5         11           0        4.328366   -0.111921    0.247824
      6         11           0        1.187364   -1.951465   -0.682559
      7         11           0       -1.312571   -1.103535   -0.050889
 ---------------------------------------------------------------------

 SCF Done:  E(UB3LYP) =  -1136.10457146     A.U. after   27 cycles

 The electronic state is 2-A.
 Alpha  occ. eigenvalues --  -38.46624 -38.45006 -38.44360 -38.44282 -38.43431
 Alpha  occ. eigenvalues --  -38.43016 -38.42565  -2.22463  -2.20790  -2.20187
 Alpha  occ. eigenvalues --   -2.20110  -2.19253  -2.18979  -2.18601  -1.16152
 Alpha  occ. eigenvalues --   -1.16119  -1.16083  -1.14487  -1.14440  -1.14418
 Alpha  occ. eigenvalues --   -1.13851  -1.13812  -1.13797  -1.13757  -1.13750
 Alpha  occ. eigenvalues --   -1.13720  -1.12968  -1.12943  -1.12903  -1.12855
 Alpha  occ. eigenvalues --   -1.12618  -1.12571  -1.12265  -1.12231  -1.12159
 Alpha  occ. eigenvalues --   -0.18457  -0.14418  -0.10985  -0.10791
 Alpha virt. eigenvalues --   -0.08020  -0.05184  -0.04173  -0.03432  -0.03072
 Alpha virt. eigenvalues --   -0.02178  -0.01814  -0.01703  -0.01164  -0.01047
 Alpha virt. eigenvalues --   -0.00150   0.00183   0.00250   0.00613   0.00757

  Beta  occ. eigenvalues --  -38.46611 -38.45002 -38.44270 -38.44198 -38.43431
  Beta  occ. eigenvalues --  -38.43006 -38.42548  -2.22444  -2.20785  -2.20019
  Beta  occ. eigenvalues --   -2.19952  -2.19256  -2.18965  -2.18578  -1.16117
  Beta  occ. eigenvalues --   -1.16104  -1.16069  -1.14482  -1.14440  -1.14398
  Beta  occ. eigenvalues --   -1.13734  -1.13696  -1.13689  -1.13653  -1.13643
  Beta  occ. eigenvalues --   -1.13615  -1.12973  -1.12949  -1.12861  -1.12831
  Beta  occ. eigenvalues --   -1.12610  -1.12570  -1.12254  -1.12196  -1.12123
  Beta  occ. eigenvalues --   -0.17911  -0.13581  -0.10606
  Beta virt. eigenvalues --   -0.07878  -0.07471  -0.04802  -0.03498  -0.03153
  Beta virt. eigenvalues --   -0.03007  -0.02109  -0.01746  -0.01126  -0.00634
  Beta virt. eigenvalues --   -0.00539  -0.00009   0.00269   0.00353   0.00712

 Mulliken charges and spin densities:
               1          2
     1  Na   0.249394   0.379295
     2  Na  -0.247419   0.033502
     3  Na   0.201272   0.043393
     4  Na   0.223719   0.047894
     5  Na   0.225629   0.493521
     6  Na  -0.359623  -0.133346
     7  Na  -0.292972   0.135741
 Sum of Mulliken charges =  -0.00000   1.00000

 Dipole moment (field-independent basis, Debye):
    X=              0.5629    Y=              0.4102    Z=              0.4766  Tot=              0.8440
 Quadrupole moment (field-independent basis, Debye-Ang):
   XX=            -62.9422   YY=            -81.9117   ZZ=            -58.0307
   XY=             -1.4946   XZ=             -0.5237   YZ=              0.9581

 Normal termination of Gaussian 16 at Fri Dec  8 02:04:19 2023.
