 Gaussian 16, Revision B.01,
 Gaussian 16:  ES64L-G16RevB.01 20-Dec-2017

 -------------------------
 #P B3LYP/6-311+g(d) force
 -------------------------

 -----
 DPGEN
 -----
 Symbolic Z-matrix:
 Charge =  0 Multiplicity = 2

                         Standard orientation:
 ---------------------------------------------------------------------
 Center     Atomic      Atomic             Coordinates (Angstroms)
 Number     Number       Type             X           Y           Z
 ---------------------------------------------------------------------
      1         11           0        0.185795   -0.306831    1.821643
      2         11           0       -1.519139    2.591017   -0.293972
      3         11           0        1.744586    2.100344    0.341250
      4         11           0       -2.734903   -0.559742    0.346122
      5         11           0        2.956369   -0.941198   -0.223762
      6         11           0       -0.558934   -2.819370   -0.166647
      7         11           0       -0.073774   -0.064220   -1.824635
 ---------------------------------------------------------------------

 SCF Done:  E(UB3LYP) =  -1136.13895611     A.U. after   19 cycles

 The electronic state is 2-A.
 Alpha  occ. eigenvalues --  -38.43732 -38.43540 -38.43443 -38.43416 -38.43376
 Alpha  occ. eigenvalues --  -38.43325 -38.43208  -2.19577  -2.19455  -2.19359
 Alpha  occ. eigenvalues --   -2.19347  -2.19320  -2.19300  -2.19069  -1.13257
 Alpha  occ. eigenvalues --   -1.13246  -1.13221  -1.13194  -1.13136  -1.13106
 Alpha  occ. eigenvalues --   -1.13081  -1.13058  -1.13043  -1.12994  -1.12983
 Alpha  occ. eigenvalues --   -1.12961  -1.12955  -1.12951  -1.12944  -1.12930
 Alpha  occ. eigenvalues --   -1.12915  -1.12909  -1.12734  -1.12717  -1.12714
 Alpha  occ. eigenvalues --   -0.19175  -0.13112  -0.12626  -0.11023
 Alpha virt. eigenvalues --   -0.05271  -0.04900  -0.04767  -0.03303  -0.02986
 Alpha virt. eigenvalues --   -0.02627  -0.01299  -0.01073  -0.00129  -0.00062
 Alpha virt. eigenvalues --    0.00072   0.00373   0.00895   0.00922   0.00942

  Beta  occ. eigenvalues --  -38.43728 -38.43530 -38.43435 -38.43407 -38.43296
  Beta  occ. eigenvalues --  -38.43244 -38.43204  -2.19573  -2.19439  -2.19337
  Beta  occ. eigenvalues --   -2.19306  -2.19212  -2.19151  -2.19065  -1.13256
  Beta  occ. eigenvalues --   -1.13228  -1.13212  -1.13178  -1.13113  -1.13075
  Beta  occ. eigenvalues --   -1.13037  -1.13032  -1.12993  -1.12954  -1.12944
  Beta  occ. eigenvalues --   -1.12942  -1.12913  -1.12868  -1.12863  -1.12849
  Beta  occ. eigenvalues --   -1.12818  -1.12812  -1.12717  -1.12716  -1.12700
  Beta  occ. eigenvalues --   -0.18423  -0.12840  -0.12375
  Beta virt. eigenvalues --   -0.07071  -0.05256  -0.04867  -0.04752  -0.02457
  Beta virt. eigenvalues --   -0.02222  -0.01559  -0.01222  -0.01000  -0.00125
  Beta virt. eigenvalues --   -0.00091   0.00142   0.00388   0.00909   0.00921

 Mulliken charges and spin densities:
               1          2
     1  Na  -0.239038   0.513035
     2  Na   0.031756  -0.055239
     3  Na   0.149905  -0.009285
     4  Na   0.228161   0.026757
     5  Na   0.043986  -0.102745
     6  Na   0.181937  -0.097375
     7  Na  -0.396707   0.724852
 Sum of Mulliken charges =  -0.00000   1.00000

 Dipole moment (field-independent basis, Debye):
    X=              0.1643    Y=             -0.1930    Z=             -0.0269  Tot=              0.2549
 Quadrupole moment (field-independent basis, Debye-Ang):
   XX=            -59.3679   YY=            -61.7428   ZZ=            -72.9869
   XY=             -0.8019   XZ=             -0.7254   YZ=              0.5904

 Normal termination of Gaussian 16 at Thu Dec  7 11:51:28 2023.
