 Gaussian 16, Revision B.01,
 Gaussian 16:  ES64L-G16RevB.01 20-Dec-2017

 -------------------------
 #P B3LYP/6-311+g(d) force
 -------------------------

 -----
 DPGEN
 -----
 Symbolic Z-matrix:
 Charge =  0 Multiplicity = 2

                         Standard orientation:
 ---------------------------------------------------------------------
 Center     Atomic      Atomic             Coordinates (Angstroms)
 Number     Number       Type             X           Y           Z
 ---------------------------------------------------------------------
      1         11           0       -0.952312    2.623709   -0.655807
      2         11           0       -1.592326   -1.547923    0.444960
      3         11           0        1.086373    1.056705    2.561648
      4         11           0        0.167260   -1.067100   -2.234563
      5         11           0       -4.213867   -0.002667    0.099183
      6         11           0        3.434263    0.919254   -1.071509
      7         11           0        2.070608   -1.981977    0.856088
 ---------------------------------------------------------------------

 SCF Done:  E(UB3LYP) =  -1136.11013048     A.U. after   28 cycles

 The electronic state is 2-A.
 Alpha  occ. eigenvalues --  -38.45602 -38.45214 -38.44531 -38.44458 -38.44039
 Alpha  occ. eigenvalues --  -38.43817 -38.43113  -2.21336  -2.20990  -2.20345
 Alpha  occ. eigenvalues --   -2.20232  -2.19766  -2.19634  -2.18994  -1.15006
 Alpha  occ. eigenvalues --   -1.14985  -1.14972  -1.14694  -1.14642  -1.14612
 Alpha  occ. eigenvalues --   -1.14035  -1.13981  -1.13964  -1.13898  -1.13871
 Alpha  occ. eigenvalues --   -1.13853  -1.13456  -1.13432  -1.13390  -1.13316
 Alpha  occ. eigenvalues --   -1.13287  -1.13262  -1.12691  -1.12654  -1.12626
 Alpha  occ. eigenvalues --   -0.17226  -0.13169  -0.11598  -0.10891
 Alpha virt. eigenvalues --   -0.07308  -0.05144  -0.04434  -0.03406  -0.03167
 Alpha virt. eigenvalues --   -0.02817  -0.02480  -0.01304  -0.00487  -0.00414
 Alpha virt. eigenvalues --   -0.00320   0.00005   0.00179   0.00575   0.00687

  Beta  occ. eigenvalues --  -38.45579 -38.45218 -38.44486 -38.44387 -38.44026
  Beta  occ. eigenvalues --  -38.43791 -38.43104  -2.21294  -2.20999  -2.20262
  Beta  occ. eigenvalues --   -2.20101  -2.19743  -2.19589  -2.18978  -1.14970
  Beta  occ. eigenvalues --   -1.14953  -1.14945  -1.14699  -1.14648  -1.14618
  Beta  occ. eigenvalues --   -1.13981  -1.13914  -1.13907  -1.13805  -1.13783
  Beta  occ. eigenvalues --   -1.13756  -1.13435  -1.13413  -1.13375  -1.13276
  Beta  occ. eigenvalues --   -1.13259  -1.13220  -1.12677  -1.12632  -1.12619
  Beta  occ. eigenvalues --   -0.16510  -0.12992  -0.10747
  Beta virt. eigenvalues --   -0.07771  -0.07117  -0.04905  -0.03795  -0.03037
  Beta virt. eigenvalues --   -0.02943  -0.02358  -0.01968  -0.01155  -0.00374
  Beta virt. eigenvalues --   -0.00317  -0.00106   0.00064   0.00208   0.00664

 Mulliken charges and spin densities:
               1          2
     1  Na  -0.316437   0.054387
     2  Na  -0.146597   0.117097
     3  Na  -0.162212   0.250807
     4  Na   0.016297   0.413148
     5  Na   0.318926  -0.173632
     6  Na  -0.060690   0.128129
     7  Na   0.350714   0.210064
 Sum of Mulliken charges =  -0.00000   1.00000

 Dipole moment (field-independent basis, Debye):
    X=              0.0936    Y=              0.0183    Z=             -0.3808  Tot=              0.3925
 Quadrupole moment (field-independent basis, Debye-Ang):
   XX=            -49.7859   YY=            -78.3120   ZZ=            -66.6770
   XY=             -0.7842   XZ=             -1.2044   YZ=             -3.0809

 Normal termination of Gaussian 16 at Sun Dec  3 16:52:14 2023.
