 Gaussian 16, Revision B.01,
 Gaussian 16:  ES64L-G16RevB.01 20-Dec-2017

 -------------------------
 #P B3LYP/6-311+g(d) force
 -------------------------

 -----
 DPGEN
 -----
 Symbolic Z-matrix:
 Charge =  0 Multiplicity = 2

                         Standard orientation:
 ---------------------------------------------------------------------
 Center     Atomic      Atomic             Coordinates (Angstroms)
 Number     Number       Type             X           Y           Z
 ---------------------------------------------------------------------
      1         11           0        2.241822   -2.986802   -0.551627
      2         11           0        0.037127   -0.405070   -0.230297
      3         11           0       -3.167515   -0.823270   -1.357084
      4         11           0       -1.707223    2.586437   -0.719410
      5         11           0       -2.859264   -1.207184    2.115808
      6         11           0        1.901928    3.033618    0.527204
      7         11           0        3.553124   -0.197729    0.215408
 ---------------------------------------------------------------------

 SCF Done:  E(UB3LYP) =  -1136.12357052     A.U. after   22 cycles

 The electronic state is 2-A.
 Alpha  occ. eigenvalues --  -38.44789 -38.44412 -38.44298 -38.43922 -38.43825
 Alpha  occ. eigenvalues --  -38.43755 -38.43171  -2.20594  -2.20247  -2.20089
 Alpha  occ. eigenvalues --   -2.19742  -2.19716  -2.19592  -2.18954  -1.14283
 Alpha  occ. eigenvalues --   -1.14241  -1.14240  -1.13926  -1.13920  -1.13887
 Alpha  occ. eigenvalues --   -1.13767  -1.13762  -1.13694  -1.13446  -1.13389
 Alpha  occ. eigenvalues --   -1.13381  -1.13378  -1.13352  -1.13335  -1.13242
 Alpha  occ. eigenvalues --   -1.13239  -1.13224  -1.12630  -1.12612  -1.12588
 Alpha  occ. eigenvalues --   -0.17062  -0.14067  -0.12122  -0.10246
 Alpha virt. eigenvalues --   -0.06391  -0.05802  -0.04822  -0.03388  -0.02527
 Alpha virt. eigenvalues --   -0.02224  -0.01883  -0.01508  -0.01146  -0.00765
 Alpha virt. eigenvalues --   -0.00401   0.00143   0.00359   0.00449   0.00605

  Beta  occ. eigenvalues --  -38.44788 -38.44405 -38.44269 -38.43821 -38.43815
  Beta  occ. eigenvalues --  -38.43736 -38.43153  -2.20597  -2.20236  -2.20036
  Beta  occ. eigenvalues --   -2.19710  -2.19557  -2.19542  -2.18921  -1.14287
  Beta  occ. eigenvalues --   -1.14247  -1.14207  -1.13920  -1.13915  -1.13860
  Beta  occ. eigenvalues --   -1.13729  -1.13726  -1.13656  -1.13417  -1.13378
  Beta  occ. eigenvalues --   -1.13350  -1.13251  -1.13242  -1.13220  -1.13213
  Beta  occ. eigenvalues --   -1.13211  -1.13203  -1.12608  -1.12586  -1.12565
  Beta  occ. eigenvalues --   -0.16673  -0.13601  -0.11823
  Beta virt. eigenvalues --   -0.06787  -0.06043  -0.05464  -0.04677  -0.03000
  Beta virt. eigenvalues --   -0.02275  -0.01950  -0.01409  -0.01331  -0.01029
  Beta virt. eigenvalues --   -0.00590  -0.00001   0.00275   0.00562   0.00643

 Mulliken charges and spin densities:
               1          2
     1  Na   0.590211   0.031403
     2  Na  -3.299387   0.246104
     3  Na   1.325004   0.004296
     4  Na   0.863009   0.093622
     5  Na   0.278014   0.478011
     6  Na   0.180413   0.054147
     7  Na   0.062735   0.092417
 Sum of Mulliken charges =  -0.00000   1.00000

 Dipole moment (field-independent basis, Debye):
    X=             -0.1866    Y=             -0.3776    Z=             -0.6923  Tot=              0.8104
 Quadrupole moment (field-independent basis, Debye-Ang):
   XX=            -57.6452   YY=            -65.9158   ZZ=            -72.2847
   XY=             -3.0967   XZ=              5.3996   YZ=              3.5331

 Normal termination of Gaussian 16 at Tue Dec  5 18:12:29 2023.
