 Gaussian 16, Revision B.01,
 Gaussian 16:  ES64L-G16RevB.01 20-Dec-2017

 -------------------------
 #P B3LYP/6-311+g(d) force
 -------------------------

 -----
 DPGEN
 -----
 Symbolic Z-matrix:
 Charge =  0 Multiplicity = 2

                         Standard orientation:
 ---------------------------------------------------------------------
 Center     Atomic      Atomic             Coordinates (Angstroms)
 Number     Number       Type             X           Y           Z
 ---------------------------------------------------------------------
      1         11           0        2.993786   -1.853838    0.355853
      2         11           0       -3.818742   -0.830380   -0.739316
      3         11           0        0.098305   -0.948747   -1.589867
      4         11           0       -1.943693    1.913085   -0.160869
      5         11           0       -1.432766   -0.683627    1.745492
      6         11           0        1.176627    1.041565    1.532500
      7         11           0        2.926482    1.361941   -1.143793
 ---------------------------------------------------------------------

 SCF Done:  E(UB3LYP) =  -1136.11996569     A.U. after   26 cycles

 The electronic state is 2-A.
 Alpha  occ. eigenvalues --  -38.44735 -38.44468 -38.44351 -38.44305 -38.44238
 Alpha  occ. eigenvalues --  -38.43819 -38.42121  -2.20582  -2.20279  -2.20169
 Alpha  occ. eigenvalues --   -2.20162  -2.20047  -2.19749  -2.18058  -1.14255
 Alpha  occ. eigenvalues --   -1.14238  -1.14187  -1.13943  -1.13936  -1.13909
 Alpha  occ. eigenvalues --   -1.13872  -1.13867  -1.13852  -1.13844  -1.13789
 Alpha  occ. eigenvalues --   -1.13749  -1.13730  -1.13702  -1.13675  -1.13444
 Alpha  occ. eigenvalues --   -1.13379  -1.13361  -1.11768  -1.11732  -1.11669
 Alpha  occ. eigenvalues --   -0.18410  -0.14388  -0.11041  -0.10660
 Alpha virt. eigenvalues --   -0.06832  -0.05926  -0.04598  -0.02976  -0.02696
 Alpha virt. eigenvalues --   -0.02326  -0.02252  -0.01354  -0.00832  -0.00342
 Alpha virt. eigenvalues --    0.00094   0.00180   0.00365   0.00474   0.00566

  Beta  occ. eigenvalues --  -38.44682 -38.44438 -38.44328 -38.44289 -38.44250
  Beta  occ. eigenvalues --  -38.43771 -38.42102  -2.20484  -2.20226  -2.20139
  Beta  occ. eigenvalues --   -2.20125  -2.20071  -2.19660  -2.18029  -1.14190
  Beta  occ. eigenvalues --   -1.14165  -1.14117  -1.13903  -1.13893  -1.13870
  Beta  occ. eigenvalues --   -1.13852  -1.13832  -1.13822  -1.13803  -1.13775
  Beta  occ. eigenvalues --   -1.13740  -1.13729  -1.13712  -1.13686  -1.13386
  Beta  occ. eigenvalues --   -1.13310  -1.13298  -1.11737  -1.11690  -1.11648
  Beta  occ. eigenvalues --   -0.17743  -0.14185  -0.10469
  Beta virt. eigenvalues --   -0.07365  -0.06654  -0.05309  -0.04327  -0.02739
  Beta virt. eigenvalues --   -0.02543  -0.01809  -0.01613  -0.00988  -0.00544
  Beta virt. eigenvalues --   -0.00240   0.00170   0.00252   0.00392   0.00580

 Mulliken charges and spin densities:
               1          2
     1  Na  -0.059197   0.071275
     2  Na   0.181269  -0.098369
     3  Na  -0.407453   0.199480
     4  Na  -0.115969   0.104630
     5  Na  -0.072857   0.135775
     6  Na   0.308016   0.428654
     7  Na   0.166191   0.158555
 Sum of Mulliken charges =  -0.00000   1.00000

 Dipole moment (field-independent basis, Debye):
    X=             -0.0799    Y=              0.1366    Z=             -0.1688  Tot=              0.2313
 Quadrupole moment (field-independent basis, Debye-Ang):
   XX=            -50.0771   YY=            -70.7968   ZZ=            -74.2943
   XY=             -0.2839   XZ=              0.1861   YZ=             -7.8073

 Normal termination of Gaussian 16 at Thu Dec  7 05:16:46 2023.
