 Gaussian 16, Revision B.01,
 Gaussian 16:  ES64L-G16RevB.01 20-Dec-2017

 -------------------------
 #P B3LYP/6-311+g(d) force
 -------------------------

 -----
 DPGEN
 -----
 Symbolic Z-matrix:
 Charge =  0 Multiplicity = 2

                         Standard orientation:
 ---------------------------------------------------------------------
 Center     Atomic      Atomic             Coordinates (Angstroms)
 Number     Number       Type             X           Y           Z
 ---------------------------------------------------------------------
      1         11           0        2.956993   -2.272807    0.139980
      2         11           0       -0.078269   -1.508782   -1.294724
      3         11           0        2.433662    0.742673   -0.354200
      4         11           0       -1.796948    1.250745   -1.278989
      5         11           0       -3.950995   -1.120154    0.437847
      6         11           0        0.736863    3.364832    0.468611
      7         11           0       -0.301305   -0.456508    1.881475
 ---------------------------------------------------------------------

 SCF Done:  E(UB3LYP) =  -1136.12694077     A.U. after   21 cycles

 The electronic state is 2-A.
 Alpha  occ. eigenvalues --  -38.44966 -38.44387 -38.44005 -38.43826 -38.43766
 Alpha  occ. eigenvalues --  -38.43714 -38.42878  -2.20714  -2.20218  -2.19847
 Alpha  occ. eigenvalues --   -2.19734  -2.19626  -2.19618  -2.18690  -1.14395
 Alpha  occ. eigenvalues --   -1.14379  -1.14336  -1.13923  -1.13852  -1.13815
 Alpha  occ. eigenvalues --   -1.13574  -1.13500  -1.13485  -1.13465  -1.13407
 Alpha  occ. eigenvalues --   -1.13347  -1.13302  -1.13299  -1.13276  -1.13273
 Alpha  occ. eigenvalues --   -1.13240  -1.13204  -1.12371  -1.12343  -1.12330
 Alpha  occ. eigenvalues --   -0.18123  -0.13364  -0.11999  -0.10505
 Alpha virt. eigenvalues --   -0.06682  -0.05120  -0.04551  -0.03390  -0.02582
 Alpha virt. eigenvalues --   -0.02466  -0.02243  -0.01401  -0.00572  -0.00394
 Alpha virt. eigenvalues --    0.00105   0.00221   0.00557   0.00629   0.00769

  Beta  occ. eigenvalues --  -38.44963 -38.44310 -38.44006 -38.43776 -38.43723
  Beta  occ. eigenvalues --  -38.43708 -38.42879  -2.20709  -2.20075  -2.19851
  Beta  occ. eigenvalues --   -2.19647  -2.19618  -2.19541  -2.18692  -1.14393
  Beta  occ. eigenvalues --   -1.14363  -1.14335  -1.13825  -1.13752  -1.13711
  Beta  occ. eigenvalues --   -1.13578  -1.13495  -1.13479  -1.13408  -1.13321
  Beta  occ. eigenvalues --   -1.13309  -1.13280  -1.13265  -1.13239  -1.13221
  Beta  occ. eigenvalues --   -1.13203  -1.13156  -1.12374  -1.12335  -1.12332
  Beta  occ. eigenvalues --   -0.17410  -0.13167  -0.11869
  Beta virt. eigenvalues --   -0.06705  -0.06452  -0.05002  -0.04441  -0.02808
  Beta virt. eigenvalues --   -0.02232  -0.02022  -0.01465  -0.01258  -0.00602
  Beta virt. eigenvalues --   -0.00123   0.00155   0.00293   0.00662   0.00766

 Mulliken charges and spin densities:
               1          2
     1  Na   0.672714  -0.021945
     2  Na   0.066894   0.206222
     3  Na  -0.405858   0.133025
     4  Na  -0.043609   0.191010
     5  Na   0.046819  -0.106846
     6  Na   0.224393  -0.129220
     7  Na  -0.561353   0.727754
 Sum of Mulliken charges =   0.00000   1.00000

 Dipole moment (field-independent basis, Debye):
    X=             -0.5570    Y=             -0.8142    Z=              0.1985  Tot=              1.0062
 Quadrupole moment (field-independent basis, Debye-Ang):
   XX=            -51.9326   YY=            -65.4850   ZZ=            -74.6664
   XY=             -1.9914   XZ=              0.2975   YZ=             -0.5354

 Normal termination of Gaussian 16 at Tue Dec  5 14:25:26 2023.
