 Gaussian 16, Revision B.01,
 Gaussian 16:  ES64L-G16RevB.01 20-Dec-2017

 -------------------------
 #P B3LYP/6-311+g(d) force
 -------------------------

 -----
 DPGEN
 -----
 Symbolic Z-matrix:
 Charge =  0 Multiplicity = 2

                         Standard orientation:
 ---------------------------------------------------------------------
 Center     Atomic      Atomic             Coordinates (Angstroms)
 Number     Number       Type             X           Y           Z
 ---------------------------------------------------------------------
      1         11           0       -2.156081    1.454642    1.511296
      2         11           0       -1.310555   -2.047095    0.301759
      3         11           0        4.519941   -0.070474    0.114531
      4         11           0       -0.146681    3.112780   -1.389573
      5         11           0       -4.738837   -1.038576   -0.659513
      6         11           0        2.228724   -2.287235   -0.620088
      7         11           0        1.603489    0.875958    0.741588
 ---------------------------------------------------------------------

 SCF Done:  E(UB3LYP) =  -1136.11775958     A.U. after   21 cycles

 The electronic state is 2-A.
 Alpha  occ. eigenvalues --  -38.45454 -38.44651 -38.43972 -38.43928 -38.43798
 Alpha  occ. eigenvalues --  -38.43649 -38.43320  -2.21200  -2.20390  -2.19814
 Alpha  occ. eigenvalues --   -2.19806  -2.19581  -2.19526  -2.19123  -1.14908
 Alpha  occ. eigenvalues --   -1.14867  -1.14798  -1.14076  -1.14065  -1.14018
 Alpha  occ. eigenvalues --   -1.13525  -1.13513  -1.13490  -1.13484  -1.13459
 Alpha  occ. eigenvalues --   -1.13410  -1.13235  -1.13229  -1.13184  -1.13172
 Alpha  occ. eigenvalues --   -1.13153  -1.13131  -1.12820  -1.12803  -1.12729
 Alpha  occ. eigenvalues --   -0.16846  -0.13823  -0.12080  -0.10370
 Alpha virt. eigenvalues --   -0.06859  -0.05686  -0.04274  -0.03552  -0.02844
 Alpha virt. eigenvalues --   -0.02540  -0.01989  -0.01253  -0.01024  -0.00825
 Alpha virt. eigenvalues --   -0.00379  -0.00108   0.00319   0.00438   0.00650

  Beta  occ. eigenvalues --  -38.45452 -38.44675 -38.43944 -38.43916 -38.43716
  Beta  occ. eigenvalues --  -38.43588 -38.43289  -2.21196  -2.20436  -2.19788
  Beta  occ. eigenvalues --   -2.19769  -2.19428  -2.19411  -2.19071  -1.14899
  Beta  occ. eigenvalues --   -1.14866  -1.14793  -1.14107  -1.14098  -1.14045
  Beta  occ. eigenvalues --   -1.13515  -1.13474  -1.13464  -1.13452  -1.13404
  Beta  occ. eigenvalues --   -1.13382  -1.13130  -1.13123  -1.13093  -1.13086
  Beta  occ. eigenvalues --   -1.13075  -1.13064  -1.12790  -1.12770  -1.12657
  Beta  occ. eigenvalues --   -0.16335  -0.13380  -0.11689
  Beta virt. eigenvalues --   -0.06792  -0.06744  -0.05546  -0.03694  -0.03307
  Beta virt. eigenvalues --   -0.02705  -0.02383  -0.01458  -0.01039  -0.00739
  Beta virt. eigenvalues --   -0.00493  -0.00333   0.00210   0.00443   0.00564

 Mulliken charges and spin densities:
               1          2
     1  Na   0.557780   0.026241
     2  Na  -0.366471   0.106410
     3  Na   0.620698   0.217457
     4  Na   0.216591  -0.140553
     5  Na   0.163189   0.515240
     6  Na   0.035627   0.046442
     7  Na  -1.227414   0.228763
 Sum of Mulliken charges =  -0.00000   1.00000

 Dipole moment (field-independent basis, Debye):
    X=              0.4203    Y=              0.9610    Z=             -0.3988  Tot=              1.1221
 Quadrupole moment (field-independent basis, Debye-Ang):
   XX=            -68.9383   YY=            -69.8253   ZZ=            -62.7881
   XY=             -6.0102   XZ=             -1.8656   YZ=              0.5881

 Normal termination of Gaussian 16 at Sun Dec  3 12:21:40 2023.
