 Gaussian 16, Revision B.01,
 Gaussian 16:  ES64L-G16RevB.01 20-Dec-2017

 -------------------------
 #P B3LYP/6-311+g(d) force
 -------------------------

 -----
 DPGEN
 -----
 Symbolic Z-matrix:
 Charge =  0 Multiplicity = 2

                         Standard orientation:
 ---------------------------------------------------------------------
 Center     Atomic      Atomic             Coordinates (Angstroms)
 Number     Number       Type             X           Y           Z
 ---------------------------------------------------------------------
      1         11           0       -4.190198   -0.140683   -0.629502
      2         11           0       -2.551571   -2.902416    0.248319
      3         11           0        4.456556   -1.582347   -0.224040
      4         11           0       -2.734135    2.555000    0.761820
      5         11           0        0.705221   -2.878653    0.088100
      6         11           0        0.582174    3.300990   -0.612201
      7         11           0        3.731954    1.648108    0.367504
 ---------------------------------------------------------------------

 SCF Done:  E(UB3LYP) =  -1136.10967400     A.U. after   21 cycles

 The electronic state is 2-A.
 Alpha  occ. eigenvalues --  -38.45270 -38.45025 -38.44836 -38.44536 -38.44065
 Alpha  occ. eigenvalues --  -38.44064 -38.43889  -2.21032  -2.20798  -2.20597
 Alpha  occ. eigenvalues --   -2.20352  -2.19880  -2.19863  -2.19670  -1.14717
 Alpha  occ. eigenvalues --   -1.14700  -1.14671  -1.14472  -1.14466  -1.14420
 Alpha  occ. eigenvalues --   -1.14281  -1.14275  -1.14244  -1.14010  -1.14000
 Alpha  occ. eigenvalues --   -1.13986  -1.13546  -1.13542  -1.13528  -1.13515
 Alpha  occ. eigenvalues --   -1.13508  -1.13496  -1.13330  -1.13323  -1.13292
 Alpha  occ. eigenvalues --   -0.15648  -0.14107  -0.13208  -0.10755
 Alpha virt. eigenvalues --   -0.07626  -0.04877  -0.04482  -0.03473  -0.03299
 Alpha virt. eigenvalues --   -0.02779  -0.02299  -0.01937  -0.01168  -0.00558
 Alpha virt. eigenvalues --   -0.00256  -0.00128   0.00091   0.00239   0.00585

  Beta  occ. eigenvalues --  -38.45258 -38.44982 -38.44841 -38.44491 -38.44053
  Beta  occ. eigenvalues --  -38.44008 -38.43830  -2.21015  -2.20723  -2.20612
  Beta  occ. eigenvalues --   -2.20269  -2.19864  -2.19759  -2.19560  -1.14712
  Beta  occ. eigenvalues --   -1.14695  -1.14616  -1.14424  -1.14418  -1.14345
  Beta  occ. eigenvalues --   -1.14293  -1.14287  -1.14227  -1.13958  -1.13945
  Beta  occ. eigenvalues --   -1.13927  -1.13537  -1.13531  -1.13493  -1.13444
  Beta  occ. eigenvalues --   -1.13433  -1.13429  -1.13254  -1.13249  -1.13220
  Beta  occ. eigenvalues --   -0.15143  -0.13412  -0.12473
  Beta virt. eigenvalues --   -0.07800  -0.07547  -0.04527  -0.04021  -0.03139
  Beta virt. eigenvalues --   -0.02941  -0.02553  -0.02120  -0.01802  -0.00997
  Beta virt. eigenvalues --   -0.00250  -0.00027   0.00075   0.00227   0.00293

 Mulliken charges and spin densities:
               1          2
     1  Na  -0.016680   0.219801
     2  Na   0.211700  -0.219274
     3  Na   0.353940   0.348871
     4  Na  -0.030327  -0.037146
     5  Na  -0.265509   0.337583
     6  Na  -0.194412   0.290242
     7  Na  -0.058711   0.059924
 Sum of Mulliken charges =  -0.00000   1.00000

 Dipole moment (field-independent basis, Debye):
    X=             -0.1394    Y=             -0.1716    Z=              0.0988  Tot=              0.2422
 Quadrupole moment (field-independent basis, Debye-Ang):
   XX=            -61.1907   YY=            -68.5888   ZZ=            -70.9275
   XY=              1.1230   XZ=              0.4642   YZ=              2.0469

 Normal termination of Gaussian 16 at Mon Dec  4 03:00:42 2023.
