 Gaussian 16, Revision B.01,
 Gaussian 16:  ES64L-G16RevB.01 20-Dec-2017

 -------------------------
 #P B3LYP/6-311+g(d) force
 -------------------------

 -----
 DPGEN
 -----
 Symbolic Z-matrix:
 Charge =  0 Multiplicity = 2

                         Standard orientation:
 ---------------------------------------------------------------------
 Center     Atomic      Atomic             Coordinates (Angstroms)
 Number     Number       Type             X           Y           Z
 ---------------------------------------------------------------------
      1         11           0        0.097629   -0.067744    2.021993
      2         11           0       -2.827435    2.237792   -0.098511
      3         11           0        0.511098    0.991203   -1.521984
      4         11           0       -3.293058   -1.374094   -0.037654
      5         11           0        2.925440   -1.678841   -0.252273
      6         11           0       -0.266461   -2.091083   -0.395688
      7         11           0        2.852787    1.982767    0.284117
 ---------------------------------------------------------------------

 SCF Done:  E(UB3LYP) =  -1136.11894258     A.U. after   25 cycles

 The electronic state is 2-A.
 Alpha  occ. eigenvalues --  -38.45019 -38.44727 -38.44553 -38.44440 -38.43721
 Alpha  occ. eigenvalues --  -38.43679 -38.42588  -2.20818  -2.20546  -2.20299
 Alpha  occ. eigenvalues --   -2.20257  -2.19595  -2.19573  -2.18546  -1.14514
 Alpha  occ. eigenvalues --   -1.14475  -1.14445  -1.14226  -1.14203  -1.14178
 Alpha  occ. eigenvalues --   -1.13975  -1.13960  -1.13956  -1.13945  -1.13903
 Alpha  occ. eigenvalues --   -1.13894  -1.13298  -1.13261  -1.13239  -1.13217
 Alpha  occ. eigenvalues --   -1.13193  -1.13171  -1.12239  -1.12198  -1.12192
 Alpha  occ. eigenvalues --   -0.18266  -0.13591  -0.11656  -0.10369
 Alpha virt. eigenvalues --   -0.06627  -0.06515  -0.03655  -0.03350  -0.02494
 Alpha virt. eigenvalues --   -0.02343  -0.02336  -0.01860  -0.00890  -0.00149
 Alpha virt. eigenvalues --    0.00002   0.00181   0.00515   0.00553   0.00673

  Beta  occ. eigenvalues --  -38.45022 -38.44715 -38.44556 -38.44433 -38.43635
  Beta  occ. eigenvalues --  -38.43619 -38.42572  -2.20825  -2.20528  -2.20307
  Beta  occ. eigenvalues --   -2.20247  -2.19492  -2.19407  -2.18522  -1.14520
  Beta  occ. eigenvalues --   -1.14468  -1.14452  -1.14213  -1.14171  -1.14170
  Beta  occ. eigenvalues --   -1.13971  -1.13963  -1.13952  -1.13950  -1.13893
  Beta  occ. eigenvalues --   -1.13875  -1.13216  -1.13176  -1.13159  -1.13109
  Beta  occ. eigenvalues --   -1.13085  -1.13059  -1.12227  -1.12180  -1.12139
  Beta  occ. eigenvalues --   -0.17540  -0.13445  -0.11441
  Beta virt. eigenvalues --   -0.06623  -0.06464  -0.06380  -0.03605  -0.02707
  Beta virt. eigenvalues --   -0.02242  -0.02005  -0.01677  -0.01196  -0.00935
  Beta virt. eigenvalues --    0.00006   0.00064   0.00224   0.00535   0.00627

 Mulliken charges and spin densities:
               1          2
     1  Na  -0.324067   0.586437
     2  Na   0.076425   0.002681
     3  Na  -0.220559   0.207049
     4  Na   0.257812  -0.031613
     5  Na   0.341984   0.059179
     6  Na  -0.325103   0.150532
     7  Na   0.193507   0.025736
 Sum of Mulliken charges =  -0.00000   1.00000

 Dipole moment (field-independent basis, Debye):
    X=              0.0777    Y=              0.1204    Z=              0.2205  Tot=              0.2630
 Quadrupole moment (field-independent basis, Debye-Ang):
   XX=            -46.4162   YY=            -69.1257   ZZ=            -76.4626
   XY=              0.2149   XZ=              0.3907   YZ=              1.5067

 Normal termination of Gaussian 16 at Thu Dec  7 17:01:30 2023.
