 Gaussian 16, Revision B.01,
 Gaussian 16:  ES64L-G16RevB.01 20-Dec-2017

 -------------------------
 #P B3LYP/6-311+g(d) force
 -------------------------

 -----
 DPGEN
 -----
 Symbolic Z-matrix:
 Charge =  0 Multiplicity = 2

                         Standard orientation:
 ---------------------------------------------------------------------
 Center     Atomic      Atomic             Coordinates (Angstroms)
 Number     Number       Type             X           Y           Z
 ---------------------------------------------------------------------
      1         11           0        1.236007   -2.269788    0.091764
      2         11           0        0.463274    0.497372   -1.711636
      3         11           0       -2.964887    0.784469   -0.008202
      4         11           0        0.161494   -0.086022    2.025004
      5         11           0        3.419426    0.385880   -0.114441
      6         11           0       -0.367821    3.124302    0.107218
      7         11           0       -1.947493   -2.436213   -0.389707
 ---------------------------------------------------------------------

 SCF Done:  E(UB3LYP) =  -1136.13455850     A.U. after   19 cycles

 The electronic state is 2-A.
 Alpha  occ. eigenvalues --  -38.44402 -38.44138 -38.43677 -38.43670 -38.43433
 Alpha  occ. eigenvalues --  -38.43325 -38.43297  -2.20210  -2.19956  -2.19576
 Alpha  occ. eigenvalues --   -2.19492  -2.19357  -2.19259  -2.19140  -1.13884
 Alpha  occ. eigenvalues --   -1.13864  -1.13856  -1.13632  -1.13624  -1.13594
 Alpha  occ. eigenvalues --   -1.13288  -1.13211  -1.13188  -1.13181  -1.13147
 Alpha  occ. eigenvalues --   -1.13126  -1.13047  -1.12999  -1.12974  -1.12947
 Alpha  occ. eigenvalues --   -1.12927  -1.12889  -1.12794  -1.12792  -1.12769
 Alpha  occ. eigenvalues --   -0.18505  -0.13029  -0.12472  -0.10709
 Alpha virt. eigenvalues --   -0.06021  -0.04951  -0.04763  -0.03203  -0.02958
 Alpha virt. eigenvalues --   -0.02518  -0.01784  -0.01098  -0.00477  -0.00204
 Alpha virt. eigenvalues --   -0.00023   0.00331   0.00801   0.00827   0.00869

  Beta  occ. eigenvalues --  -38.44400 -38.44135 -38.43668 -38.43579 -38.43372
  Beta  occ. eigenvalues --  -38.43313 -38.43291  -2.20209  -2.19954  -2.19490
  Beta  occ. eigenvalues --   -2.19397  -2.19246  -2.19242  -2.19130  -1.13872
  Beta  occ. eigenvalues --   -1.13866  -1.13847  -1.13625  -1.13612  -1.13595
  Beta  occ. eigenvalues --   -1.13181  -1.13174  -1.13137  -1.13127  -1.13076
  Beta  occ. eigenvalues --   -1.13057  -1.12982  -1.12937  -1.12913  -1.12897
  Beta  occ. eigenvalues --   -1.12885  -1.12856  -1.12789  -1.12772  -1.12760
  Beta  occ. eigenvalues --   -0.17776  -0.12809  -0.12248
  Beta virt. eigenvalues --   -0.06823  -0.05988  -0.04864  -0.04725  -0.02427
  Beta virt. eigenvalues --   -0.02212  -0.01718  -0.01484  -0.01026  -0.00525
  Beta virt. eigenvalues --   -0.00219   0.00126   0.00365   0.00809   0.00856

 Mulliken charges and spin densities:
               1          2
     1  Na   0.315945   0.194742
     2  Na  -0.140517   0.514759
     3  Na   0.018971   0.012870
     4  Na  -0.255205   0.547854
     5  Na   0.218205  -0.102310
     6  Na   0.032241  -0.130212
     7  Na  -0.189640  -0.037703
 Sum of Mulliken charges =  -0.00000   1.00000

 Dipole moment (field-independent basis, Debye):
    X=              0.3134    Y=              0.4801    Z=              0.0824  Tot=              0.5792
 Quadrupole moment (field-independent basis, Debye-Ang):
   XX=            -55.5982   YY=            -63.6782   ZZ=            -74.4625
   XY=              0.8580   XZ=              0.6069   YZ=              1.3719

 Normal termination of Gaussian 16 at Thu Dec  7 12:19:59 2023.
