 Gaussian 16, Revision B.01,
 Gaussian 16:  ES64L-G16RevB.01 20-Dec-2017

 -------------------------
 #P B3LYP/6-311+g(d) force
 -------------------------

 -----
 DPGEN
 -----
 Symbolic Z-matrix:
 Charge =  0 Multiplicity = 2

                         Standard orientation:
 ---------------------------------------------------------------------
 Center     Atomic      Atomic             Coordinates (Angstroms)
 Number     Number       Type             X           Y           Z
 ---------------------------------------------------------------------
      1         11           0        0.736258    2.762531    0.054226
      2         11           0       -2.657226    1.518942   -0.194002
      3         11           0        0.800536   -2.459162    0.364941
      4         11           0       -2.076223   -1.971633   -0.377968
      5         11           0        2.964589   -0.023263   -0.021906
      6         11           0        0.571977    0.005445   -1.653712
      7         11           0       -0.339910    0.167141    1.828420
 ---------------------------------------------------------------------

 SCF Done:  E(UB3LYP) =  -1136.13374026     A.U. after   19 cycles

 The electronic state is 2-A.
 Alpha  occ. eigenvalues --  -38.43827 -38.43751 -38.43574 -38.43488 -38.43219
 Alpha  occ. eigenvalues --  -38.43199 -38.43144  -2.19671  -2.19661  -2.19452
 Alpha  occ. eigenvalues --   -2.19389  -2.19266  -2.19185  -2.19128  -1.13470
 Alpha  occ. eigenvalues --   -1.13343  -1.13324  -1.13314  -1.13300  -1.13292
 Alpha  occ. eigenvalues --   -1.13156  -1.13141  -1.13136  -1.13060  -1.13043
 Alpha  occ. eigenvalues --   -1.13025  -1.12952  -1.12888  -1.12882  -1.12868
 Alpha  occ. eigenvalues --   -1.12829  -1.12796  -1.12758  -1.12744  -1.12733
 Alpha  occ. eigenvalues --   -0.19393  -0.13070  -0.12899  -0.10862
 Alpha virt. eigenvalues --   -0.05445  -0.04967  -0.04662  -0.03165  -0.03091
 Alpha virt. eigenvalues --   -0.02359  -0.01309  -0.01058  -0.00149  -0.00059
 Alpha virt. eigenvalues --    0.00086   0.00365   0.00885   0.00944   0.00969

  Beta  occ. eigenvalues --  -38.43823 -38.43744 -38.43567 -38.43479 -38.43151
  Beta  occ. eigenvalues --  -38.43129 -38.43115  -2.19664  -2.19657  -2.19444
  Beta  occ. eigenvalues --   -2.19375  -2.19142  -2.19106  -2.19032  -1.13452
  Beta  occ. eigenvalues --   -1.13336  -1.13309  -1.13298  -1.13297  -1.13278
  Beta  occ. eigenvalues --   -1.13150  -1.13133  -1.13100  -1.13059  -1.13021
  Beta  occ. eigenvalues --   -1.13002  -1.12889  -1.12808  -1.12802  -1.12780
  Beta  occ. eigenvalues --   -1.12736  -1.12729  -1.12709  -1.12687  -1.12661
  Beta  occ. eigenvalues --   -0.18647  -0.12810  -0.12634
  Beta virt. eigenvalues --   -0.06907  -0.05426  -0.04921  -0.04653  -0.02378
  Beta virt. eigenvalues --   -0.02261  -0.01324  -0.01239  -0.00993  -0.00190
  Beta virt. eigenvalues --   -0.00033   0.00155   0.00390   0.00893   0.00955

 Mulliken charges and spin densities:
               1          2
     1  Na   0.073281  -0.145405
     2  Na  -0.030343  -0.081535
     3  Na   0.422798   0.101402
     4  Na  -0.039011  -0.021039
     5  Na   0.467694  -0.026592
     6  Na  -0.526979   0.591383
     7  Na  -0.367440   0.581787
 Sum of Mulliken charges =  -0.00000   1.00000

 Dipole moment (field-independent basis, Debye):
    X=             -0.1238    Y=              0.3691    Z=              0.0410  Tot=              0.3915
 Quadrupole moment (field-independent basis, Debye-Ang):
   XX=            -57.9743   YY=            -62.1258   ZZ=            -73.7018
   XY=              0.0360   XZ=              2.0946   YZ=             -0.2516

 Normal termination of Gaussian 16 at Thu Dec  7 10:25:37 2023.
