 Gaussian 16, Revision B.01,
 Gaussian 16:  ES64L-G16RevB.01 20-Dec-2017

 -------------------------
 #P B3LYP/6-311+g(d) force
 -------------------------

 -----
 DPGEN
 -----
 Symbolic Z-matrix:
 Charge =  0 Multiplicity = 2

                         Standard orientation:
 ---------------------------------------------------------------------
 Center     Atomic      Atomic             Coordinates (Angstroms)
 Number     Number       Type             X           Y           Z
 ---------------------------------------------------------------------
      1         11           0       -5.058741    0.565831    0.946570
      2         11           0       -1.423873    1.584588   -0.901774
      3         11           0        1.242269    3.012142   -0.527564
      4         11           0        3.779358    0.801676    1.232022
      5         11           0        3.806919   -1.918810   -0.289149
      6         11           0        0.604491   -1.767703   -0.211868
      7         11           0       -2.950424   -2.277722   -0.248237
 ---------------------------------------------------------------------

 SCF Done:  E(UB3LYP) =  -1136.11566657     A.U. after   24 cycles

 The electronic state is 2-A.
 Alpha  occ. eigenvalues --  -38.45253 -38.44771 -38.44692 -38.44239 -38.44042
 Alpha  occ. eigenvalues --  -38.44028 -38.42928  -2.21061  -2.20556  -2.20449
 Alpha  occ. eigenvalues --   -2.20082  -2.19858  -2.19851  -2.18746  -1.14737
 Alpha  occ. eigenvalues --   -1.14711  -1.14688  -1.14200  -1.14196  -1.14160
 Alpha  occ. eigenvalues --   -1.14141  -1.14114  -1.14088  -1.13772  -1.13741
 Alpha  occ. eigenvalues --   -1.13729  -1.13543  -1.13540  -1.13533  -1.13507
 Alpha  occ. eigenvalues --   -1.13485  -1.13459  -1.12427  -1.12402  -1.12385
 Alpha  occ. eigenvalues --   -0.16488  -0.14254  -0.12060  -0.11176
 Alpha virt. eigenvalues --   -0.06927  -0.05077  -0.04739  -0.03704  -0.03048
 Alpha virt. eigenvalues --   -0.02567  -0.02026  -0.01316  -0.01232  -0.00660
 Alpha virt. eigenvalues --   -0.00319  -0.00074   0.00116   0.00413   0.00498

  Beta  occ. eigenvalues --  -38.45212 -38.44695 -38.44664 -38.44242 -38.44029
  Beta  occ. eigenvalues --  -38.43975 -38.42930  -2.20984  -2.20461  -2.20356
  Beta  occ. eigenvalues --   -2.20091  -2.19832  -2.19759  -2.18749  -1.14682
  Beta  occ. eigenvalues --   -1.14662  -1.14634  -1.14154  -1.14121  -1.14071
  Beta  occ. eigenvalues --   -1.14063  -1.14057  -1.14022  -1.13773  -1.13737
  Beta  occ. eigenvalues --   -1.13732  -1.13527  -1.13504  -1.13476  -1.13475
  Beta  occ. eigenvalues --   -1.13439  -1.13392  -1.12421  -1.12406  -1.12389
  Beta  occ. eigenvalues --   -0.15991  -0.13577  -0.11866
  Beta virt. eigenvalues --   -0.07686  -0.06624  -0.04659  -0.04455  -0.03521
  Beta virt. eigenvalues --   -0.02521  -0.02325  -0.01668  -0.01183  -0.00937
  Beta virt. eigenvalues --   -0.00354  -0.00197   0.00141   0.00238   0.00506

 Mulliken charges and spin densities:
               1          2
     1  Na   0.197881   0.557601
     2  Na  -0.325866  -0.015744
     3  Na  -0.042325  -0.021983
     4  Na   0.026957   0.236174
     5  Na   1.897329   0.389305
     6  Na  -1.999221   0.079866
     7  Na   0.245245  -0.225219
 Sum of Mulliken charges =  -0.00000   1.00000

 Dipole moment (field-independent basis, Debye):
    X=              0.6564    Y=             -0.5501    Z=              0.4048  Tot=              0.9473
 Quadrupole moment (field-independent basis, Debye-Ang):
   XX=            -57.9392   YY=            -69.3598   ZZ=            -69.8781
   XY=              1.3427   XZ=              0.8480   YZ=              3.6204

 Normal termination of Gaussian 16 at Sun Dec  3 13:00:02 2023.
