 Gaussian 16, Revision B.01,
 Gaussian 16:  ES64L-G16RevB.01 20-Dec-2017

 -------------------------
 #P B3LYP/6-311+g(d) force
 -------------------------

 -----
 DPGEN
 -----
 Symbolic Z-matrix:
 Charge =  0 Multiplicity = 2

                         Standard orientation:
 ---------------------------------------------------------------------
 Center     Atomic      Atomic             Coordinates (Angstroms)
 Number     Number       Type             X           Y           Z
 ---------------------------------------------------------------------
      1         11           0        0.103612   -2.940437    0.006407
      2         11           0       -0.109222    0.137781    2.140936
      3         11           0       -2.880797   -0.947428   -0.064951
      4         11           0       -2.030682    2.377450   -0.310325
      5         11           0        2.789838   -1.021925   -0.263539
      6         11           0        2.174370    2.422720    0.036030
      7         11           0       -0.047119   -0.028160   -1.544559
 ---------------------------------------------------------------------

 SCF Done:  E(UB3LYP) =  -1136.13837572     A.U. after   19 cycles

 The electronic state is 2-A.
 Alpha  occ. eigenvalues --  -38.43876 -38.43852 -38.43848 -38.43692 -38.43667
 Alpha  occ. eigenvalues --  -38.43181 -38.43079  -2.19702  -2.19698  -2.19643
 Alpha  occ. eigenvalues --   -2.19560  -2.19530  -2.19077  -2.19053  -1.13406
 Alpha  occ. eigenvalues --   -1.13378  -1.13374  -1.13357  -1.13345  -1.13316
 Alpha  occ. eigenvalues --   -1.13310  -1.13303  -1.13291  -1.13259  -1.13221
 Alpha  occ. eigenvalues --   -1.13191  -1.13182  -1.13154  -1.13144  -1.12792
 Alpha  occ. eigenvalues --   -1.12743  -1.12712  -1.12708  -1.12690  -1.12671
 Alpha  occ. eigenvalues --   -0.18578  -0.13046  -0.12380  -0.10696
 Alpha virt. eigenvalues --   -0.05596  -0.05230  -0.04801  -0.03120  -0.02841
 Alpha virt. eigenvalues --   -0.02580  -0.01442  -0.01264  -0.00522  -0.00340
 Alpha virt. eigenvalues --   -0.00012   0.00352   0.00800   0.00844   0.00867

  Beta  occ. eigenvalues --  -38.43869 -38.43852 -38.43843 -38.43686 -38.43564
  Beta  occ. eigenvalues --  -38.43177 -38.43023  -2.19696  -2.19689  -2.19646
  Beta  occ. eigenvalues --   -2.19550  -2.19340  -2.19048  -2.18975  -1.13400
  Beta  occ. eigenvalues --   -1.13368  -1.13358  -1.13337  -1.13330  -1.13314
  Beta  occ. eigenvalues --   -1.13302  -1.13300  -1.13293  -1.13248  -1.13200
  Beta  occ. eigenvalues --   -1.13178  -1.13066  -1.13022  -1.13007  -1.12759
  Beta  occ. eigenvalues --   -1.12701  -1.12681  -1.12675  -1.12634  -1.12614
  Beta  occ. eigenvalues --   -0.17855  -0.12807  -0.12170
  Beta virt. eigenvalues --   -0.06751  -0.05601  -0.05171  -0.04776  -0.02344
  Beta virt. eigenvalues --   -0.02079  -0.01510  -0.01348  -0.01177  -0.00576
  Beta virt. eigenvalues --   -0.00392   0.00139   0.00382   0.00830   0.00871

 Mulliken charges and spin densities:
               1          2
     1  Na   0.215923   0.022960
     2  Na  -0.610490   0.795821
     3  Na   0.292390   0.020747
     4  Na   0.120990  -0.060353
     5  Na   0.242964   0.005002
     6  Na   0.042261  -0.067591
     7  Na  -0.304038   0.283415
 Sum of Mulliken charges =  -0.00000   1.00000

 Dipole moment (field-independent basis, Debye):
    X=             -0.1227    Y=              0.2502    Z=              0.1528  Tot=              0.3178
 Quadrupole moment (field-independent basis, Debye-Ang):
   XX=            -57.8330   YY=            -60.4267   ZZ=            -74.9580
   XY=              0.3169   XZ=              0.0602   YZ=             -0.3616

 Normal termination of Gaussian 16 at Fri Dec  8 01:55:12 2023.
