 Gaussian 16, Revision B.01,
 Gaussian 16:  ES64L-G16RevB.01 20-Dec-2017

 -------------------------
 #P B3LYP/6-311+g(d) force
 -------------------------

 -----
 DPGEN
 -----
 Symbolic Z-matrix:
 Charge =  0 Multiplicity = 2

                         Standard orientation:
 ---------------------------------------------------------------------
 Center     Atomic      Atomic             Coordinates (Angstroms)
 Number     Number       Type             X           Y           Z
 ---------------------------------------------------------------------
      1         11           0       -0.228492    0.380561    2.102697
      2         11           0        3.789021   -1.437314    0.631800
      3         11           0       -1.242431    1.762147   -1.188690
      4         11           0       -4.232846   -0.306593    0.555735
      5         11           0        2.088488    2.318306   -0.004424
      6         11           0       -1.409855   -1.867540   -0.590914
      7         11           0        1.236115   -0.849567   -1.506205
 ---------------------------------------------------------------------

 SCF Done:  E(UB3LYP) =  -1136.11765002     A.U. after   25 cycles

 The electronic state is 2-A.
 Alpha  occ. eigenvalues --  -38.45455 -38.45298 -38.44243 -38.43700 -38.43601
 Alpha  occ. eigenvalues --  -38.43503 -38.43089  -2.21241  -2.21065  -2.20011
 Alpha  occ. eigenvalues --   -2.19589  -2.19406  -2.19349  -2.19025  -1.14928
 Alpha  occ. eigenvalues --   -1.14878  -1.14853  -1.14732  -1.14727  -1.14690
 Alpha  occ. eigenvalues --   -1.13681  -1.13663  -1.13650  -1.13345  -1.13250
 Alpha  occ. eigenvalues --   -1.13197  -1.13092  -1.13071  -1.13045  -1.13032
 Alpha  occ. eigenvalues --   -1.13010  -1.12953  -1.12732  -1.12654  -1.12626
 Alpha  occ. eigenvalues --   -0.18069  -0.13451  -0.11264  -0.10976
 Alpha virt. eigenvalues --   -0.07367  -0.05272  -0.04178  -0.03146  -0.03033
 Alpha virt. eigenvalues --   -0.02511  -0.02421  -0.01346  -0.01044  -0.00245
 Alpha virt. eigenvalues --   -0.00044   0.00198   0.00290   0.00562   0.00649

  Beta  occ. eigenvalues --  -38.45399 -38.45283 -38.44225 -38.43672 -38.43602
  Beta  occ. eigenvalues --  -38.43471 -38.43040  -2.21137  -2.21036  -2.19979
  Beta  occ. eigenvalues --   -2.19545  -2.19411  -2.19293  -2.18940  -1.14857
  Beta  occ. eigenvalues --   -1.14805  -1.14775  -1.14711  -1.14704  -1.14671
  Beta  occ. eigenvalues --   -1.13660  -1.13639  -1.13627  -1.13299  -1.13196
  Beta  occ. eigenvalues --   -1.13173  -1.13088  -1.13071  -1.13039  -1.12992
  Beta  occ. eigenvalues --   -1.12954  -1.12921  -1.12674  -1.12593  -1.12545
  Beta  occ. eigenvalues --   -0.17308  -0.13235  -0.10934
  Beta virt. eigenvalues --   -0.07458  -0.06918  -0.05183  -0.03796  -0.02924
  Beta virt. eigenvalues --   -0.02567  -0.02062  -0.01730  -0.01217  -0.00743
  Beta virt. eigenvalues --   -0.00168  -0.00002   0.00212   0.00451   0.00642

 Mulliken charges and spin densities:
               1          2
     1  Na  -0.266536   0.465379
     2  Na  -0.082575   0.163754
     3  Na  -0.189958   0.142395
     4  Na   0.240203   0.164111
     5  Na   0.078900   0.020496
     6  Na  -0.136607   0.130601
     7  Na   0.356572  -0.086736
 Sum of Mulliken charges =  -0.00000   1.00000

 Dipole moment (field-independent basis, Debye):
    X=             -0.9901    Y=              0.6077    Z=              0.7272  Tot=              1.3706
 Quadrupole moment (field-independent basis, Debye-Ang):
   XX=            -48.9606   YY=            -75.9317   ZZ=            -69.4103
   XY=              0.9196   XZ=              1.2864   YZ=             -2.9868

 Normal termination of Gaussian 16 at Thu Dec  7 23:04:01 2023.
