 Gaussian 16, Revision B.01,
 Gaussian 16:  ES64L-G16RevB.01 20-Dec-2017

 -------------------------
 #P B3LYP/6-311+g(d) force
 -------------------------

 -----
 DPGEN
 -----
 Symbolic Z-matrix:
 Charge =  0 Multiplicity = 2

                         Standard orientation:
 ---------------------------------------------------------------------
 Center     Atomic      Atomic             Coordinates (Angstroms)
 Number     Number       Type             X           Y           Z
 ---------------------------------------------------------------------
      1         11           0        1.754336    2.402446   -0.300433
      2         11           0        3.345662   -0.297840    0.051429
      3         11           0       -2.771738    1.684840    0.168306
      4         11           0       -0.106547    0.055171   -1.726522
      5         11           0       -2.744552   -1.271210   -0.500565
      6         11           0       -0.300501   -0.077832    2.345865
      7         11           0        0.823339   -2.495575   -0.038082
 ---------------------------------------------------------------------

 SCF Done:  E(UB3LYP) =  -1136.12749037     A.U. after   21 cycles

 The electronic state is 2-A.
 Alpha  occ. eigenvalues --  -38.44748 -38.44472 -38.44189 -38.44142 -38.43829
 Alpha  occ. eigenvalues --  -38.43139 -38.42456  -2.20584  -2.20303  -2.20083
 Alpha  occ. eigenvalues --   -2.19982  -2.19788  -2.18982  -2.18339  -1.14255
 Alpha  occ. eigenvalues --   -1.14245  -1.14231  -1.13952  -1.13932  -1.13920
 Alpha  occ. eigenvalues --   -1.13849  -1.13774  -1.13710  -1.13629  -1.13619
 Alpha  occ. eigenvalues --   -1.13590  -1.13470  -1.13434  -1.13408  -1.12663
 Alpha  occ. eigenvalues --   -1.12644  -1.12617  -1.12039  -1.11998  -1.11970
 Alpha  occ. eigenvalues --   -0.18544  -0.13764  -0.11554  -0.11297
 Alpha virt. eigenvalues --   -0.06352  -0.05257  -0.03822  -0.03638  -0.03174
 Alpha virt. eigenvalues --   -0.02666  -0.01993  -0.01028  -0.00307  -0.00136
 Alpha virt. eigenvalues --   -0.00043   0.00319   0.00640   0.00680   0.00871

  Beta  occ. eigenvalues --  -38.44750 -38.44363 -38.44176 -38.44138 -38.43768
  Beta  occ. eigenvalues --  -38.43138 -38.42452  -2.20589  -2.20101  -2.20062
  Beta  occ. eigenvalues --   -2.19978  -2.19677  -2.18981  -2.18335  -1.14262
  Beta  occ. eigenvalues --   -1.14241  -1.14232  -1.13845  -1.13817  -1.13792
  Beta  occ. eigenvalues --   -1.13773  -1.13741  -1.13688  -1.13618  -1.13603
  Beta  occ. eigenvalues --   -1.13585  -1.13398  -1.13349  -1.13328  -1.12659
  Beta  occ. eigenvalues --   -1.12640  -1.12611  -1.12036  -1.11976  -1.11965
  Beta  occ. eigenvalues --   -0.17806  -0.13587  -0.11333
  Beta virt. eigenvalues --   -0.07289  -0.06232  -0.05247  -0.03718  -0.02965
  Beta virt. eigenvalues --   -0.02068  -0.01928  -0.01874  -0.00944  -0.00335
  Beta virt. eigenvalues --   -0.00105   0.00063   0.00357   0.00772   0.00861

 Mulliken charges and spin densities:
               1          2
     1  Na   0.150689  -0.003352
     2  Na   0.017047  -0.032126
     3  Na  -0.011847   0.052829
     4  Na  -0.135513   0.205525
     5  Na   0.487119   0.058317
     6  Na  -0.593023   0.667940
     7  Na   0.085526   0.050866
 Sum of Mulliken charges =  -0.00000   1.00000

 Dipole moment (field-independent basis, Debye):
    X=             -0.1279    Y=              0.0005    Z=              0.3027  Tot=              0.3286
 Quadrupole moment (field-independent basis, Debye-Ang):
   XX=            -53.4016   YY=            -70.7085   ZZ=            -71.7402
   XY=             -1.2178   XZ=              0.9759   YZ=              0.8428

 Normal termination of Gaussian 16 at Thu Dec  7 15:44:35 2023.
