 Gaussian 16, Revision B.01,
 Gaussian 16:  ES64L-G16RevB.01 20-Dec-2017

 -------------------------
 #P B3LYP/6-311+g(d) force
 -------------------------

 -----
 DPGEN
 -----
 Symbolic Z-matrix:
 Charge =  0 Multiplicity = 2

                         Standard orientation:
 ---------------------------------------------------------------------
 Center     Atomic      Atomic             Coordinates (Angstroms)
 Number     Number       Type             X           Y           Z
 ---------------------------------------------------------------------
      1         11           0        0.122350    3.197762   -0.177648
      2         11           0       -0.062241    0.125876    1.690067
      3         11           0        2.781058    0.843256   -0.177646
      4         11           0       -2.825835    0.965500   -0.071432
      5         11           0        2.266454   -2.317912    0.030157
      6         11           0       -0.152669   -0.373970   -1.215941
      7         11           0       -2.129117   -2.440512   -0.077558
 ---------------------------------------------------------------------

 SCF Done:  E(UB3LYP) =  -1136.13153025     A.U. after   22 cycles

 The electronic state is 2-A.
 Alpha  occ. eigenvalues --  -38.44088 -38.44065 -38.43981 -38.43730 -38.43526
 Alpha  occ. eigenvalues --  -38.42764 -38.42711  -2.19964  -2.19913  -2.19824
 Alpha  occ. eigenvalues --   -2.19621  -2.19347  -2.18865  -2.18708  -1.13673
 Alpha  occ. eigenvalues --   -1.13634  -1.13622  -1.13586  -1.13557  -1.13526
 Alpha  occ. eigenvalues --   -1.13518  -1.13485  -1.13469  -1.13306  -1.13283
 Alpha  occ. eigenvalues --   -1.13241  -1.13014  -1.13004  -1.12996  -1.12700
 Alpha  occ. eigenvalues --   -1.12487  -1.12473  -1.12363  -1.12310  -1.12290
 Alpha  occ. eigenvalues --   -0.18940  -0.13401  -0.12583  -0.09802
 Alpha virt. eigenvalues --   -0.05720  -0.05379  -0.05109  -0.02889  -0.02449
 Alpha virt. eigenvalues --   -0.01674  -0.01607  -0.01514  -0.00633  -0.00495
 Alpha virt. eigenvalues --    0.00063   0.00335   0.00778   0.00802   0.00825

  Beta  occ. eigenvalues --  -38.44080 -38.44060 -38.43979 -38.43721 -38.43521
  Beta  occ. eigenvalues --  -38.42717 -38.42620  -2.19953  -2.19907  -2.19822
  Beta  occ. eigenvalues --   -2.19609  -2.19341  -2.18783  -2.18544  -1.13668
  Beta  occ. eigenvalues --   -1.13615  -1.13595  -1.13582  -1.13532  -1.13525
  Beta  occ. eigenvalues --   -1.13518  -1.13480  -1.13451  -1.13299  -1.13246
  Beta  occ. eigenvalues --   -1.13237  -1.13003  -1.12996  -1.12986  -1.12612
  Beta  occ. eigenvalues --   -1.12427  -1.12414  -1.12257  -1.12192  -1.12172
  Beta  occ. eigenvalues --   -0.18240  -0.13131  -0.12347
  Beta virt. eigenvalues --   -0.05977  -0.05692  -0.05314  -0.05088  -0.02097
  Beta virt. eigenvalues --   -0.01778  -0.01591  -0.01463  -0.00733  -0.00669
  Beta virt. eigenvalues --   -0.00471   0.00217   0.00398   0.00789   0.00838

 Mulliken charges and spin densities:
               1          2
     1  Na   0.039887   0.019235
     2  Na  -0.333471   0.642438
     3  Na   0.229572   0.066912
     4  Na   0.322853   0.022095
     5  Na   0.286606  -0.018844
     6  Na  -0.923974   0.299485
     7  Na   0.378526  -0.031321
 Sum of Mulliken charges =  -0.00000   1.00000

 Dipole moment (field-independent basis, Debye):
    X=             -0.1687    Y=             -0.2600    Z=              0.1856  Tot=              0.3613
 Quadrupole moment (field-independent basis, Debye-Ang):
   XX=            -54.6688   YY=            -55.6413   ZZ=            -79.1668
   XY=             -0.4133   XZ=             -0.1483   YZ=             -1.1238

 Normal termination of Gaussian 16 at Thu Dec  7 09:45:48 2023.
