 Gaussian 16, Revision B.01,
 Gaussian 16:  ES64L-G16RevB.01 20-Dec-2017

 -------------------------
 #P B3LYP/6-311+g(d) force
 -------------------------

 -----
 DPGEN
 -----
 Symbolic Z-matrix:
 Charge =  0 Multiplicity = 2

                         Standard orientation:
 ---------------------------------------------------------------------
 Center     Atomic      Atomic             Coordinates (Angstroms)
 Number     Number       Type             X           Y           Z
 ---------------------------------------------------------------------
      1         11           0        4.323514    0.373138    0.169199
      2         11           0       -4.264177    0.857226   -0.821763
      3         11           0        2.917382   -2.661200   -0.649167
      4         11           0       -1.264488    2.816905   -0.231950
      5         11           0       -0.436307   -3.129252    0.004649
      6         11           0       -3.129441   -1.760288    1.097173
      7         11           0        1.853517    3.503472    0.431860
 ---------------------------------------------------------------------

 SCF Done:  E(UB3LYP) =  -1136.11048372     A.U. after   23 cycles

 The electronic state is 2-A.
 Alpha  occ. eigenvalues --  -38.45296 -38.45026 -38.44858 -38.44510 -38.44060
 Alpha  occ. eigenvalues --  -38.43970 -38.43734  -2.21055  -2.20827  -2.20635
 Alpha  occ. eigenvalues --   -2.20288  -2.19875  -2.19787  -2.19532  -1.14727
 Alpha  occ. eigenvalues --   -1.14709  -1.14681  -1.14513  -1.14499  -1.14465
 Alpha  occ. eigenvalues --   -1.14320  -1.14312  -1.14268  -1.13965  -1.13959
 Alpha  occ. eigenvalues --   -1.13933  -1.13524  -1.13516  -1.13502  -1.13447
 Alpha  occ. eigenvalues --   -1.13440  -1.13421  -1.13191  -1.13187  -1.13164
 Alpha  occ. eigenvalues --   -0.15750  -0.13944  -0.13448  -0.10838
 Alpha virt. eigenvalues --   -0.07660  -0.04829  -0.04394  -0.03547  -0.03495
 Alpha virt. eigenvalues --   -0.02325  -0.02282  -0.01654  -0.01333  -0.00943
 Alpha virt. eigenvalues --   -0.00536  -0.00332   0.00224   0.00452   0.00626

  Beta  occ. eigenvalues --  -38.45256 -38.45011 -38.44833 -38.44510 -38.43991
  Beta  occ. eigenvalues --  -38.43927 -38.43694  -2.20984  -2.20807  -2.20597
  Beta  occ. eigenvalues --   -2.20291  -2.19745  -2.19708  -2.19461  -1.14680
  Beta  occ. eigenvalues --   -1.14663  -1.14620  -1.14492  -1.14489  -1.14421
  Beta  occ. eigenvalues --   -1.14300  -1.14291  -1.14199  -1.13970  -1.13965
  Beta  occ. eigenvalues --   -1.13914  -1.13435  -1.13427  -1.13419  -1.13392
  Beta  occ. eigenvalues --   -1.13388  -1.13368  -1.13140  -1.13138  -1.13114
  Beta  occ. eigenvalues --   -0.15197  -0.13243  -0.12704
  Beta virt. eigenvalues --   -0.07862  -0.07610  -0.04365  -0.04032  -0.03290
  Beta virt. eigenvalues --   -0.03136  -0.02119  -0.02039  -0.01464  -0.01169
  Beta virt. eigenvalues --   -0.00620  -0.00329  -0.00100   0.00338   0.00495

 Mulliken charges and spin densities:
               1          2
     1  Na  -0.325587   0.230245
     2  Na   0.207631   0.335129
     3  Na   0.521588   0.048713
     4  Na  -0.859066   0.277344
     5  Na  -0.375109   0.161169
     6  Na   0.032463  -0.051413
     7  Na   0.798080  -0.001186
 Sum of Mulliken charges =  -0.00000   1.00000

 Dipole moment (field-independent basis, Debye):
    X=              0.1234    Y=             -0.2271    Z=              0.0793  Tot=              0.2704
 Quadrupole moment (field-independent basis, Debye-Ang):
   XX=            -58.7483   YY=            -70.4777   ZZ=            -70.5458
   XY=              2.9613   XZ=              0.0751   YZ=              0.6872

 Normal termination of Gaussian 16 at Sun Dec  3 12:57:23 2023.
