 Gaussian 16, Revision B.01,
 Gaussian 16:  ES64L-G16RevB.01 20-Dec-2017

 -------------------------
 #P B3LYP/6-311+g(d) force
 -------------------------

 -----
 DPGEN
 -----
 Symbolic Z-matrix:
 Charge =  0 Multiplicity = 2

                         Standard orientation:
 ---------------------------------------------------------------------
 Center     Atomic      Atomic             Coordinates (Angstroms)
 Number     Number       Type             X           Y           Z
 ---------------------------------------------------------------------
      1         11           0       -0.148106   -0.537507   -1.488939
      2         11           0        2.189003   -2.692983    0.122772
      3         11           0       -2.708401    1.458359    0.152375
      4         11           0        3.476557    0.766165   -0.080397
      5         11           0       -3.143919   -1.983598   -0.073580
      6         11           0        0.296434    2.908408   -0.313827
      7         11           0        0.038431    0.081156    1.681598
 ---------------------------------------------------------------------

 SCF Done:  E(UB3LYP) =  -1136.12744032     A.U. after   23 cycles

 The electronic state is 2-A.
 Alpha  occ. eigenvalues --  -38.45319 -38.44449 -38.44234 -38.44073 -38.43436
 Alpha  occ. eigenvalues --  -38.43122 -38.42876  -2.21075  -2.20226  -2.20013
 Alpha  occ. eigenvalues --   -2.19937  -2.19340  -2.19041  -2.18725  -1.14757
 Alpha  occ. eigenvalues --   -1.14724  -1.14712  -1.13894  -1.13891  -1.13868
 Alpha  occ. eigenvalues --   -1.13686  -1.13673  -1.13652  -1.13615  -1.13608
 Alpha  occ. eigenvalues --   -1.13565  -1.13083  -1.12975  -1.12939  -1.12745
 Alpha  occ. eigenvalues --   -1.12660  -1.12644  -1.12397  -1.12386  -1.12369
 Alpha  occ. eigenvalues --   -0.18119  -0.13391  -0.11990  -0.09709
 Alpha virt. eigenvalues --   -0.06721  -0.05845  -0.04548  -0.03072  -0.02413
 Alpha virt. eigenvalues --   -0.02308  -0.01800  -0.01549  -0.01099  -0.00488
 Alpha virt. eigenvalues --   -0.00045   0.00217   0.00625   0.00632   0.00736

  Beta  occ. eigenvalues --  -38.45314 -38.44449 -38.44230 -38.44065 -38.43383
  Beta  occ. eigenvalues --  -38.43041 -38.42868  -2.21069  -2.20227  -2.20008
  Beta  occ. eigenvalues --   -2.19925  -2.19243  -2.18893  -2.18713  -1.14740
  Beta  occ. eigenvalues --   -1.14719  -1.14708  -1.13897  -1.13876  -1.13870
  Beta  occ. eigenvalues --   -1.13678  -1.13662  -1.13650  -1.13609  -1.13579
  Beta  occ. eigenvalues --   -1.13554  -1.13006  -1.12903  -1.12868  -1.12642
  Beta  occ. eigenvalues --   -1.12560  -1.12533  -1.12391  -1.12372  -1.12342
  Beta  occ. eigenvalues --   -0.17446  -0.13197  -0.11758
  Beta virt. eigenvalues --   -0.06679  -0.05971  -0.05745  -0.04509  -0.02384
  Beta virt. eigenvalues --   -0.02239  -0.01734  -0.01527  -0.01143  -0.00809
  Beta virt. eigenvalues --   -0.00488   0.00140   0.00276   0.00641   0.00697

 Mulliken charges and spin densities:
               1          2
     1  Na  -0.196660   0.487070
     2  Na  -0.012821  -0.070145
     3  Na   0.376139   0.130799
     4  Na   0.054210   0.004512
     5  Na   0.116339  -0.038853
     6  Na  -0.266216  -0.010704
     7  Na  -0.070991   0.497320
 Sum of Mulliken charges =  -0.00000   1.00000

 Dipole moment (field-independent basis, Debye):
    X=              0.4046    Y=             -0.3724    Z=              0.1082  Tot=              0.5604
 Quadrupole moment (field-independent basis, Debye-Ang):
   XX=            -48.4088   YY=            -61.8875   ZZ=            -79.5471
   XY=              0.7819   XZ=             -0.4809   YZ=             -1.0247

 Normal termination of Gaussian 16 at Thu Dec  7 06:08:09 2023.
