 Gaussian 16, Revision B.01,
 Gaussian 16:  ES64L-G16RevB.01 20-Dec-2017

 -------------------------
 #P B3LYP/6-311+g(d) force
 -------------------------

 -----
 DPGEN
 -----
 Symbolic Z-matrix:
 Charge =  0 Multiplicity = 2

                         Standard orientation:
 ---------------------------------------------------------------------
 Center     Atomic      Atomic             Coordinates (Angstroms)
 Number     Number       Type             X           Y           Z
 ---------------------------------------------------------------------
      1         11           0        3.186566    1.529920    1.014446
      2         11           0        4.917211   -0.793240   -0.770489
      3         11           0       -1.966095   -2.555886    0.868411
      4         11           0        1.752185   -2.374734   -0.377938
      5         11           0       -4.522501   -1.370438   -0.229715
      6         11           0       -3.351619    2.382881   -0.563217
      7         11           0       -0.015747    3.181497    0.058501
 ---------------------------------------------------------------------

 SCF Done:  E(UB3LYP) =  -1136.10698515     A.U. after   27 cycles

 The electronic state is 2-A.
 Alpha  occ. eigenvalues --  -38.45766 -38.45513 -38.44889 -38.44290 -38.44034
 Alpha  occ. eigenvalues --  -38.43993 -38.43518  -2.21536  -2.21273  -2.20627
 Alpha  occ. eigenvalues --   -2.20096  -2.19861  -2.19797  -2.19293  -1.15225
 Alpha  occ. eigenvalues --   -1.15202  -1.15156  -1.14960  -1.14946  -1.14871
 Alpha  occ. eigenvalues --   -1.14322  -1.14305  -1.14252  -1.13828  -1.13758
 Alpha  occ. eigenvalues --   -1.13725  -1.13517  -1.13508  -1.13479  -1.13465
 Alpha  occ. eigenvalues --   -1.13457  -1.13420  -1.12970  -1.12964  -1.12918
 Alpha  occ. eigenvalues --   -0.15843  -0.14044  -0.12679  -0.10599
 Alpha virt. eigenvalues --   -0.07869  -0.05107  -0.04628  -0.03531  -0.03348
 Alpha virt. eigenvalues --   -0.02403  -0.02364  -0.01492  -0.01097  -0.01023
 Alpha virt. eigenvalues --   -0.00602  -0.00336   0.00031   0.00471   0.00513

  Beta  occ. eigenvalues --  -38.45734 -38.45459 -38.44902 -38.44286 -38.43990
  Beta  occ. eigenvalues --  -38.43975 -38.43498  -2.21482  -2.21177  -2.20650
  Beta  occ. eigenvalues --   -2.20086  -2.19790  -2.19749  -2.19255  -1.15191
  Beta  occ. eigenvalues --   -1.15168  -1.15082  -1.14899  -1.14881  -1.14774
  Beta  occ. eigenvalues --   -1.14337  -1.14322  -1.14264  -1.13833  -1.13749
  Beta  occ. eigenvalues --   -1.13709  -1.13464  -1.13452  -1.13435  -1.13432
  Beta  occ. eigenvalues --   -1.13410  -1.13399  -1.12945  -1.12939  -1.12893
  Beta  occ. eigenvalues --   -0.15181  -0.13857  -0.12435
  Beta virt. eigenvalues --   -0.07704  -0.07089  -0.04584  -0.04115  -0.03272
  Beta virt. eigenvalues --   -0.03070  -0.02278  -0.02220  -0.01285  -0.00798
  Beta virt. eigenvalues --   -0.00654  -0.00543  -0.00170   0.00277   0.00563

 Mulliken charges and spin densities:
               1          2
     1  Na   0.004613   0.144172
     2  Na   0.611048   0.315703
     3  Na  -0.505431  -0.092598
     4  Na  -0.307298   0.378810
     5  Na   0.336850   0.071586
     6  Na   0.048541   0.062227
     7  Na  -0.188323   0.120100
 Sum of Mulliken charges =  -0.00000   1.00000

 Dipole moment (field-independent basis, Debye):
    X=              0.9019    Y=             -0.1805    Z=             -0.1194  Tot=              0.9275
 Quadrupole moment (field-independent basis, Debye-Ang):
   XX=            -58.5642   YY=            -70.9279   ZZ=            -70.0626
   XY=              0.2482   XZ=              1.7001   YZ=              1.7063

 Normal termination of Gaussian 16 at Sun Dec  3 19:00:24 2023.
