 Gaussian 16, Revision B.01,
 Gaussian 16:  ES64L-G16RevB.01 20-Dec-2017

 -------------------------
 #P B3LYP/6-311+g(d) force
 -------------------------

 -----
 DPGEN
 -----
 Symbolic Z-matrix:
 Charge =  0 Multiplicity = 2

                         Standard orientation:
 ---------------------------------------------------------------------
 Center     Atomic      Atomic             Coordinates (Angstroms)
 Number     Number       Type             X           Y           Z
 ---------------------------------------------------------------------
      1         11           0       -1.167592    2.350980    0.250467
      2         11           0        2.222749    1.875411   -1.181310
      3         11           0       -3.639355    0.220892   -0.024675
      4         11           0       -0.240976   -0.901714   -1.887307
      5         11           0        1.944628   -2.135436   -0.316656
      6         11           0        1.897401    0.645708    2.128198
      7         11           0       -1.016854   -2.055841    1.031283
 ---------------------------------------------------------------------

 SCF Done:  E(UB3LYP) =  -1136.13135989     A.U. after   19 cycles

 The electronic state is 2-A.
 Alpha  occ. eigenvalues --  -38.44173 -38.43923 -38.43832 -38.43798 -38.43741
 Alpha  occ. eigenvalues --  -38.43651 -38.43592  -2.19987  -2.19852  -2.19639
 Alpha  occ. eigenvalues --   -2.19610  -2.19602  -2.19491  -2.19456  -1.13649
 Alpha  occ. eigenvalues --   -1.13630  -1.13610  -1.13603  -1.13502  -1.13472
 Alpha  occ. eigenvalues --   -1.13322  -1.13308  -1.13297  -1.13287  -1.13273
 Alpha  occ. eigenvalues --   -1.13263  -1.13253  -1.13243  -1.13237  -1.13158
 Alpha  occ. eigenvalues --   -1.13141  -1.13132  -1.13126  -1.13094  -1.13068
 Alpha  occ. eigenvalues --   -0.18095  -0.12960  -0.12235  -0.11287
 Alpha virt. eigenvalues --   -0.05486  -0.05248  -0.04627  -0.03673  -0.03142
 Alpha virt. eigenvalues --   -0.02931  -0.01446  -0.00923  -0.00436  -0.00109
 Alpha virt. eigenvalues --    0.00072   0.00356   0.00603   0.00697   0.00857

  Beta  occ. eigenvalues --  -38.44102 -38.43861 -38.43834 -38.43778 -38.43721
  Beta  occ. eigenvalues --  -38.43650 -38.43583  -2.19854  -2.19739  -2.19644
  Beta  occ. eigenvalues --   -2.19574  -2.19568  -2.19480  -2.19454  -1.13556
  Beta  occ. eigenvalues --   -1.13548  -1.13542  -1.13508  -1.13419  -1.13389
  Beta  occ. eigenvalues --   -1.13326  -1.13305  -1.13287  -1.13271  -1.13241
  Beta  occ. eigenvalues --   -1.13233  -1.13223  -1.13215  -1.13209  -1.13133
  Beta  occ. eigenvalues --   -1.13133  -1.13123  -1.13094  -1.13087  -1.13072
  Beta  occ. eigenvalues --   -0.17382  -0.12757  -0.12087
  Beta virt. eigenvalues --   -0.07395  -0.05387  -0.05186  -0.04127  -0.03304
  Beta virt. eigenvalues --   -0.02502  -0.01981  -0.01386  -0.00893  -0.00177
  Beta virt. eigenvalues --   -0.00005   0.00066   0.00416   0.00766   0.00836

 Mulliken charges and spin densities:
               1          2
     1  Na  -0.182662   0.062662
     2  Na   0.088806  -0.013968
     3  Na   0.151561  -0.128208
     4  Na  -0.345147   0.506372
     5  Na   0.665932  -0.008541
     6  Na  -0.355828   0.383032
     7  Na  -0.022663   0.198651
 Sum of Mulliken charges =  -0.00000   1.00000

 Dipole moment (field-independent basis, Debye):
    X=             -0.0429    Y=             -0.1100    Z=              0.0601  Tot=              0.1324
 Quadrupole moment (field-independent basis, Debye-Ang):
   XX=            -58.6514   YY=            -69.9845   ZZ=            -67.8895
   XY=              0.2900   XZ=             -0.6918   YZ=             -1.6225

 Normal termination of Gaussian 16 at Mon Dec  4 01:07:18 2023.
