 Gaussian 16, Revision B.01,
 Gaussian 16:  ES64L-G16RevB.01 20-Dec-2017

 -------------------------
 #P B3LYP/6-311+g(d) force
 -------------------------

 -----
 DPGEN
 -----
 Symbolic Z-matrix:
 Charge =  0 Multiplicity = 2

                         Standard orientation:
 ---------------------------------------------------------------------
 Center     Atomic      Atomic             Coordinates (Angstroms)
 Number     Number       Type             X           Y           Z
 ---------------------------------------------------------------------
      1         11           0       -1.928688    1.859552   -0.770632
      2         11           0        1.078518    2.642050   -0.141331
      3         11           0        3.683790    0.613843    0.190704
      4         11           0       -0.127777   -0.925247    1.805475
      5         11           0       -3.523144   -0.237145    0.892630
      6         11           0       -1.252121   -1.716836   -1.634812
      7         11           0        2.069422   -2.236217   -0.342034
 ---------------------------------------------------------------------

 SCF Done:  E(UB3LYP) =  -1136.12320962     A.U. after   21 cycles

 The electronic state is 2-A.
 Alpha  occ. eigenvalues --  -38.44948 -38.44842 -38.44471 -38.43836 -38.43779
 Alpha  occ. eigenvalues --  -38.43744 -38.43319  -2.20749  -2.20689  -2.20302
 Alpha  occ. eigenvalues --   -2.19670  -2.19618  -2.19616  -2.19139  -1.14424
 Alpha  occ. eigenvalues --   -1.14406  -1.14394  -1.14376  -1.14332  -1.14320
 Alpha  occ. eigenvalues --   -1.13980  -1.13959  -1.13925  -1.13343  -1.13319
 Alpha  occ. eigenvalues --   -1.13313  -1.13300  -1.13290  -1.13278  -1.13275
 Alpha  occ. eigenvalues --   -1.13252  -1.13244  -1.12814  -1.12800  -1.12785
 Alpha  occ. eigenvalues --   -0.17861  -0.13946  -0.12192  -0.10548
 Alpha virt. eigenvalues --   -0.07011  -0.05787  -0.04325  -0.03527  -0.02698
 Alpha virt. eigenvalues --   -0.02556  -0.02217  -0.01313  -0.00599  -0.00388
 Alpha virt. eigenvalues --   -0.00149   0.00189   0.00342   0.00622   0.00761

  Beta  occ. eigenvalues --  -38.44948 -38.44810 -38.44419 -38.43775 -38.43768
  Beta  occ. eigenvalues --  -38.43726 -38.43318  -2.20749  -2.20632  -2.20208
  Beta  occ. eigenvalues --   -2.19612  -2.19586  -2.19544  -2.19139  -1.14423
  Beta  occ. eigenvalues --   -1.14409  -1.14392  -1.14341  -1.14285  -1.14270
  Beta  occ. eigenvalues --   -1.13914  -1.13894  -1.13850  -1.13297  -1.13291
  Beta  occ. eigenvalues --   -1.13280  -1.13258  -1.13246  -1.13238  -1.13223
  Beta  occ. eigenvalues --   -1.13220  -1.13189  -1.12814  -1.12795  -1.12780
  Beta  occ. eigenvalues --   -0.17274  -0.13785  -0.11920
  Beta virt. eigenvalues --   -0.06961  -0.06677  -0.05710  -0.03878  -0.03141
  Beta virt. eigenvalues --   -0.02354  -0.02128  -0.01464  -0.01273  -0.00533
  Beta virt. eigenvalues --   -0.00121  -0.00073   0.00252   0.00525   0.00742

 Mulliken charges and spin densities:
               1          2
     1  Na  -0.221129   0.251627
     2  Na  -0.089517  -0.089026
     3  Na   0.043965   0.008837
     4  Na  -0.467436   0.350439
     5  Na   0.726999   0.096903
     6  Na  -0.167360   0.323257
     7  Na   0.174478   0.057963
 Sum of Mulliken charges =  -0.00000   1.00000

 Dipole moment (field-independent basis, Debye):
    X=              0.0937    Y=             -0.4728    Z=              0.1573  Tot=              0.5070
 Quadrupole moment (field-independent basis, Debye-Ang):
   XX=            -49.2198   YY=            -73.4501   ZZ=            -74.0709
   XY=             -0.7817   XZ=              0.1231   YZ=              0.8840

 Normal termination of Gaussian 16 at Fri Dec  8 18:15:04 2023.
