 Gaussian 16, Revision B.01,
 Gaussian 16:  ES64L-G16RevB.01 20-Dec-2017

 -------------------------
 #P B3LYP/6-311+g(d) force
 -------------------------

 -----
 DPGEN
 -----
 Symbolic Z-matrix:
 Charge =  0 Multiplicity = 2

                         Standard orientation:
 ---------------------------------------------------------------------
 Center     Atomic      Atomic             Coordinates (Angstroms)
 Number     Number       Type             X           Y           Z
 ---------------------------------------------------------------------
      1         11           0       -1.280701   -2.490113    0.070434
      2         11           0        0.162258   -0.260108   -1.599770
      3         11           0        2.443194   -1.705030   -0.147612
      4         11           0        0.173773   -0.245238    2.053176
      5         11           0       -0.919631    2.593808    0.199186
      6         11           0       -3.022179    0.311122   -0.355453
      7         11           0        2.443285    1.795559   -0.219961
 ---------------------------------------------------------------------

 SCF Done:  E(UB3LYP) =  -1136.13732654     A.U. after   19 cycles

 The electronic state is 2-A.
 Alpha  occ. eigenvalues --  -38.43818 -38.43753 -38.43698 -38.43578 -38.43345
 Alpha  occ. eigenvalues --  -38.43162 -38.43102  -2.19700  -2.19631  -2.19548
 Alpha  occ. eigenvalues --   -2.19498  -2.19248  -2.19200  -2.18984  -1.13432
 Alpha  occ. eigenvalues --   -1.13365  -1.13318  -1.13317  -1.13294  -1.13280
 Alpha  occ. eigenvalues --   -1.13234  -1.13206  -1.13182  -1.13169  -1.13125
 Alpha  occ. eigenvalues --   -1.13116  -1.12993  -1.12910  -1.12864  -1.12856
 Alpha  occ. eigenvalues --   -1.12826  -1.12792  -1.12657  -1.12642  -1.12623
 Alpha  occ. eigenvalues --   -0.19110  -0.13216  -0.12528  -0.10969
 Alpha virt. eigenvalues --   -0.05415  -0.05252  -0.04439  -0.03235  -0.02932
 Alpha virt. eigenvalues --   -0.02663  -0.01416  -0.01080  -0.00184  -0.00086
 Alpha virt. eigenvalues --    0.00017   0.00360   0.00831   0.00903   0.00949

  Beta  occ. eigenvalues --  -38.43810 -38.43747 -38.43694 -38.43478 -38.43337
  Beta  occ. eigenvalues --  -38.43099 -38.43097  -2.19690  -2.19623  -2.19543
  Beta  occ. eigenvalues --   -2.19314  -2.19237  -2.19087  -2.18978  -1.13418
  Beta  occ. eigenvalues --   -1.13338  -1.13315  -1.13308  -1.13287  -1.13258
  Beta  occ. eigenvalues --   -1.13225  -1.13190  -1.13178  -1.13055  -1.12998
  Beta  occ. eigenvalues --   -1.12988  -1.12962  -1.12875  -1.12850  -1.12785
  Beta  occ. eigenvalues --   -1.12748  -1.12720  -1.12653  -1.12624  -1.12611
  Beta  occ. eigenvalues --   -0.18370  -0.12950  -0.12279
  Beta virt. eigenvalues --   -0.07007  -0.05402  -0.05226  -0.04414  -0.02439
  Beta virt. eigenvalues --   -0.02122  -0.01562  -0.01331  -0.01035  -0.00220
  Beta virt. eigenvalues --   -0.00116   0.00133   0.00385   0.00881   0.00911

 Mulliken charges and spin densities:
               1          2
     1  Na   0.423950  -0.007956
     2  Na  -0.484296   0.382401
     3  Na   0.390886  -0.054980
     4  Na  -0.585721   0.729291
     5  Na   0.145110   0.003023
     6  Na   0.041401  -0.007027
     7  Na   0.068669  -0.044752
 Sum of Mulliken charges =  -0.00000   1.00000

 Dipole moment (field-independent basis, Debye):
    X=              0.2342    Y=             -0.1384    Z=              0.1518  Tot=              0.3115
 Quadrupole moment (field-independent basis, Debye-Ang):
   XX=            -56.8414   YY=            -63.8267   ZZ=            -73.3594
   XY=              0.2522   XZ=              0.2176   YZ=             -0.0990

 Normal termination of Gaussian 16 at Tue Dec  5 23:46:40 2023.
