 Gaussian 16, Revision B.01,
 Gaussian 16:  ES64L-G16RevB.01 20-Dec-2017

 -------------------------
 #P B3LYP/6-311+g(d) force
 -------------------------

 -----
 DPGEN
 -----
 Symbolic Z-matrix:
 Charge =  0 Multiplicity = 2

                         Standard orientation:
 ---------------------------------------------------------------------
 Center     Atomic      Atomic             Coordinates (Angstroms)
 Number     Number       Type             X           Y           Z
 ---------------------------------------------------------------------
      1         11           0       -1.574879   -2.392672   -0.038740
      2         11           0       -0.136871    0.721450    2.070768
      3         11           0       -3.276264    0.198627   -0.011005
      4         11           0       -0.378879    2.853414   -0.547911
      5         11           0        0.085586   -0.369806   -1.549508
      6         11           0        2.889895    1.026777   -0.143049
      7         11           0        2.391411   -2.037792    0.219446
 ---------------------------------------------------------------------

 SCF Done:  E(UB3LYP) =  -1136.13298898     A.U. after   19 cycles

 The electronic state is 2-A.
 Alpha  occ. eigenvalues --  -38.44588 -38.44209 -38.43705 -38.43567 -38.43482
 Alpha  occ. eigenvalues --  -38.43145 -38.43123  -2.20417  -2.20069  -2.19555
 Alpha  occ. eigenvalues --   -2.19431  -2.19372  -2.19143  -2.18967  -1.14110
 Alpha  occ. eigenvalues --   -1.14078  -1.14048  -1.13765  -1.13737  -1.13701
 Alpha  occ. eigenvalues --   -1.13230  -1.13205  -1.13198  -1.13136  -1.13097
 Alpha  occ. eigenvalues --   -1.13065  -1.13050  -1.13014  -1.12998  -1.12816
 Alpha  occ. eigenvalues --   -1.12780  -1.12753  -1.12636  -1.12627  -1.12596
 Alpha  occ. eigenvalues --   -0.18595  -0.13432  -0.12235  -0.10586
 Alpha virt. eigenvalues --   -0.06070  -0.05156  -0.04469  -0.03311  -0.02926
 Alpha virt. eigenvalues --   -0.02341  -0.01811  -0.01047  -0.00428  -0.00310
 Alpha virt. eigenvalues --   -0.00018   0.00362   0.00762   0.00861   0.00898

  Beta  occ. eigenvalues --  -38.44586 -38.44204 -38.43701 -38.43481 -38.43477
  Beta  occ. eigenvalues --  -38.43109 -38.43085  -2.20417  -2.20063  -2.19550
  Beta  occ. eigenvalues --   -2.19366  -2.19271  -2.19035  -2.18945  -1.14113
  Beta  occ. eigenvalues --   -1.14057  -1.14050  -1.13765  -1.13706  -1.13701
  Beta  occ. eigenvalues --   -1.13227  -1.13198  -1.13184  -1.13118  -1.13005
  Beta  occ. eigenvalues --   -1.12993  -1.12983  -1.12952  -1.12935  -1.12743
  Beta  occ. eigenvalues --   -1.12705  -1.12679  -1.12615  -1.12591  -1.12581
  Beta  occ. eigenvalues --   -0.17889  -0.13227  -0.12005
  Beta virt. eigenvalues --   -0.06700  -0.06005  -0.05149  -0.04393  -0.02552
  Beta virt. eigenvalues --   -0.02175  -0.01714  -0.01326  -0.00980  -0.00466
  Beta virt. eigenvalues --   -0.00342   0.00149   0.00392   0.00815   0.00863

 Mulliken charges and spin densities:
               1          2
     1  Na   0.217463  -0.010617
     2  Na  -0.632812   0.699467
     3  Na   0.168173  -0.011148
     4  Na   0.094736  -0.033804
     5  Na  -0.138553   0.347964
     6  Na   0.266935  -0.001477
     7  Na   0.024058   0.009616
 Sum of Mulliken charges =  -0.00000   1.00000

 Dipole moment (field-independent basis, Debye):
    X=             -0.1326    Y=              0.1027    Z=              0.1766  Tot=              0.2435
 Quadrupole moment (field-independent basis, Debye-Ang):
   XX=            -53.8563   YY=            -64.7854   ZZ=            -74.9636
   XY=             -0.6731   XZ=              0.4237   YZ=             -2.3179

 Normal termination of Gaussian 16 at Fri Dec  8 04:45:38 2023.
