 Gaussian 16, Revision B.01,
 Gaussian 16:  ES64L-G16RevB.01 20-Dec-2017

 -------------------------
 #P B3LYP/6-311+g(d) force
 -------------------------

 -----
 DPGEN
 -----
 Symbolic Z-matrix:
 Charge =  0 Multiplicity = 2

                         Standard orientation:
 ---------------------------------------------------------------------
 Center     Atomic      Atomic             Coordinates (Angstroms)
 Number     Number       Type             X           Y           Z
 ---------------------------------------------------------------------
      1         11           0        2.952838   -0.696360   -0.137982
      2         11           0        1.477818    2.492468   -0.123023
      3         11           0        0.349489    0.140653    1.678663
      4         11           0       -2.882712   -1.006309   -0.129809
      5         11           0        0.138451   -2.781324    0.212595
      6         11           0        0.086744   -0.119238   -1.623065
      7         11           0       -2.122627    1.970110    0.122620
 ---------------------------------------------------------------------

 SCF Done:  E(UB3LYP) =  -1136.13700587     A.U. after   19 cycles

 The electronic state is 2-A.
 Alpha  occ. eigenvalues --  -38.44036 -38.43818 -38.43548 -38.43393 -38.43175
 Alpha  occ. eigenvalues --  -38.42906 -38.42893  -2.19925  -2.19693  -2.19436
 Alpha  occ. eigenvalues --   -2.19287  -2.19073  -2.18938  -2.18933  -1.13611
 Alpha  occ. eigenvalues --   -1.13599  -1.13549  -1.13415  -1.13353  -1.13334
 Alpha  occ. eigenvalues --   -1.13106  -1.13093  -1.13066  -1.12995  -1.12961
 Alpha  occ. eigenvalues --   -1.12903  -1.12802  -1.12753  -1.12691  -1.12657
 Alpha  occ. eigenvalues --   -1.12577  -1.12554  -1.12547  -1.12545  -1.12543
 Alpha  occ. eigenvalues --   -0.19345  -0.13391  -0.12633  -0.10528
 Alpha virt. eigenvalues --   -0.05657  -0.05098  -0.04618  -0.03120  -0.02743
 Alpha virt. eigenvalues --   -0.02114  -0.01564  -0.01087  -0.00249  -0.00168
 Alpha virt. eigenvalues --    0.00046   0.00364   0.00841   0.00912   0.00937

  Beta  occ. eigenvalues --  -38.44027 -38.43816 -38.43544 -38.43385 -38.43166
  Beta  occ. eigenvalues --  -38.42826 -38.42820  -2.19914  -2.19691  -2.19431
  Beta  occ. eigenvalues --   -2.19277  -2.19061  -2.18801  -2.18793  -1.13607
  Beta  occ. eigenvalues --   -1.13560  -1.13542  -1.13417  -1.13342  -1.13321
  Beta  occ. eigenvalues --   -1.13102  -1.13071  -1.13060  -1.12988  -1.12924
  Beta  occ. eigenvalues --   -1.12898  -1.12786  -1.12708  -1.12687  -1.12571
  Beta  occ. eigenvalues --   -1.12481  -1.12456  -1.12453  -1.12445  -1.12439
  Beta  occ. eigenvalues --   -0.18619  -0.13127  -0.12354
  Beta virt. eigenvalues --   -0.06591  -0.05630  -0.05096  -0.04617  -0.02310
  Beta virt. eigenvalues --   -0.01944  -0.01489  -0.01077  -0.01029  -0.00293
  Beta virt. eigenvalues --   -0.00227   0.00172   0.00388   0.00871   0.00916

 Mulliken charges and spin densities:
               1          2
     1  Na   0.312345  -0.061683
     2  Na   0.178942  -0.093621
     3  Na  -0.413724   0.697903
     4  Na   0.069190  -0.044073
     5  Na   0.160257  -0.076080
     6  Na  -0.447120   0.648910
     7  Na   0.140109  -0.071355
 Sum of Mulliken charges =  -0.00000   1.00000

 Dipole moment (field-independent basis, Debye):
    X=              0.1539    Y=             -0.0142    Z=             -0.0053  Tot=              0.1547
 Quadrupole moment (field-independent basis, Debye-Ang):
   XX=            -54.8534   YY=            -61.6619   ZZ=            -75.7493
   XY=              0.1662   XZ=             -0.5501   YZ=             -0.4947

 Normal termination of Gaussian 16 at Wed Nov 29 03:35:48 2023.
