 Gaussian 16, Revision B.01,
 Gaussian 16:  ES64L-G16RevB.01 20-Dec-2017

 -------------------------
 #P B3LYP/6-311+g(d) force
 -------------------------

 -----
 DPGEN
 -----
 Symbolic Z-matrix:
 Charge =  0 Multiplicity = 2

                         Standard orientation:
 ---------------------------------------------------------------------
 Center     Atomic      Atomic             Coordinates (Angstroms)
 Number     Number       Type             X           Y           Z
 ---------------------------------------------------------------------
      1         11           0       -2.685462    2.337948    0.209259
      2         11           0        1.253023    2.463863   -0.453279
      3         11           0        0.396666    0.051012    1.422377
      4         11           0        2.080144   -1.677901    0.124141
      5         11           0       -4.122708   -0.854460   -0.686287
      6         11           0       -1.593169   -2.231337   -0.056948
      7         11           0        4.671506   -0.089126   -0.559263
 ---------------------------------------------------------------------

 SCF Done:  E(UB3LYP) =  -1136.11203001     A.U. after   21 cycles

 The electronic state is 2-A.
 Alpha  occ. eigenvalues --  -38.44748 -38.44493 -38.44480 -38.44264 -38.44104
 Alpha  occ. eigenvalues --  -38.43992 -38.43494  -2.20584  -2.20466  -2.20240
 Alpha  occ. eigenvalues --   -2.20055  -2.19956  -2.19931  -2.19363  -1.14324
 Alpha  occ. eigenvalues --   -1.14251  -1.14214  -1.14188  -1.14101  -1.14083
 Alpha  occ. eigenvalues --   -1.13937  -1.13906  -1.13866  -1.13739  -1.13733
 Alpha  occ. eigenvalues --   -1.13684  -1.13649  -1.13592  -1.13589  -1.13566
 Alpha  occ. eigenvalues --   -1.13562  -1.13522  -1.13032  -1.13024  -1.13002
 Alpha  occ. eigenvalues --   -0.17663  -0.14380  -0.11910  -0.11292
 Alpha virt. eigenvalues --   -0.06488  -0.05237  -0.04721  -0.03660  -0.02879
 Alpha virt. eigenvalues --   -0.02473  -0.01731  -0.01528  -0.00783  -0.00606
 Alpha virt. eigenvalues --   -0.00233   0.00140   0.00402   0.00524   0.00679

  Beta  occ. eigenvalues --  -38.44647 -38.44494 -38.44419 -38.44257 -38.44058
  Beta  occ. eigenvalues --  -38.43976 -38.43489  -2.20395  -2.20358  -2.20244
  Beta  occ. eigenvalues --   -2.20044  -2.19911  -2.19870  -2.19359  -1.14258
  Beta  occ. eigenvalues --   -1.14127  -1.14085  -1.14060  -1.14029  -1.14000
  Beta  occ. eigenvalues --   -1.13941  -1.13911  -1.13853  -1.13727  -1.13722
  Beta  occ. eigenvalues --   -1.13641  -1.13635  -1.13569  -1.13548  -1.13533
  Beta  occ. eigenvalues --   -1.13506  -1.13454  -1.13031  -1.13026  -1.12961
  Beta  occ. eigenvalues --   -0.17021  -0.13617  -0.11680
  Beta virt. eigenvalues --   -0.07777  -0.06348  -0.05011  -0.04008  -0.03536
  Beta virt. eigenvalues --   -0.02400  -0.02025  -0.01596  -0.01118  -0.00710
  Beta virt. eigenvalues --   -0.00252  -0.00139   0.00268   0.00575   0.00610

 Mulliken charges and spin densities:
               1          2
     1  Na  -0.098381   0.022060
     2  Na  -0.331178  -0.051769
     3  Na   0.310642   0.259362
     4  Na  -0.127405   0.104658
     5  Na   0.172414   0.365240
     6  Na  -0.376223  -0.164726
     7  Na   0.450132   0.465175
 Sum of Mulliken charges =  -0.00000   1.00000

 Dipole moment (field-independent basis, Debye):
    X=              0.2478    Y=              0.6438    Z=             -0.1861  Tot=              0.7145
 Quadrupole moment (field-independent basis, Debye-Ang):
   XX=            -59.8560   YY=            -70.6447   ZZ=            -69.2405
   XY=              0.5022   XZ=             -0.5934   YZ=             -0.4066

 Normal termination of Gaussian 16 at Tue Dec  5 16:36:21 2023.
