 Gaussian 16, Revision B.01,
 Gaussian 16:  ES64L-G16RevB.01 20-Dec-2017

 -------------------------
 #P B3LYP/6-311+g(d) force
 -------------------------

 -----
 DPGEN
 -----
 Symbolic Z-matrix:
 Charge =  0 Multiplicity = 2

                         Standard orientation:
 ---------------------------------------------------------------------
 Center     Atomic      Atomic             Coordinates (Angstroms)
 Number     Number       Type             X           Y           Z
 ---------------------------------------------------------------------
      1         11           0       -2.020900    0.384093    1.440904
      2         11           0       -2.476340   -2.306995   -0.828488
      3         11           0       -0.808903    3.310978   -0.527952
      4         11           0        1.358567    0.727704    1.831427
      5         11           0        3.534080   -0.517957   -0.757967
      6         11           0       -0.166397    0.656571   -1.735668
      7         11           0        0.579894   -2.254394    0.577744
 ---------------------------------------------------------------------

 SCF Done:  E(UB3LYP) =  -1136.13361284     A.U. after   19 cycles

 The electronic state is 2-A.
 Alpha  occ. eigenvalues --  -38.43987 -38.43970 -38.43898 -38.43764 -38.43565
 Alpha  occ. eigenvalues --  -38.43429 -38.43326  -2.19851  -2.19776  -2.19755
 Alpha  occ. eigenvalues --   -2.19670  -2.19434  -2.19267  -2.19149  -1.13566
 Alpha  occ. eigenvalues --   -1.13509  -1.13476  -1.13454  -1.13428  -1.13419
 Alpha  occ. eigenvalues --   -1.13411  -1.13393  -1.13387  -1.13358  -1.13329
 Alpha  occ. eigenvalues --   -1.13287  -1.13140  -1.13124  -1.13032  -1.12941
 Alpha  occ. eigenvalues --   -1.12906  -1.12884  -1.12812  -1.12805  -1.12783
 Alpha  occ. eigenvalues --   -0.18234  -0.12567  -0.12338  -0.11411
 Alpha virt. eigenvalues --   -0.05498  -0.04992  -0.04620  -0.03314  -0.03148
 Alpha virt. eigenvalues --   -0.02887  -0.01466  -0.01151  -0.00692   0.00069
 Alpha virt. eigenvalues --    0.00268   0.00321   0.00623   0.00773   0.00808

  Beta  occ. eigenvalues --  -38.43959 -38.43944 -38.43837 -38.43705 -38.43557
  Beta  occ. eigenvalues --  -38.43423 -38.43316  -2.19775  -2.19734  -2.19667
  Beta  occ. eigenvalues --   -2.19561  -2.19424  -2.19259  -2.19131  -1.13502
  Beta  occ. eigenvalues --   -1.13440  -1.13410  -1.13409  -1.13401  -1.13396
  Beta  occ. eigenvalues --   -1.13373  -1.13335  -1.13315  -1.13283  -1.13252
  Beta  occ. eigenvalues --   -1.13209  -1.13128  -1.13090  -1.13031  -1.12916
  Beta  occ. eigenvalues --   -1.12902  -1.12875  -1.12798  -1.12786  -1.12774
  Beta  occ. eigenvalues --   -0.17454  -0.12416  -0.12132
  Beta virt. eigenvalues --   -0.07465  -0.05298  -0.04841  -0.04392  -0.02879
  Beta virt. eigenvalues --   -0.02590  -0.01956  -0.01364  -0.01074  -0.00324
  Beta virt. eigenvalues --    0.00062   0.00356   0.00365   0.00775   0.00794

 Mulliken charges and spin densities:
               1          2
     1  Na  -0.002934   0.229990
     2  Na   0.354184  -0.104224
     3  Na  -0.056743  -0.109559
     4  Na   0.212769   0.262408
     5  Na   0.003521  -0.089339
     6  Na  -0.262191   0.649538
     7  Na  -0.248607   0.161186
 Sum of Mulliken charges =  -0.00000   1.00000

 Dipole moment (field-independent basis, Debye):
    X=              0.2056    Y=              0.1372    Z=              0.0313  Tot=              0.2492
 Quadrupole moment (field-independent basis, Debye-Ang):
   XX=            -60.5773   YY=            -65.1256   ZZ=            -68.5525
   XY=              0.3050   XZ=             -1.7252   YZ=              2.3007

 Normal termination of Gaussian 16 at Tue Dec  5 14:02:15 2023.
