 Gaussian 16, Revision B.01,
 Gaussian 16:  ES64L-G16RevB.01 20-Dec-2017

 -------------------------
 #P B3LYP/6-311+g(d) force
 -------------------------

 -----
 DPGEN
 -----
 Symbolic Z-matrix:
 Charge =  0 Multiplicity = 2

                         Standard orientation:
 ---------------------------------------------------------------------
 Center     Atomic      Atomic             Coordinates (Angstroms)
 Number     Number       Type             X           Y           Z
 ---------------------------------------------------------------------
      1         11           0       -0.458105   -2.688364   -0.169792
      2         11           0       -4.349669   -2.037043   -0.116959
      3         11           0        5.861326    0.221909   -1.112898
      4         11           0        7.845376    1.442062    0.911753
      5         11           0        1.984958   -0.682138    0.043338
      6         11           0       -5.903783    2.932627   -0.986721
      7         11           0       -4.980103    0.810948    1.431278
 ---------------------------------------------------------------------

 SCF Done:  E(UB3LYP) =  -1136.10494286     A.U. after   18 cycles

 The electronic state is 2-A.
 Alpha  occ. eigenvalues --  -38.45020 -38.44740 -38.44571 -38.44511 -38.44184
 Alpha  occ. eigenvalues --  -38.43986 -38.43839  -2.20810  -2.20544  -2.20363
 Alpha  occ. eigenvalues --   -2.20302  -2.19971  -2.19786  -2.19612  -1.14452
 Alpha  occ. eigenvalues --   -1.14450  -1.14429  -1.14209  -1.14186  -1.14162
 Alpha  occ. eigenvalues --   -1.14037  -1.14022  -1.14013  -1.13986  -1.13951
 Alpha  occ. eigenvalues --   -1.13949  -1.13635  -1.13627  -1.13607  -1.13457
 Alpha  occ. eigenvalues --   -1.13440  -1.13435  -1.13290  -1.13277  -1.13243
 Alpha  occ. eigenvalues --   -0.15145  -0.13991  -0.12714  -0.11163
 Alpha virt. eigenvalues --   -0.06773  -0.05650  -0.04207  -0.03356  -0.03039
 Alpha virt. eigenvalues --   -0.02581  -0.02380  -0.01917  -0.01435  -0.01313
 Alpha virt. eigenvalues --   -0.00720  -0.00481  -0.00211   0.00196   0.00486

  Beta  occ. eigenvalues --  -38.44932 -38.44654 -38.44584 -38.44490 -38.44190
  Beta  occ. eigenvalues --  -38.43938 -38.43856  -2.20645  -2.20393  -2.20383
  Beta  occ. eigenvalues --   -2.20262  -2.19984  -2.19695  -2.19648  -1.14339
  Beta  occ. eigenvalues --   -1.14336  -1.14324  -1.14120  -1.14079  -1.14066
  Beta  occ. eigenvalues --   -1.14056  -1.14030  -1.13983  -1.13962  -1.13924
  Beta  occ. eigenvalues --   -1.13922  -1.13645  -1.13636  -1.13601  -1.13414
  Beta  occ. eigenvalues --   -1.13378  -1.13374  -1.13318  -1.13300  -1.13227
  Beta  occ. eigenvalues --   -0.14445  -0.13615  -0.12245
  Beta virt. eigenvalues --   -0.07948  -0.06304  -0.05233  -0.04012  -0.03184
  Beta virt. eigenvalues --   -0.02701  -0.02481  -0.02115  -0.01687  -0.01157
  Beta virt. eigenvalues --   -0.00912  -0.00515  -0.00286   0.00058   0.00310

 Mulliken charges and spin densities:
               1          2
     1  Na   0.072521   0.006684
     2  Na   0.076993   0.343088
     3  Na  -0.024529  -0.039096
     4  Na   0.139717   0.092632
     5  Na  -0.233266   0.172553
     6  Na   0.203230   0.436190
     7  Na  -0.234664  -0.012050
 Sum of Mulliken charges =  -0.00000   1.00000

 Dipole moment (field-independent basis, Debye):
    X=             -0.6455    Y=              0.8951    Z=              0.0282  Tot=              1.1039
 Quadrupole moment (field-independent basis, Debye-Ang):
   XX=            -58.1149   YY=            -68.0380   ZZ=            -64.7258
   XY=              3.4854   XZ=              7.6513   YZ=              1.8674

 Normal termination of Gaussian 16 at Sun Dec  3 20:00:37 2023.
