 Gaussian 16, Revision B.01,
 Gaussian 16:  ES64L-G16RevB.01 20-Dec-2017

 -------------------------
 #P B3LYP/6-311+g(d) force
 -------------------------

 -----
 DPGEN
 -----
 Symbolic Z-matrix:
 Charge =  0 Multiplicity = 2

                         Standard orientation:
 ---------------------------------------------------------------------
 Center     Atomic      Atomic             Coordinates (Angstroms)
 Number     Number       Type             X           Y           Z
 ---------------------------------------------------------------------
      1         11           0        2.049442   -2.034909   -0.053717
      2         11           0       -0.207206   -0.139135   -2.012245
      3         11           0       -1.631061   -2.375180    0.394962
      4         11           0        2.880558    0.958754   -0.386952
      5         11           0       -2.830021    0.303764   -0.227853
      6         11           0        0.359803    0.415954    2.270228
      7         11           0       -0.621515    2.870752    0.015576
 ---------------------------------------------------------------------

 SCF Done:  E(UB3LYP) =  -1136.13532284     A.U. after   19 cycles

 The electronic state is 2-A.
 Alpha  occ. eigenvalues --  -38.44304 -38.44036 -38.44000 -38.43662 -38.43477
 Alpha  occ. eigenvalues --  -38.43272 -38.43071  -2.20152  -2.19950  -2.19843
 Alpha  occ. eigenvalues --   -2.19578  -2.19337  -2.19142  -2.18907  -1.13806
 Alpha  occ. eigenvalues --   -1.13781  -1.13779  -1.13635  -1.13601  -1.13570
 Alpha  occ. eigenvalues --   -1.13535  -1.13505  -1.13474  -1.13298  -1.13247
 Alpha  occ. eigenvalues --   -1.13204  -1.13009  -1.12996  -1.12976  -1.12811
 Alpha  occ. eigenvalues --   -1.12784  -1.12776  -1.12582  -1.12572  -1.12549
 Alpha  occ. eigenvalues --   -0.18624  -0.13180  -0.12139  -0.11479
 Alpha virt. eigenvalues --   -0.05443  -0.04931  -0.04515  -0.03632  -0.03313
 Alpha virt. eigenvalues --   -0.03053  -0.01241  -0.00872  -0.00178  -0.00091
 Alpha virt. eigenvalues --   -0.00020   0.00415   0.00785   0.00825   0.00906

  Beta  occ. eigenvalues --  -38.44211 -38.43995 -38.43961 -38.43657 -38.43474
  Beta  occ. eigenvalues --  -38.43264 -38.43070  -2.19981  -2.19835  -2.19813
  Beta  occ. eigenvalues --   -2.19572  -2.19334  -2.19130  -2.18908  -1.13694
  Beta  occ. eigenvalues --   -1.13661  -1.13653  -1.13548  -1.13538  -1.13504
  Beta  occ. eigenvalues --   -1.13480  -1.13467  -1.13466  -1.13296  -1.13223
  Beta  occ. eigenvalues --   -1.13194  -1.13007  -1.12982  -1.12967  -1.12805
  Beta  occ. eigenvalues --   -1.12771  -1.12755  -1.12583  -1.12557  -1.12547
  Beta  occ. eigenvalues --   -0.17849  -0.12962  -0.11926
  Beta virt. eigenvalues --   -0.07550  -0.05376  -0.04897  -0.04366  -0.02860
  Beta virt. eigenvalues --   -0.02464  -0.02125  -0.01148  -0.00798  -0.00161
  Beta virt. eigenvalues --   -0.00098   0.00056   0.00443   0.00897   0.00939

 Mulliken charges and spin densities:
               1          2
     1  Na   0.099237   0.008511
     2  Na  -0.274912   0.428839
     3  Na   0.018137   0.035519
     4  Na   0.221661  -0.064104
     5  Na   0.371076   0.040970
     6  Na  -0.574370   0.634376
     7  Na   0.139171  -0.084111
 Sum of Mulliken charges =  -0.00000   1.00000

 Dipole moment (field-independent basis, Debye):
    X=              0.3250    Y=              0.0964    Z=              0.0678  Tot=              0.3458
 Quadrupole moment (field-independent basis, Debye-Ang):
   XX=            -61.4186   YY=            -66.2947   ZZ=            -69.1529
   XY=              0.4314   XZ=             -0.7596   YZ=             -1.4479

 Normal termination of Gaussian 16 at Thu Dec  7 07:54:50 2023.
