 Gaussian 16, Revision B.01,
 Gaussian 16:  ES64L-G16RevB.01 20-Dec-2017

 -------------------------
 #P B3LYP/6-311+g(d) force
 -------------------------

 -----
 DPGEN
 -----
 Symbolic Z-matrix:
 Charge =  0 Multiplicity = 2

                         Standard orientation:
 ---------------------------------------------------------------------
 Center     Atomic      Atomic             Coordinates (Angstroms)
 Number     Number       Type             X           Y           Z
 ---------------------------------------------------------------------
      1         11           0        0.085197    0.110581    1.905737
      2         11           0       -0.233637    0.337434   -1.769256
      3         11           0        3.328836   -0.751117   -0.274462
      4         11           0        0.450281   -2.665605    0.274728
      5         11           0       -2.383820    1.793304    0.320929
      6         11           0        1.618562    2.545275   -0.074084
      7         11           0       -2.865419   -1.369872   -0.383593
 ---------------------------------------------------------------------

 SCF Done:  E(UB3LYP) =  -1136.13606517     A.U. after   19 cycles

 The electronic state is 2-A.
 Alpha  occ. eigenvalues --  -38.44600 -38.43900 -38.43875 -38.43510 -38.43457
 Alpha  occ. eigenvalues --  -38.43415 -38.42925  -2.20382  -2.19748  -2.19744
 Alpha  occ. eigenvalues --   -2.19443  -2.19347  -2.19286  -2.18786  -1.14059
 Alpha  occ. eigenvalues --   -1.14033  -1.14024  -1.13474  -1.13426  -1.13417
 Alpha  occ. eigenvalues --   -1.13403  -1.13386  -1.13339  -1.13132  -1.13087
 Alpha  occ. eigenvalues --   -1.13066  -1.13023  -1.12998  -1.12970  -1.12955
 Alpha  occ. eigenvalues --   -1.12933  -1.12909  -1.12482  -1.12449  -1.12404
 Alpha  occ. eigenvalues --   -0.18607  -0.13236  -0.12132  -0.10762
 Alpha virt. eigenvalues --   -0.06051  -0.05310  -0.04221  -0.03329  -0.02786
 Alpha virt. eigenvalues --   -0.02534  -0.01838  -0.01181  -0.00373  -0.00217
 Alpha virt. eigenvalues --   -0.00014   0.00333   0.00739   0.00823   0.00888

  Beta  occ. eigenvalues --  -38.44598 -38.43891 -38.43864 -38.43454 -38.43444
  Beta  occ. eigenvalues --  -38.43324 -38.42917  -2.20380  -2.19735  -2.19729
  Beta  occ. eigenvalues --   -2.19322  -2.19283  -2.19181  -2.18775  -1.14050
  Beta  occ. eigenvalues --   -1.14030  -1.14023  -1.13468  -1.13405  -1.13394
  Beta  occ. eigenvalues --   -1.13380  -1.13366  -1.13330  -1.13054  -1.13012
  Beta  occ. eigenvalues --   -1.12983  -1.12954  -1.12924  -1.12911  -1.12906
  Beta  occ. eigenvalues --   -1.12855  -1.12842  -1.12469  -1.12422  -1.12401
  Beta  occ. eigenvalues --   -0.17875  -0.13006  -0.11880
  Beta virt. eigenvalues --   -0.06878  -0.05975  -0.05293  -0.04195  -0.02580
  Beta virt. eigenvalues --   -0.02020  -0.01735  -0.01496  -0.01117  -0.00425
  Beta virt. eigenvalues --   -0.00218   0.00109   0.00362   0.00806   0.00826

 Mulliken charges and spin densities:
               1          2
     1  Na  -0.165988   0.655524
     2  Na  -0.255415   0.598360
     3  Na  -0.085422  -0.058815
     4  Na   0.071570  -0.057026
     5  Na   0.298273  -0.043147
     6  Na   0.057254  -0.114259
     7  Na   0.079728   0.019363
 Sum of Mulliken charges =  -0.00000   1.00000

 Dipole moment (field-independent basis, Debye):
    X=              0.1754    Y=              0.1481    Z=             -0.0846  Tot=              0.2447
 Quadrupole moment (field-independent basis, Debye-Ang):
   XX=            -52.7955   YY=            -65.9862   ZZ=            -74.2399
   XY=              0.1198   XZ=             -0.7900   YZ=              1.0446

 Normal termination of Gaussian 16 at Thu Dec  7 07:53:09 2023.
