 Gaussian 16, Revision B.01,
 Gaussian 16:  ES64L-G16RevB.01 20-Dec-2017

 -------------------------
 #P B3LYP/6-311+g(d) force
 -------------------------

 -----
 DPGEN
 -----
 Symbolic Z-matrix:
 Charge =  0 Multiplicity = 2

                         Standard orientation:
 ---------------------------------------------------------------------
 Center     Atomic      Atomic             Coordinates (Angstroms)
 Number     Number       Type             X           Y           Z
 ---------------------------------------------------------------------
      1         11           0       -3.013249   -0.302304   -0.242200
      2         11           0        0.362866    0.058363   -1.790365
      3         11           0       -0.819192   -2.699499    0.068199
      4         11           0       -1.280217    2.348683   -0.067819
      5         11           0        1.905503    2.227108    0.201217
      6         11           0        2.920446   -1.503287   -0.118494
      7         11           0       -0.076156   -0.129063    1.949462
 ---------------------------------------------------------------------

 SCF Done:  E(UB3LYP) =  -1136.13781255     A.U. after   19 cycles

 The electronic state is 2-A.
 Alpha  occ. eigenvalues --  -38.44064 -38.43654 -38.43615 -38.43496 -38.43491
 Alpha  occ. eigenvalues --  -38.43335 -38.43054  -2.19857  -2.19536  -2.19491
 Alpha  occ. eigenvalues --   -2.19431  -2.19361  -2.19295  -2.18995  -1.13538
 Alpha  occ. eigenvalues --   -1.13510  -1.13498  -1.13228  -1.13214  -1.13197
 Alpha  occ. eigenvalues --   -1.13186  -1.13162  -1.13127  -1.13124  -1.13084
 Alpha  occ. eigenvalues --   -1.13042  -1.13031  -1.13002  -1.12975  -1.12971
 Alpha  occ. eigenvalues --   -1.12923  -1.12912  -1.12665  -1.12644  -1.12631
 Alpha  occ. eigenvalues --   -0.18985  -0.12983  -0.12608  -0.10924
 Alpha virt. eigenvalues --   -0.05624  -0.05105  -0.04481  -0.03201  -0.03013
 Alpha virt. eigenvalues --   -0.02624  -0.01490  -0.01099  -0.00218  -0.00086
 Alpha virt. eigenvalues --   -0.00020   0.00362   0.00819   0.00908   0.00949

  Beta  occ. eigenvalues --  -38.44063 -38.43649 -38.43609 -38.43484 -38.43407
  Beta  occ. eigenvalues --  -38.43262 -38.43045  -2.19857  -2.19529  -2.19483
  Beta  occ. eigenvalues --   -2.19353  -2.19266  -2.19162  -2.18983  -1.13524
  Beta  occ. eigenvalues --   -1.13509  -1.13500  -1.13227  -1.13210  -1.13190
  Beta  occ. eigenvalues --   -1.13155  -1.13126  -1.13122  -1.13068  -1.13005
  Beta  occ. eigenvalues --   -1.12986  -1.12972  -1.12929  -1.12916  -1.12889
  Beta  occ. eigenvalues --   -1.12833  -1.12815  -1.12658  -1.12630  -1.12595
  Beta  occ. eigenvalues --   -0.18225  -0.12745  -0.12346
  Beta virt. eigenvalues --   -0.06990  -0.05612  -0.05053  -0.04478  -0.02405
  Beta virt. eigenvalues --   -0.02202  -0.01591  -0.01384  -0.01024  -0.00264
  Beta virt. eigenvalues --   -0.00142   0.00113   0.00379   0.00845   0.00920

 Mulliken charges and spin densities:
               1          2
     1  Na   0.087818  -0.005548
     2  Na  -0.415771   0.626410
     3  Na   0.214784  -0.088889
     4  Na   0.310117   0.040947
     5  Na   0.230733  -0.072439
     6  Na   0.033510  -0.156849
     7  Na  -0.461191   0.656369
 Sum of Mulliken charges =  -0.00000   1.00000

 Dipole moment (field-independent basis, Debye):
    X=              0.3639    Y=             -0.2262    Z=              0.0614  Tot=              0.4329
 Quadrupole moment (field-independent basis, Debye-Ang):
   XX=            -57.1315   YY=            -63.4201   ZZ=            -73.3455
   XY=              0.0688   XZ=              1.1361   YZ=              0.4543

 Normal termination of Gaussian 16 at Tue Dec  5 15:15:16 2023.
