 Gaussian 16, Revision B.01,
 Gaussian 16:  ES64L-G16RevB.01 20-Dec-2017

 -------------------------
 #P B3LYP/6-311+g(d) force
 -------------------------

 -----
 DPGEN
 -----
 Symbolic Z-matrix:
 Charge =  0 Multiplicity = 2

                         Standard orientation:
 ---------------------------------------------------------------------
 Center     Atomic      Atomic             Coordinates (Angstroms)
 Number     Number       Type             X           Y           Z
 ---------------------------------------------------------------------
      1         11           0        3.267410   -1.191972   -1.289271
      2         11           0       -2.378774   -2.063661    1.618248
      3         11           0        0.422579   -0.030771    1.928487
      4         11           0       -3.345270    0.878782   -1.566458
      5         11           0        3.145700    1.982558    0.607097
      6         11           0        0.184947   -2.529101   -1.070505
      7         11           0       -1.296591    2.954165   -0.227599
 ---------------------------------------------------------------------

 SCF Done:  E(UB3LYP) =  -1136.11841589     A.U. after   20 cycles

 The electronic state is 2-A.
 Alpha  occ. eigenvalues --  -38.44675 -38.44405 -38.44276 -38.44247 -38.44196
 Alpha  occ. eigenvalues --  -38.44164 -38.43860  -2.20489  -2.20201  -2.20065
 Alpha  occ. eigenvalues --   -2.20013  -2.19984  -2.19957  -2.19629  -1.14165
 Alpha  occ. eigenvalues --   -1.14150  -1.14098  -1.13874  -1.13866  -1.13819
 Alpha  occ. eigenvalues --   -1.13729  -1.13719  -1.13692  -1.13687  -1.13663
 Alpha  occ. eigenvalues --   -1.13654  -1.13652  -1.13637  -1.13630  -1.13627
 Alpha  occ. eigenvalues --   -1.13617  -1.13565  -1.13308  -1.13299  -1.13265
 Alpha  occ. eigenvalues --   -0.16625  -0.13161  -0.12210  -0.11372
 Alpha virt. eigenvalues --   -0.06267  -0.05351  -0.04919  -0.03614  -0.03201
 Alpha virt. eigenvalues --   -0.02425  -0.01942  -0.01324  -0.00886  -0.00619
 Alpha virt. eigenvalues --   -0.00387   0.00111   0.00291   0.00367   0.00599

  Beta  occ. eigenvalues --  -38.44612 -38.44359 -38.44234 -38.44231 -38.44167
  Beta  occ. eigenvalues --  -38.44135 -38.43870  -2.20372  -2.20118  -2.19990
  Beta  occ. eigenvalues --   -2.19981  -2.19932  -2.19907  -2.19650  -1.14090
  Beta  occ. eigenvalues --   -1.14075  -1.14002  -1.13813  -1.13809  -1.13758
  Beta  occ. eigenvalues --   -1.13674  -1.13667  -1.13664  -1.13645  -1.13639
  Beta  occ. eigenvalues --   -1.13635  -1.13607  -1.13604  -1.13597  -1.13593
  Beta  occ. eigenvalues --   -1.13586  -1.13510  -1.13322  -1.13315  -1.13262
  Beta  occ. eigenvalues --   -0.15998  -0.12667  -0.11838
  Beta virt. eigenvalues --   -0.07940  -0.06124  -0.04946  -0.04534  -0.03378
  Beta virt. eigenvalues --   -0.02691  -0.02010  -0.01744  -0.01081  -0.00632
  Beta virt. eigenvalues --   -0.00462  -0.00323   0.00257   0.00385   0.00530

 Mulliken charges and spin densities:
               1          2
     1  Na  -0.107615   0.109230
     2  Na   0.383237   0.033990
     3  Na  -0.397781   0.405655
     4  Na   0.025752   0.203061
     5  Na   0.456993   0.023475
     6  Na  -0.239997   0.283139
     7  Na  -0.120590  -0.058551
 Sum of Mulliken charges =  -0.00000   1.00000

 Dipole moment (field-independent basis, Debye):
    X=              0.0615    Y=             -0.2942    Z=             -0.0228  Tot=              0.3014
 Quadrupole moment (field-independent basis, Debye-Ang):
   XX=            -59.0449   YY=            -70.1396   ZZ=            -69.2601
   XY=              7.6510   XZ=             -1.3137   YZ=              2.2404

 Normal termination of Gaussian 16 at Mon Dec  4 04:40:21 2023.
