 Gaussian 16, Revision B.01,
 Gaussian 16:  ES64L-G16RevB.01 20-Dec-2017

 -------------------------
 #P B3LYP/6-311+g(d) force
 -------------------------

 -----
 DPGEN
 -----
 Symbolic Z-matrix:
 Charge =  0 Multiplicity = 2

                         Standard orientation:
 ---------------------------------------------------------------------
 Center     Atomic      Atomic             Coordinates (Angstroms)
 Number     Number       Type             X           Y           Z
 ---------------------------------------------------------------------
      1         11           0        3.806074    1.713041   -1.381186
      2         11           0        1.582380   -1.943605   -0.907033
      3         11           0        3.477728   -0.984275    1.481808
      4         11           0        0.563881    1.072877    0.349522
      5         11           0       -4.994675   -0.429767   -0.956965
      6         11           0       -2.728843    1.758038    1.002810
      7         11           0       -1.706545   -1.186308    0.411044
 ---------------------------------------------------------------------

 SCF Done:  E(UB3LYP) =  -1136.11015561     A.U. after   26 cycles

 The electronic state is 2-A.
 Alpha  occ. eigenvalues --  -38.46248 -38.44623 -38.44296 -38.43705 -38.43490
 Alpha  occ. eigenvalues --  -38.43380 -38.43202  -2.22041  -2.20435  -2.20142
 Alpha  occ. eigenvalues --   -2.19632  -2.19392  -2.19240  -2.18970  -1.15734
 Alpha  occ. eigenvalues --   -1.15696  -1.15635  -1.14077  -1.14075  -1.14035
 Alpha  occ. eigenvalues --   -1.13840  -1.13811  -1.13774  -1.13349  -1.13299
 Alpha  occ. eigenvalues --   -1.13254  -1.13087  -1.13083  -1.12981  -1.12930
 Alpha  occ. eigenvalues --   -1.12906  -1.12851  -1.12655  -1.12634  -1.12596
 Alpha  occ. eigenvalues --   -0.17588  -0.14791  -0.11321  -0.10406
 Alpha virt. eigenvalues --   -0.07195  -0.05330  -0.04943  -0.03435  -0.02862
 Alpha virt. eigenvalues --   -0.02220  -0.01881  -0.01547  -0.00983  -0.00745
 Alpha virt. eigenvalues --   -0.00485  -0.00007   0.00271   0.00398   0.00446

  Beta  occ. eigenvalues --  -38.46226 -38.44512 -38.44284 -38.43650 -38.43482
  Beta  occ. eigenvalues --  -38.43381 -38.43194  -2.21999  -2.20227  -2.20128
  Beta  occ. eigenvalues --   -2.19534  -2.19383  -2.19244  -2.18957  -1.15700
  Beta  occ. eigenvalues --   -1.15670  -1.15605  -1.13933  -1.13932  -1.13902
  Beta  occ. eigenvalues --   -1.13830  -1.13804  -1.13723  -1.13289  -1.13231
  Beta  occ. eigenvalues --   -1.13166  -1.13081  -1.13038  -1.12978  -1.12927
  Beta  occ. eigenvalues --   -1.12911  -1.12851  -1.12646  -1.12622  -1.12588
  Beta  occ. eigenvalues --   -0.17012  -0.14171  -0.10310
  Beta virt. eigenvalues --   -0.07536  -0.06968  -0.05150  -0.04441  -0.03108
  Beta virt. eigenvalues --   -0.02652  -0.01769  -0.01471  -0.01163  -0.00910
  Beta virt. eigenvalues --   -0.00364  -0.00329   0.00119   0.00380   0.00469

 Mulliken charges and spin densities:
               1          2
     1  Na   0.416158   0.117586
     2  Na   0.592048   0.113699
     3  Na   0.466763   0.140966
     4  Na  -1.238344   0.199936
     5  Na   0.277256   0.509105
     6  Na   0.105989  -0.100852
     7  Na  -0.619870   0.019561
 Sum of Mulliken charges =  -0.00000   1.00000

 Dipole moment (field-independent basis, Debye):
    X=              0.1836    Y=             -0.7190    Z=              0.9263  Tot=              1.1869
 Quadrupole moment (field-independent basis, Debye-Ang):
   XX=            -61.4693   YY=            -77.3000   ZZ=            -61.2582
   XY=             -8.1966   XZ=              4.7836   YZ=              0.6778

 Normal termination of Gaussian 16 at Fri Dec  8 02:10:07 2023.
