 Gaussian 16, Revision B.01,
 Gaussian 16:  ES64L-G16RevB.01 20-Dec-2017

 -------------------------
 #P B3LYP/6-311+g(d) force
 -------------------------

 -----
 DPGEN
 -----
 Symbolic Z-matrix:
 Charge =  0 Multiplicity = 2

                         Standard orientation:
 ---------------------------------------------------------------------
 Center     Atomic      Atomic             Coordinates (Angstroms)
 Number     Number       Type             X           Y           Z
 ---------------------------------------------------------------------
      1         11           0       -2.550795   -3.268250   -0.277596
      2         11           0        3.528053   -2.169014   -0.350370
      3         11           0       -4.198761   -0.164003   -0.477909
      4         11           0       -2.411191    3.373809    0.421626
      5         11           0        0.986611    3.748140    0.136066
      6         11           0        3.698151    1.638268   -0.405733
      7         11           0        0.947932   -3.158949    0.953916
 ---------------------------------------------------------------------

 SCF Done:  E(UB3LYP) =  -1136.10602792     A.U. after   23 cycles

 The electronic state is 2-A.
 Alpha  occ. eigenvalues --  -38.45540 -38.44739 -38.44723 -38.44614 -38.44602
 Alpha  occ. eigenvalues --  -38.44283 -38.43997  -2.21271  -2.20545  -2.20531
 Alpha  occ. eigenvalues --   -2.20381  -2.20371  -2.20073  -2.19786  -1.14956
 Alpha  occ. eigenvalues --   -1.14938  -1.14903  -1.14330  -1.14207  -1.14193
 Alpha  occ. eigenvalues --   -1.14174  -1.14166  -1.14103  -1.14067  -1.14060
 Alpha  occ. eigenvalues --   -1.14040  -1.14031  -1.14028  -1.14002  -1.13728
 Alpha  occ. eigenvalues --   -1.13716  -1.13693  -1.13438  -1.13428  -1.13412
 Alpha  occ. eigenvalues --   -0.15423  -0.13747  -0.13650  -0.10897
 Alpha virt. eigenvalues --   -0.07902  -0.04799  -0.04595  -0.03582  -0.03483
 Alpha virt. eigenvalues --   -0.02358  -0.02225  -0.01839  -0.01665  -0.00803
 Alpha virt. eigenvalues --   -0.00744  -0.00149   0.00050   0.00294   0.00439

  Beta  occ. eigenvalues --  -38.45530 -38.44725 -38.44692 -38.44611 -38.44574
  Beta  occ. eigenvalues --  -38.44209 -38.43928  -2.21258  -2.20522  -2.20478
  Beta  occ. eigenvalues --   -2.20384  -2.20321  -2.19938  -2.19657  -1.14950
  Beta  occ. eigenvalues --   -1.14932  -1.14869  -1.14290  -1.14192  -1.14168
  Beta  occ. eigenvalues --   -1.14145  -1.14137  -1.14076  -1.14069  -1.14060
  Beta  occ. eigenvalues --   -1.14007  -1.13997  -1.13983  -1.13959  -1.13636
  Beta  occ. eigenvalues --   -1.13627  -1.13600  -1.13351  -1.13344  -1.13327
  Beta  occ. eigenvalues --   -0.14912  -0.12978  -0.12893
  Beta virt. eigenvalues --   -0.08114  -0.07780  -0.04377  -0.04025  -0.03401
  Beta virt. eigenvalues --   -0.03172  -0.02160  -0.02004  -0.01690  -0.01506
  Beta virt. eigenvalues --   -0.00523  -0.00434   0.00080   0.00216   0.00275

 Mulliken charges and spin densities:
               1          2
     1  Na   0.128909   0.109876
     2  Na   0.270974   0.047491
     3  Na   0.057521   0.064113
     4  Na   0.145486   0.321169
     5  Na   0.227089  -0.012070
     6  Na  -0.154624   0.342942
     7  Na  -0.675356   0.126480
 Sum of Mulliken charges =  -0.00000   1.00000

 Dipole moment (field-independent basis, Debye):
    X=             -0.1821    Y=             -0.8951    Z=             -0.1303  Tot=              0.9227
 Quadrupole moment (field-independent basis, Debye-Ang):
   XX=            -60.0516   YY=            -67.8121   ZZ=            -72.5557
   XY=             -1.9554   XZ=             -1.0447   YZ=              0.1952

 Normal termination of Gaussian 16 at Sun Dec  3 20:23:43 2023.
