 Gaussian 16, Revision B.01,
 Gaussian 16:  ES64L-G16RevB.01 20-Dec-2017

 -------------------------
 #P B3LYP/6-311+g(d) force
 -------------------------

 -----
 DPGEN
 -----
 Symbolic Z-matrix:
 Charge =  0 Multiplicity = 2

                         Standard orientation:
 ---------------------------------------------------------------------
 Center     Atomic      Atomic             Coordinates (Angstroms)
 Number     Number       Type             X           Y           Z
 ---------------------------------------------------------------------
      1         11           0        1.901898   -1.767183   -0.747490
      2         11           0       -3.465491    1.904651    0.341356
      3         11           0        3.914188    1.273287   -0.584323
      4         11           0       -2.319705   -1.359898   -1.551089
      5         11           0       -1.220638   -1.577072    1.363573
      6         11           0        1.334259    0.080219    2.115514
      7         11           0       -0.144511    1.445996   -0.937541
 ---------------------------------------------------------------------

 SCF Done:  E(UB3LYP) =  -1136.12216231     A.U. after   25 cycles

 The electronic state is 2-A.
 Alpha  occ. eigenvalues --  -38.44454 -38.44436 -38.44356 -38.44128 -38.44057
 Alpha  occ. eigenvalues --  -38.44011 -38.42920  -2.20300  -2.20257  -2.20122
 Alpha  occ. eigenvalues --   -2.19942  -2.19904  -2.19823  -2.18826  -1.13993
 Alpha  occ. eigenvalues --   -1.13964  -1.13949  -1.13934  -1.13885  -1.13860
 Alpha  occ. eigenvalues --   -1.13797  -1.13788  -1.13747  -1.13665  -1.13636
 Alpha  occ. eigenvalues --   -1.13591  -1.13536  -1.13533  -1.13508  -1.13491
 Alpha  occ. eigenvalues --   -1.13485  -1.13443  -1.12532  -1.12492  -1.12434
 Alpha  occ. eigenvalues --   -0.18040  -0.13606  -0.11261  -0.11024
 Alpha virt. eigenvalues --   -0.06430  -0.05847  -0.04528  -0.03067  -0.02735
 Alpha virt. eigenvalues --   -0.02501  -0.02219  -0.01552  -0.00730  -0.00317
 Alpha virt. eigenvalues --    0.00075   0.00183   0.00392   0.00438   0.00546

  Beta  occ. eigenvalues --  -38.44415 -38.44404 -38.44355 -38.44119 -38.44045
  Beta  occ. eigenvalues --  -38.43935 -38.42900  -2.20218  -2.20206  -2.20120
  Beta  occ. eigenvalues --   -2.19928  -2.19801  -2.19766  -2.18796  -1.13935
  Beta  occ. eigenvalues --   -1.13922  -1.13897  -1.13896  -1.13833  -1.13816
  Beta  occ. eigenvalues --   -1.13789  -1.13786  -1.13746  -1.13639  -1.13616
  Beta  occ. eigenvalues --   -1.13528  -1.13497  -1.13474  -1.13467  -1.13444
  Beta  occ. eigenvalues --   -1.13431  -1.13402  -1.12486  -1.12459  -1.12414
  Beta  occ. eigenvalues --   -0.17349  -0.13399  -0.10883
  Beta virt. eigenvalues --   -0.07403  -0.06262  -0.05561  -0.04044  -0.02857
  Beta virt. eigenvalues --   -0.02400  -0.01969  -0.01767  -0.01301  -0.00364
  Beta virt. eigenvalues --   -0.00243   0.00149   0.00227   0.00480   0.00536

 Mulliken charges and spin densities:
               1          2
     1  Na  -0.190299   0.236679
     2  Na  -0.031967  -0.001263
     3  Na   0.220640  -0.017846
     4  Na   0.338913   0.205345
     5  Na   0.277593   0.248170
     6  Na   0.031823   0.134023
     7  Na  -0.646702   0.194893
 Sum of Mulliken charges =  -0.00000   1.00000

 Dipole moment (field-independent basis, Debye):
    X=              0.4019    Y=             -0.2448    Z=             -0.1207  Tot=              0.4858
 Quadrupole moment (field-independent basis, Debye-Ang):
   XX=            -52.2489   YY=            -73.5045   ZZ=            -69.2781
   XY=              1.7540   XZ=             -0.9719   YZ=              4.7023

 Normal termination of Gaussian 16 at Thu Dec  7 08:47:17 2023.
