 Gaussian 16, Revision B.01,
 Gaussian 16:  ES64L-G16RevB.01 20-Dec-2017

 -------------------------
 #P B3LYP/6-311+g(d) force
 -------------------------

 -----
 DPGEN
 -----
 Symbolic Z-matrix:
 Charge =  0 Multiplicity = 2

                         Standard orientation:
 ---------------------------------------------------------------------
 Center     Atomic      Atomic             Coordinates (Angstroms)
 Number     Number       Type             X           Y           Z
 ---------------------------------------------------------------------
      1         11           0        2.071780    1.889387   -0.492565
      2         11           0       -0.586045    3.318674    0.217543
      3         11           0       -3.233980   -0.391032    0.487170
      4         11           0        5.037877   -0.806008   -0.887073
      5         11           0       -5.962736   -1.133556   -1.064889
      6         11           0        0.080340   -0.608169    1.459999
      7         11           0        2.592765   -2.269297    0.279814
 ---------------------------------------------------------------------

 SCF Done:  E(UB3LYP) =  -1136.11528976     A.U. after   21 cycles

 The electronic state is 2-A.
 Alpha  occ. eigenvalues --  -38.44629 -38.44607 -38.44382 -38.44352 -38.44224
 Alpha  occ. eigenvalues --  -38.44178 -38.43628  -2.20469  -2.20448  -2.20209
 Alpha  occ. eigenvalues --   -2.20206  -2.20016  -2.19982  -2.19421  -1.14164
 Alpha  occ. eigenvalues --   -1.14139  -1.14126  -1.14094  -1.14080  -1.14067
 Alpha  occ. eigenvalues --   -1.13892  -1.13885  -1.13869  -1.13863  -1.13862
 Alpha  occ. eigenvalues --   -1.13823  -1.13661  -1.13659  -1.13657  -1.13641
 Alpha  occ. eigenvalues --   -1.13622  -1.13601  -1.13101  -1.13100  -1.13067
 Alpha  occ. eigenvalues --   -0.16900  -0.13755  -0.12473  -0.11494
 Alpha virt. eigenvalues --   -0.06518  -0.05806  -0.04401  -0.03522  -0.02956
 Alpha virt. eigenvalues --   -0.02316  -0.02245  -0.01620  -0.01214  -0.00832
 Alpha virt. eigenvalues --   -0.00579  -0.00271   0.00137   0.00358   0.00660

  Beta  occ. eigenvalues --  -38.44591 -38.44519 -38.44360 -38.44335 -38.44172
  Beta  occ. eigenvalues --  -38.44167 -38.43639  -2.20376  -2.20308  -2.20181
  Beta  occ. eigenvalues --   -2.20169  -2.19964  -2.19920  -2.19446  -1.14108
  Beta  occ. eigenvalues --   -1.14048  -1.14045  -1.14027  -1.14021  -1.13951
  Beta  occ. eigenvalues --   -1.13867  -1.13856  -1.13851  -1.13838  -1.13831
  Beta  occ. eigenvalues --   -1.13776  -1.13628  -1.13604  -1.13597  -1.13594
  Beta  occ. eigenvalues --   -1.13593  -1.13590  -1.13121  -1.13113  -1.13056
  Beta  occ. eigenvalues --   -0.16216  -0.13467  -0.11929
  Beta virt. eigenvalues --   -0.08170  -0.06029  -0.05396  -0.04138  -0.03143
  Beta virt. eigenvalues --   -0.02635  -0.02205  -0.01866  -0.01463  -0.01059
  Beta virt. eigenvalues --   -0.00458  -0.00230  -0.00094   0.00229   0.00469

 Mulliken charges and spin densities:
               1          2
     1  Na  -0.352190   0.122830
     2  Na   0.616678   0.084561
     3  Na  -0.223311  -0.077233
     4  Na   0.058983   0.141103
     5  Na   0.066788   0.248705
     6  Na  -0.948243   0.501547
     7  Na   0.781294  -0.021512
 Sum of Mulliken charges =  -0.00000   1.00000

 Dipole moment (field-independent basis, Debye):
    X=              0.9824    Y=              0.3209    Z=             -0.3693  Tot=              1.0975
 Quadrupole moment (field-independent basis, Debye-Ang):
   XX=            -56.7965   YY=            -67.8377   ZZ=            -70.4636
   XY=             -3.2231   XZ=              0.8993   YZ=              1.4554

 Normal termination of Gaussian 16 at Tue Nov 28 19:33:42 2023.
