 Gaussian 16, Revision B.01,
 Gaussian 16:  ES64L-G16RevB.01 20-Dec-2017

 -------------------------
 #P B3LYP/6-311+g(d) force
 -------------------------

 -----
 DPGEN
 -----
 Symbolic Z-matrix:
 Charge =  0 Multiplicity = 2

                         Standard orientation:
 ---------------------------------------------------------------------
 Center     Atomic      Atomic             Coordinates (Angstroms)
 Number     Number       Type             X           Y           Z
 ---------------------------------------------------------------------
      1         11           0        2.980114   -0.836527   -0.031094
      2         11           0        0.140359   -0.448666   -1.604757
      3         11           0        1.444820    2.127784   -0.426160
      4         11           0        0.245178    0.313912    1.869043
      5         11           0       -0.217560   -2.540139    0.332388
      6         11           0       -2.966140   -0.823461   -0.239584
      7         11           0       -1.626771    2.207098    0.100165
 ---------------------------------------------------------------------

 SCF Done:  E(UB3LYP) =  -1136.13196462     A.U. after   19 cycles

 The electronic state is 2-A.
 Alpha  occ. eigenvalues --  -38.43900 -38.43838 -38.43329 -38.43271 -38.43220
 Alpha  occ. eigenvalues --  -38.43191 -38.43151  -2.19777  -2.19704  -2.19338
 Alpha  occ. eigenvalues --   -2.19305  -2.19223  -2.19170  -2.19078  -1.13463
 Alpha  occ. eigenvalues --   -1.13439  -1.13417  -1.13381  -1.13367  -1.13356
 Alpha  occ. eigenvalues --   -1.13180  -1.13079  -1.13017  -1.12984  -1.12962
 Alpha  occ. eigenvalues --   -1.12894  -1.12865  -1.12863  -1.12822  -1.12800
 Alpha  occ. eigenvalues --   -1.12795  -1.12775  -1.12736  -1.12717  -1.12678
 Alpha  occ. eigenvalues --   -0.19643  -0.13266  -0.12737  -0.11037
 Alpha virt. eigenvalues --   -0.05587  -0.04781  -0.04417  -0.03176  -0.03022
 Alpha virt. eigenvalues --   -0.02481  -0.01586  -0.00837  -0.00072   0.00092
 Alpha virt. eigenvalues --    0.00161   0.00350   0.00889   0.00956   0.00979

  Beta  occ. eigenvalues --  -38.43895 -38.43835 -38.43258 -38.43240 -38.43175
  Beta  occ. eigenvalues --  -38.43152 -38.43145  -2.19771  -2.19701  -2.19215
  Beta  occ. eigenvalues --   -2.19175  -2.19172  -2.19145  -2.19071  -1.13456
  Beta  occ. eigenvalues --   -1.13425  -1.13402  -1.13376  -1.13367  -1.13339
  Beta  occ. eigenvalues --   -1.13126  -1.13009  -1.12924  -1.12896  -1.12864
  Beta  occ. eigenvalues --   -1.12837  -1.12822  -1.12803  -1.12789  -1.12765
  Beta  occ. eigenvalues --   -1.12750  -1.12719  -1.12714  -1.12683  -1.12673
  Beta  occ. eigenvalues --   -0.18884  -0.13000  -0.12461
  Beta virt. eigenvalues --   -0.07026  -0.05559  -0.04778  -0.04405  -0.02384
  Beta virt. eigenvalues --   -0.02189  -0.01517  -0.01388  -0.00783  -0.00010
  Beta virt. eigenvalues --    0.00097   0.00158   0.00377   0.00926   0.00953

 Mulliken charges and spin densities:
               1          2
     1  Na   0.299139  -0.053867
     2  Na  -0.641275   0.453398
     3  Na   0.294153   0.010810
     4  Na  -0.580445   0.636180
     5  Na   0.338203   0.010615
     6  Na   0.039608  -0.054551
     7  Na   0.250617  -0.002585
 Sum of Mulliken charges =  -0.00000   1.00000

 Dipole moment (field-independent basis, Debye):
    X=              0.0879    Y=             -0.1675    Z=              0.1221  Tot=              0.2251
 Quadrupole moment (field-independent basis, Debye-Ang):
   XX=            -54.9920   YY=            -65.6777   ZZ=            -73.0094
   XY=             -0.6116   XZ=              0.0975   YZ=             -1.3387

 Normal termination of Gaussian 16 at Fri Dec  8 02:53:11 2023.
