 Gaussian 16, Revision B.01,
 Gaussian 16:  ES64L-G16RevB.01 20-Dec-2017

 -------------------------
 #P B3LYP/6-311+g(d) force
 -------------------------

 -----
 DPGEN
 -----
 Symbolic Z-matrix:
 Charge =  0 Multiplicity = 2

                         Standard orientation:
 ---------------------------------------------------------------------
 Center     Atomic      Atomic             Coordinates (Angstroms)
 Number     Number       Type             X           Y           Z
 ---------------------------------------------------------------------
      1         11           0        2.532669    2.983364   -0.595754
      2         11           0       -1.280257   -3.193977   -0.373116
      3         11           0        2.069528   -3.244928    0.400672
      4         11           0       -2.764961    1.520676    1.409121
      5         11           0       -0.781434    3.720151   -0.280940
      6         11           0       -3.923786   -1.187799   -0.768275
      7         11           0        4.148242   -0.597486    0.208292
 ---------------------------------------------------------------------

 SCF Done:  E(UB3LYP) =  -1136.10803963     A.U. after   25 cycles

 The electronic state is 2-A.
 Alpha  occ. eigenvalues --  -38.45530 -38.44914 -38.44647 -38.44607 -38.44293
 Alpha  occ. eigenvalues --  -38.44136 -38.43734  -2.21277  -2.20696  -2.20425
 Alpha  occ. eigenvalues --   -2.20398  -2.20094  -2.19933  -2.19525  -1.14956
 Alpha  occ. eigenvalues --   -1.14941  -1.14914  -1.14367  -1.14359  -1.14340
 Alpha  occ. eigenvalues --   -1.14106  -1.14101  -1.14077  -1.14070  -1.14060
 Alpha  occ. eigenvalues --   -1.14031  -1.13748  -1.13738  -1.13716  -1.13596
 Alpha  occ. eigenvalues --   -1.13591  -1.13576  -1.13179  -1.13167  -1.13154
 Alpha  occ. eigenvalues --   -0.15599  -0.13751  -0.13574  -0.10522
 Alpha virt. eigenvalues --   -0.07930  -0.05107  -0.04222  -0.03601  -0.03365
 Alpha virt. eigenvalues --   -0.02375  -0.02264  -0.01743  -0.01484  -0.00971
 Alpha virt. eigenvalues --   -0.00457  -0.00189   0.00122   0.00288   0.00652

  Beta  occ. eigenvalues --  -38.45518 -38.44898 -38.44642 -38.44582 -38.44226
  Beta  occ. eigenvalues --  -38.44114 -38.43665  -2.21260  -2.20670  -2.20423
  Beta  occ. eigenvalues --   -2.20354  -2.19972  -2.19894  -2.19396  -1.14948
  Beta  occ. eigenvalues --   -1.14933  -1.14875  -1.14351  -1.14342  -1.14302
  Beta  occ. eigenvalues --   -1.14110  -1.14105  -1.14041  -1.14032  -1.14028
  Beta  occ. eigenvalues --   -1.13990  -1.13666  -1.13657  -1.13628  -1.13570
  Beta  occ. eigenvalues --   -1.13567  -1.13543  -1.13091  -1.13083  -1.13067
  Beta  occ. eigenvalues --   -0.15117  -0.13118  -0.12810
  Beta virt. eigenvalues --   -0.08144  -0.07339  -0.04665  -0.03671  -0.03420
  Beta virt. eigenvalues --   -0.03056  -0.02229  -0.02013  -0.01592  -0.01348
  Beta virt. eigenvalues --   -0.00669  -0.00255   0.00025   0.00320   0.00403

 Mulliken charges and spin densities:
               1          2
     1  Na   0.077967   0.346522
     2  Na  -0.294401   0.109598
     3  Na   0.414206   0.112908
     4  Na  -0.320940   0.306562
     5  Na  -0.121053   0.009938
     6  Na   0.240848   0.023975
     7  Na   0.003374   0.090497
 Sum of Mulliken charges =  -0.00000   1.00000

 Dipole moment (field-independent basis, Debye):
    X=             -0.3235    Y=             -0.4760    Z=             -0.0229  Tot=              0.5759
 Quadrupole moment (field-independent basis, Debye-Ang):
   XX=            -59.0564   YY=            -70.0373   ZZ=            -71.5259
   XY=             -1.1936   XZ=              2.3170   YZ=             -1.6184

 Normal termination of Gaussian 16 at Sun Dec  3 14:13:20 2023.
