 Gaussian 16, Revision B.01,
 Gaussian 16:  ES64L-G16RevB.01 20-Dec-2017

 -------------------------
 #P B3LYP/6-311+g(d) force
 -------------------------

 -----
 DPGEN
 -----
 Symbolic Z-matrix:
 Charge =  0 Multiplicity = 2

                         Standard orientation:
 ---------------------------------------------------------------------
 Center     Atomic      Atomic             Coordinates (Angstroms)
 Number     Number       Type             X           Y           Z
 ---------------------------------------------------------------------
      1         11           0        2.979728   -0.549761   -0.287940
      2         11           0        0.802880   -2.600550    0.613996
      3         11           0        1.307727    2.693275   -0.929790
      4         11           0        0.541180    0.820075    2.153300
      5         11           0        0.176186   -0.488480   -1.344589
      6         11           0       -2.841132    1.740954    0.354181
      7         11           0       -2.966570   -1.615513   -0.559158
 ---------------------------------------------------------------------

 SCF Done:  E(UB3LYP) =  -1136.12724480     A.U. after   21 cycles

 The electronic state is 2-A.
 Alpha  occ. eigenvalues --  -38.44487 -38.44234 -38.43851 -38.43850 -38.43478
 Alpha  occ. eigenvalues --  -38.43378 -38.43254  -2.20246  -2.20153  -2.19695
 Alpha  occ. eigenvalues --   -2.19649  -2.19304  -2.19296  -2.19280  -1.13926
 Alpha  occ. eigenvalues --   -1.13903  -1.13901  -1.13888  -1.13808  -1.13764
 Alpha  occ. eigenvalues --   -1.13361  -1.13331  -1.13328  -1.13309  -1.13303
 Alpha  occ. eigenvalues --   -1.13284  -1.13155  -1.12996  -1.12949  -1.12941
 Alpha  occ. eigenvalues --   -1.12928  -1.12921  -1.12912  -1.12903  -1.12837
 Alpha  occ. eigenvalues --   -0.18406  -0.13094  -0.12156  -0.10905
 Alpha virt. eigenvalues --   -0.05897  -0.05313  -0.04499  -0.03256  -0.03015
 Alpha virt. eigenvalues --   -0.02488  -0.01591  -0.01132  -0.00587  -0.00274
 Alpha virt. eigenvalues --   -0.00016   0.00344   0.00716   0.00770   0.00833

  Beta  occ. eigenvalues --  -38.44486 -38.44222 -38.43844 -38.43761 -38.43456
  Beta  occ. eigenvalues --  -38.43365 -38.43210  -2.20246  -2.20138  -2.19639
  Beta  occ. eigenvalues --   -2.19530  -2.19274  -2.19258  -2.19211  -1.13918
  Beta  occ. eigenvalues --   -1.13901  -1.13892  -1.13888  -1.13766  -1.13755
  Beta  occ. eigenvalues --   -1.13317  -1.13296  -1.13279  -1.13251  -1.13216
  Beta  occ. eigenvalues --   -1.13186  -1.13122  -1.12959  -1.12922  -1.12913
  Beta  occ. eigenvalues --   -1.12893  -1.12886  -1.12872  -1.12853  -1.12790
  Beta  occ. eigenvalues --   -0.17696  -0.12905  -0.11909
  Beta virt. eigenvalues --   -0.07004  -0.05804  -0.05185  -0.04382  -0.02521
  Beta virt. eigenvalues --   -0.02466  -0.01608  -0.01415  -0.01041  -0.00542
  Beta virt. eigenvalues --   -0.00253   0.00123   0.00398   0.00798   0.00847

 Mulliken charges and spin densities:
               1          2
     1  Na   0.505358   0.047072
     2  Na  -0.163852   0.325367
     3  Na  -0.135403   0.055666
     4  Na  -0.407691   0.557648
     5  Na   0.288321   0.009817
     6  Na  -0.190454   0.010805
     7  Na   0.103721  -0.006374
 Sum of Mulliken charges =  -0.00000   1.00000

 Dipole moment (field-independent basis, Debye):
    X=             -0.0687    Y=              0.1810    Z=              0.2668  Tot=              0.3296
 Quadrupole moment (field-independent basis, Debye-Ang):
   XX=            -56.4880   YY=            -64.1501   ZZ=            -73.0906
   XY=             -0.6847   XZ=             -0.3821   YZ=             -1.7446

 Normal termination of Gaussian 16 at Thu Dec  7 07:28:23 2023.
