 Gaussian 16, Revision B.01,
 Gaussian 16:  ES64L-G16RevB.01 20-Dec-2017

 -------------------------
 #P B3LYP/6-311+g(d) force
 -------------------------

 -----
 DPGEN
 -----
 Symbolic Z-matrix:
 Charge =  0 Multiplicity = 2

                         Standard orientation:
 ---------------------------------------------------------------------
 Center     Atomic      Atomic             Coordinates (Angstroms)
 Number     Number       Type             X           Y           Z
 ---------------------------------------------------------------------
      1         11           0        0.299690    2.696994   -0.538529
      2         11           0       -5.951077   -0.017281   -0.207378
      3         11           0       -2.743813    0.805510    1.115223
      4         11           0       -2.800873   -2.097891   -0.317452
      5         11           0        0.384559   -0.639955    0.091696
      6         11           0        3.850326   -0.280270   -0.662892
      7         11           0        6.961188   -0.467108    0.519333
 ---------------------------------------------------------------------

 SCF Done:  E(UB3LYP) =  -1136.11570511     A.U. after   21 cycles

 The electronic state is 2-A.
 Alpha  occ. eigenvalues --  -38.45111 -38.44541 -38.44475 -38.44447 -38.43997
 Alpha  occ. eigenvalues --  -38.43745 -38.43616  -2.20947  -2.20395  -2.20260
 Alpha  occ. eigenvalues --   -2.20241  -2.19746  -2.19613  -2.19404  -1.14661
 Alpha  occ. eigenvalues --   -1.14640  -1.14539  -1.14072  -1.14061  -1.13987
 Alpha  occ. eigenvalues --   -1.13922  -1.13920  -1.13902  -1.13881  -1.13871
 Alpha  occ. eigenvalues --   -1.13869  -1.13416  -1.13415  -1.13397  -1.13302
 Alpha  occ. eigenvalues --   -1.13282  -1.13243  -1.13088  -1.13077  -1.13009
 Alpha  occ. eigenvalues --   -0.17067  -0.13770  -0.11769  -0.11151
 Alpha virt. eigenvalues --   -0.07091  -0.05841  -0.04064  -0.03798  -0.02992
 Alpha virt. eigenvalues --   -0.02488  -0.01865  -0.01795  -0.01420  -0.00748
 Alpha virt. eigenvalues --   -0.00382  -0.00180  -0.00068   0.00269   0.00543

  Beta  occ. eigenvalues --  -38.45096 -38.44480 -38.44434 -38.44393 -38.44015
  Beta  occ. eigenvalues --  -38.43718 -38.43609  -2.20923  -2.20284  -2.20183
  Beta  occ. eigenvalues --   -2.20139  -2.19779  -2.19568  -2.19391  -1.14632
  Beta  occ. eigenvalues --   -1.14610  -1.14520  -1.13999  -1.13989  -1.13888
  Beta  occ. eigenvalues --   -1.13870  -1.13861  -1.13832  -1.13822  -1.13810
  Beta  occ. eigenvalues --   -1.13804  -1.13439  -1.13438  -1.13418  -1.13276
  Beta  occ. eigenvalues --   -1.13251  -1.13174  -1.13076  -1.13066  -1.13011
  Beta  occ. eigenvalues --   -0.16320  -0.13642  -0.11596
  Beta virt. eigenvalues --   -0.07375  -0.06935  -0.05299  -0.03790  -0.03574
  Beta virt. eigenvalues --   -0.02412  -0.02284  -0.01752  -0.01562  -0.01015
  Beta virt. eigenvalues --   -0.00656  -0.00236   0.00098   0.00175   0.00370

 Mulliken charges and spin densities:
               1          2
     1  Na   0.248799   0.282128
     2  Na   0.163412   0.213439
     3  Na   0.069385   0.180798
     4  Na   0.259096   0.075991
     5  Na  -0.765584   0.332956
     6  Na  -0.185770  -0.002970
     7  Na   0.210662  -0.082342
 Sum of Mulliken charges =  -0.00000   1.00000

 Dipole moment (field-independent basis, Debye):
    X=             -1.8720    Y=              0.3521    Z=             -0.1099  Tot=              1.9080
 Quadrupole moment (field-independent basis, Debye-Ang):
   XX=            -58.8116   YY=            -68.2396   ZZ=            -69.3736
   XY=              2.8844   XZ=              4.5552   YZ=              0.3596

 Normal termination of Gaussian 16 at Wed Nov 29 03:50:38 2023.
