 Gaussian 16, Revision B.01,
 Gaussian 16:  ES64L-G16RevB.01 20-Dec-2017

 -------------------------
 #P B3LYP/6-311+g(d) force
 -------------------------

 -----
 DPGEN
 -----
 Symbolic Z-matrix:
 Charge =  0 Multiplicity = 2

                         Standard orientation:
 ---------------------------------------------------------------------
 Center     Atomic      Atomic             Coordinates (Angstroms)
 Number     Number       Type             X           Y           Z
 ---------------------------------------------------------------------
      1         11           0        1.860590   -0.228987    1.473429
      2         11           0       -1.101112   -1.919714    1.000754
      3         11           0        0.232268    0.267751   -1.019446
      4         11           0       -3.610266   -0.330177   -0.154563
      5         11           0        1.940061   -2.737947   -1.089134
      6         11           0        2.271373    2.653336   -0.047593
      7         11           0       -1.592915    2.295738   -0.163446
 ---------------------------------------------------------------------

 SCF Done:  E(UB3LYP) =  -1136.12463526     A.U. after   20 cycles

 The electronic state is 2-A.
 Alpha  occ. eigenvalues --  -38.44217 -38.44168 -38.43983 -38.43626 -38.43442
 Alpha  occ. eigenvalues --  -38.43418 -38.43243  -2.20054  -2.20050  -2.19819
 Alpha  occ. eigenvalues --   -2.19458  -2.19384  -2.19330  -2.19318  -1.13859
 Alpha  occ. eigenvalues --   -1.13744  -1.13727  -1.13704  -1.13690  -1.13601
 Alpha  occ. eigenvalues --   -1.13506  -1.13486  -1.13449  -1.13203  -1.13121
 Alpha  occ. eigenvalues --   -1.13115  -1.13076  -1.13056  -1.13030  -1.12989
 Alpha  occ. eigenvalues --   -1.12977  -1.12958  -1.12925  -1.12915  -1.12900
 Alpha  occ. eigenvalues --   -0.18534  -0.13454  -0.12783  -0.10075
 Alpha virt. eigenvalues --   -0.06043  -0.05491  -0.04755  -0.03039  -0.02721
 Alpha virt. eigenvalues --   -0.01826  -0.01803  -0.01410  -0.00623  -0.00332
 Alpha virt. eigenvalues --   -0.00018   0.00285   0.00710   0.00776   0.00804

  Beta  occ. eigenvalues --  -38.44218 -38.44153 -38.43980 -38.43571 -38.43394
  Beta  occ. eigenvalues --  -38.43386 -38.43209  -2.20058  -2.20024  -2.19817
  Beta  occ. eigenvalues --   -2.19357  -2.19298  -2.19272  -2.19261  -1.13837
  Beta  occ. eigenvalues --   -1.13742  -1.13727  -1.13698  -1.13659  -1.13592
  Beta  occ. eigenvalues --   -1.13507  -1.13467  -1.13448  -1.13147  -1.13047
  Beta  occ. eigenvalues --   -1.13042  -1.13016  -1.13009  -1.12966  -1.12933
  Beta  occ. eigenvalues --   -1.12920  -1.12902  -1.12876  -1.12869  -1.12861
  Beta  occ. eigenvalues --   -0.17991  -0.13183  -0.12448
  Beta virt. eigenvalues --   -0.06520  -0.05746  -0.05262  -0.04594  -0.02511
  Beta virt. eigenvalues --   -0.02248  -0.01771  -0.01486  -0.00797  -0.00369
  Beta virt. eigenvalues --   -0.00286   0.00175   0.00371   0.00749   0.00824

 Mulliken charges and spin densities:
               1          2
     1  Na   0.062431   0.266416
     2  Na  -0.307537   0.253043
     3  Na  -0.544078   0.133568
     4  Na   0.213659  -0.012824
     5  Na   0.036493   0.139374
     6  Na   0.285282   0.080914
     7  Na   0.253751   0.139510
 Sum of Mulliken charges =  -0.00000   1.00000

 Dipole moment (field-independent basis, Debye):
    X=             -0.2341    Y=              0.3805    Z=              0.1232  Tot=              0.4634
 Quadrupole moment (field-independent basis, Debye-Ang):
   XX=            -55.0361   YY=            -61.2855   ZZ=            -75.4009
   XY=              1.4982   XZ=              0.1724   YZ=              0.7459

 Normal termination of Gaussian 16 at Tue Dec  5 20:59:43 2023.
