 Gaussian 16, Revision B.01,
 Gaussian 16:  ES64L-G16RevB.01 20-Dec-2017

 -------------------------
 #P B3LYP/6-311+g(d) force
 -------------------------

 -----
 DPGEN
 -----
 Symbolic Z-matrix:
 Charge =  0 Multiplicity = 2

                         Standard orientation:
 ---------------------------------------------------------------------
 Center     Atomic      Atomic             Coordinates (Angstroms)
 Number     Number       Type             X           Y           Z
 ---------------------------------------------------------------------
      1         11           0       -0.373115    2.536610    0.012548
      2         11           0        1.755264   -0.058942    2.049577
      3         11           0       -3.963325   -1.294626   -1.106944
      4         11           0       -2.623966    0.279105    1.510636
      5         11           0        2.184466    1.340091   -1.775460
      6         11           0        3.127228   -2.033139   -0.065346
      7         11           0       -0.106552   -0.769099   -0.625010
 ---------------------------------------------------------------------

 SCF Done:  E(UB3LYP) =  -1136.12588522     A.U. after   23 cycles

 The electronic state is 2-A.
 Alpha  occ. eigenvalues --  -38.44434 -38.44260 -38.44150 -38.44009 -38.43872
 Alpha  occ. eigenvalues --  -38.43360 -38.42590  -2.20305  -2.20101  -2.19948
 Alpha  occ. eigenvalues --   -2.19943  -2.19734  -2.19196  -2.18458  -1.13995
 Alpha  occ. eigenvalues --   -1.13948  -1.13912  -1.13791  -1.13773  -1.13737
 Alpha  occ. eigenvalues --   -1.13676  -1.13619  -1.13600  -1.13597  -1.13563
 Alpha  occ. eigenvalues --   -1.13552  -1.13407  -1.13369  -1.13341  -1.12871
 Alpha  occ. eigenvalues --   -1.12854  -1.12840  -1.12141  -1.12117  -1.12103
 Alpha  occ. eigenvalues --   -0.18168  -0.13822  -0.11395  -0.11158
 Alpha virt. eigenvalues --   -0.06108  -0.05564  -0.04590  -0.03066  -0.02771
 Alpha virt. eigenvalues --   -0.02511  -0.02129  -0.01219  -0.00880  -0.00214
 Alpha virt. eigenvalues --    0.00147   0.00215   0.00325   0.00439   0.00753

  Beta  occ. eigenvalues --  -38.44368 -38.44246 -38.44117 -38.43991 -38.43817
  Beta  occ. eigenvalues --  -38.43362 -38.42587  -2.20184  -2.20079  -2.19920
  Beta  occ. eigenvalues --   -2.19882  -2.19633  -2.19204  -2.18457  -1.13915
  Beta  occ. eigenvalues --   -1.13864  -1.13822  -1.13777  -1.13761  -1.13697
  Beta  occ. eigenvalues --   -1.13617  -1.13600  -1.13558  -1.13555  -1.13544
  Beta  occ. eigenvalues --   -1.13516  -1.13331  -1.13307  -1.13273  -1.12873
  Beta  occ. eigenvalues --   -1.12857  -1.12835  -1.12145  -1.12121  -1.12073
  Beta  occ. eigenvalues --   -0.17481  -0.13530  -0.11153
  Beta virt. eigenvalues --   -0.07549  -0.05831  -0.05091  -0.04282  -0.02830
  Beta virt. eigenvalues --   -0.02382  -0.01936  -0.01877  -0.00927  -0.00573
  Beta virt. eigenvalues --   -0.00066   0.00227   0.00344   0.00449   0.00521

 Mulliken charges and spin densities:
               1          2
     1  Na   0.059493  -0.012270
     2  Na  -0.101635   0.366402
     3  Na  -0.112344   0.075904
     4  Na   0.529646   0.104127
     5  Na  -0.041864   0.173127
     6  Na   0.700624   0.019120
     7  Na  -1.033919   0.273589
 Sum of Mulliken charges =  -0.00000   1.00000

 Dipole moment (field-independent basis, Debye):
    X=              0.0432    Y=              0.2288    Z=              0.1008  Tot=              0.2538
 Quadrupole moment (field-independent basis, Debye-Ang):
   XX=            -56.5906   YY=            -72.7306   ZZ=            -65.7619
   XY=             -0.2975   XZ=             -1.5650   YZ=              4.2094

 Normal termination of Gaussian 16 at Tue Dec  5 22:44:03 2023.
