 Gaussian 16, Revision B.01,
 Gaussian 16:  ES64L-G16RevB.01 20-Dec-2017

 -------------------------
 #P B3LYP/6-311+g(d) force
 -------------------------

 -----
 DPGEN
 -----
 Symbolic Z-matrix:
 Charge =  0 Multiplicity = 2

                         Standard orientation:
 ---------------------------------------------------------------------
 Center     Atomic      Atomic             Coordinates (Angstroms)
 Number     Number       Type             X           Y           Z
 ---------------------------------------------------------------------
      1         11           0       -1.051939   -0.249842    1.980820
      2         11           0        2.069511   -0.780359    1.955264
      3         11           0        3.015300    1.156529   -1.286297
      4         11           0       -0.028962    2.742813   -0.137472
      5         11           0       -2.981457    1.197606   -0.384707
      6         11           0        1.627619   -2.165248   -1.139272
      7         11           0       -2.650074   -1.901499   -0.988336
 ---------------------------------------------------------------------

 SCF Done:  E(UB3LYP) =  -1136.12369703     A.U. after   23 cycles

 The electronic state is 2-A.
 Alpha  occ. eigenvalues --  -38.44500 -38.44470 -38.44429 -38.44314 -38.44074
 Alpha  occ. eigenvalues --  -38.43970 -38.42909  -2.20355  -2.20350  -2.20219
 Alpha  occ. eigenvalues --   -2.20098  -2.19883  -2.19842  -2.18711  -1.14128
 Alpha  occ. eigenvalues --   -1.14001  -1.13996  -1.13975  -1.13968  -1.13950
 Alpha  occ. eigenvalues --   -1.13898  -1.13862  -1.13847  -1.13773  -1.13754
 Alpha  occ. eigenvalues --   -1.13724  -1.13610  -1.13539  -1.13522  -1.13510
 Alpha  occ. eigenvalues --   -1.13496  -1.13433  -1.12397  -1.12381  -1.12349
 Alpha  occ. eigenvalues --   -0.17585  -0.13774  -0.11785  -0.11521
 Alpha virt. eigenvalues --   -0.05966  -0.05433  -0.05028  -0.03563  -0.03027
 Alpha virt. eigenvalues --   -0.02881  -0.01459  -0.00820  -0.00674  -0.00452
 Alpha virt. eigenvalues --   -0.00182   0.00250   0.00393   0.00493   0.00551

  Beta  occ. eigenvalues --  -38.44442 -38.44398 -38.44394 -38.44295 -38.44048
  Beta  occ. eigenvalues --  -38.43964 -38.42912  -2.20252  -2.20221  -2.20154
  Beta  occ. eigenvalues --   -2.20063  -2.19837  -2.19831  -2.18718  -1.14027
  Beta  occ. eigenvalues --   -1.13931  -1.13915  -1.13902  -1.13885  -1.13848
  Beta  occ. eigenvalues --   -1.13841  -1.13821  -1.13802  -1.13744  -1.13729
  Beta  occ. eigenvalues --   -1.13696  -1.13583  -1.13511  -1.13498  -1.13495
  Beta  occ. eigenvalues --   -1.13481  -1.13417  -1.12401  -1.12381  -1.12352
  Beta  occ. eigenvalues --   -0.16924  -0.13483  -0.11387
  Beta virt. eigenvalues --   -0.07856  -0.05727  -0.05282  -0.04477  -0.03393
  Beta virt. eigenvalues --   -0.02483  -0.02078  -0.01353  -0.00699  -0.00541
  Beta virt. eigenvalues --   -0.00188  -0.00100   0.00450   0.00500   0.00542

 Mulliken charges and spin densities:
               1          2
     1  Na  -0.307206   0.293774
     2  Na   0.289679   0.110666
     3  Na   0.113560   0.116994
     4  Na  -0.462276   0.004966
     5  Na   0.793194   0.089755
     6  Na  -0.311728   0.301167
     7  Na  -0.115223   0.082679
 Sum of Mulliken charges =  -0.00000   1.00000

 Dipole moment (field-independent basis, Debye):
    X=              0.2322    Y=             -0.4383    Z=             -0.1970  Tot=              0.5337
 Quadrupole moment (field-independent basis, Debye-Ang):
   XX=            -58.4149   YY=            -73.0165   ZZ=            -67.2678
   XY=             -0.3742   XZ=              0.7911   YZ=              1.1844

 Normal termination of Gaussian 16 at Wed Nov 29 00:42:59 2023.
