 Gaussian 16, Revision B.01,
 Gaussian 16:  ES64L-G16RevB.01 20-Dec-2017

 -------------------------
 #P B3LYP/6-311+g(d) force
 -------------------------

 -----
 DPGEN
 -----
 Symbolic Z-matrix:
 Charge =  0 Multiplicity = 2

                         Standard orientation:
 ---------------------------------------------------------------------
 Center     Atomic      Atomic             Coordinates (Angstroms)
 Number     Number       Type             X           Y           Z
 ---------------------------------------------------------------------
      1         11           0       -1.360749   -2.464349    0.082837
      2         11           0       -0.867460    2.504737    0.062466
      3         11           0       -3.220956    0.033530   -0.175388
      4         11           0        0.214845   -0.149915    2.111812
      5         11           0        2.981685   -1.675420   -0.345335
      6         11           0        2.395926    1.656472   -0.027903
      7         11           0       -0.143291    0.094944   -1.708489
 ---------------------------------------------------------------------

 SCF Done:  E(UB3LYP) =  -1136.13361281     A.U. after   20 cycles

 The electronic state is 2-A.
 Alpha  occ. eigenvalues --  -38.44338 -38.44145 -38.43784 -38.43718 -38.43574
 Alpha  occ. eigenvalues --  -38.43340 -38.42662  -2.20208  -2.19929  -2.19671
 Alpha  occ. eigenvalues --   -2.19596  -2.19550  -2.19214  -2.18584  -1.13888
 Alpha  occ. eigenvalues --   -1.13864  -1.13857  -1.13599  -1.13598  -1.13569
 Alpha  occ. eigenvalues --   -1.13343  -1.13312  -1.13293  -1.13288  -1.13254
 Alpha  occ. eigenvalues --   -1.13240  -1.13222  -1.13203  -1.13153  -1.12891
 Alpha  occ. eigenvalues --   -1.12874  -1.12847  -1.12283  -1.12237  -1.12209
 Alpha  occ. eigenvalues --   -0.18823  -0.13456  -0.12008  -0.10981
 Alpha virt. eigenvalues --   -0.06008  -0.05270  -0.04072  -0.03433  -0.02871
 Alpha virt. eigenvalues --   -0.02634  -0.01820  -0.01068  -0.00300  -0.00073
 Alpha virt. eigenvalues --   -0.00051   0.00327   0.00730   0.00877   0.00903

  Beta  occ. eigenvalues --  -38.44335 -38.44141 -38.43712 -38.43684 -38.43511
  Beta  occ. eigenvalues --  -38.43334 -38.42655  -2.20204  -2.19924  -2.19589
  Beta  occ. eigenvalues --   -2.19486  -2.19436  -2.19206  -2.18574  -1.13888
  Beta  occ. eigenvalues --   -1.13858  -1.13839  -1.13598  -1.13581  -1.13566
  Beta  occ. eigenvalues --   -1.13287  -1.13245  -1.13220  -1.13214  -1.13169
  Beta  occ. eigenvalues --   -1.13160  -1.13156  -1.13125  -1.13070  -1.12887
  Beta  occ. eigenvalues --   -1.12849  -1.12836  -1.12277  -1.12214  -1.12191
  Beta  occ. eigenvalues --   -0.18075  -0.13225  -0.11763
  Beta virt. eigenvalues --   -0.07046  -0.05930  -0.05261  -0.04044  -0.02665
  Beta virt. eigenvalues --   -0.02026  -0.01726  -0.01620  -0.01016  -0.00331
  Beta virt. eigenvalues --   -0.00107   0.00092   0.00355   0.00807   0.00875

 Mulliken charges and spin densities:
               1          2
     1  Na   0.157413  -0.065398
     2  Na   0.267268   0.032695
     3  Na   0.253022   0.005876
     4  Na  -0.538929   0.627630
     5  Na  -0.001348  -0.065729
     6  Na   0.251877   0.007747
     7  Na  -0.389305   0.457178
 Sum of Mulliken charges =  -0.00000   1.00000

 Dipole moment (field-independent basis, Debye):
    X=              0.0309    Y=             -0.1755    Z=              0.0927  Tot=              0.2009
 Quadrupole moment (field-independent basis, Debye-Ang):
   XX=            -54.0299   YY=            -67.1520   ZZ=            -73.0320
   XY=             -0.7611   XZ=             -0.4537   YZ=              0.7924

 Normal termination of Gaussian 16 at Tue Dec  5 11:56:00 2023.
