 Gaussian 16, Revision B.01,
 Gaussian 16:  ES64L-G16RevB.01 20-Dec-2017

 -------------------------
 #P B3LYP/6-311+g(d) force
 -------------------------

 -----
 DPGEN
 -----
 Symbolic Z-matrix:
 Charge =  0 Multiplicity = 2

                         Standard orientation:
 ---------------------------------------------------------------------
 Center     Atomic      Atomic             Coordinates (Angstroms)
 Number     Number       Type             X           Y           Z
 ---------------------------------------------------------------------
      1         11           0        0.079821   -0.126601    2.034389
      2         11           0        2.138781   -2.182771   -0.465387
      3         11           0       -0.496607   -0.080574   -1.659300
      4         11           0        0.467421    2.753050   -0.314795
      5         11           0       -2.999379    1.267036    0.078490
      6         11           0       -2.270903   -2.274816    0.114859
      7         11           0        3.080866    0.644677    0.211743
 ---------------------------------------------------------------------

 SCF Done:  E(UB3LYP) =  -1136.13365216     A.U. after   19 cycles

 The electronic state is 2-A.
 Alpha  occ. eigenvalues --  -38.44612 -38.44089 -38.43909 -38.43749 -38.43720
 Alpha  occ. eigenvalues --  -38.43278 -38.42903  -2.20425  -2.19958  -2.19722
 Alpha  occ. eigenvalues --   -2.19618  -2.19561  -2.19234  -2.18759  -1.14111
 Alpha  occ. eigenvalues --   -1.14085  -1.14053  -1.13671  -1.13617  -1.13604
 Alpha  occ. eigenvalues --   -1.13406  -1.13385  -1.13358  -1.13289  -1.13245
 Alpha  occ. eigenvalues --   -1.13235  -1.13228  -1.13211  -1.13193  -1.12918
 Alpha  occ. eigenvalues --   -1.12875  -1.12860  -1.12449  -1.12415  -1.12389
 Alpha  occ. eigenvalues --   -0.18483  -0.13486  -0.11952  -0.10689
 Alpha virt. eigenvalues --   -0.06027  -0.05575  -0.04238  -0.03437  -0.02669
 Alpha virt. eigenvalues --   -0.02536  -0.01810  -0.01222  -0.00529  -0.00238
 Alpha virt. eigenvalues --   -0.00028   0.00350   0.00712   0.00805   0.00879

  Beta  occ. eigenvalues --  -38.44609 -38.44087 -38.43906 -38.43710 -38.43658
  Beta  occ. eigenvalues --  -38.43214 -38.42897  -2.20423  -2.19956  -2.19719
  Beta  occ. eigenvalues --   -2.19546  -2.19448  -2.19118  -2.18751  -1.14099
  Beta  occ. eigenvalues --   -1.14076  -1.14053  -1.13673  -1.13607  -1.13589
  Beta  occ. eigenvalues --   -1.13399  -1.13369  -1.13358  -1.13218  -1.13192
  Beta  occ. eigenvalues --   -1.13183  -1.13172  -1.13125  -1.13111  -1.12839
  Beta  occ. eigenvalues --   -1.12791  -1.12773  -1.12441  -1.12393  -1.12384
  Beta  occ. eigenvalues --   -0.17761  -0.13288  -0.11709
  Beta virt. eigenvalues --   -0.06807  -0.05965  -0.05534  -0.04180  -0.02685
  Beta virt. eigenvalues --   -0.01947  -0.01709  -0.01496  -0.01137  -0.00576
  Beta virt. eigenvalues --   -0.00267   0.00120   0.00379   0.00792   0.00805

 Mulliken charges and spin densities:
               1          2
     1  Na  -0.371886   0.686371
     2  Na   0.076867  -0.049427
     3  Na  -0.053118   0.469225
     4  Na   0.027287  -0.050714
     5  Na   0.133856  -0.040717
     6  Na   0.010546  -0.081377
     7  Na   0.176448   0.066639
 Sum of Mulliken charges =  -0.00000   1.00000

 Dipole moment (field-independent basis, Debye):
    X=             -0.5159    Y=             -0.0804    Z=              0.2138  Tot=              0.5642
 Quadrupole moment (field-independent basis, Debye-Ang):
   XX=            -53.4378   YY=            -65.3821   ZZ=            -74.7510
   XY=             -0.0995   XZ=             -0.9398   YZ=              0.4898

 Normal termination of Gaussian 16 at Thu Dec  7 03:44:01 2023.
