 Gaussian 16, Revision B.01,
 Gaussian 16:  ES64L-G16RevB.01 20-Dec-2017

 -------------------------
 #P B3LYP/6-311+g(d) force
 -------------------------

 -----
 DPGEN
 -----
 Symbolic Z-matrix:
 Charge =  0 Multiplicity = 2

                         Standard orientation:
 ---------------------------------------------------------------------
 Center     Atomic      Atomic             Coordinates (Angstroms)
 Number     Number       Type             X           Y           Z
 ---------------------------------------------------------------------
      1         11           0        3.528742    0.579418    0.720302
      2         11           0       -2.812764   -0.685299    2.002467
      3         11           0        0.450719    3.393179   -0.806750
      4         11           0       -2.771343    0.652729   -1.606957
      5         11           0       -0.030151    0.443172    1.545301
      6         11           0       -1.076961   -2.166141   -1.075846
      7         11           0        2.711758   -2.217057   -0.778518
 ---------------------------------------------------------------------

 SCF Done:  E(UB3LYP) =  -1136.11797177     A.U. after   21 cycles

 The electronic state is 2-A.
 Alpha  occ. eigenvalues --  -38.44951 -38.44748 -38.44587 -38.44021 -38.43927
 Alpha  occ. eigenvalues --  -38.43898 -38.43654  -2.20754  -2.20608  -2.20369
 Alpha  occ. eigenvalues --   -2.19892  -2.19738  -2.19635  -2.19435  -1.14436
 Alpha  occ. eigenvalues --   -1.14383  -1.14374  -1.14328  -1.14238  -1.14192
 Alpha  occ. eigenvalues --   -1.14055  -1.14036  -1.13994  -1.13564  -1.13549
 Alpha  occ. eigenvalues --   -1.13523  -1.13430  -1.13406  -1.13352  -1.13312
 Alpha  occ. eigenvalues --   -1.13288  -1.13271  -1.13110  -1.13091  -1.13086
 Alpha  occ. eigenvalues --   -0.17316  -0.13417  -0.11629  -0.11476
 Alpha virt. eigenvalues --   -0.06430  -0.05553  -0.04950  -0.03298  -0.02885
 Alpha virt. eigenvalues --   -0.02730  -0.01985  -0.01122  -0.00852  -0.00661
 Alpha virt. eigenvalues --   -0.00321   0.00106   0.00271   0.00432   0.00674

  Beta  occ. eigenvalues --  -38.44890 -38.44671 -38.44588 -38.43975 -38.43904
  Beta  occ. eigenvalues --  -38.43883 -38.43659  -2.20642  -2.20468  -2.20371
  Beta  occ. eigenvalues --   -2.19813  -2.19698  -2.19606  -2.19445  -1.14352
  Beta  occ. eigenvalues --   -1.14311  -1.14293  -1.14216  -1.14144  -1.14097
  Beta  occ. eigenvalues --   -1.14054  -1.14037  -1.14000  -1.13515  -1.13487
  Beta  occ. eigenvalues --   -1.13449  -1.13399  -1.13364  -1.13330  -1.13292
  Beta  occ. eigenvalues --   -1.13268  -1.13251  -1.13116  -1.13098  -1.13092
  Beta  occ. eigenvalues --   -0.16631  -0.13256  -0.11283
  Beta virt. eigenvalues --   -0.07709  -0.06210  -0.05189  -0.04673  -0.03007
  Beta virt. eigenvalues --   -0.02493  -0.02112  -0.01678  -0.00831  -0.00655
  Beta virt. eigenvalues --   -0.00445  -0.00193   0.00234   0.00355   0.00562

 Mulliken charges and spin densities:
               1          2
     1  Na   0.485264   0.032056
     2  Na   0.453307  -0.073228
     3  Na  -0.099979   0.109267
     4  Na   0.015975   0.330422
     5  Na  -0.627535   0.422563
     6  Na   0.025005   0.278194
     7  Na  -0.252037  -0.099273
 Sum of Mulliken charges =  -0.00000   1.00000

 Dipole moment (field-independent basis, Debye):
    X=             -0.6321    Y=             -0.0049    Z=             -0.0040  Tot=              0.6321
 Quadrupole moment (field-independent basis, Debye-Ang):
   XX=            -54.3239   YY=            -71.7627   ZZ=            -70.1011
   XY=              1.8524   XZ=             -0.0896   YZ=             -2.1710

 Normal termination of Gaussian 16 at Sun Dec  3 23:34:18 2023.
