 Gaussian 16, Revision B.01,
 Gaussian 16:  ES64L-G16RevB.01 20-Dec-2017

 -------------------------
 #P B3LYP/6-311+g(d) force
 -------------------------

 -----
 DPGEN
 -----
 Symbolic Z-matrix:
 Charge =  0 Multiplicity = 2

                         Standard orientation:
 ---------------------------------------------------------------------
 Center     Atomic      Atomic             Coordinates (Angstroms)
 Number     Number       Type             X           Y           Z
 ---------------------------------------------------------------------
      1         11           0        2.971270   -1.107018    0.331483
      2         11           0       -0.383628   -0.277091    1.975847
      3         11           0       -1.580692    2.684067   -0.094354
      4         11           0        0.171946    0.220327   -1.676559
      5         11           0       -0.097943   -2.958365   -0.544084
      6         11           0       -3.169506   -0.778707    0.029879
      7         11           0        2.088553    2.216787   -0.022212
 ---------------------------------------------------------------------

 SCF Done:  E(UB3LYP) =  -1136.13870140     A.U. after   19 cycles

 The electronic state is 2-A.
 Alpha  occ. eigenvalues --  -38.44198 -38.43850 -38.43736 -38.43653 -38.43583
 Alpha  occ. eigenvalues --  -38.43521 -38.43158  -2.19997  -2.19666  -2.19549
 Alpha  occ. eigenvalues --   -2.19496  -2.19456  -2.19350  -2.19110  -1.13679
 Alpha  occ. eigenvalues --   -1.13653  -1.13635  -1.13335  -1.13332  -1.13313
 Alpha  occ. eigenvalues --   -1.13236  -1.13220  -1.13199  -1.13178  -1.13153
 Alpha  occ. eigenvalues --   -1.13129  -1.13115  -1.13088  -1.13074  -1.13042
 Alpha  occ. eigenvalues --   -1.13004  -1.12974  -1.12789  -1.12741  -1.12728
 Alpha  occ. eigenvalues --   -0.18324  -0.12843  -0.12482  -0.10555
 Alpha virt. eigenvalues --   -0.05680  -0.05293  -0.04855  -0.03128  -0.02926
 Alpha virt. eigenvalues --   -0.02416  -0.01552  -0.01247  -0.00530  -0.00499
 Alpha virt. eigenvalues --   -0.00007   0.00359   0.00783   0.00838   0.00863

  Beta  occ. eigenvalues --  -38.44197 -38.43843 -38.43733 -38.43650 -38.43504
  Beta  occ. eigenvalues --  -38.43501 -38.43091  -2.19996  -2.19656  -2.19546
  Beta  occ. eigenvalues --   -2.19493  -2.19323  -2.19304  -2.18988  -1.13665
  Beta  occ. eigenvalues --   -1.13650  -1.13635  -1.13330  -1.13313  -1.13303
  Beta  occ. eigenvalues --   -1.13228  -1.13209  -1.13191  -1.13175  -1.13140
  Beta  occ. eigenvalues --   -1.13112  -1.13032  -1.13011  -1.12989  -1.12967
  Beta  occ. eigenvalues --   -1.12960  -1.12959  -1.12705  -1.12655  -1.12639
  Beta  occ. eigenvalues --   -0.17619  -0.12624  -0.12233
  Beta virt. eigenvalues --   -0.06717  -0.05630  -0.05280  -0.04768  -0.02380
  Beta virt. eigenvalues --   -0.02193  -0.01471  -0.01386  -0.01170  -0.00559
  Beta virt. eigenvalues --   -0.00542   0.00129   0.00386   0.00812   0.00853

 Mulliken charges and spin densities:
               1          2
     1  Na   0.056813   0.024059
     2  Na  -0.346153   0.761985
     3  Na   0.014388  -0.137170
     4  Na   0.009941   0.526527
     5  Na   0.058320  -0.011728
     6  Na   0.119809  -0.096016
     7  Na   0.086883  -0.067657
 Sum of Mulliken charges =  -0.00000   1.00000

 Dipole moment (field-independent basis, Debye):
    X=             -0.2140    Y=              0.0127    Z=              0.1204  Tot=              0.2459
 Quadrupole moment (field-independent basis, Debye-Ang):
   XX=            -56.3026   YY=            -61.3152   ZZ=            -75.2057
   XY=             -0.1752   XZ=              1.3994   YZ=              0.9925

 Normal termination of Gaussian 16 at Thu Dec  7 02:23:12 2023.
