 Gaussian 16, Revision B.01,
 Gaussian 16:  ES64L-G16RevB.01 20-Dec-2017

 -------------------------
 #P B3LYP/6-311+g(d) force
 -------------------------

 -----
 DPGEN
 -----
 Symbolic Z-matrix:
 Charge =  0 Multiplicity = 2

                         Standard orientation:
 ---------------------------------------------------------------------
 Center     Atomic      Atomic             Coordinates (Angstroms)
 Number     Number       Type             X           Y           Z
 ---------------------------------------------------------------------
      1         11           0       -1.951112    2.377287   -0.358355
      2         11           0       -2.848641   -1.083488    0.032810
      3         11           0       -0.385372    0.134347    1.936952
      4         11           0        0.126327   -2.583155   -0.025821
      5         11           0        2.986257   -0.769206    0.158354
      6         11           0        0.200021   -0.373031   -1.755850
      7         11           0        1.872521    2.297247    0.011910
 ---------------------------------------------------------------------

 SCF Done:  E(UB3LYP) =  -1136.13506040     A.U. after   19 cycles

 The electronic state is 2-A.
 Alpha  occ. eigenvalues --  -38.43923 -38.43844 -38.43678 -38.43599 -38.43479
 Alpha  occ. eigenvalues --  -38.43472 -38.43087  -2.19791  -2.19713  -2.19489
 Alpha  occ. eigenvalues --   -2.19473  -2.19434  -2.19404  -2.19059  -1.13478
 Alpha  occ. eigenvalues --   -1.13456  -1.13431  -1.13399  -1.13377  -1.13370
 Alpha  occ. eigenvalues --   -1.13301  -1.13163  -1.13158  -1.13130  -1.13118
 Alpha  occ. eigenvalues --   -1.13106  -1.13087  -1.13074  -1.13065  -1.13056
 Alpha  occ. eigenvalues --   -1.13023  -1.13022  -1.12715  -1.12695  -1.12649
 Alpha  occ. eigenvalues --   -0.18985  -0.13218  -0.12438  -0.10843
 Alpha virt. eigenvalues --   -0.05522  -0.05357  -0.04437  -0.03301  -0.02946
 Alpha virt. eigenvalues --   -0.02500  -0.01507  -0.01040  -0.00303  -0.00125
 Alpha virt. eigenvalues --   -0.00010   0.00365   0.00808   0.00898   0.00929

  Beta  occ. eigenvalues --  -38.43918 -38.43841 -38.43671 -38.43596 -38.43398
  Beta  occ. eigenvalues --  -38.43395 -38.43075  -2.19786  -2.19709  -2.19479
  Beta  occ. eigenvalues --   -2.19433  -2.19338  -2.19250  -2.19043  -1.13471
  Beta  occ. eigenvalues --   -1.13433  -1.13424  -1.13395  -1.13376  -1.13344
  Beta  occ. eigenvalues --   -1.13224  -1.13149  -1.13136  -1.13126  -1.13104
  Beta  occ. eigenvalues --   -1.13083  -1.13067  -1.13005  -1.12975  -1.12960
  Beta  occ. eigenvalues --   -1.12914  -1.12912  -1.12695  -1.12647  -1.12632
  Beta  occ. eigenvalues --   -0.18235  -0.12987  -0.12181
  Beta virt. eigenvalues --   -0.06920  -0.05477  -0.05341  -0.04402  -0.02507
  Beta virt. eigenvalues --   -0.02147  -0.01468  -0.01420  -0.00974  -0.00350
  Beta virt. eigenvalues --   -0.00172   0.00128   0.00391   0.00870   0.00895

 Mulliken charges and spin densities:
               1          2
     1  Na  -0.091818  -0.093121
     2  Na   0.306357  -0.046305
     3  Na  -0.472880   0.675004
     4  Na   0.605612   0.001785
     5  Na   0.104922  -0.044478
     6  Na  -0.432941   0.617529
     7  Na  -0.019252  -0.110413
 Sum of Mulliken charges =  -0.00000   1.00000

 Dipole moment (field-independent basis, Debye):
    X=             -0.1050    Y=              0.1848    Z=              0.1102  Tot=              0.2394
 Quadrupole moment (field-independent basis, Debye-Ang):
   XX=            -55.8390   YY=            -64.4571   ZZ=            -73.6180
   XY=             -0.0011   XZ=              1.2702   YZ=             -1.2607

 Normal termination of Gaussian 16 at Thu Dec  7 05:36:21 2023.
