 Gaussian 16, Revision B.01,
 Gaussian 16:  ES64L-G16RevB.01 20-Dec-2017

 -------------------------
 #P B3LYP/6-311+g(d) force
 -------------------------

 -----
 DPGEN
 -----
 Symbolic Z-matrix:
 Charge =  0 Multiplicity = 2

                         Standard orientation:
 ---------------------------------------------------------------------
 Center     Atomic      Atomic             Coordinates (Angstroms)
 Number     Number       Type             X           Y           Z
 ---------------------------------------------------------------------
      1         11           0       -1.181122    0.315486    2.046994
      2         11           0        0.981696    3.228655    0.573928
      3         11           0       -0.517243   -1.946221   -0.662029
      4         11           0       -1.022974    1.922111   -1.437636
      5         11           0       -4.004096   -1.183337   -0.230758
      6         11           0        2.916611    0.342096   -0.686957
      7         11           0        2.827129   -2.678791    0.396459
 ---------------------------------------------------------------------

 SCF Done:  E(UB3LYP) =  -1136.12468110     A.U. after   19 cycles

 The electronic state is 2-A.
 Alpha  occ. eigenvalues --  -38.44837 -38.44591 -38.44188 -38.44133 -38.43846
 Alpha  occ. eigenvalues --  -38.43671 -38.43549  -2.20590  -2.20388  -2.19997
 Alpha  occ. eigenvalues --   -2.19961  -2.19655  -2.19498  -2.19377  -1.14266
 Alpha  occ. eigenvalues --   -1.14255  -1.14215  -1.14078  -1.14058  -1.14017
 Alpha  occ. eigenvalues --   -1.13708  -1.13697  -1.13643  -1.13632  -1.13587
 Alpha  occ. eigenvalues --   -1.13583  -1.13324  -1.13307  -1.13295  -1.13173
 Alpha  occ. eigenvalues --   -1.13146  -1.13137  -1.13046  -1.13018  -1.12973
 Alpha  occ. eigenvalues --   -0.17265  -0.13077  -0.12676  -0.10017
 Alpha virt. eigenvalues --   -0.06503  -0.05499  -0.05101  -0.03230  -0.02919
 Alpha virt. eigenvalues --   -0.02330  -0.02191  -0.01404  -0.01005  -0.00411
 Alpha virt. eigenvalues --   -0.00077   0.00186   0.00492   0.00565   0.00718

  Beta  occ. eigenvalues --  -38.44832 -38.44585 -38.44178 -38.44095 -38.43847
  Beta  occ. eigenvalues --  -38.43670 -38.43450  -2.20583  -2.20377  -2.19980
  Beta  occ. eigenvalues --   -2.19890  -2.19657  -2.19497  -2.19195  -1.14261
  Beta  occ. eigenvalues --   -1.14238  -1.14212  -1.14062  -1.14051  -1.14012
  Beta  occ. eigenvalues --   -1.13698  -1.13663  -1.13588  -1.13583  -1.13575
  Beta  occ. eigenvalues --   -1.13535  -1.13326  -1.13304  -1.13296  -1.13173
  Beta  occ. eigenvalues --   -1.13148  -1.13113  -1.12922  -1.12894  -1.12844
  Beta  occ. eigenvalues --   -0.16672  -0.12918  -0.12526
  Beta virt. eigenvalues --   -0.06436  -0.06204  -0.05351  -0.04956  -0.02628
  Beta virt. eigenvalues --   -0.02454  -0.02237  -0.01400  -0.01227  -0.00987
  Beta virt. eigenvalues --   -0.00258   0.00114   0.00267   0.00604   0.00668

 Mulliken charges and spin densities:
               1          2
     1  Na  -0.343929   0.531054
     2  Na   0.424184   0.090942
     3  Na  -0.447405   0.144477
     4  Na  -0.145166   0.251810
     5  Na   0.324491   0.013448
     6  Na  -0.274718  -0.003233
     7  Na   0.462542  -0.028498
 Sum of Mulliken charges =  -0.00000   1.00000

 Dipole moment (field-independent basis, Debye):
    X=             -0.2017    Y=             -0.2913    Z=             -0.0827  Tot=              0.3639
 Quadrupole moment (field-independent basis, Debye-Ang):
   XX=            -53.7340   YY=            -63.8976   ZZ=            -76.2837
   XY=              1.8625   XZ=              2.0794   YZ=             -0.4590

 Normal termination of Gaussian 16 at Sun Dec  3 23:43:18 2023.
