 Gaussian 16, Revision B.01,
 Gaussian 16:  ES64L-G16RevB.01 20-Dec-2017

 -------------------------
 #P B3LYP/6-311+g(d) force
 -------------------------

 -----
 DPGEN
 -----
 Symbolic Z-matrix:
 Charge =  0 Multiplicity = 2

                         Standard orientation:
 ---------------------------------------------------------------------
 Center     Atomic      Atomic             Coordinates (Angstroms)
 Number     Number       Type             X           Y           Z
 ---------------------------------------------------------------------
      1         11           0        4.036497    0.160749   -0.296051
      2         11           0       -3.936272    0.230072   -0.602229
      3         11           0       -0.751254   -0.477237    1.889727
      4         11           0        2.267091   -2.172517   -0.889426
      5         11           0       -1.415411   -2.887086    0.229545
      6         11           0        1.442962    2.979087    0.661083
      7         11           0       -1.643612    2.166932   -0.992650
 ---------------------------------------------------------------------

 SCF Done:  E(UB3LYP) =  -1136.11531831     A.U. after   19 cycles

 The electronic state is 2-A.
 Alpha  occ. eigenvalues --  -38.44971 -38.44418 -38.44198 -38.44144 -38.44025
 Alpha  occ. eigenvalues --  -38.44003 -38.43897  -2.20804  -2.20261  -2.20015
 Alpha  occ. eigenvalues --   -2.19959  -2.19852  -2.19834  -2.19673  -1.14501
 Alpha  occ. eigenvalues --   -1.14442  -1.14428  -1.13979  -1.13904  -1.13859
 Alpha  occ. eigenvalues --   -1.13822  -1.13670  -1.13637  -1.13613  -1.13585
 Alpha  occ. eigenvalues --   -1.13547  -1.13535  -1.13502  -1.13500  -1.13496
 Alpha  occ. eigenvalues --   -1.13472  -1.13469  -1.13339  -1.13318  -1.13306
 Alpha  occ. eigenvalues --   -0.16843  -0.13779  -0.12590  -0.10903
 Alpha virt. eigenvalues --   -0.06325  -0.05844  -0.03982  -0.03690  -0.03446
 Alpha virt. eigenvalues --   -0.02225  -0.01728  -0.01602  -0.01326  -0.00503
 Alpha virt. eigenvalues --   -0.00309   0.00026   0.00390   0.00580   0.00662

  Beta  occ. eigenvalues --  -38.44917 -38.44348 -38.44172 -38.44117 -38.44017
  Beta  occ. eigenvalues --  -38.43988 -38.43859  -2.20704  -2.20134  -2.19971
  Beta  occ. eigenvalues --   -2.19911  -2.19841  -2.19812  -2.19602  -1.14432
  Beta  occ. eigenvalues --   -1.14375  -1.14357  -1.13891  -1.13818  -1.13779
  Beta  occ. eigenvalues --   -1.13769  -1.13642  -1.13602  -1.13584  -1.13556
  Beta  occ. eigenvalues --   -1.13525  -1.13495  -1.13494  -1.13485  -1.13485
  Beta  occ. eigenvalues --   -1.13465  -1.13411  -1.13289  -1.13269  -1.13259
  Beta  occ. eigenvalues --   -0.16328  -0.12985  -0.12209
  Beta virt. eigenvalues --   -0.07548  -0.06325  -0.05576  -0.03708  -0.03214
  Beta virt. eigenvalues --   -0.02912  -0.02009  -0.01457  -0.01278  -0.01119
  Beta virt. eigenvalues --   -0.00438  -0.00031   0.00226   0.00475   0.00599

 Mulliken charges and spin densities:
               1          2
     1  Na   0.009333   0.051418
     2  Na   0.116831   0.252017
     3  Na  -0.235269   0.312717
     4  Na  -0.120452   0.122188
     5  Na   0.306347  -0.012565
     6  Na   0.178910   0.218534
     7  Na  -0.255700   0.055691
 Sum of Mulliken charges =  -0.00000   1.00000

 Dipole moment (field-independent basis, Debye):
    X=             -0.4805    Y=             -0.4299    Z=              0.2392  Tot=              0.6878
 Quadrupole moment (field-independent basis, Debye-Ang):
   XX=            -64.1196   YY=            -67.6937   ZZ=            -69.7811
   XY=              7.7422   XZ=              0.6489   YZ=              2.6459

 Normal termination of Gaussian 16 at Sun Dec  3 13:18:15 2023.
