 Gaussian 16, Revision B.01,
 Gaussian 16:  ES64L-G16RevB.01 20-Dec-2017

 -------------------------
 #P B3LYP/6-311+g(d) force
 -------------------------

 -----
 DPGEN
 -----
 Symbolic Z-matrix:
 Charge =  0 Multiplicity = 2

                         Standard orientation:
 ---------------------------------------------------------------------
 Center     Atomic      Atomic             Coordinates (Angstroms)
 Number     Number       Type             X           Y           Z
 ---------------------------------------------------------------------
      1         11           0       -1.526848    0.227855    1.368213
      2         11           0        2.336806    0.495461    1.212242
      3         11           0        0.767791   -2.331024    0.350539
      4         11           0       -4.006812    1.053417   -0.863316
      5         11           0       -2.575407   -2.157419   -0.611841
      6         11           0        4.920675   -0.120486   -1.225120
      7         11           0        0.083796    2.832195   -0.230716
 ---------------------------------------------------------------------

 SCF Done:  E(UB3LYP) =  -1136.12286822     A.U. after   21 cycles

 The electronic state is 2-A.
 Alpha  occ. eigenvalues --  -38.45020 -38.44405 -38.44100 -38.43738 -38.43731
 Alpha  occ. eigenvalues --  -38.43693 -38.43302  -2.20808  -2.20211  -2.20002
 Alpha  occ. eigenvalues --   -2.19570  -2.19533  -2.19514  -2.19132  -1.14444
 Alpha  occ. eigenvalues --   -1.14439  -1.14411  -1.13880  -1.13858  -1.13835
 Alpha  occ. eigenvalues --   -1.13709  -1.13658  -1.13638  -1.13266  -1.13254
 Alpha  occ. eigenvalues --   -1.13216  -1.13213  -1.13209  -1.13188  -1.13170
 Alpha  occ. eigenvalues --   -1.13153  -1.13137  -1.12809  -1.12807  -1.12746
 Alpha  occ. eigenvalues --   -0.17212  -0.14022  -0.11587  -0.11323
 Alpha virt. eigenvalues --   -0.05858  -0.05548  -0.05012  -0.03529  -0.02422
 Alpha virt. eigenvalues --   -0.02326  -0.02192  -0.01404  -0.00660  -0.00620
 Alpha virt. eigenvalues --   -0.00337   0.00103   0.00228   0.00329   0.00514

  Beta  occ. eigenvalues --  -38.44897 -38.44359 -38.44085 -38.43738 -38.43723
  Beta  occ. eigenvalues --  -38.43688 -38.43290  -2.20579  -2.20125  -2.19979
  Beta  occ. eigenvalues --   -2.19578  -2.19527  -2.19501  -2.19112  -1.14287
  Beta  occ. eigenvalues --   -1.14283  -1.14260  -1.13822  -1.13804  -1.13773
  Beta  occ. eigenvalues --   -1.13696  -1.13629  -1.13606  -1.13276  -1.13258
  Beta  occ. eigenvalues --   -1.13213  -1.13209  -1.13186  -1.13179  -1.13156
  Beta  occ. eigenvalues --   -1.13131  -1.13128  -1.12794  -1.12786  -1.12737
  Beta  occ. eigenvalues --   -0.16753  -0.13148  -0.11454
  Beta virt. eigenvalues --   -0.07712  -0.05758  -0.05064  -0.04674  -0.03426
  Beta virt. eigenvalues --   -0.02068  -0.01824  -0.01670  -0.01170  -0.00493
  Beta virt. eigenvalues --   -0.00351  -0.00269   0.00270   0.00370   0.00505

 Mulliken charges and spin densities:
               1          2
     1  Na   0.651137  -0.005756
     2  Na   0.043019  -0.083308
     3  Na  -0.395500   0.007079
     4  Na   0.048011   0.290897
     5  Na  -0.117772   0.119012
     6  Na   0.058905   0.633983
     7  Na  -0.287800   0.038094
 Sum of Mulliken charges =  -0.00000   1.00000

 Dipole moment (field-independent basis, Debye):
    X=             -0.4718    Y=              0.1728    Z=             -0.7626  Tot=              0.9132
 Quadrupole moment (field-independent basis, Debye-Ang):
   XX=            -61.3385   YY=            -71.4315   ZZ=            -65.2716
   XY=             -0.5457   XZ=              0.6181   YZ=             -0.5950

 Normal termination of Gaussian 16 at Tue Nov 28 23:46:04 2023.
