 Gaussian 16, Revision B.01,
 Gaussian 16:  ES64L-G16RevB.01 20-Dec-2017

 -------------------------
 #P B3LYP/6-311+g(d) force
 -------------------------

 -----
 DPGEN
 -----
 Symbolic Z-matrix:
 Charge =  0 Multiplicity = 2

                         Standard orientation:
 ---------------------------------------------------------------------
 Center     Atomic      Atomic             Coordinates (Angstroms)
 Number     Number       Type             X           Y           Z
 ---------------------------------------------------------------------
      1         11           0        2.292983   -2.316987   -0.673359
      2         11           0       -2.389377   -2.494087    0.397781
      3         11           0        2.984475    1.181318    0.207461
      4         11           0        0.001833   -0.305333    2.162906
      5         11           0       -0.060821   -0.364063   -1.518678
      6         11           0       -2.721385    1.427355   -0.656893
      7         11           0       -0.107709    2.871796    0.080783
 ---------------------------------------------------------------------

 SCF Done:  E(UB3LYP) =  -1136.13176559     A.U. after   20 cycles

 The electronic state is 2-A.
 Alpha  occ. eigenvalues --  -38.44198 -38.44124 -38.44055 -38.44054 -38.43783
 Alpha  occ. eigenvalues --  -38.43351 -38.43110  -2.20032  -2.19891  -2.19871
 Alpha  occ. eigenvalues --   -2.19855  -2.19644  -2.19294  -2.18983  -1.13698
 Alpha  occ. eigenvalues --   -1.13672  -1.13639  -1.13575  -1.13560  -1.13544
 Alpha  occ. eigenvalues --   -1.13535  -1.13534  -1.13519  -1.13513  -1.13505
 Alpha  occ. eigenvalues --   -1.13473  -1.13346  -1.13315  -1.13261  -1.12980
 Alpha  occ. eigenvalues --   -1.12941  -1.12913  -1.12656  -1.12646  -1.12624
 Alpha  occ. eigenvalues --   -0.18107  -0.12897  -0.12301  -0.10906
 Alpha virt. eigenvalues --   -0.05873  -0.05302  -0.04662  -0.03094  -0.02997
 Alpha virt. eigenvalues --   -0.02656  -0.01650  -0.01457  -0.00567  -0.00274
 Alpha virt. eigenvalues --   -0.00066   0.00310   0.00737   0.00747   0.00804

  Beta  occ. eigenvalues --  -38.44118 -38.44105 -38.44052 -38.44029 -38.43766
  Beta  occ. eigenvalues --  -38.43303 -38.43108  -2.19881  -2.19859  -2.19853
  Beta  occ. eigenvalues --   -2.19827  -2.19614  -2.19207  -2.18984  -1.13584
  Beta  occ. eigenvalues --   -1.13557  -1.13543  -1.13540  -1.13536  -1.13534
  Beta  occ. eigenvalues --   -1.13531  -1.13514  -1.13496  -1.13490  -1.13475
  Beta  occ. eigenvalues --   -1.13454  -1.13327  -1.13287  -1.13238  -1.12916
  Beta  occ. eigenvalues --   -1.12872  -1.12856  -1.12659  -1.12646  -1.12601
  Beta  occ. eigenvalues --   -0.17443  -0.12599  -0.12037
  Beta virt. eigenvalues --   -0.07142  -0.05719  -0.05181  -0.04578  -0.02492
  Beta virt. eigenvalues --   -0.02325  -0.01713  -0.01485  -0.01290  -0.00573
  Beta virt. eigenvalues --   -0.00296   0.00080   0.00360   0.00763   0.00827

 Mulliken charges and spin densities:
               1          2
     1  Na   0.261706   0.065982
     2  Na  -0.042227   0.034846
     3  Na   0.014438   0.050245
     4  Na  -0.358045   0.623932
     5  Na  -0.185367   0.100024
     6  Na   0.381177   0.063588
     7  Na  -0.071683   0.061383
 Sum of Mulliken charges =  -0.00000   1.00000

 Dipole moment (field-independent basis, Debye):
    X=              0.1060    Y=             -0.4151    Z=              0.2425  Tot=              0.4923
 Quadrupole moment (field-independent basis, Debye-Ang):
   XX=            -57.2377   YY=            -63.0248   ZZ=            -73.7481
   XY=              0.8286   XZ=              0.6574   YZ=              0.1601

 Normal termination of Gaussian 16 at Thu Dec  7 09:38:48 2023.
