 Gaussian 16, Revision B.01,
 Gaussian 16:  ES64L-G16RevB.01 20-Dec-2017

 -------------------------
 #P B3LYP/6-311+g(d) force
 -------------------------

 -----
 DPGEN
 -----
 Symbolic Z-matrix:
 Charge =  0 Multiplicity = 2

                         Standard orientation:
 ---------------------------------------------------------------------
 Center     Atomic      Atomic             Coordinates (Angstroms)
 Number     Number       Type             X           Y           Z
 ---------------------------------------------------------------------
      1         11           0       -3.094705    1.964319   -0.932694
      2         11           0       -0.463691    2.294236    1.025411
      3         11           0        2.686981    1.958647   -0.339597
      4         11           0        2.203613   -2.416597   -0.524621
      5         11           0       -1.270594   -1.716576    0.528179
      6         11           0        4.707957   -0.518678    0.157135
      7         11           0       -4.769562   -1.565352    0.086186
 ---------------------------------------------------------------------

 SCF Done:  E(UB3LYP) =  -1136.11285698     A.U. after   24 cycles

 The electronic state is 2-A.
 Alpha  occ. eigenvalues --  -38.46068 -38.44820 -38.44230 -38.44140 -38.44046
 Alpha  occ. eigenvalues --  -38.43895 -38.43304  -2.21820  -2.20617  -2.20034
 Alpha  occ. eigenvalues --   -2.19989  -2.19830  -2.19681  -2.19124  -1.15510
 Alpha  occ. eigenvalues --   -1.15485  -1.15433  -1.14304  -1.14283  -1.14257
 Alpha  occ. eigenvalues --   -1.13737  -1.13702  -1.13688  -1.13638  -1.13633
 Alpha  occ. eigenvalues --   -1.13586  -1.13525  -1.13503  -1.13447  -1.13339
 Alpha  occ. eigenvalues --   -1.13326  -1.13300  -1.12791  -1.12781  -1.12771
 Alpha  occ. eigenvalues --   -0.16388  -0.14299  -0.12125  -0.10651
 Alpha virt. eigenvalues --   -0.07391  -0.05094  -0.04616  -0.03423  -0.03332
 Alpha virt. eigenvalues --   -0.02640  -0.01996  -0.01420  -0.01022  -0.00765
 Alpha virt. eigenvalues --   -0.00281  -0.00157   0.00156   0.00466   0.00555

  Beta  occ. eigenvalues --  -38.46053 -38.44805 -38.44200 -38.44106 -38.44011
  Beta  occ. eigenvalues --  -38.43841 -38.43291  -2.21794  -2.20593  -2.19982
  Beta  occ. eigenvalues --   -2.19926  -2.19770  -2.19579  -2.19100  -1.15494
  Beta  occ. eigenvalues --   -1.15465  -1.15404  -1.14291  -1.14268  -1.14220
  Beta  occ. eigenvalues --   -1.13702  -1.13669  -1.13640  -1.13592  -1.13584
  Beta  occ. eigenvalues --   -1.13542  -1.13488  -1.13462  -1.13377  -1.13270
  Beta  occ. eigenvalues --   -1.13256  -1.13233  -1.12775  -1.12764  -1.12756
  Beta  occ. eigenvalues --   -0.15864  -0.13824  -0.11681
  Beta virt. eigenvalues --   -0.07408  -0.07179  -0.04813  -0.04098  -0.03104
  Beta virt. eigenvalues --   -0.03003  -0.02376  -0.01792  -0.01270  -0.00711
  Beta virt. eigenvalues --   -0.00497  -0.00125   0.00128   0.00186   0.00513

 Mulliken charges and spin densities:
               1          2
     1  Na   0.276563   0.031954
     2  Na  -0.248975   0.077602
     3  Na  -0.128350   0.207992
     4  Na   0.053735  -0.068812
     5  Na  -0.725500   0.204443
     6  Na   0.330976   0.150418
     7  Na   0.441550   0.396403
 Sum of Mulliken charges =  -0.00000   1.00000

 Dipole moment (field-independent basis, Debye):
    X=              0.0667    Y=              0.6671    Z=             -0.4992  Tot=              0.8358
 Quadrupole moment (field-independent basis, Debye-Ang):
   XX=            -59.9731   YY=            -70.4741   ZZ=            -68.4929
   XY=             -5.9840   XZ=              2.4788   YZ=             -2.6465

 Normal termination of Gaussian 16 at Sun Dec  3 22:07:03 2023.
