 Gaussian 16, Revision B.01,
 Gaussian 16:  ES64L-G16RevB.01 20-Dec-2017

 -------------------------
 #P B3LYP/6-311+g(d) force
 -------------------------

 -----
 DPGEN
 -----
 Symbolic Z-matrix:
 Charge =  0 Multiplicity = 2

                         Standard orientation:
 ---------------------------------------------------------------------
 Center     Atomic      Atomic             Coordinates (Angstroms)
 Number     Number       Type             X           Y           Z
 ---------------------------------------------------------------------
      1         11           0       -0.497905    1.440999   -0.977200
      2         11           0        1.865667    3.329556    0.835001
      3         11           0        2.950178    0.505237   -0.570274
      4         11           0        0.615889   -2.108818   -0.220104
      5         11           0       -2.964998   -0.633379   -0.995871
      6         11           0        3.953989   -2.285162    0.834548
      7         11           0       -5.922819   -0.248434    1.093900
 ---------------------------------------------------------------------

 SCF Done:  E(UB3LYP) =  -1136.12423707     A.U. after   19 cycles

 The electronic state is 2-A.
 Alpha  occ. eigenvalues --  -38.44889 -38.44481 -38.43933 -38.43920 -38.43799
 Alpha  occ. eigenvalues --  -38.43559 -38.43410  -2.20678  -2.20292  -2.19806
 Alpha  occ. eigenvalues --   -2.19751  -2.19659  -2.19370  -2.19221  -1.14310
 Alpha  occ. eigenvalues --   -1.14309  -1.14282  -1.13995  -1.13987  -1.13871
 Alpha  occ. eigenvalues --   -1.13527  -1.13499  -1.13457  -1.13407  -1.13390
 Alpha  occ. eigenvalues --   -1.13357  -1.13346  -1.13337  -1.13275  -1.13035
 Alpha  occ. eigenvalues --   -1.13030  -1.12990  -1.12917  -1.12896  -1.12856
 Alpha  occ. eigenvalues --   -0.16925  -0.13843  -0.12302  -0.11338
 Alpha virt. eigenvalues --   -0.05723  -0.05565  -0.04786  -0.03756  -0.02449
 Alpha virt. eigenvalues --   -0.02305  -0.02249  -0.01619  -0.00945  -0.00585
 Alpha virt. eigenvalues --   -0.00524  -0.00079  -0.00002   0.00387   0.00654

  Beta  occ. eigenvalues --  -38.44760 -38.44457 -38.43920 -38.43909 -38.43779
  Beta  occ. eigenvalues --  -38.43545 -38.43414  -2.20439  -2.20249  -2.19788
  Beta  occ. eigenvalues --   -2.19726  -2.19624  -2.19345  -2.19238  -1.14147
  Beta  occ. eigenvalues --   -1.14146  -1.14123  -1.13967  -1.13960  -1.13828
  Beta  occ. eigenvalues --   -1.13503  -1.13488  -1.13439  -1.13391  -1.13373
  Beta  occ. eigenvalues --   -1.13338  -1.13328  -1.13315  -1.13241  -1.13015
  Beta  occ. eigenvalues --   -1.13013  -1.12977  -1.12933  -1.12914  -1.12813
  Beta  occ. eigenvalues --   -0.16509  -0.13047  -0.12089
  Beta virt. eigenvalues --   -0.07723  -0.05422  -0.05307  -0.04413  -0.03619
  Beta virt. eigenvalues --   -0.02228  -0.02055  -0.01613  -0.01341  -0.00694
  Beta virt. eigenvalues --   -0.00363  -0.00203   0.00056   0.00194   0.00542

 Mulliken charges and spin densities:
               1          2
     1  Na  -0.473866   0.038517
     2  Na   0.460034   0.116189
     3  Na  -0.320680   0.117570
     4  Na  -0.240257   0.153005
     5  Na   0.044876  -0.161264
     6  Na   0.464995   0.069409
     7  Na   0.064898   0.666575
 Sum of Mulliken charges =  -0.00000   1.00000

 Dipole moment (field-independent basis, Debye):
    X=              0.8636    Y=             -0.1926    Z=              0.7513  Tot=              1.1607
 Quadrupole moment (field-independent basis, Debye-Ang):
   XX=            -62.8823   YY=            -66.4420   ZZ=            -67.6835
   XY=             -2.5440   XZ=              0.7511   YZ=              0.6092

 Normal termination of Gaussian 16 at Wed Nov 29 02:01:46 2023.
