 Gaussian 16, Revision B.01,
 Gaussian 16:  ES64L-G16RevB.01 20-Dec-2017

 -------------------------
 #P B3LYP/6-311+g(d) force
 -------------------------

 -----
 DPGEN
 -----
 Symbolic Z-matrix:
 Charge =  0 Multiplicity = 2

                         Standard orientation:
 ---------------------------------------------------------------------
 Center     Atomic      Atomic             Coordinates (Angstroms)
 Number     Number       Type             X           Y           Z
 ---------------------------------------------------------------------
      1         11           0        0.809610    2.895667   -0.112693
      2         11           0       -0.435396   -0.501004   -1.656505
      3         11           0       -2.442418    1.813383    0.002630
      4         11           0       -2.632913   -1.768456   -0.049683
      5         11           0        0.104212   -0.208468    2.112455
      6         11           0        3.142724    0.282215   -0.322050
      7         11           0        1.454182   -2.513336    0.025846
 ---------------------------------------------------------------------

 SCF Done:  E(UB3LYP) =  -1136.13577775     A.U. after   20 cycles

 The electronic state is 2-A.
 Alpha  occ. eigenvalues --  -38.44047 -38.44024 -38.43866 -38.43697 -38.43597
 Alpha  occ. eigenvalues --  -38.43411 -38.43277  -2.19899  -2.19850  -2.19697
 Alpha  occ. eigenvalues --   -2.19570  -2.19475  -2.19377  -2.19093  -1.13643
 Alpha  occ. eigenvalues --   -1.13546  -1.13521  -1.13517  -1.13514  -1.13503
 Alpha  occ. eigenvalues --   -1.13381  -1.13364  -1.13330  -1.13246  -1.13204
 Alpha  occ. eigenvalues --   -1.13188  -1.13183  -1.13124  -1.13098  -1.13038
 Alpha  occ. eigenvalues --   -1.13004  -1.12987  -1.12762  -1.12756  -1.12741
 Alpha  occ. eigenvalues --   -0.18523  -0.13145  -0.12422  -0.10756
 Alpha virt. eigenvalues --   -0.05652  -0.05423  -0.04659  -0.03289  -0.02868
 Alpha virt. eigenvalues --   -0.02622  -0.01509  -0.01151  -0.00480  -0.00352
 Alpha virt. eigenvalues --   -0.00027   0.00349   0.00782   0.00845   0.00893

  Beta  occ. eigenvalues --  -38.44042 -38.44018 -38.43863 -38.43594 -38.43589
  Beta  occ. eigenvalues --  -38.43353 -38.43275  -2.19894  -2.19841  -2.19695
  Beta  occ. eigenvalues --   -2.19465  -2.19382  -2.19271  -2.19093  -1.13629
  Beta  occ. eigenvalues --   -1.13530  -1.13516  -1.13514  -1.13500  -1.13490
  Beta  occ. eigenvalues --   -1.13375  -1.13347  -1.13332  -1.13183  -1.13127
  Beta  occ. eigenvalues --   -1.13098  -1.13088  -1.13056  -1.13045  -1.12969
  Beta  occ. eigenvalues --   -1.12927  -1.12915  -1.12759  -1.12749  -1.12740
  Beta  occ. eigenvalues --   -0.17804  -0.12920  -0.12211
  Beta virt. eigenvalues --   -0.06836  -0.05616  -0.05394  -0.04593  -0.02495
  Beta virt. eigenvalues --   -0.02117  -0.01569  -0.01416  -0.01096  -0.00537
  Beta virt. eigenvalues --   -0.00384   0.00134   0.00391   0.00840   0.00868

 Mulliken charges and spin densities:
               1          2
     1  Na  -0.086116  -0.055743
     2  Na  -0.195257   0.457894
     3  Na  -0.005668  -0.043171
     4  Na   0.432690  -0.067656
     5  Na  -0.481159   0.739659
     6  Na  -0.065683  -0.014403
     7  Na   0.401193  -0.016581
 Sum of Mulliken charges =  -0.00000   1.00000

 Dipole moment (field-independent basis, Debye):
    X=             -0.1787    Y=             -0.2127    Z=              0.1198  Tot=              0.3026
 Quadrupole moment (field-independent basis, Debye-Ang):
   XX=            -56.5331   YY=            -63.6197   ZZ=            -74.3711
   XY=              0.2873   XZ=             -1.3294   YZ=             -0.5794

 Normal termination of Gaussian 16 at Thu Dec  7 06:04:55 2023.
