 Gaussian 16, Revision B.01,
 Gaussian 16:  ES64L-G16RevB.01 20-Dec-2017

 -------------------------
 #P B3LYP/6-311+g(d) force
 -------------------------

 -----
 DPGEN
 -----
 Symbolic Z-matrix:
 Charge =  0 Multiplicity = 2

                         Standard orientation:
 ---------------------------------------------------------------------
 Center     Atomic      Atomic             Coordinates (Angstroms)
 Number     Number       Type             X           Y           Z
 ---------------------------------------------------------------------
      1         11           0       -2.595564   -2.009293   -0.585953
      2         11           0        0.036119   -0.003415    2.153706
      3         11           0       -3.964119    0.456238    0.340681
      4         11           0       -0.505000    2.711313   -0.570660
      5         11           0        0.846936   -0.570015   -1.612048
      6         11           0        3.028744   -2.330661    0.288464
      7         11           0        3.152884    1.745834   -0.014189
 ---------------------------------------------------------------------

 SCF Done:  E(UB3LYP) =  -1136.11437163     A.U. after   23 cycles

 The electronic state is 2-A.
 Alpha  occ. eigenvalues --  -38.45584 -38.45273 -38.44314 -38.44222 -38.43892
 Alpha  occ. eigenvalues --  -38.43835 -38.43276  -2.21333  -2.21069  -2.20133
 Alpha  occ. eigenvalues --   -2.20019  -2.19687  -2.19662  -2.19055  -1.15020
 Alpha  occ. eigenvalues --   -1.14985  -1.14960  -1.14793  -1.14721  -1.14694
 Alpha  occ. eigenvalues --   -1.13800  -1.13781  -1.13773  -1.13685  -1.13648
 Alpha  occ. eigenvalues --   -1.13629  -1.13379  -1.13366  -1.13329  -1.13321
 Alpha  occ. eigenvalues --   -1.13313  -1.13280  -1.12744  -1.12723  -1.12679
 Alpha  occ. eigenvalues --   -0.17302  -0.13638  -0.11306  -0.10365
 Alpha virt. eigenvalues --   -0.07087  -0.06113  -0.04267  -0.03341  -0.02642
 Alpha virt. eigenvalues --   -0.02613  -0.02314  -0.01792  -0.01035  -0.00425
 Alpha virt. eigenvalues --   -0.00233   0.00136   0.00407   0.00468   0.00601

  Beta  occ. eigenvalues --  -38.45583 -38.45277 -38.44302 -38.44117 -38.43895
  Beta  occ. eigenvalues --  -38.43787 -38.43269  -2.21333  -2.21078  -2.20112
  Beta  occ. eigenvalues --   -2.19825  -2.19670  -2.19601  -2.19045  -1.15004
  Beta  occ. eigenvalues --   -1.14987  -1.14963  -1.14800  -1.14722  -1.14698
  Beta  occ. eigenvalues --   -1.13789  -1.13762  -1.13753  -1.13552  -1.13514
  Beta  occ. eigenvalues --   -1.13490  -1.13350  -1.13333  -1.13319  -1.13308
  Beta  occ. eigenvalues --   -1.13258  -1.13235  -1.12735  -1.12704  -1.12673
  Beta  occ. eigenvalues --   -0.16635  -0.13562  -0.11139
  Beta virt. eigenvalues --   -0.06902  -0.06544  -0.06009  -0.04059  -0.02907
  Beta virt. eigenvalues --   -0.02460  -0.02071  -0.01549  -0.01399  -0.01048
  Beta virt. eigenvalues --   -0.00294  -0.00118   0.00195   0.00535   0.00588

 Mulliken charges and spin densities:
               1          2
     1  Na   0.122759   0.039615
     2  Na  -0.320414   0.748920
     3  Na   0.058456   0.021151
     4  Na  -0.115821  -0.022924
     5  Na   0.137358   0.276415
     6  Na  -0.015393  -0.039655
     7  Na   0.133055  -0.023522
 Sum of Mulliken charges =  -0.00000   1.00000

 Dipole moment (field-independent basis, Debye):
    X=              0.1029    Y=              0.4688    Z=              0.2171  Tot=              0.5268
 Quadrupole moment (field-independent basis, Debye-Ang):
   XX=            -47.2751   YY=            -69.9896   ZZ=            -76.9074
   XY=             -0.0719   XZ=              0.8492   YZ=              0.0319

 Normal termination of Gaussian 16 at Wed Dec  6 00:46:53 2023.
