 Gaussian 16, Revision B.01,
 Gaussian 16:  ES64L-G16RevB.01 20-Dec-2017

 -------------------------
 #P B3LYP/6-311+g(d) force
 -------------------------

 -----
 DPGEN
 -----
 Symbolic Z-matrix:
 Charge =  0 Multiplicity = 2

                         Standard orientation:
 ---------------------------------------------------------------------
 Center     Atomic      Atomic             Coordinates (Angstroms)
 Number     Number       Type             X           Y           Z
 ---------------------------------------------------------------------
      1         11           0        1.872453   -1.894213    1.741248
      2         11           0        1.678182    1.556179    0.490095
      3         11           0       -1.193041    3.135272   -0.335159
      4         11           0       -1.471262    0.165510    1.945539
      5         11           0       -1.348042   -2.877630   -1.128413
      6         11           0        3.914739    0.101280   -1.698021
      7         11           0       -3.453030   -0.186398   -1.015290
 ---------------------------------------------------------------------

 SCF Done:  E(UB3LYP) =  -1136.11923339     A.U. after   21 cycles

 The electronic state is 2-A.
 Alpha  occ. eigenvalues --  -38.45042 -38.44673 -38.44353 -38.44275 -38.44149
 Alpha  occ. eigenvalues --  -38.43569 -38.43434  -2.20843  -2.20454  -2.20118
 Alpha  occ. eigenvalues --   -2.20026  -2.19948  -2.19358  -2.19270  -1.14524
 Alpha  occ. eigenvalues --   -1.14499  -1.14460  -1.14102  -1.14098  -1.14063
 Alpha  occ. eigenvalues --   -1.13784  -1.13772  -1.13748  -1.13710  -1.13684
 Alpha  occ. eigenvalues --   -1.13672  -1.13628  -1.13598  -1.13558  -1.13049
 Alpha  occ. eigenvalues --   -1.13024  -1.12993  -1.12968  -1.12955  -1.12882
 Alpha  occ. eigenvalues --   -0.16762  -0.13295  -0.11810  -0.11145
 Alpha virt. eigenvalues --   -0.06344  -0.05473  -0.04856  -0.03639  -0.02956
 Alpha virt. eigenvalues --   -0.02553  -0.01570  -0.01169  -0.00986  -0.00737
 Alpha virt. eigenvalues --   -0.00358  -0.00000   0.00187   0.00360   0.00534

  Beta  occ. eigenvalues --  -38.45002 -38.44590 -38.44315 -38.44267 -38.44124
  Beta  occ. eigenvalues --  -38.43569 -38.43433  -2.20772  -2.20299  -2.20048
  Beta  occ. eigenvalues --   -2.20013  -2.19903  -2.19359  -2.19273  -1.14477
  Beta  occ. eigenvalues --   -1.14442  -1.14402  -1.13995  -1.13990  -1.13963
  Beta  occ. eigenvalues --   -1.13732  -1.13728  -1.13699  -1.13694  -1.13674
  Beta  occ. eigenvalues --   -1.13656  -1.13597  -1.13571  -1.13524  -1.13052
  Beta  occ. eigenvalues --   -1.13021  -1.12995  -1.12971  -1.12930  -1.12880
  Beta  occ. eigenvalues --   -0.16221  -0.12688  -0.11651
  Beta virt. eigenvalues --   -0.07636  -0.06121  -0.05175  -0.04461  -0.03484
  Beta virt. eigenvalues --   -0.02547  -0.01916  -0.01370  -0.01028  -0.00732
  Beta virt. eigenvalues --   -0.00464  -0.00311   0.00167   0.00334   0.00508

 Mulliken charges and spin densities:
               1          2
     1  Na  -0.105512   0.105691
     2  Na  -0.262332   0.218547
     3  Na  -0.062338  -0.085658
     4  Na   0.469789   0.262731
     5  Na  -0.249910   0.038313
     6  Na   0.164306   0.299523
     7  Na   0.045996   0.160852
 Sum of Mulliken charges =  -0.00000   1.00000

 Dipole moment (field-independent basis, Debye):
    X=             -0.2276    Y=             -0.3338    Z=             -0.2048  Tot=              0.4529
 Quadrupole moment (field-independent basis, Debye-Ang):
   XX=            -63.7893   YY=            -68.5121   ZZ=            -65.8691
   XY=             -5.9173   XZ=             -2.0885   YZ=             -1.2361

 Normal termination of Gaussian 16 at Mon Dec  4 03:08:23 2023.
