 Gaussian 16, Revision B.01,
 Gaussian 16:  ES64L-G16RevB.01 20-Dec-2017

 -------------------------
 #P B3LYP/6-311+g(d) force
 -------------------------

 -----
 DPGEN
 -----
 Symbolic Z-matrix:
 Charge =  0 Multiplicity = 2

                         Standard orientation:
 ---------------------------------------------------------------------
 Center     Atomic      Atomic             Coordinates (Angstroms)
 Number     Number       Type             X           Y           Z
 ---------------------------------------------------------------------
      1         11           0        3.579395    0.067041   -0.844326
      2         11           0        1.926260   -2.701129   -0.884498
      3         11           0        1.251895    3.032399   -0.152807
      4         11           0       -1.668116    2.026194    0.388346
      5         11           0       -3.651748   -0.017795   -1.642251
      6         11           0       -2.236802   -2.109757    0.967644
      7         11           0        0.799115   -0.296952    2.167892
 ---------------------------------------------------------------------

 SCF Done:  E(UB3LYP) =  -1136.12122502     A.U. after   20 cycles

 The electronic state is 2-A.
 Alpha  occ. eigenvalues --  -38.44837 -38.44414 -38.44355 -38.44260 -38.44258
 Alpha  occ. eigenvalues --  -38.43803 -38.43455  -2.20636  -2.20175  -2.20130
 Alpha  occ. eigenvalues --   -2.20064  -2.20061  -2.19635  -2.19262  -1.14305
 Alpha  occ. eigenvalues --   -1.14271  -1.14252  -1.13856  -1.13843  -1.13837
 Alpha  occ. eigenvalues --   -1.13813  -1.13799  -1.13771  -1.13731  -1.13713
 Alpha  occ. eigenvalues --   -1.13711  -1.13698  -1.13674  -1.13673  -1.13339
 Alpha  occ. eigenvalues --   -1.13311  -1.13275  -1.12935  -1.12914  -1.12901
 Alpha  occ. eigenvalues --   -0.16804  -0.13556  -0.12091  -0.11063
 Alpha virt. eigenvalues --   -0.06182  -0.05755  -0.04640  -0.03712  -0.03127
 Alpha virt. eigenvalues --   -0.02465  -0.01489  -0.01325  -0.00870  -0.00730
 Alpha virt. eigenvalues --   -0.00529   0.00111   0.00347   0.00434   0.00629

  Beta  occ. eigenvalues --  -38.44755 -38.44405 -38.44348 -38.44225 -38.44196
  Beta  occ. eigenvalues --  -38.43799 -38.43457  -2.20487  -2.20161  -2.20120
  Beta  occ. eigenvalues --   -2.20003  -2.19939  -2.19631  -2.19265  -1.14204
  Beta  occ. eigenvalues --   -1.14167  -1.14140  -1.13848  -1.13833  -1.13818
  Beta  occ. eigenvalues --   -1.13794  -1.13782  -1.13755  -1.13689  -1.13661
  Beta  occ. eigenvalues --   -1.13633  -1.13629  -1.13626  -1.13599  -1.13341
  Beta  occ. eigenvalues --   -1.13290  -1.13264  -1.12938  -1.12911  -1.12903
  Beta  occ. eigenvalues --   -0.16180  -0.12992  -0.11959
  Beta virt. eigenvalues --   -0.07523  -0.06090  -0.05429  -0.04138  -0.03555
  Beta virt. eigenvalues --   -0.02514  -0.01842  -0.01402  -0.01194  -0.00761
  Beta virt. eigenvalues --   -0.00696  -0.00158   0.00326   0.00466   0.00548

 Mulliken charges and spin densities:
               1          2
     1  Na   0.044281   0.172398
     2  Na  -0.226493   0.051060
     3  Na  -0.014996  -0.058814
     4  Na  -0.353002   0.092032
     5  Na   0.286426   0.300952
     6  Na  -0.122576  -0.018431
     7  Na   0.386360   0.460803
 Sum of Mulliken charges =  -0.00000   1.00000

 Dipole moment (field-independent basis, Debye):
    X=              0.1623    Y=             -0.5330    Z=             -0.1874  Tot=              0.5878
 Quadrupole moment (field-independent basis, Debye-Ang):
   XX=            -64.4133   YY=            -67.1453   ZZ=            -68.0064
   XY=              4.1740   XZ=              1.4516   YZ=             -0.1000

 Normal termination of Gaussian 16 at Sun Dec  3 20:10:33 2023.
