 Gaussian 16, Revision B.01,
 Gaussian 16:  ES64L-G16RevB.01 20-Dec-2017

 -------------------------
 #P B3LYP/6-311+g(d) force
 -------------------------

 -----
 DPGEN
 -----
 Symbolic Z-matrix:
 Charge =  0 Multiplicity = 2

                         Standard orientation:
 ---------------------------------------------------------------------
 Center     Atomic      Atomic             Coordinates (Angstroms)
 Number     Number       Type             X           Y           Z
 ---------------------------------------------------------------------
      1         11           0        2.946109   -1.627550   -0.162146
      2         11           0        2.361776    2.395657    0.291489
      3         11           0       -0.191094   -0.264223    1.857983
      4         11           0       -0.396502   -2.798356   -0.128984
      5         11           0       -0.118240    0.224887   -1.822095
      6         11           0       -1.441486    2.643591   -0.137764
      7         11           0       -3.160563   -0.574006    0.101517
 ---------------------------------------------------------------------

 SCF Done:  E(UB3LYP) =  -1136.13591479     A.U. after   19 cycles

 The electronic state is 2-A.
 Alpha  occ. eigenvalues --  -38.44178 -38.44177 -38.43914 -38.43736 -38.43479
 Alpha  occ. eigenvalues --  -38.43382 -38.43378  -2.19949  -2.19934  -2.19747
 Alpha  occ. eigenvalues --   -2.19570  -2.19386  -2.19294  -2.19256  -1.13625
 Alpha  occ. eigenvalues --   -1.13613  -1.13601  -1.13599  -1.13584  -1.13576
 Alpha  occ. eigenvalues --   -1.13421  -1.13409  -1.13393  -1.13282  -1.13234
 Alpha  occ. eigenvalues --   -1.13186  -1.13095  -1.13034  -1.12994  -1.12977
 Alpha  occ. eigenvalues --   -1.12949  -1.12917  -1.12907  -1.12899  -1.12867
 Alpha  occ. eigenvalues --   -0.18305  -0.12670  -0.12525  -0.10492
 Alpha virt. eigenvalues --   -0.05712  -0.05554  -0.04810  -0.02991  -0.02933
 Alpha virt. eigenvalues --   -0.02389  -0.01619  -0.01341  -0.00652  -0.00492
 Alpha virt. eigenvalues --   -0.00017   0.00341   0.00745   0.00800   0.00866

  Beta  occ. eigenvalues --  -38.44178 -38.44175 -38.43909 -38.43729 -38.43400
  Beta  occ. eigenvalues --  -38.43369 -38.43304  -2.19951  -2.19929  -2.19742
  Beta  occ. eigenvalues --   -2.19561  -2.19245  -2.19240  -2.19152  -1.13615
  Beta  occ. eigenvalues --   -1.13604  -1.13601  -1.13597  -1.13582  -1.13575
  Beta  occ. eigenvalues --   -1.13411  -1.13402  -1.13377  -1.13265  -1.13211
  Beta  occ. eigenvalues --   -1.13183  -1.13020  -1.12942  -1.12916  -1.12891
  Beta  occ. eigenvalues --   -1.12873  -1.12869  -1.12853  -1.12816  -1.12802
  Beta  occ. eigenvalues --   -0.17572  -0.12451  -0.12299
  Beta virt. eigenvalues --   -0.06646  -0.05689  -0.05491  -0.04750  -0.02239
  Beta virt. eigenvalues --   -0.02210  -0.01535  -0.01366  -0.01266  -0.00694
  Beta virt. eigenvalues --   -0.00538   0.00123   0.00369   0.00786   0.00809

 Mulliken charges and spin densities:
               1          2
     1  Na  -0.103328  -0.116358
     2  Na  -0.145825  -0.092141
     3  Na  -0.234731   0.789055
     4  Na   0.174674  -0.083061
     5  Na  -0.083446   0.667879
     6  Na   0.102416  -0.107145
     7  Na   0.290240  -0.058229
 Sum of Mulliken charges =  -0.00000   1.00000

 Dipole moment (field-independent basis, Debye):
    X=              0.0832    Y=              0.0950    Z=              0.0264  Tot=              0.1290
 Quadrupole moment (field-independent basis, Debye-Ang):
   XX=            -55.2463   YY=            -61.6938   ZZ=            -75.6873
   XY=              0.0240   XZ=              0.1258   YZ=              1.1968

 Normal termination of Gaussian 16 at Wed Dec  6 01:25:36 2023.
