 Gaussian 16, Revision B.01,
 Gaussian 16:  ES64L-G16RevB.01 20-Dec-2017

 -------------------------
 #P B3LYP/6-311+g(d) force
 -------------------------

 -----
 DPGEN
 -----
 Symbolic Z-matrix:
 Charge =  0 Multiplicity = 2

                         Standard orientation:
 ---------------------------------------------------------------------
 Center     Atomic      Atomic             Coordinates (Angstroms)
 Number     Number       Type             X           Y           Z
 ---------------------------------------------------------------------
      1         11           0        1.874182    2.291121   -0.132640
      2         11           0        2.991218   -0.883004   -0.318611
      3         11           0       -3.002837   -0.365677   -0.226701
      4         11           0       -0.446719   -2.893020   -0.344123
      5         11           0       -1.531621    2.560678    0.114094
      6         11           0        0.196085   -0.644713    2.224446
      7         11           0       -0.080308   -0.065385   -1.316464
 ---------------------------------------------------------------------

 SCF Done:  E(UB3LYP) =  -1136.13512038     A.U. after   18 cycles

 The electronic state is 2-A.
 Alpha  occ. eigenvalues --  -38.44000 -38.43878 -38.43649 -38.43617 -38.43544
 Alpha  occ. eigenvalues --  -38.43362 -38.42810  -2.19837  -2.19750  -2.19512
 Alpha  occ. eigenvalues --   -2.19495  -2.19402  -2.19224  -2.18904  -1.13522
 Alpha  occ. eigenvalues --   -1.13498  -1.13471  -1.13463  -1.13405  -1.13379
 Alpha  occ. eigenvalues --   -1.13241  -1.13181  -1.13155  -1.13129  -1.13113
 Alpha  occ. eigenvalues --   -1.13101  -1.13100  -1.13060  -1.13040  -1.12907
 Alpha  occ. eigenvalues --   -1.12877  -1.12862  -1.12577  -1.12545  -1.12529
 Alpha  occ. eigenvalues --   -0.18780  -0.13044  -0.12677  -0.10682
 Alpha virt. eigenvalues --   -0.05624  -0.05037  -0.04836  -0.03009  -0.02924
 Alpha virt. eigenvalues --   -0.02507  -0.01489  -0.01142  -0.00398  -0.00307
 Alpha virt. eigenvalues --   -0.00013   0.00342   0.00826   0.00865   0.00902

  Beta  occ. eigenvalues --  -38.43993 -38.43873 -38.43607 -38.43541 -38.43541
  Beta  occ. eigenvalues --  -38.43360 -38.42762  -2.19827  -2.19742  -2.19481
  Beta  occ. eigenvalues --   -2.19400  -2.19312  -2.19223  -2.18820  -1.13511
  Beta  occ. eigenvalues --   -1.13480  -1.13462  -1.13455  -1.13385  -1.13375
  Beta  occ. eigenvalues --   -1.13225  -1.13120  -1.13098  -1.13096  -1.13044
  Beta  occ. eigenvalues --   -1.13041  -1.13028  -1.12990  -1.12988  -1.12905
  Beta  occ. eigenvalues --   -1.12867  -1.12859  -1.12512  -1.12480  -1.12469
  Beta  occ. eigenvalues --   -0.18087  -0.12811  -0.12456
  Beta virt. eigenvalues --   -0.06697  -0.05615  -0.05021  -0.04762  -0.02248
  Beta virt. eigenvalues --   -0.02152  -0.01417  -0.01404  -0.01082  -0.00451
  Beta virt. eigenvalues --   -0.00335   0.00173   0.00392   0.00852   0.00882

 Mulliken charges and spin densities:
               1          2
     1  Na   0.196226   0.053164
     2  Na   0.363084   0.021257
     3  Na   0.426832   0.075435
     4  Na   0.469744   0.020622
     5  Na   0.128450   0.060324
     6  Na  -0.727579   0.751090
     7  Na  -0.856758   0.018108
 Sum of Mulliken charges =  -0.00000   1.00000

 Dipole moment (field-independent basis, Debye):
    X=              0.1056    Y=             -0.1986    Z=              0.2354  Tot=              0.3255
 Quadrupole moment (field-independent basis, Debye-Ang):
   XX=            -57.1003   YY=            -61.0631   ZZ=            -75.0263
   XY=             -0.1894   XZ=             -0.5668   YZ=              1.3797

 Normal termination of Gaussian 16 at Thu Dec  7 22:41:38 2023.
