 Gaussian 16, Revision B.01,
 Gaussian 16:  ES64L-G16RevB.01 20-Dec-2017

 -------------------------
 #P B3LYP/6-311+g(d) force
 -------------------------

 -----
 DPGEN
 -----
 Symbolic Z-matrix:
 Charge =  0 Multiplicity = 2

                         Standard orientation:
 ---------------------------------------------------------------------
 Center     Atomic      Atomic             Coordinates (Angstroms)
 Number     Number       Type             X           Y           Z
 ---------------------------------------------------------------------
      1         11           0        1.681599    0.045085    1.347774
      2         11           0       -0.126032   -2.797430   -0.506640
      3         11           0       -1.639612   -0.171529    1.025327
      4         11           0        1.377646    2.615972   -0.851449
      5         11           0       -1.804438    3.193814   -0.124906
      6         11           0       -3.548609   -1.730369   -0.514168
      7         11           0        4.059446   -1.155544   -0.375938
 ---------------------------------------------------------------------

 SCF Done:  E(UB3LYP) =  -1136.11581784     A.U. after   21 cycles

 The electronic state is 2-A.
 Alpha  occ. eigenvalues --  -38.45462 -38.44689 -38.44267 -38.44233 -38.44112
 Alpha  occ. eigenvalues --  -38.43208 -38.43108  -2.21232  -2.20482  -2.20054
 Alpha  occ. eigenvalues --   -2.20030  -2.19973  -2.19183  -2.19033  -1.14931
 Alpha  occ. eigenvalues --   -1.14915  -1.14837  -1.14165  -1.14153  -1.14104
 Alpha  occ. eigenvalues --   -1.13721  -1.13720  -1.13714  -1.13708  -1.13693
 Alpha  occ. eigenvalues --   -1.13668  -1.13665  -1.13603  -1.13574  -1.12885
 Alpha  occ. eigenvalues --   -1.12843  -1.12790  -1.12706  -1.12682  -1.12665
 Alpha  occ. eigenvalues --   -0.17468  -0.13630  -0.12778  -0.09743
 Alpha virt. eigenvalues --   -0.06767  -0.06259  -0.04233  -0.03562  -0.02837
 Alpha virt. eigenvalues --   -0.02217  -0.01957  -0.01296  -0.01205  -0.00853
 Alpha virt. eigenvalues --   -0.00054   0.00307   0.00354   0.00530   0.00630

  Beta  occ. eigenvalues --  -38.45465 -38.44673 -38.44265 -38.44196 -38.44074
  Beta  occ. eigenvalues --  -38.43164 -38.43058  -2.21241  -2.20453  -2.20052
  Beta  occ. eigenvalues --   -2.19961  -2.19900  -2.19109  -2.18948  -1.14940
  Beta  occ. eigenvalues --   -1.14902  -1.14840  -1.14144  -1.14130  -1.14083
  Beta  occ. eigenvalues --   -1.13717  -1.13709  -1.13691  -1.13672  -1.13662
  Beta  occ. eigenvalues --   -1.13622  -1.13616  -1.13552  -1.13525  -1.12812
  Beta  occ. eigenvalues --   -1.12764  -1.12751  -1.12655  -1.12621  -1.12566
  Beta  occ. eigenvalues --   -0.16828  -0.13300  -0.12593
  Beta virt. eigenvalues --   -0.06541  -0.06173  -0.06113  -0.04053  -0.03113
  Beta virt. eigenvalues --   -0.02436  -0.02071  -0.01700  -0.01074  -0.00780
  Beta virt. eigenvalues --   -0.00666   0.00151   0.00398   0.00425   0.00689

 Mulliken charges and spin densities:
               1          2
     1  Na   0.159117   0.090398
     2  Na  -0.125745  -0.018749
     3  Na  -0.499467   0.159141
     4  Na  -0.164391   0.159103
     5  Na   0.206360  -0.006082
     6  Na   0.351234   0.301230
     7  Na   0.072893   0.314957
 Sum of Mulliken charges =  -0.00000   1.00000

 Dipole moment (field-independent basis, Debye):
    X=             -0.2398    Y=             -0.4184    Z=             -0.3799  Tot=              0.6139
 Quadrupole moment (field-independent basis, Debye-Ang):
   XX=            -61.7277   YY=            -63.7027   ZZ=            -73.2274
   XY=             -3.6940   XZ=             -1.2906   YZ=              2.3365

 Normal termination of Gaussian 16 at Tue Nov 28 19:07:14 2023.
