 Gaussian 16, Revision B.01,
 Gaussian 16:  ES64L-G16RevB.01 20-Dec-2017

 -------------------------
 #P B3LYP/6-311+g(d) force
 -------------------------

 -----
 DPGEN
 -----
 Symbolic Z-matrix:
 Charge =  0 Multiplicity = 2

                         Standard orientation:
 ---------------------------------------------------------------------
 Center     Atomic      Atomic             Coordinates (Angstroms)
 Number     Number       Type             X           Y           Z
 ---------------------------------------------------------------------
      1         11           0       -1.759253    1.568502   -0.946155
      2         11           0        1.953570    2.457050   -0.249988
      3         11           0       -3.866631    0.546026    0.747885
      4         11           0        1.537207   -0.915965   -1.532285
      5         11           0        3.594294   -0.762809    0.720443
      6         11           0       -1.705664   -2.527200   -0.599858
      7         11           0        0.246477   -0.365603    1.859959
 ---------------------------------------------------------------------

 SCF Done:  E(UB3LYP) =  -1136.11650329     A.U. after   24 cycles

 The electronic state is 2-A.
 Alpha  occ. eigenvalues --  -38.45158 -38.45075 -38.45015 -38.43680 -38.43644
 Alpha  occ. eigenvalues --  -38.43581 -38.43442  -2.21002  -2.20902  -2.20826
 Alpha  occ. eigenvalues --   -2.19573  -2.19499  -2.19377  -2.19221  -1.14710
 Alpha  occ. eigenvalues --   -1.14646  -1.14645  -1.14616  -1.14540  -1.14515
 Alpha  occ. eigenvalues --   -1.14505  -1.14469  -1.14443  -1.13264  -1.13241
 Alpha  occ. eigenvalues --   -1.13189  -1.13171  -1.13158  -1.13127  -1.13055
 Alpha  occ. eigenvalues --   -1.13042  -1.13010  -1.12896  -1.12882  -1.12858
 Alpha  occ. eigenvalues --   -0.17937  -0.14144  -0.11148  -0.10624
 Alpha virt. eigenvalues --   -0.07249  -0.05472  -0.04637  -0.03251  -0.02855
 Alpha virt. eigenvalues --   -0.02347  -0.02265  -0.01206  -0.01061  -0.00544
 Alpha virt. eigenvalues --    0.00047   0.00121   0.00187   0.00604   0.00698

  Beta  occ. eigenvalues --  -38.45134 -38.45058 -38.44964 -38.43634 -38.43633
  Beta  occ. eigenvalues --  -38.43570 -38.43430  -2.20960  -2.20871  -2.20733
  Beta  occ. eigenvalues --   -2.19489  -2.19483  -2.19360  -2.19200  -1.14679
  Beta  occ. eigenvalues --   -1.14628  -1.14602  -1.14590  -1.14514  -1.14486
  Beta  occ. eigenvalues --   -1.14446  -1.14409  -1.14369  -1.13193  -1.13186
  Beta  occ. eigenvalues --   -1.13162  -1.13145  -1.13116  -1.13108  -1.13041
  Beta  occ. eigenvalues --   -1.13021  -1.12995  -1.12876  -1.12868  -1.12838
  Beta  occ. eigenvalues --   -0.17301  -0.13946  -0.10857
  Beta virt. eigenvalues --   -0.07170  -0.06855  -0.05449  -0.03980  -0.03121
  Beta virt. eigenvalues --   -0.02600  -0.01788  -0.01502  -0.01138  -0.00745
  Beta virt. eigenvalues --   -0.00437   0.00087   0.00152   0.00346   0.00693

 Mulliken charges and spin densities:
               1          2
     1  Na  -0.550387   0.010579
     2  Na  -0.117053   0.051963
     3  Na   0.593250   0.079858
     4  Na  -0.120538   0.310940
     5  Na   0.658978   0.151760
     6  Na  -0.126235   0.055167
     7  Na  -0.338014   0.339733
 Sum of Mulliken charges =  -0.00000   1.00000

 Dipole moment (field-independent basis, Debye):
    X=              0.1939    Y=             -0.2821    Z=              0.5971  Tot=              0.6883
 Quadrupole moment (field-independent basis, Debye-Ang):
   XX=            -47.1983   YY=            -75.9434   ZZ=            -71.5492
   XY=              0.7443   XZ=             -1.5744   YZ=              0.7060

 Normal termination of Gaussian 16 at Sun Dec  3 22:42:02 2023.
