 Gaussian 16, Revision B.01,
 Gaussian 16:  ES64L-G16RevB.01 20-Dec-2017

 -------------------------
 #P B3LYP/6-311+g(d) force
 -------------------------

 -----
 DPGEN
 -----
 Symbolic Z-matrix:
 Charge =  0 Multiplicity = 2

                         Standard orientation:
 ---------------------------------------------------------------------
 Center     Atomic      Atomic             Coordinates (Angstroms)
 Number     Number       Type             X           Y           Z
 ---------------------------------------------------------------------
      1         11           0       -4.619796    0.127299    0.757557
      2         11           0       -2.315034    3.007335   -0.513838
      3         11           0        4.212190   -2.039577    0.114416
      4         11           0       -3.245328   -2.693635   -0.131751
      5         11           0        0.650130   -2.928425   -0.451696
      6         11           0        4.379897    1.469320    0.430867
      7         11           0        0.937939    3.057684   -0.205555
 ---------------------------------------------------------------------

 SCF Done:  E(UB3LYP) =  -1136.10569250     A.U. after   24 cycles

 The electronic state is 2-A.
 Alpha  occ. eigenvalues --  -38.45309 -38.44867 -38.44735 -38.44567 -38.44420
 Alpha  occ. eigenvalues --  -38.44400 -38.44372  -2.21050  -2.20630  -2.20529
 Alpha  occ. eigenvalues --   -2.20351  -2.20185  -2.20168  -2.20155  -1.14738
 Alpha  occ. eigenvalues --   -1.14717  -1.14699  -1.14320  -1.14307  -1.14288
 Alpha  occ. eigenvalues --   -1.14184  -1.14165  -1.14148  -1.14008  -1.13992
 Alpha  occ. eigenvalues --   -1.13976  -1.13876  -1.13846  -1.13846  -1.13839
 Alpha  occ. eigenvalues --   -1.13832  -1.13817  -1.13800  -1.13792  -1.13746
 Alpha  occ. eigenvalues --   -0.15354  -0.14029  -0.13109  -0.10935
 Alpha virt. eigenvalues --   -0.07926  -0.04921  -0.04756  -0.03574  -0.03455
 Alpha virt. eigenvalues --   -0.02532  -0.02074  -0.01871  -0.01209  -0.01091
 Alpha virt. eigenvalues --   -0.00834  -0.00250   0.00003   0.00232   0.00580

  Beta  occ. eigenvalues --  -38.45322 -38.44868 -38.44687 -38.44501 -38.44389
  Beta  occ. eigenvalues --  -38.44345 -38.44341  -2.21078  -2.20638  -2.20440
  Beta  occ. eigenvalues --   -2.20227  -2.20153  -2.20107  -2.20038  -1.14762
  Beta  occ. eigenvalues --   -1.14740  -1.14684  -1.14319  -1.14315  -1.14266
  Beta  occ. eigenvalues --   -1.14124  -1.14108  -1.14088  -1.13923  -1.13910
  Beta  occ. eigenvalues --   -1.13894  -1.13846  -1.13839  -1.13814  -1.13788
  Beta  occ. eigenvalues --   -1.13769  -1.13746  -1.13738  -1.13705  -1.13697
  Beta  occ. eigenvalues --   -0.14798  -0.13395  -0.12387
  Beta virt. eigenvalues --   -0.08035  -0.07830  -0.04448  -0.04178  -0.03393
  Beta virt. eigenvalues --   -0.03161  -0.02350  -0.02021  -0.01723  -0.00928
  Beta virt. eigenvalues --   -0.00804  -0.00572   0.00042   0.00167   0.00293

 Mulliken charges and spin densities:
               1          2
     1  Na  -0.111894   0.196744
     2  Na  -0.214227  -0.048891
     3  Na   0.512682  -0.080353
     4  Na   0.069628   0.048990
     5  Na  -0.403643   0.381701
     6  Na   0.022439   0.377879
     7  Na   0.125014   0.123929
 Sum of Mulliken charges =  -0.00000   1.00000

 Dipole moment (field-independent basis, Debye):
    X=             -0.0629    Y=             -0.2190    Z=              0.1343  Tot=              0.2645
 Quadrupole moment (field-independent basis, Debye-Ang):
   XX=            -56.4470   YY=            -67.9287   ZZ=            -74.0615
   XY=             -3.6282   XZ=              0.2096   YZ=              1.1163

 Normal termination of Gaussian 16 at Mon Dec  4 00:34:21 2023.
