 Gaussian 16, Revision B.01,
 Gaussian 16:  ES64L-G16RevB.01 20-Dec-2017

 -------------------------
 #P B3LYP/6-311+g(d) force
 -------------------------

 -----
 DPGEN
 -----
 Symbolic Z-matrix:
 Charge =  0 Multiplicity = 2

                         Standard orientation:
 ---------------------------------------------------------------------
 Center     Atomic      Atomic             Coordinates (Angstroms)
 Number     Number       Type             X           Y           Z
 ---------------------------------------------------------------------
      1         11           0        2.555243    1.558926    0.041516
      2         11           0       -3.456873   -0.343472   -0.241476
      3         11           0       -1.274160    2.539884   -0.078030
      4         11           0        3.043502   -1.415851    0.055229
      5         11           0       -0.386256    0.013276    1.744715
      6         11           0        0.455521    0.125841   -1.407884
      7         11           0       -0.936977   -2.478604   -0.114068
 ---------------------------------------------------------------------

 SCF Done:  E(UB3LYP) =  -1136.12429813     A.U. after   23 cycles

 The electronic state is 2-A.
 Alpha  occ. eigenvalues --  -38.45129 -38.44504 -38.44220 -38.43267 -38.43041
 Alpha  occ. eigenvalues --  -38.42947 -38.42889  -2.20942  -2.20358  -2.20143
 Alpha  occ. eigenvalues --   -2.19332  -2.18941  -2.18880  -2.18821  -1.14609
 Alpha  occ. eigenvalues --   -1.14600  -1.14579  -1.14116  -1.14016  -1.13984
 Alpha  occ. eigenvalues --   -1.13885  -1.13773  -1.13733  -1.13043  -1.12996
 Alpha  occ. eigenvalues --   -1.12938  -1.12687  -1.12613  -1.12586  -1.12551
 Alpha  occ. eigenvalues --   -1.12526  -1.12495  -1.12470  -1.12438  -1.12437
 Alpha  occ. eigenvalues --   -0.19077  -0.13971  -0.11973  -0.10157
 Alpha virt. eigenvalues --   -0.06704  -0.05311  -0.03988  -0.03407  -0.02410
 Alpha virt. eigenvalues --   -0.02267  -0.01839  -0.01275  -0.00369  -0.00186
 Alpha virt. eigenvalues --   -0.00024   0.00264   0.00700   0.00832   0.00866

  Beta  occ. eigenvalues --  -38.45121 -38.44503 -38.44212 -38.43215 -38.43031
  Beta  occ. eigenvalues --  -38.42940 -38.42799  -2.20929  -2.20359  -2.20134
  Beta  occ. eigenvalues --   -2.19239  -2.18928  -2.18813  -2.18715  -1.14594
  Beta  occ. eigenvalues --   -1.14582  -1.14573  -1.14119  -1.14005  -1.13974
  Beta  occ. eigenvalues --   -1.13873  -1.13750  -1.13723  -1.12966  -1.12931
  Beta  occ. eigenvalues --   -1.12871  -1.12658  -1.12574  -1.12543  -1.12533
  Beta  occ. eigenvalues --   -1.12466  -1.12443  -1.12436  -1.12356  -1.12348
  Beta  occ. eigenvalues --   -0.18372  -0.13724  -0.11708
  Beta virt. eigenvalues --   -0.06623  -0.06292  -0.05300  -0.03999  -0.02617
  Beta virt. eigenvalues --   -0.02281  -0.01550  -0.01231  -0.00889  -0.00389
  Beta virt. eigenvalues --   -0.00210   0.00149   0.00319   0.00749   0.00841

 Mulliken charges and spin densities:
               1          2
     1  Na   0.577171   0.021784
     2  Na   0.061976   0.032342
     3  Na   0.160723  -0.041504
     4  Na   0.236530  -0.017491
     5  Na  -0.519138   0.653205
     6  Na  -0.733075   0.395318
     7  Na   0.215814  -0.043654
 Sum of Mulliken charges =  -0.00000   1.00000

 Dipole moment (field-independent basis, Debye):
    X=             -0.0987    Y=             -0.0947    Z=              0.1837  Tot=              0.2291
 Quadrupole moment (field-independent basis, Debye-Ang):
   XX=            -46.7101   YY=            -66.7738   ZZ=            -77.2688
   XY=             -1.2014   XZ=              1.7543   YZ=              0.2629

 Normal termination of Gaussian 16 at Tue Dec  5 16:05:14 2023.
