 Gaussian 16, Revision B.01,
 Gaussian 16:  ES64L-G16RevB.01 20-Dec-2017

 -------------------------
 #P B3LYP/6-311+g(d) force
 -------------------------

 -----
 DPGEN
 -----
 Symbolic Z-matrix:
 Charge =  0 Multiplicity = 2

                         Standard orientation:
 ---------------------------------------------------------------------
 Center     Atomic      Atomic             Coordinates (Angstroms)
 Number     Number       Type             X           Y           Z
 ---------------------------------------------------------------------
      1         11           0        0.067333    1.757717    0.528166
      2         11           0        2.810933    3.932678    0.100557
      3         11           0        2.629945    0.219455   -0.975836
      4         11           0        1.034239   -2.302130    1.299959
      5         11           0       -2.463931   -0.850947    0.506107
      6         11           0        2.784950   -3.149402   -0.814927
      7         11           0       -6.863468    0.392629   -0.644025
 ---------------------------------------------------------------------

 SCF Done:  E(UB3LYP) =  -1136.11180190     A.U. after   19 cycles

 The electronic state is 2-A.
 Alpha  occ. eigenvalues --  -38.45092 -38.44812 -38.44801 -38.44616 -38.43884
 Alpha  occ. eigenvalues --  -38.43856 -38.43069  -2.20870  -2.20658  -2.20635
 Alpha  occ. eigenvalues --   -2.20381  -2.19764  -2.19683  -2.18825  -1.14492
 Alpha  occ. eigenvalues --   -1.14492  -1.14471  -1.14399  -1.14357  -1.14338
 Alpha  occ. eigenvalues --   -1.14320  -1.14277  -1.14212  -1.14054  -1.14052
 Alpha  occ. eigenvalues --   -1.13996  -1.13441  -1.13408  -1.13395  -1.13383
 Alpha  occ. eigenvalues --   -1.13381  -1.13247  -1.12513  -1.12502  -1.12458
 Alpha  occ. eigenvalues --   -0.16773  -0.13164  -0.12734  -0.11122
 Alpha virt. eigenvalues --   -0.06602  -0.05371  -0.04857  -0.03643  -0.02689
 Alpha virt. eigenvalues --   -0.02247  -0.02191  -0.01739  -0.01471  -0.01101
 Alpha virt. eigenvalues --   -0.00361  -0.00229   0.00036   0.00340   0.00426

  Beta  occ. eigenvalues --  -38.44929 -38.44804 -38.44793 -38.44614 -38.43875
  Beta  occ. eigenvalues --  -38.43846 -38.43081  -2.20646  -2.20622  -2.20566
  Beta  occ. eigenvalues --   -2.20376  -2.19748  -2.19666  -2.18849  -1.14389
  Beta  occ. eigenvalues --   -1.14343  -1.14330  -1.14312  -1.14286  -1.14286
  Beta  occ. eigenvalues --   -1.14267  -1.14263  -1.14201  -1.14050  -1.14048
  Beta  occ. eigenvalues --   -1.13993  -1.13432  -1.13397  -1.13384  -1.13370
  Beta  occ. eigenvalues --   -1.13369  -1.13232  -1.12532  -1.12522  -1.12453
  Beta  occ. eigenvalues --   -0.16585  -0.13134  -0.11689
  Beta virt. eigenvalues --   -0.07120  -0.06521  -0.04992  -0.04736  -0.03487
  Beta virt. eigenvalues --   -0.02605  -0.02061  -0.01814  -0.01320  -0.00856
  Beta virt. eigenvalues --   -0.00585  -0.00099   0.00101   0.00212   0.00465

 Mulliken charges and spin densities:
               1          2
     1  Na  -0.561989  -0.002069
     2  Na   0.736629   0.039028
     3  Na  -0.629338   0.086947
     4  Na   0.247854  -0.039378
     5  Na  -0.556808   0.077713
     6  Na   0.869759   0.030332
     7  Na  -0.106107   0.807428
 Sum of Mulliken charges =  -0.00000   1.00000

 Dipole moment (field-independent basis, Debye):
    X=              2.1454    Y=              0.2770    Z=             -0.0542  Tot=              2.1639
 Quadrupole moment (field-independent basis, Debye-Ang):
   XX=            -73.3467   YY=            -56.7706   ZZ=            -69.5781
   XY=              2.5961   XZ=              0.1460   YZ=              0.9284

 Normal termination of Gaussian 16 at Wed Nov 29 00:47:47 2023.
