 Gaussian 16, Revision B.01,
 Gaussian 16:  ES64L-G16RevB.01 20-Dec-2017

 -------------------------
 #P B3LYP/6-311+g(d) force
 -------------------------

 -----
 DPGEN
 -----
 Symbolic Z-matrix:
 Charge =  0 Multiplicity = 2

                         Standard orientation:
 ---------------------------------------------------------------------
 Center     Atomic      Atomic             Coordinates (Angstroms)
 Number     Number       Type             X           Y           Z
 ---------------------------------------------------------------------
      1         11           0       -1.472139   -2.276435    0.322274
      2         11           0        2.675026   -2.025711   -0.390777
      3         11           0        2.340847    1.719924   -0.484376
      4         11           0       -0.173600   -0.371693   -1.459293
      5         11           0       -3.559476   -0.019021   -0.092360
      6         11           0       -0.780803    2.841255   -0.017038
      7         11           0        0.970144    0.131681    2.121570
 ---------------------------------------------------------------------

 SCF Done:  E(UB3LYP) =  -1136.13076316     A.U. after   19 cycles

 The electronic state is 2-A.
 Alpha  occ. eigenvalues --  -38.44516 -38.43955 -38.43843 -38.43803 -38.43537
 Alpha  occ. eigenvalues --  -38.43356 -38.43312  -2.20332  -2.19757  -2.19719
 Alpha  occ. eigenvalues --   -2.19704  -2.19409  -2.19345  -2.19130  -1.14026
 Alpha  occ. eigenvalues --   -1.13990  -1.13966  -1.13509  -1.13431  -1.13418
 Alpha  occ. eigenvalues --   -1.13406  -1.13400  -1.13398  -1.13345  -1.13336
 Alpha  occ. eigenvalues --   -1.13301  -1.13065  -1.13049  -1.13022  -1.13012
 Alpha  occ. eigenvalues --   -1.12987  -1.12934  -1.12804  -1.12795  -1.12767
 Alpha  occ. eigenvalues --   -0.18415  -0.13407  -0.12157  -0.10538
 Alpha virt. eigenvalues --   -0.05999  -0.05421  -0.04485  -0.03333  -0.02669
 Alpha virt. eigenvalues --   -0.02417  -0.01876  -0.01225  -0.00551  -0.00193
 Alpha virt. eigenvalues --   -0.00066   0.00299   0.00703   0.00819   0.00842

  Beta  occ. eigenvalues --  -38.44519 -38.43947 -38.43831 -38.43794 -38.43439
  Beta  occ. eigenvalues --  -38.43310 -38.43306  -2.20337  -2.19745  -2.19700
  Beta  occ. eigenvalues --   -2.19691  -2.19256  -2.19228  -2.19130  -1.14030
  Beta  occ. eigenvalues --   -1.13986  -1.13971  -1.13491  -1.13413  -1.13406
  Beta  occ. eigenvalues --   -1.13393  -1.13389  -1.13355  -1.13324  -1.13320
  Beta  occ. eigenvalues --   -1.13293  -1.12964  -1.12937  -1.12926  -1.12923
  Beta  occ. eigenvalues --   -1.12884  -1.12867  -1.12799  -1.12781  -1.12767
  Beta  occ. eigenvalues --   -0.17725  -0.13208  -0.11948
  Beta virt. eigenvalues --   -0.06612  -0.05913  -0.05403  -0.04418  -0.02638
  Beta virt. eigenvalues --   -0.01964  -0.01806  -0.01369  -0.01167  -0.00546
  Beta virt. eigenvalues --   -0.00214   0.00128   0.00347   0.00787   0.00833

 Mulliken charges and spin densities:
               1          2
     1  Na   0.243535   0.057763
     2  Na   0.242782   0.018288
     3  Na   0.256498   0.032221
     4  Na  -0.135292   0.292331
     5  Na   0.018365  -0.047652
     6  Na  -0.101841  -0.033774
     7  Na  -0.524048   0.680824
 Sum of Mulliken charges =  -0.00000   1.00000

 Dipole moment (field-independent basis, Debye):
    X=             -0.2372    Y=             -0.0653    Z=              0.0643  Tot=              0.2543
 Quadrupole moment (field-independent basis, Debye-Ang):
   XX=            -52.4876   YY=            -65.3630   ZZ=            -75.2501
   XY=             -1.9786   XZ=             -1.7504   YZ=             -0.7420

 Normal termination of Gaussian 16 at Fri Dec  8 04:32:01 2023.
