 Gaussian 16, Revision B.01,
 Gaussian 16:  ES64L-G16RevB.01 20-Dec-2017

 -------------------------
 #P B3LYP/6-311+g(d) force
 -------------------------

 -----
 DPGEN
 -----
 Symbolic Z-matrix:
 Charge =  0 Multiplicity = 2

                         Standard orientation:
 ---------------------------------------------------------------------
 Center     Atomic      Atomic             Coordinates (Angstroms)
 Number     Number       Type             X           Y           Z
 ---------------------------------------------------------------------
      1         11           0        0.806956    3.439165   -0.250677
      2         11           0       -4.052885   -0.206601   -0.099938
      3         11           0        3.604331    1.707867   -0.798010
      4         11           0        3.936475   -1.515655    0.681879
      5         11           0       -2.766921   -3.195184   -0.611303
      6         11           0        1.235436   -3.320282    0.319340
      7         11           0       -2.763392    3.090690    0.758709
 ---------------------------------------------------------------------

 SCF Done:  E(UB3LYP) =  -1136.10890621     A.U. after   23 cycles

 The electronic state is 2-A.
 Alpha  occ. eigenvalues --  -38.45213 -38.45049 -38.44833 -38.44611 -38.44448
 Alpha  occ. eigenvalues --  -38.44091 -38.44027  -2.20975  -2.20817  -2.20591
 Alpha  occ. eigenvalues --   -2.20407  -2.20252  -2.19884  -2.19816  -1.14649
 Alpha  occ. eigenvalues --   -1.14642  -1.14609  -1.14501  -1.14491  -1.14461
 Alpha  occ. eigenvalues --   -1.14278  -1.14273  -1.14234  -1.14073  -1.14066
 Alpha  occ. eigenvalues --   -1.14053  -1.13910  -1.13901  -1.13876  -1.13537
 Alpha  occ. eigenvalues --   -1.13533  -1.13518  -1.13470  -1.13457  -1.13444
 Alpha  occ. eigenvalues --   -0.15470  -0.14048  -0.13453  -0.11077
 Alpha virt. eigenvalues --   -0.07702  -0.04722  -0.04614  -0.03611  -0.03524
 Alpha virt. eigenvalues --   -0.02314  -0.02149  -0.01877  -0.01535  -0.01051
 Alpha virt. eigenvalues --   -0.00740  -0.00146  -0.00080   0.00429   0.00621

  Beta  occ. eigenvalues --  -38.45182 -38.45039 -38.44827 -38.44592 -38.44399
  Beta  occ. eigenvalues --  -38.44040 -38.43960  -2.20924  -2.20804  -2.20588
  Beta  occ. eigenvalues --   -2.20378  -2.20163  -2.19792  -2.19690  -1.14616
  Beta  occ. eigenvalues --   -1.14610  -1.14553  -1.14498  -1.14487  -1.14410
  Beta  occ. eigenvalues --   -1.14280  -1.14274  -1.14194  -1.14055  -1.14047
  Beta  occ. eigenvalues --   -1.14013  -1.13850  -1.13841  -1.13812  -1.13475
  Beta  occ. eigenvalues --   -1.13471  -1.13455  -1.13384  -1.13373  -1.13362
  Beta  occ. eigenvalues --   -0.14924  -0.13280  -0.12634
  Beta virt. eigenvalues --   -0.08006  -0.07899  -0.04244  -0.04062  -0.03436
  Beta virt. eigenvalues --   -0.03259  -0.02097  -0.02000  -0.01647  -0.01344
  Beta virt. eigenvalues --   -0.00714  -0.00470   0.00099   0.00128   0.00428

 Mulliken charges and spin densities:
               1          2
     1  Na  -0.076550   0.032141
     2  Na  -0.305052   0.115566
     3  Na  -0.054671   0.136502
     4  Na   0.023059  -0.040981
     5  Na   0.293347   0.239185
     6  Na  -0.127101   0.182580
     7  Na   0.246968   0.335006
 Sum of Mulliken charges =  -0.00000   1.00000

 Dipole moment (field-independent basis, Debye):
    X=              0.6013    Y=             -0.3947    Z=              0.0253  Tot=              0.7197
 Quadrupole moment (field-independent basis, Debye-Ang):
   XX=            -60.4649   YY=            -66.6536   ZZ=            -73.0554
   XY=             -0.5907   XZ=             -0.0057   YZ=              0.8102

 Normal termination of Gaussian 16 at Sun Dec  3 22:03:15 2023.
