 Gaussian 16, Revision B.01,
 Gaussian 16:  ES64L-G16RevB.01 20-Dec-2017

 -------------------------
 #P B3LYP/6-311+g(d) force
 -------------------------

 -----
 DPGEN
 -----
 Symbolic Z-matrix:
 Charge =  0 Multiplicity = 2

                         Standard orientation:
 ---------------------------------------------------------------------
 Center     Atomic      Atomic             Coordinates (Angstroms)
 Number     Number       Type             X           Y           Z
 ---------------------------------------------------------------------
      1         11           0       -2.475944    1.845100    0.385426
      2         11           0       -1.750610   -2.198208   -0.016447
      3         11           0       -3.622155   -0.344554   -1.551354
      4         11           0       -0.004969    0.024536    2.370854
      5         11           0        4.445547   -0.008348   -1.091379
      6         11           0        1.245341    2.141289   -0.414001
      7         11           0        2.162790   -1.459814    0.316900
 ---------------------------------------------------------------------

 SCF Done:  E(UB3LYP) =  -1136.11787803     A.U. after   24 cycles

 The electronic state is 2-A.
 Alpha  occ. eigenvalues --  -38.44565 -38.44240 -38.44229 -38.44080 -38.43978
 Alpha  occ. eigenvalues --  -38.43977 -38.43654  -2.20348  -2.20100  -2.20058
 Alpha  occ. eigenvalues --   -2.19920  -2.19849  -2.19812  -2.19531  -1.14047
 Alpha  occ. eigenvalues --   -1.14014  -1.13944  -1.13796  -1.13772  -1.13761
 Alpha  occ. eigenvalues --   -1.13701  -1.13694  -1.13685  -1.13621  -1.13585
 Alpha  occ. eigenvalues --   -1.13541  -1.13523  -1.13520  -1.13506  -1.13479
 Alpha  occ. eigenvalues --   -1.13466  -1.13459  -1.13179  -1.13164  -1.13149
 Alpha  occ. eigenvalues --   -0.17670  -0.14304  -0.12013  -0.11073
 Alpha virt. eigenvalues --   -0.06354  -0.05357  -0.04826  -0.03385  -0.02961
 Alpha virt. eigenvalues --   -0.02685  -0.02182  -0.01145  -0.00778  -0.00395
 Alpha virt. eigenvalues --   -0.00061   0.00184   0.00259   0.00430   0.00678

  Beta  occ. eigenvalues --  -38.44542 -38.44191 -38.44180 -38.44054 -38.43961
  Beta  occ. eigenvalues --  -38.43960 -38.43628  -2.20303  -2.19990  -2.19988
  Beta  occ. eigenvalues --   -2.19873  -2.19826  -2.19783  -2.19483  -1.14017
  Beta  occ. eigenvalues --   -1.13984  -1.13908  -1.13738  -1.13713  -1.13685
  Beta  occ. eigenvalues --   -1.13653  -1.13633  -1.13607  -1.13581  -1.13555
  Beta  occ. eigenvalues --   -1.13513  -1.13504  -1.13495  -1.13490  -1.13463
  Beta  occ. eigenvalues --   -1.13429  -1.13404  -1.13139  -1.13133  -1.13120
  Beta  occ. eigenvalues --   -0.16889  -0.13845  -0.11017
  Beta virt. eigenvalues --   -0.08283  -0.06010  -0.04819  -0.04452  -0.03123
  Beta virt. eigenvalues --   -0.02487  -0.02242  -0.01994  -0.00898  -0.00610
  Beta virt. eigenvalues --   -0.00238   0.00090   0.00288   0.00325   0.00538

 Mulliken charges and spin densities:
               1          2
     1  Na  -0.305001   0.182521
     2  Na  -0.261300  -0.129224
     3  Na   0.385503   0.213140
     4  Na   0.356963   0.436467
     5  Na   0.738957   0.211315
     6  Na  -0.257645   0.110731
     7  Na  -0.657478  -0.024950
 Sum of Mulliken charges =  -0.00000   1.00000

 Dipole moment (field-independent basis, Debye):
    X=              0.4580    Y=              0.7391    Z=              0.0655  Tot=              0.8720
 Quadrupole moment (field-independent basis, Debye-Ang):
   XX=            -61.9194   YY=            -71.8635   ZZ=            -66.4398
   XY=             -0.9096   XZ=             -1.6980   YZ=             -5.4649

 Normal termination of Gaussian 16 at Sun Dec  3 22:58:50 2023.
