 Gaussian 16, Revision B.01,
 Gaussian 16:  ES64L-G16RevB.01 20-Dec-2017

 -------------------------
 #P B3LYP/6-311+g(d) force
 -------------------------

 -----
 DPGEN
 -----
 Symbolic Z-matrix:
 Charge =  0 Multiplicity = 2

                         Standard orientation:
 ---------------------------------------------------------------------
 Center     Atomic      Atomic             Coordinates (Angstroms)
 Number     Number       Type             X           Y           Z
 ---------------------------------------------------------------------
      1         11           0       -3.423842   -1.650777    0.231821
      2         11           0        3.249894   -1.929123   -0.723761
      3         11           0        0.213654   -0.492581    2.173084
      4         11           0        2.283177    1.400458    1.036228
      5         11           0       -0.010404    3.254081   -1.407010
      6         11           0       -1.977455    1.604911    0.083993
      7         11           0       -0.335023   -2.186969   -1.394355
 ---------------------------------------------------------------------

 SCF Done:  E(UB3LYP) =  -1136.12178933     A.U. after   20 cycles

 The electronic state is 2-A.
 Alpha  occ. eigenvalues --  -38.44660 -38.44398 -38.44323 -38.44220 -38.44106
 Alpha  occ. eigenvalues --  -38.43713 -38.43553  -2.20523  -2.20180  -2.20151
 Alpha  occ. eigenvalues --   -2.19982  -2.19894  -2.19575  -2.19395  -1.14248
 Alpha  occ. eigenvalues --   -1.14143  -1.14138  -1.13866  -1.13854  -1.13845
 Alpha  occ. eigenvalues --   -1.13797  -1.13791  -1.13746  -1.13655  -1.13634
 Alpha  occ. eigenvalues --   -1.13611  -1.13562  -1.13557  -1.13530  -1.13352
 Alpha  occ. eigenvalues --   -1.13244  -1.13219  -1.13030  -1.13017  -1.12994
 Alpha  occ. eigenvalues --   -0.17330  -0.12853  -0.12702  -0.11130
 Alpha virt. eigenvalues --   -0.05871  -0.05801  -0.04407  -0.03562  -0.03429
 Alpha virt. eigenvalues --   -0.02359  -0.01793  -0.01423  -0.00648  -0.00482
 Alpha virt. eigenvalues --   -0.00009   0.00203   0.00351   0.00603   0.00736

  Beta  occ. eigenvalues --  -38.44570 -38.44368 -38.44301 -38.44196 -38.44106
  Beta  occ. eigenvalues --  -38.43706 -38.43510  -2.20359  -2.20125  -2.20115
  Beta  occ. eigenvalues --   -2.19938  -2.19895  -2.19568  -2.19315  -1.14138
  Beta  occ. eigenvalues --   -1.14030  -1.14023  -1.13829  -1.13818  -1.13795
  Beta  occ. eigenvalues --   -1.13762  -1.13744  -1.13732  -1.13625  -1.13595
  Beta  occ. eigenvalues --   -1.13584  -1.13564  -1.13553  -1.13530  -1.13319
  Beta  occ. eigenvalues --   -1.13229  -1.13217  -1.12974  -1.12965  -1.12949
  Beta  occ. eigenvalues --   -0.16705  -0.12688  -0.12125
  Beta virt. eigenvalues --   -0.07573  -0.05730  -0.05632  -0.04005  -0.03094
  Beta virt. eigenvalues --   -0.02898  -0.01781  -0.01677  -0.01270  -0.00543
  Beta virt. eigenvalues --   -0.00313   0.00132   0.00333   0.00476   0.00739

 Mulliken charges and spin densities:
               1          2
     1  Na   0.612892  -0.017198
     2  Na  -0.053325   0.044722
     3  Na   0.116924   0.326459
     4  Na   0.099574   0.198092
     5  Na   0.440501   0.157152
     6  Na  -0.825007   0.049865
     7  Na  -0.391560   0.240908
 Sum of Mulliken charges =  -0.00000   1.00000

 Dipole moment (field-independent basis, Debye):
    X=              0.0876    Y=             -0.5057    Z=              0.0951  Tot=              0.5220
 Quadrupole moment (field-independent basis, Debye-Ang):
   XX=            -57.6786   YY=            -69.7315   ZZ=            -70.1064
   XY=              4.5642   XZ=             -2.2535   YZ=             -1.2014

 Normal termination of Gaussian 16 at Sun Dec  3 23:52:34 2023.
