 Gaussian 16, Revision B.01,
 Gaussian 16:  ES64L-G16RevB.01 20-Dec-2017

 -------------------------
 #P B3LYP/6-311+g(d) force
 -------------------------

 -----
 DPGEN
 -----
 Symbolic Z-matrix:
 Charge =  0 Multiplicity = 2

                         Standard orientation:
 ---------------------------------------------------------------------
 Center     Atomic      Atomic             Coordinates (Angstroms)
 Number     Number       Type             X           Y           Z
 ---------------------------------------------------------------------
      1         11           0        0.392836   -1.151435   -1.332880
      2         11           0       -2.452296   -2.395709   -0.534844
      3         11           0       -3.240184    0.736349    0.550423
      4         11           0        2.436019    1.697233   -0.753325
      5         11           0        0.383709    0.303056    2.144623
      6         11           0        3.082964   -1.844475    0.532569
      7         11           0       -0.603048    2.654980   -0.606566
 ---------------------------------------------------------------------

 SCF Done:  E(UB3LYP) =  -1136.12897951     A.U. after   20 cycles

 The electronic state is 2-A.
 Alpha  occ. eigenvalues --  -38.44474 -38.44462 -38.44419 -38.43985 -38.43688
 Alpha  occ. eigenvalues --  -38.43442 -38.43069  -2.20296  -2.20262  -2.20217
 Alpha  occ. eigenvalues --   -2.19843  -2.19507  -2.19336  -2.18921  -1.13968
 Alpha  occ. eigenvalues --   -1.13942  -1.13939  -1.13918  -1.13905  -1.13899
 Alpha  occ. eigenvalues --   -1.13886  -1.13873  -1.13852  -1.13529  -1.13501
 Alpha  occ. eigenvalues --   -1.13464  -1.13214  -1.13157  -1.13143  -1.13016
 Alpha  occ. eigenvalues --   -1.12985  -1.12956  -1.12594  -1.12584  -1.12567
 Alpha  occ. eigenvalues --   -0.17952  -0.13361  -0.12138  -0.10816
 Alpha virt. eigenvalues --   -0.06301  -0.05626  -0.04451  -0.03357  -0.02821
 Alpha virt. eigenvalues --   -0.02512  -0.01961  -0.01367  -0.00667  -0.00212
 Alpha virt. eigenvalues --   -0.00129   0.00275   0.00437   0.00701   0.00737

  Beta  occ. eigenvalues --  -38.44455 -38.44409 -38.44389 -38.43956 -38.43677
  Beta  occ. eigenvalues --  -38.43406 -38.43060  -2.20251  -2.20199  -2.20137
  Beta  occ. eigenvalues --   -2.19792  -2.19489  -2.19271  -2.18909  -1.13933
  Beta  occ. eigenvalues --   -1.13908  -1.13893  -1.13876  -1.13861  -1.13855
  Beta  occ. eigenvalues --   -1.13841  -1.13833  -1.13776  -1.13490  -1.13460
  Beta  occ. eigenvalues --   -1.13424  -1.13191  -1.13141  -1.13132  -1.12969
  Beta  occ. eigenvalues --   -1.12935  -1.12910  -1.12586  -1.12580  -1.12534
  Beta  occ. eigenvalues --   -0.17303  -0.13178  -0.11810
  Beta virt. eigenvalues --   -0.07126  -0.06037  -0.05564  -0.04170  -0.02846
  Beta virt. eigenvalues --   -0.02255  -0.01796  -0.01642  -0.01171  -0.00647
  Beta virt. eigenvalues --   -0.00161   0.00026   0.00324   0.00587   0.00742

 Mulliken charges and spin densities:
               1          2
     1  Na  -0.145893   0.226689
     2  Na  -0.024124  -0.026950
     3  Na   0.175660   0.089757
     4  Na   0.264291   0.159507
     5  Na  -0.233227   0.522921
     6  Na   0.174738   0.067486
     7  Na  -0.211446  -0.039411
 Sum of Mulliken charges =  -0.00000   1.00000

 Dipole moment (field-independent basis, Debye):
    X=              0.3587    Y=             -0.1492    Z=              0.4190  Tot=              0.5714
 Quadrupole moment (field-independent basis, Debye-Ang):
   XX=            -52.9106   YY=            -68.6255   ZZ=            -73.3253
   XY=             -1.9163   XZ=             -0.6628   YZ=             -1.5412

 Normal termination of Gaussian 16 at Fri Dec  8 05:47:09 2023.
