 Gaussian 16, Revision B.01,
 Gaussian 16:  ES64L-G16RevB.01 20-Dec-2017

 -------------------------
 #P B3LYP/6-311+g(d) force
 -------------------------

 -----
 DPGEN
 -----
 Symbolic Z-matrix:
 Charge =  0 Multiplicity = 2

                         Standard orientation:
 ---------------------------------------------------------------------
 Center     Atomic      Atomic             Coordinates (Angstroms)
 Number     Number       Type             X           Y           Z
 ---------------------------------------------------------------------
      1         11           0       -3.791351   -1.798274   -0.360311
      2         11           0        2.115147   -2.597117    0.141883
      3         11           0       -2.714178    1.586680    0.534874
      4         11           0       -0.110369   -0.639125   -1.129148
      5         11           0        0.447133    2.778328   -0.661262
      6         11           0        1.059945    0.173334    2.304326
      7         11           0        2.993674    0.496175   -0.830362
 ---------------------------------------------------------------------

 SCF Done:  E(UB3LYP) =  -1136.12636819     A.U. after   21 cycles

 The electronic state is 2-A.
 Alpha  occ. eigenvalues --  -38.44468 -38.44377 -38.44308 -38.44149 -38.43815
 Alpha  occ. eigenvalues --  -38.43780 -38.42789  -2.20265  -2.20247  -2.20052
 Alpha  occ. eigenvalues --   -2.19988  -2.19698  -2.19664  -2.18634  -1.13952
 Alpha  occ. eigenvalues --   -1.13933  -1.13923  -1.13918  -1.13889  -1.13866
 Alpha  occ. eigenvalues --   -1.13727  -1.13715  -1.13683  -1.13648  -1.13622
 Alpha  occ. eigenvalues --   -1.13587  -1.13430  -1.13386  -1.13335  -1.13316
 Alpha  occ. eigenvalues --   -1.13302  -1.13275  -1.12317  -1.12292  -1.12277
 Alpha  occ. eigenvalues --   -0.18108  -0.13354  -0.11754  -0.10800
 Alpha virt. eigenvalues --   -0.06448  -0.05773  -0.04359  -0.03170  -0.02748
 Alpha virt. eigenvalues --   -0.02522  -0.02050  -0.01378  -0.00882  -0.00331
 Alpha virt. eigenvalues --   -0.00244   0.00212   0.00473   0.00641   0.00705

  Beta  occ. eigenvalues --  -38.44465 -38.44346 -38.44311 -38.44040 -38.43809
  Beta  occ. eigenvalues --  -38.43751 -38.42781  -2.20242  -2.20212  -2.20058
  Beta  occ. eigenvalues --   -2.19784  -2.19658  -2.19647  -2.18623  -1.13924
  Beta  occ. eigenvalues --   -1.13915  -1.13911  -1.13872  -1.13865  -1.13848
  Beta  occ. eigenvalues --   -1.13730  -1.13719  -1.13687  -1.13510  -1.13487
  Beta  occ. eigenvalues --   -1.13441  -1.13405  -1.13347  -1.13312  -1.13293
  Beta  occ. eigenvalues --   -1.13277  -1.13250  -1.12307  -1.12288  -1.12251
  Beta  occ. eigenvalues --   -0.17389  -0.13240  -0.11538
  Beta virt. eigenvalues --   -0.06896  -0.06245  -0.05601  -0.04264  -0.02666
  Beta virt. eigenvalues --   -0.02098  -0.01979  -0.01562  -0.01236  -0.00819
  Beta virt. eigenvalues --   -0.00296   0.00029   0.00272   0.00617   0.00669

 Mulliken charges and spin densities:
               1          2
     1  Na   0.117057  -0.005948
     2  Na   0.243454   0.117950
     3  Na   0.130600   0.025727
     4  Na  -0.707947   0.111397
     5  Na   0.027584   0.007829
     6  Na  -0.584113   0.628550
     7  Na   0.773365   0.114494
 Sum of Mulliken charges =  -0.00000   1.00000

 Dipole moment (field-independent basis, Debye):
    X=              0.1581    Y=             -0.2104    Z=              0.2333  Tot=              0.3517
 Quadrupole moment (field-independent basis, Debye-Ang):
   XX=            -55.0388   YY=            -64.8085   ZZ=            -74.3019
   XY=             -1.0142   XZ=             -1.9067   YZ=              0.2987

 Normal termination of Gaussian 16 at Thu Dec  7 08:36:19 2023.
