 Gaussian 16, Revision B.01,
 Gaussian 16:  ES64L-G16RevB.01 20-Dec-2017

 -------------------------
 #P B3LYP/6-311+g(d) force
 -------------------------

 -----
 DPGEN
 -----
 Symbolic Z-matrix:
 Charge =  0 Multiplicity = 2

                         Standard orientation:
 ---------------------------------------------------------------------
 Center     Atomic      Atomic             Coordinates (Angstroms)
 Number     Number       Type             X           Y           Z
 ---------------------------------------------------------------------
      1         11           0       -1.117814   -2.354533    0.359354
      2         11           0        2.449358    1.912139    0.533476
      3         11           0        0.384826    0.059647   -1.813049
      4         11           0        2.619102   -1.826504   -0.595731
      5         11           0        0.293041   -0.257439    1.913609
      6         11           0       -1.214183    2.701156   -0.257027
      7         11           0       -3.414329   -0.234465   -0.140631
 ---------------------------------------------------------------------

 SCF Done:  E(UB3LYP) =  -1136.13235422     A.U. after   20 cycles

 The electronic state is 2-A.
 Alpha  occ. eigenvalues --  -38.44270 -38.44019 -38.43937 -38.43797 -38.43642
 Alpha  occ. eigenvalues --  -38.43402 -38.43186  -2.20078  -2.19841  -2.19773
 Alpha  occ. eigenvalues --   -2.19734  -2.19571  -2.19207  -2.19103  -1.13765
 Alpha  occ. eigenvalues --   -1.13742  -1.13715  -1.13543  -1.13501  -1.13489
 Alpha  occ. eigenvalues --   -1.13467  -1.13459  -1.13411  -1.13403  -1.13361
 Alpha  occ. eigenvalues --   -1.13330  -1.13241  -1.13198  -1.13193  -1.12893
 Alpha  occ. eigenvalues --   -1.12875  -1.12830  -1.12805  -1.12754  -1.12702
 Alpha  occ. eigenvalues --   -0.18514  -0.13102  -0.12214  -0.11049
 Alpha virt. eigenvalues --   -0.05863  -0.05304  -0.04262  -0.03341  -0.02913
 Alpha virt. eigenvalues --   -0.02712  -0.01712  -0.01240  -0.00356  -0.00184
 Alpha virt. eigenvalues --   -0.00002   0.00312   0.00745   0.00833   0.00900

  Beta  occ. eigenvalues --  -38.44274 -38.44002 -38.43917 -38.43713 -38.43571
  Beta  occ. eigenvalues --  -38.43399 -38.43173  -2.20086  -2.19811  -2.19739
  Beta  occ. eigenvalues --   -2.19580  -2.19443  -2.19205  -2.19085  -1.13773
  Beta  occ. eigenvalues --   -1.13739  -1.13717  -1.13504  -1.13468  -1.13453
  Beta  occ. eigenvalues --   -1.13447  -1.13384  -1.13380  -1.13349  -1.13255
  Beta  occ. eigenvalues --   -1.13229  -1.13156  -1.13111  -1.13096  -1.12882
  Beta  occ. eigenvalues --   -1.12872  -1.12827  -1.12780  -1.12728  -1.12688
  Beta  occ. eigenvalues --   -0.17808  -0.12854  -0.11937
  Beta virt. eigenvalues --   -0.07155  -0.05772  -0.05245  -0.04221  -0.02627
  Beta virt. eigenvalues --   -0.02207  -0.01694  -0.01586  -0.01131  -0.00372
  Beta virt. eigenvalues --   -0.00160   0.00094   0.00353   0.00818   0.00857

 Mulliken charges and spin densities:
               1          2
     1  Na   0.482989   0.057033
     2  Na  -0.003568  -0.046817
     3  Na  -0.293066   0.632152
     4  Na   0.177565  -0.008121
     5  Na  -0.101187   0.519993
     6  Na  -0.003978  -0.055201
     7  Na  -0.258755  -0.099039
 Sum of Mulliken charges =  -0.00000   1.00000

 Dipole moment (field-independent basis, Debye):
    X=              0.2166    Y=              0.0974    Z=             -0.0234  Tot=              0.2386
 Quadrupole moment (field-independent basis, Debye-Ang):
   XX=            -54.4401   YY=            -66.2225   ZZ=            -73.3669
   XY=             -0.4807   XZ=              0.6106   YZ=              1.1197

 Normal termination of Gaussian 16 at Thu Dec  7 09:49:40 2023.
