 Gaussian 16, Revision B.01,
 Gaussian 16:  ES64L-G16RevB.01 20-Dec-2017

 -------------------------
 #P B3LYP/6-311+g(d) force
 -------------------------

 -----
 DPGEN
 -----
 Symbolic Z-matrix:
 Charge =  0 Multiplicity = 2

                         Standard orientation:
 ---------------------------------------------------------------------
 Center     Atomic      Atomic             Coordinates (Angstroms)
 Number     Number       Type             X           Y           Z
 ---------------------------------------------------------------------
      1         11           0        0.503251    2.974416   -0.079036
      2         11           0       -2.848473    1.384871    0.304406
      3         11           0       -2.337488   -1.973733   -0.367227
      4         11           0       -0.043594    0.071346   -1.599928
      5         11           0        0.449241   -0.231508    2.010738
      6         11           0        3.003297    0.448707   -0.336504
      7         11           0        1.273765   -2.674099    0.067553
 ---------------------------------------------------------------------

 SCF Done:  E(UB3LYP) =  -1136.13943910     A.U. after   20 cycles

 The electronic state is 2-A.
 Alpha  occ. eigenvalues --  -38.43899 -38.43873 -38.43657 -38.43526 -38.43503
 Alpha  occ. eigenvalues --  -38.43472 -38.43058  -2.19732  -2.19705  -2.19492
 Alpha  occ. eigenvalues --   -2.19428  -2.19338  -2.19336  -2.19047  -1.13421
 Alpha  occ. eigenvalues --   -1.13398  -1.13377  -1.13370  -1.13359  -1.13350
 Alpha  occ. eigenvalues --   -1.13186  -1.13149  -1.13130  -1.13119  -1.13073
 Alpha  occ. eigenvalues --   -1.13046  -1.13031  -1.13004  -1.12998  -1.12980
 Alpha  occ. eigenvalues --   -1.12965  -1.12959  -1.12728  -1.12676  -1.12671
 Alpha  occ. eigenvalues --   -0.18621  -0.12946  -0.12554  -0.10655
 Alpha virt. eigenvalues --   -0.05475  -0.05229  -0.04886  -0.03121  -0.02911
 Alpha virt. eigenvalues --   -0.02461  -0.01432  -0.01186  -0.00460  -0.00385
 Alpha virt. eigenvalues --    0.00003   0.00358   0.00834   0.00872   0.00879

  Beta  occ. eigenvalues --  -38.43896 -38.43862 -38.43649 -38.43500 -38.43465
  Beta  occ. eigenvalues --  -38.43435 -38.42996  -2.19717  -2.19700  -2.19481
  Beta  occ. eigenvalues --   -2.19335  -2.19329  -2.19259  -2.18933  -1.13406
  Beta  occ. eigenvalues --   -1.13371  -1.13369  -1.13362  -1.13347  -1.13346
  Beta  occ. eigenvalues --   -1.13169  -1.13130  -1.13118  -1.13061  -1.13025
  Beta  occ. eigenvalues --   -1.12990  -1.12980  -1.12963  -1.12961  -1.12958
  Beta  occ. eigenvalues --   -1.12928  -1.12900  -1.12651  -1.12592  -1.12588
  Beta  occ. eigenvalues --   -0.17905  -0.12716  -0.12300
  Beta virt. eigenvalues --   -0.06770  -0.05448  -0.05196  -0.04820  -0.02378
  Beta virt. eigenvalues --   -0.02146  -0.01427  -0.01332  -0.01105  -0.00493
  Beta virt. eigenvalues --   -0.00435   0.00143   0.00390   0.00863   0.00874

 Mulliken charges and spin densities:
               1          2
     1  Na   0.001637  -0.063884
     2  Na  -0.064546  -0.006059
     3  Na   0.092386  -0.047011
     4  Na  -0.105134   0.443778
     5  Na  -0.461191   0.779795
     6  Na   0.252665  -0.059046
     7  Na   0.284182  -0.047573
 Sum of Mulliken charges =  -0.00000   1.00000

 Dipole moment (field-independent basis, Debye):
    X=              0.0350    Y=              0.0402    Z=              0.1247  Tot=              0.1356
 Quadrupole moment (field-independent basis, Debye-Ang):
   XX=            -57.4331   YY=            -60.8725   ZZ=            -74.8012
   XY=             -0.1440   XZ=             -1.2840   YZ=              1.0007

 Normal termination of Gaussian 16 at Tue Dec  5 12:26:47 2023.
