 Gaussian 16, Revision B.01,
 Gaussian 16:  ES64L-G16RevB.01 20-Dec-2017

 -------------------------
 #P B3LYP/6-311+g(d) force
 -------------------------

 -----
 DPGEN
 -----
 Symbolic Z-matrix:
 Charge =  0 Multiplicity = 2

                         Standard orientation:
 ---------------------------------------------------------------------
 Center     Atomic      Atomic             Coordinates (Angstroms)
 Number     Number       Type             X           Y           Z
 ---------------------------------------------------------------------
      1         11           0        2.921292    2.861241    0.471255
      2         11           0        1.659346   -3.014210   -0.989891
      3         11           0       -1.083057    3.405103    0.194212
      4         11           0       -3.669080    1.801073   -0.574660
      5         11           0       -3.573103   -1.735792   -0.432663
      6         11           0       -0.934877   -2.896310    1.676073
      7         11           0        4.679480   -0.421105   -0.344325
 ---------------------------------------------------------------------

 SCF Done:  E(UB3LYP) =  -1136.09973275     A.U. after   42 cycles

 The electronic state is 2-A.
 Alpha  occ. eigenvalues --  -38.45478 -38.45172 -38.45070 -38.44978 -38.44674
 Alpha  occ. eigenvalues --  -38.43842 -38.43840  -2.21182  -2.20943  -2.20818
 Alpha  occ. eigenvalues --   -2.20756  -2.20431  -2.19662  -2.19610  -1.14878
 Alpha  occ. eigenvalues --   -1.14851  -1.14824  -1.14613  -1.14599  -1.14574
 Alpha  occ. eigenvalues --   -1.14498  -1.14476  -1.14457  -1.14430  -1.14427
 Alpha  occ. eigenvalues --   -1.14399  -1.14100  -1.14085  -1.14039  -1.13328
 Alpha  occ. eigenvalues --   -1.13315  -1.13302  -1.13270  -1.13257  -1.13226
 Alpha  occ. eigenvalues --   -0.15371  -0.13446  -0.13247  -0.10372
 Alpha virt. eigenvalues --   -0.08001  -0.05614  -0.04309  -0.03506  -0.03310
 Alpha virt. eigenvalues --   -0.02521  -0.02434  -0.01808  -0.01221  -0.00989
 Alpha virt. eigenvalues --   -0.00765  -0.00240   0.00043   0.00271   0.00439

  Beta  occ. eigenvalues --  -38.45496 -38.45137 -38.45072 -38.44955 -38.44612
  Beta  occ. eigenvalues --  -38.43813 -38.43767  -2.21218  -2.20879  -2.20823
  Beta  occ. eigenvalues --   -2.20719  -2.20316  -2.19614  -2.19470  -1.14906
  Beta  occ. eigenvalues --   -1.14878  -1.14823  -1.14569  -1.14557  -1.14528
  Beta  occ. eigenvalues --   -1.14503  -1.14481  -1.14442  -1.14407  -1.14406
  Beta  occ. eigenvalues --   -1.14341  -1.14022  -1.14009  -1.13958  -1.13290
  Beta  occ. eigenvalues --   -1.13284  -1.13264  -1.13174  -1.13163  -1.13135
  Beta  occ. eigenvalues --   -0.14926  -0.12884  -0.12525
  Beta virt. eigenvalues --   -0.08167  -0.07209  -0.05187  -0.03847  -0.03331
  Beta virt. eigenvalues --   -0.02974  -0.02298  -0.02234  -0.01615  -0.01083
  Beta virt. eigenvalues --   -0.00763  -0.00529   0.00011   0.00090   0.00418

 Mulliken charges and spin densities:
               1          2
     1  Na  -0.078095   0.376658
     2  Na  -0.065152   0.306247
     3  Na  -0.179897   0.183036
     4  Na   0.516687  -0.013105
     5  Na  -0.201975   0.218209
     6  Na   0.004753  -0.013653
     7  Na   0.003679  -0.057392
 Sum of Mulliken charges =  -0.00000   1.00000

 Dipole moment (field-independent basis, Debye):
    X=             -0.5341    Y=             -0.9790    Z=              0.1315  Tot=              1.1229
 Quadrupole moment (field-independent basis, Debye-Ang):
   XX=            -61.3132   YY=            -72.5267   ZZ=            -68.7095
   XY=              0.5459   XZ=              2.3550   YZ=              0.4655

 Normal termination of Gaussian 16 at Sun Dec  3 19:22:39 2023.
