 Gaussian 16, Revision B.01,
 Gaussian 16:  ES64L-G16RevB.01 20-Dec-2017

 -------------------------
 #P B3LYP/6-311+g(d) force
 -------------------------

 -----
 DPGEN
 -----
 Symbolic Z-matrix:
 Charge =  0 Multiplicity = 2

                         Standard orientation:
 ---------------------------------------------------------------------
 Center     Atomic      Atomic             Coordinates (Angstroms)
 Number     Number       Type             X           Y           Z
 ---------------------------------------------------------------------
      1         11           0       -2.879662    1.252188    0.114996
      2         11           0        0.111771   -0.350325    2.051184
      3         11           0        3.465238    0.424522    0.171272
      4         11           0       -2.636451   -2.053527   -0.036469
      5         11           0        0.380726    3.048845   -0.167989
      6         11           0       -0.200452    0.161973   -1.647425
      7         11           0        1.758830   -2.483677   -0.485569
 ---------------------------------------------------------------------

 SCF Done:  E(UB3LYP) =  -1136.13297464     A.U. after   19 cycles

 The electronic state is 2-A.
 Alpha  occ. eigenvalues --  -38.44929 -38.44227 -38.43943 -38.43823 -38.43691
 Alpha  occ. eigenvalues --  -38.43261 -38.43072  -2.20698  -2.20066  -2.19748
 Alpha  occ. eigenvalues --   -2.19663  -2.19510  -2.19191  -2.18883  -1.14374
 Alpha  occ. eigenvalues --   -1.14351  -1.14343  -1.13754  -1.13732  -1.13699
 Alpha  occ. eigenvalues --   -1.13414  -1.13407  -1.13395  -1.13335  -1.13298
 Alpha  occ. eigenvalues --   -1.13273  -1.13192  -1.13167  -1.13144  -1.12882
 Alpha  occ. eigenvalues --   -1.12830  -1.12820  -1.12564  -1.12542  -1.12515
 Alpha  occ. eigenvalues --   -0.18063  -0.13260  -0.11921  -0.10449
 Alpha virt. eigenvalues --   -0.06278  -0.05413  -0.04576  -0.03321  -0.02628
 Alpha virt. eigenvalues --   -0.02428  -0.01980  -0.01249  -0.00699  -0.00526
 Alpha virt. eigenvalues --   -0.00049   0.00326   0.00685   0.00771   0.00803

  Beta  occ. eigenvalues --  -38.44929 -38.44224 -38.43942 -38.43733 -38.43678
  Beta  occ. eigenvalues --  -38.43197 -38.43071  -2.20700  -2.20061  -2.19751
  Beta  occ. eigenvalues --   -2.19497  -2.19488  -2.19075  -2.18883  -1.14358
  Beta  occ. eigenvalues --   -1.14355  -1.14345  -1.13749  -1.13714  -1.13698
  Beta  occ. eigenvalues --   -1.13413  -1.13398  -1.13393  -1.13224  -1.13186
  Beta  occ. eigenvalues --   -1.13168  -1.13153  -1.13138  -1.13129  -1.12800
  Beta  occ. eigenvalues --   -1.12746  -1.12738  -1.12554  -1.12534  -1.12515
  Beta  occ. eigenvalues --   -0.17353  -0.13090  -0.11706
  Beta virt. eigenvalues --   -0.06604  -0.06155  -0.05419  -0.04511  -0.02587
  Beta virt. eigenvalues --   -0.01937  -0.01859  -0.01417  -0.01164  -0.00742
  Beta virt. eigenvalues --   -0.00545   0.00111   0.00353   0.00747   0.00805

 Mulliken charges and spin densities:
               1          2
     1  Na   0.145886  -0.005085
     2  Na  -0.370401   0.731550
     3  Na   0.036446  -0.018188
     4  Na   0.107851  -0.073355
     5  Na  -0.059631  -0.088237
     6  Na   0.078027   0.501550
     7  Na   0.061822  -0.048234
 Sum of Mulliken charges =  -0.00000   1.00000

 Dipole moment (field-independent basis, Debye):
    X=              0.2208    Y=             -0.1064    Z=              0.1624  Tot=              0.2940
 Quadrupole moment (field-independent basis, Debye-Ang):
   XX=            -52.1478   YY=            -64.3823   ZZ=            -76.1966
   XY=              1.0866   XZ=             -0.2776   YZ=              1.4754

 Normal termination of Gaussian 16 at Thu Dec  7 20:38:48 2023.
