 Gaussian 16, Revision B.01,
 Gaussian 16:  ES64L-G16RevB.01 20-Dec-2017

 -------------------------
 #P B3LYP/6-311+g(d) force
 -------------------------

 -----
 DPGEN
 -----
 Symbolic Z-matrix:
 Charge =  0 Multiplicity = 2

                         Standard orientation:
 ---------------------------------------------------------------------
 Center     Atomic      Atomic             Coordinates (Angstroms)
 Number     Number       Type             X           Y           Z
 ---------------------------------------------------------------------
      1         11           0       -0.793496   -1.519179    1.848425
      2         11           0        3.981526    1.841066   -0.269097
      3         11           0        2.478371   -0.921411    0.937396
      4         11           0       -3.024137   -0.543495   -1.115684
      5         11           0        0.344038   -2.202483   -1.271185
      6         11           0        0.293680    1.073186   -0.880790
      7         11           0       -3.279982    2.272316    0.750935
 ---------------------------------------------------------------------

 SCF Done:  E(UB3LYP) =  -1136.12579123     A.U. after   21 cycles

 The electronic state is 2-A.
 Alpha  occ. eigenvalues --  -38.44520 -38.44470 -38.43995 -38.43793 -38.43791
 Alpha  occ. eigenvalues --  -38.43727 -38.43336  -2.20344  -2.20320  -2.19775
 Alpha  occ. eigenvalues --   -2.19652  -2.19628  -2.19571  -2.19243  -1.14030
 Alpha  occ. eigenvalues --   -1.14028  -1.14019  -1.14006  -1.13970  -1.13903
 Alpha  occ. eigenvalues --   -1.13439  -1.13432  -1.13405  -1.13351  -1.13322
 Alpha  occ. eigenvalues --   -1.13309  -1.13293  -1.13282  -1.13255  -1.13237
 Alpha  occ. eigenvalues --   -1.13220  -1.13172  -1.12928  -1.12889  -1.12861
 Alpha  occ. eigenvalues --   -0.18081  -0.13613  -0.11671  -0.10782
 Alpha virt. eigenvalues --   -0.06391  -0.05808  -0.04469  -0.03211  -0.02739
 Alpha virt. eigenvalues --   -0.02320  -0.02204  -0.01391  -0.00849  -0.00356
 Alpha virt. eigenvalues --   -0.00103   0.00135   0.00336   0.00484   0.00724

  Beta  occ. eigenvalues --  -38.44504 -38.44440 -38.43975 -38.43797 -38.43729
  Beta  occ. eigenvalues --  -38.43706 -38.43303  -2.20316  -2.20269  -2.19737
  Beta  occ. eigenvalues --   -2.19591  -2.19583  -2.19534  -2.19185  -1.14003
  Beta  occ. eigenvalues --   -1.14001  -1.13990  -1.13956  -1.13931  -1.13870
  Beta  occ. eigenvalues --   -1.13414  -1.13402  -1.13382  -1.13307  -1.13293
  Beta  occ. eigenvalues --   -1.13272  -1.13245  -1.13242  -1.13221  -1.13210
  Beta  occ. eigenvalues --   -1.13186  -1.13147  -1.12888  -1.12847  -1.12798
  Beta  occ. eigenvalues --   -0.17392  -0.13433  -0.11483
  Beta virt. eigenvalues --   -0.06949  -0.06253  -0.05568  -0.04133  -0.02806
  Beta virt. eigenvalues --   -0.02369  -0.02123  -0.01613  -0.01085  -0.00664
  Beta virt. eigenvalues --   -0.00128  -0.00014   0.00194   0.00456   0.00568

 Mulliken charges and spin densities:
               1          2
     1  Na  -0.409924   0.378410
     2  Na   0.225373  -0.043939
     3  Na   0.350528   0.083195
     4  Na   0.732678   0.047067
     5  Na   0.347628   0.258577
     6  Na  -1.358602   0.221659
     7  Na   0.112318   0.055031
 Sum of Mulliken charges =  -0.00000   1.00000

 Dipole moment (field-independent basis, Debye):
    X=             -0.2889    Y=             -0.2968    Z=             -0.1610  Tot=              0.4444
 Quadrupole moment (field-independent basis, Debye-Ang):
   XX=            -57.5506   YY=            -66.7200   ZZ=            -71.4378
   XY=              1.3061   XZ=             -0.2253   YZ=              2.5614

 Normal termination of Gaussian 16 at Tue Dec  5 19:04:08 2023.
