 Gaussian 16, Revision B.01,
 Gaussian 16:  ES64L-G16RevB.01 20-Dec-2017

 -------------------------
 #P B3LYP/6-311+g(d) force
 -------------------------

 -----
 DPGEN
 -----
 Symbolic Z-matrix:
 Charge =  0 Multiplicity = 2

                         Standard orientation:
 ---------------------------------------------------------------------
 Center     Atomic      Atomic             Coordinates (Angstroms)
 Number     Number       Type             X           Y           Z
 ---------------------------------------------------------------------
      1         11           0       -1.439554    3.171554   -0.394415
      2         11           0        3.432217   -1.080318   -0.065472
      3         11           0        2.455038    1.911577    0.598133
      4         11           0       -1.298018    0.259378    1.956784
      5         11           0       -2.628777   -2.484521    0.431350
      6         11           0       -1.321907    0.560620   -1.830501
      7         11           0        0.801000   -2.338290   -0.695879
 ---------------------------------------------------------------------

 SCF Done:  E(UB3LYP) =  -1136.12296062     A.U. after   20 cycles

 The electronic state is 2-A.
 Alpha  occ. eigenvalues --  -38.44666 -38.44373 -38.44127 -38.44082 -38.43848
 Alpha  occ. eigenvalues --  -38.43838 -38.43722  -2.20442  -2.20196  -2.19955
 Alpha  occ. eigenvalues --   -2.19926  -2.19691  -2.19684  -2.19576  -1.14115
 Alpha  occ. eigenvalues --   -1.14111  -1.14070  -1.13863  -1.13850  -1.13813
 Alpha  occ. eigenvalues --   -1.13688  -1.13609  -1.13593  -1.13588  -1.13576
 Alpha  occ. eigenvalues --   -1.13560  -1.13465  -1.13361  -1.13336  -1.13334
 Alpha  occ. eigenvalues --   -1.13325  -1.13302  -1.13217  -1.13212  -1.13175
 Alpha  occ. eigenvalues --   -0.17482  -0.13310  -0.12670  -0.10819
 Alpha virt. eigenvalues --   -0.06231  -0.05368  -0.05009  -0.03203  -0.03070
 Alpha virt. eigenvalues --   -0.02689  -0.01714  -0.01332  -0.00710  -0.00581
 Alpha virt. eigenvalues --   -0.00130   0.00337   0.00563   0.00652   0.00791

  Beta  occ. eigenvalues --  -38.44643 -38.44303 -38.44119 -38.44015 -38.43839
  Beta  occ. eigenvalues --  -38.43814 -38.43725  -2.20400  -2.20065  -2.19916
  Beta  occ. eigenvalues --   -2.19832  -2.19671  -2.19649  -2.19584  -1.14084
  Beta  occ. eigenvalues --   -1.14079  -1.14044  -1.13775  -1.13762  -1.13717
  Beta  occ. eigenvalues --   -1.13613  -1.13588  -1.13563  -1.13554  -1.13525
  Beta  occ. eigenvalues --   -1.13486  -1.13449  -1.13326  -1.13320  -1.13302
  Beta  occ. eigenvalues --   -1.13300  -1.13285  -1.13223  -1.13212  -1.13163
  Beta  occ. eigenvalues --   -0.16887  -0.13035  -0.12394
  Beta virt. eigenvalues --   -0.07258  -0.05870  -0.05055  -0.04884  -0.02671
  Beta virt. eigenvalues --   -0.02629  -0.01854  -0.01560  -0.01293  -0.00630
  Beta virt. eigenvalues --   -0.00485   0.00088   0.00390   0.00677   0.00783

 Mulliken charges and spin densities:
               1          2
     1  Na   0.359690  -0.002312
     2  Na   0.347372  -0.162985
     3  Na  -0.411348   0.192655
     4  Na  -0.190337   0.422642
     5  Na   0.336551  -0.001678
     6  Na  -0.045244   0.266092
     7  Na  -0.396683   0.285586
 Sum of Mulliken charges =  -0.00000   1.00000

 Dipole moment (field-independent basis, Debye):
    X=             -0.3009    Y=              0.1962    Z=              0.2017  Tot=              0.4120
 Quadrupole moment (field-independent basis, Debye-Ang):
   XX=            -62.6104   YY=            -61.6009   ZZ=            -73.3462
   XY=              2.3799   XZ=              0.2051   YZ=              1.5573

 Normal termination of Gaussian 16 at Sun Dec  3 19:32:33 2023.
