 Gaussian 16, Revision B.01,
 Gaussian 16:  ES64L-G16RevB.01 20-Dec-2017

 -------------------------
 #P B3LYP/6-311+g(d) force
 -------------------------

 -----
 DPGEN
 -----
 Symbolic Z-matrix:
 Charge =  0 Multiplicity = 2

                         Standard orientation:
 ---------------------------------------------------------------------
 Center     Atomic      Atomic             Coordinates (Angstroms)
 Number     Number       Type             X           Y           Z
 ---------------------------------------------------------------------
      1         11           0        2.810592    1.681917   -0.053976
      2         11           0        0.175509   -0.638069    1.828378
      3         11           0       -0.480851   -0.014871   -1.816238
      4         11           0       -0.922001    2.673510    0.288928
      5         11           0       -3.240136    0.453225    0.030918
      6         11           0       -1.313735   -2.720639   -0.034987
      7         11           0        2.970621   -1.435073   -0.243022
 ---------------------------------------------------------------------

 SCF Done:  E(UB3LYP) =  -1136.13187479     A.U. after   19 cycles

 The electronic state is 2-A.
 Alpha  occ. eigenvalues --  -38.44674 -38.44503 -38.44136 -38.43547 -38.43326
 Alpha  occ. eigenvalues --  -38.43264 -38.43066  -2.20519  -2.20321  -2.19949
 Alpha  occ. eigenvalues --   -2.19462  -2.19230  -2.19122  -2.18918  -1.14197
 Alpha  occ. eigenvalues --   -1.14188  -1.14150  -1.14019  -1.13985  -1.13957
 Alpha  occ. eigenvalues --   -1.13612  -1.13605  -1.13590  -1.13145  -1.13103
 Alpha  occ. eigenvalues --   -1.13086  -1.12941  -1.12882  -1.12850  -1.12783
 Alpha  occ. eigenvalues --   -1.12760  -1.12746  -1.12595  -1.12579  -1.12560
 Alpha  occ. eigenvalues --   -0.18375  -0.13526  -0.12085  -0.10456
 Alpha virt. eigenvalues --   -0.06252  -0.05462  -0.04361  -0.03385  -0.02747
 Alpha virt. eigenvalues --   -0.02325  -0.01953  -0.01186  -0.00609  -0.00345
 Alpha virt. eigenvalues --   -0.00029   0.00341   0.00731   0.00789   0.00824

  Beta  occ. eigenvalues --  -38.44670 -38.44499 -38.44135 -38.43474 -38.43257
  Beta  occ. eigenvalues --  -38.43248 -38.43058  -2.20515  -2.20317  -2.19949
  Beta  occ. eigenvalues --   -2.19328  -2.19114  -2.19086  -2.18905  -1.14196
  Beta  occ. eigenvalues --   -1.14161  -1.14150  -1.14019  -1.13963  -1.13957
  Beta  occ. eigenvalues --   -1.13609  -1.13598  -1.13590  -1.13055  -1.13007
  Beta  occ. eigenvalues --   -1.12989  -1.12873  -1.12787  -1.12760  -1.12755
  Beta  occ. eigenvalues --   -1.12737  -1.12702  -1.12588  -1.12559  -1.12541
  Beta  occ. eigenvalues --   -0.17671  -0.13324  -0.11846
  Beta virt. eigenvalues --   -0.06628  -0.06150  -0.05464  -0.04291  -0.02645
  Beta virt. eigenvalues --   -0.01999  -0.01854  -0.01323  -0.01137  -0.00655
  Beta virt. eigenvalues --   -0.00363   0.00137   0.00377   0.00787   0.00809

 Mulliken charges and spin densities:
               1          2
     1  Na  -0.117454  -0.025974
     2  Na  -0.206995   0.688266
     3  Na  -0.168422   0.673691
     4  Na  -0.175890  -0.042789
     5  Na   0.331817   0.002325
     6  Na   0.138569  -0.204302
     7  Na   0.198375  -0.091216
 Sum of Mulliken charges =  -0.00000   1.00000

 Dipole moment (field-independent basis, Debye):
    X=              0.0495    Y=             -0.1767    Z=             -0.0472  Tot=              0.1894
 Quadrupole moment (field-independent basis, Debye-Ang):
   XX=            -52.7762   YY=            -65.3502   ZZ=            -75.6879
   XY=              0.1867   XZ=             -1.2178   YZ=              1.3994

 Normal termination of Gaussian 16 at Thu Dec  7 06:44:57 2023.
