 Gaussian 16, Revision B.01,
 Gaussian 16:  ES64L-G16RevB.01 20-Dec-2017

 -------------------------
 #P B3LYP/6-311+g(d) force
 -------------------------

 -----
 DPGEN
 -----
 Symbolic Z-matrix:
 Charge =  0 Multiplicity = 2

                         Standard orientation:
 ---------------------------------------------------------------------
 Center     Atomic      Atomic             Coordinates (Angstroms)
 Number     Number       Type             X           Y           Z
 ---------------------------------------------------------------------
      1         11           0        2.479538   -1.832582   -0.413961
      2         11           0       -0.659379    3.049935   -0.373639
      3         11           0       -0.038907    0.144200    2.006396
      4         11           0       -3.228330    0.287236    0.032018
      5         11           0       -0.407883   -0.274061   -1.657813
      6         11           0        3.007753    1.391972    0.181342
      7         11           0       -1.152792   -2.766700    0.225657
 ---------------------------------------------------------------------

 SCF Done:  E(UB3LYP) =  -1136.13624277     A.U. after   19 cycles

 The electronic state is 2-A.
 Alpha  occ. eigenvalues --  -38.44458 -38.44093 -38.43718 -38.43655 -38.43586
 Alpha  occ. eigenvalues --  -38.43457 -38.43256  -2.20275  -2.19884  -2.19544
 Alpha  occ. eigenvalues --   -2.19455  -2.19443  -2.19307  -2.19203  -1.13962
 Alpha  occ. eigenvalues --   -1.13936  -1.13901  -1.13558  -1.13556  -1.13526
 Alpha  occ. eigenvalues --   -1.13225  -1.13201  -1.13179  -1.13132  -1.13127
 Alpha  occ. eigenvalues --   -1.13109  -1.13078  -1.13077  -1.13072  -1.13025
 Alpha  occ. eigenvalues --   -1.12969  -1.12931  -1.12876  -1.12834  -1.12813
 Alpha  occ. eigenvalues --   -0.18253  -0.13011  -0.12247  -0.10552
 Alpha virt. eigenvalues --   -0.05943  -0.05195  -0.04871  -0.03149  -0.02849
 Alpha virt. eigenvalues --   -0.02440  -0.01679  -0.01187  -0.00690  -0.00475
 Alpha virt. eigenvalues --   -0.00018   0.00353   0.00778   0.00814   0.00854

  Beta  occ. eigenvalues --  -38.44454 -38.44094 -38.43710 -38.43649 -38.43495
  Beta  occ. eigenvalues --  -38.43449 -38.43194  -2.20270  -2.19886  -2.19532
  Beta  occ. eigenvalues --   -2.19436  -2.19298  -2.19286  -2.19091  -1.13950
  Beta  occ. eigenvalues --   -1.13923  -1.13897  -1.13562  -1.13542  -1.13529
  Beta  occ. eigenvalues --   -1.13209  -1.13183  -1.13174  -1.13113  -1.13097
  Beta  occ. eigenvalues --   -1.13071  -1.13028  -1.13001  -1.12968  -1.12954
  Beta  occ. eigenvalues --   -1.12936  -1.12918  -1.12800  -1.12757  -1.12731
  Beta  occ. eigenvalues --   -0.17536  -0.12811  -0.12012
  Beta virt. eigenvalues --   -0.06685  -0.05904  -0.05178  -0.04773  -0.02421
  Beta virt. eigenvalues --   -0.02112  -0.01600  -0.01413  -0.01097  -0.00727
  Beta virt. eigenvalues --   -0.00521   0.00125   0.00386   0.00807   0.00838

 Mulliken charges and spin densities:
               1          2
     1  Na   0.055365  -0.037620
     2  Na  -0.124525  -0.098227
     3  Na  -0.296209   0.755485
     4  Na   0.220844  -0.057240
     5  Na   0.035246   0.512659
     6  Na  -0.027407  -0.059762
     7  Na   0.136687  -0.015294
 Sum of Mulliken charges =  -0.00000   1.00000

 Dipole moment (field-independent basis, Debye):
    X=             -0.2637    Y=              0.0857    Z=              0.1047  Tot=              0.2964
 Quadrupole moment (field-independent basis, Debye-Ang):
   XX=            -55.3905   YY=            -62.1068   ZZ=            -75.4734
   XY=              0.5956   XZ=             -0.7991   YZ=             -0.6947

 Normal termination of Gaussian 16 at Fri Dec  8 01:10:55 2023.
