 Gaussian 16, Revision B.01,
 Gaussian 16:  ES64L-G16RevB.01 20-Dec-2017

 -------------------------
 #P B3LYP/6-311+g(d) force
 -------------------------

 -----
 DPGEN
 -----
 Symbolic Z-matrix:
 Charge =  0 Multiplicity = 2

                         Standard orientation:
 ---------------------------------------------------------------------
 Center     Atomic      Atomic             Coordinates (Angstroms)
 Number     Number       Type             X           Y           Z
 ---------------------------------------------------------------------
      1         11           0       -3.603760   -0.342460    0.654776
      2         11           0        2.464027   -2.242875   -0.719777
      3         11           0       -1.736546    2.761767   -0.241217
      4         11           0        3.328951   -0.043075    1.278261
      5         11           0       -1.777553   -2.746415   -0.527110
      6         11           0        1.666993    2.609993   -0.811372
      7         11           0       -0.342114    0.003064    0.366439
 ---------------------------------------------------------------------

 SCF Done:  E(UB3LYP) =  -1136.12389056     A.U. after   23 cycles

 The electronic state is 2-A.
 Alpha  occ. eigenvalues --  -38.44780 -38.44065 -38.44010 -38.43579 -38.43571
 Alpha  occ. eigenvalues --  -38.43494 -38.43438  -2.20584  -2.19904  -2.19835
 Alpha  occ. eigenvalues --   -2.19474  -2.19436  -2.19432  -2.19315  -1.14275
 Alpha  occ. eigenvalues --   -1.14252  -1.14222  -1.13627  -1.13577  -1.13532
 Alpha  occ. eigenvalues --   -1.13503  -1.13487  -1.13444  -1.13207  -1.13172
 Alpha  occ. eigenvalues --   -1.13139  -1.13091  -1.13087  -1.13085  -1.13079
 Alpha  occ. eigenvalues --   -1.13055  -1.13046  -1.12971  -1.12948  -1.12923
 Alpha  occ. eigenvalues --   -0.17560  -0.14052  -0.12849  -0.09526
 Alpha virt. eigenvalues --   -0.06494  -0.05649  -0.04481  -0.03610  -0.02629
 Alpha virt. eigenvalues --   -0.02205  -0.01811  -0.01238  -0.00866  -0.00558
 Alpha virt. eigenvalues --   -0.00115   0.00203   0.00300   0.00629   0.00694

  Beta  occ. eigenvalues --  -38.44776 -38.44060 -38.43979 -38.43548 -38.43514
  Beta  occ. eigenvalues --  -38.43491 -38.43394  -2.20583  -2.19900  -2.19778
  Beta  occ. eigenvalues --   -2.19469  -2.19375  -2.19330  -2.19233  -1.14268
  Beta  occ. eigenvalues --   -1.14258  -1.14187  -1.13630  -1.13579  -1.13489
  Beta  occ. eigenvalues --   -1.13462  -1.13450  -1.13400  -1.13190  -1.13158
  Beta  occ. eigenvalues --   -1.13126  -1.13050  -1.13039  -1.13021  -1.13015
  Beta  occ. eigenvalues --   -1.13011  -1.12980  -1.12916  -1.12896  -1.12864
  Beta  occ. eigenvalues --   -0.17178  -0.13551  -0.12333
  Beta virt. eigenvalues --   -0.06456  -0.06261  -0.05449  -0.04107  -0.03152
  Beta virt. eigenvalues --   -0.02147  -0.02034  -0.01542  -0.01056  -0.00677
  Beta virt. eigenvalues --   -0.00334   0.00163   0.00385   0.00409   0.00690

 Mulliken charges and spin densities:
               1          2
     1  Na  -0.049842   0.162198
     2  Na   0.771469   0.038404
     3  Na   0.187242   0.053995
     4  Na   1.531104   0.423224
     5  Na   0.458860   0.114218
     6  Na   1.142705   0.121897
     7  Na  -4.041538   0.086063
 Sum of Mulliken charges =  -0.00000   1.00000

 Dipole moment (field-independent basis, Debye):
    X=              0.2003    Y=              0.1776    Z=             -0.7203  Tot=              0.7684
 Quadrupole moment (field-independent basis, Debye-Ang):
   XX=            -63.1517   YY=            -63.0872   ZZ=            -70.7126
   XY=              1.5524   XZ=             -2.0977   YZ=              1.5897

 Normal termination of Gaussian 16 at Tue Dec  5 22:53:34 2023.
