 Gaussian 16, Revision B.01,
 Gaussian 16:  ES64L-G16RevB.01 20-Dec-2017

 -------------------------
 #P B3LYP/6-311+g(d) force
 -------------------------

 -----
 DPGEN
 -----
 Symbolic Z-matrix:
 Charge =  0 Multiplicity = 2

                         Standard orientation:
 ---------------------------------------------------------------------
 Center     Atomic      Atomic             Coordinates (Angstroms)
 Number     Number       Type             X           Y           Z
 ---------------------------------------------------------------------
      1         11           0       -2.216568   -2.141707   -0.612126
      2         11           0        4.422604   -0.698954   -0.522005
      3         11           0        1.505567   -2.425131    0.114329
      4         11           0        3.226904    2.510807   -0.171564
      5         11           0       -1.931095    2.362174   -0.437748
      6         11           0       -4.752334    0.321351   -0.200902
      7         11           0       -0.255077    0.071460    1.830017
 ---------------------------------------------------------------------

 SCF Done:  E(UB3LYP) =  -1136.11351928     A.U. after   23 cycles

 The electronic state is 2-A.
 Alpha  occ. eigenvalues --  -38.44791 -38.44725 -38.44686 -38.44541 -38.44338
 Alpha  occ. eigenvalues --  -38.44181 -38.43414  -2.20604  -2.20461  -2.20450
 Alpha  occ. eigenvalues --   -2.20312  -2.20145  -2.19985  -2.19216  -1.14269
 Alpha  occ. eigenvalues --   -1.14253  -1.14211  -1.14161  -1.14138  -1.14126
 Alpha  occ. eigenvalues --   -1.14115  -1.14102  -1.14073  -1.13993  -1.13978
 Alpha  occ. eigenvalues --   -1.13945  -1.13802  -1.13791  -1.13763  -1.13645
 Alpha  occ. eigenvalues --   -1.13638  -1.13606  -1.12903  -1.12891  -1.12845
 Alpha  occ. eigenvalues --   -0.16607  -0.14026  -0.11499  -0.11021
 Alpha virt. eigenvalues --   -0.06997  -0.05865  -0.04510  -0.03409  -0.03077
 Alpha virt. eigenvalues --   -0.02732  -0.01796  -0.01663  -0.01460  -0.00744
 Alpha virt. eigenvalues --   -0.00367   0.00095   0.00320   0.00468   0.00587

  Beta  occ. eigenvalues --  -38.44743 -38.44711 -38.44663 -38.44526 -38.44281
  Beta  occ. eigenvalues --  -38.44137 -38.43413  -2.20486  -2.20458  -2.20421
  Beta  occ. eigenvalues --   -2.20287  -2.20041  -2.19901  -2.19217  -1.14170
  Beta  occ. eigenvalues --   -1.14164  -1.14161  -1.14140  -1.14136  -1.14113
  Beta  occ. eigenvalues --   -1.14106  -1.14094  -1.14023  -1.13979  -1.13955
  Beta  occ. eigenvalues --   -1.13913  -1.13731  -1.13710  -1.13699  -1.13587
  Beta  occ. eigenvalues --   -1.13582  -1.13554  -1.12902  -1.12892  -1.12833
  Beta  occ. eigenvalues --   -0.15910  -0.13492  -0.11403
  Beta virt. eigenvalues --   -0.07547  -0.06844  -0.05406  -0.04058  -0.03180
  Beta virt. eigenvalues --   -0.02602  -0.02339  -0.01642  -0.01529  -0.01158
  Beta virt. eigenvalues --   -0.00473  -0.00219   0.00207   0.00427   0.00567

 Mulliken charges and spin densities:
               1          2
     1  Na  -0.002963   0.133034
     2  Na   0.114590   0.216025
     3  Na  -0.072851   0.043165
     4  Na  -0.085645  -0.112664
     5  Na  -0.135003  -0.003583
     6  Na   0.257168   0.335252
     7  Na  -0.075295   0.388772
 Sum of Mulliken charges =  -0.00000   1.00000

 Dipole moment (field-independent basis, Debye):
    X=             -0.5376    Y=              0.1881    Z=              0.1284  Tot=              0.5838
 Quadrupole moment (field-independent basis, Debye-Ang):
   XX=            -64.0445   YY=            -67.9273   ZZ=            -69.6429
   XY=             -1.4661   XZ=             -0.6839   YZ=              0.8443

 Normal termination of Gaussian 16 at Sun Dec  3 15:39:05 2023.
