 Gaussian 16, Revision B.01,
 Gaussian 16:  ES64L-G16RevB.01 20-Dec-2017

 -------------------------
 #P B3LYP/6-311+g(d) force
 -------------------------

 -----
 DPGEN
 -----
 Symbolic Z-matrix:
 Charge =  0 Multiplicity = 2

                         Standard orientation:
 ---------------------------------------------------------------------
 Center     Atomic      Atomic             Coordinates (Angstroms)
 Number     Number       Type             X           Y           Z
 ---------------------------------------------------------------------
      1         11           0        3.883092   -0.875385    0.384889
      2         11           0        1.431723   -0.323658   -1.575960
      3         11           0       -4.006834    0.717491    0.807461
      4         11           0       -2.326262   -2.030474   -0.899877
      5         11           0       -1.347854    1.519364   -0.830309
      6         11           0        0.160018   -0.914905    1.895620
      7         11           0        2.206118    1.907567    0.218177
 ---------------------------------------------------------------------

 SCF Done:  E(UB3LYP) =  -1136.10939056     A.U. after   28 cycles

 The electronic state is 2-A.
 Alpha  occ. eigenvalues --  -38.45613 -38.44677 -38.44650 -38.44397 -38.44002
 Alpha  occ. eigenvalues --  -38.43866 -38.42433  -2.21356  -2.20528  -2.20477
 Alpha  occ. eigenvalues --   -2.20194  -2.19976  -2.19775  -2.18322  -1.15059
 Alpha  occ. eigenvalues --   -1.15038  -1.14962  -1.14229  -1.14192  -1.14139
 Alpha  occ. eigenvalues --   -1.14139  -1.14126  -1.14087  -1.13856  -1.13844
 Alpha  occ. eigenvalues --   -1.13830  -1.13741  -1.13640  -1.13581  -1.13449
 Alpha  occ. eigenvalues --   -1.13408  -1.13366  -1.12021  -1.12011  -1.11940
 Alpha  occ. eigenvalues --   -0.18289  -0.14714  -0.10805  -0.10513
 Alpha virt. eigenvalues --   -0.07690  -0.05719  -0.04590  -0.03232  -0.02913
 Alpha virt. eigenvalues --   -0.02285  -0.02018  -0.01330  -0.01288  -0.00569
 Alpha virt. eigenvalues --   -0.00117   0.00108   0.00244   0.00493   0.00596

  Beta  occ. eigenvalues --  -38.45621 -38.44660 -38.44582 -38.44356 -38.43955
  Beta  occ. eigenvalues --  -38.43861 -38.42418  -2.21372  -2.20497  -2.20349
  Beta  occ. eigenvalues --   -2.20120  -2.19891  -2.19768  -2.18301  -1.15073
  Beta  occ. eigenvalues --   -1.15034  -1.14976  -1.14209  -1.14164  -1.14121
  Beta  occ. eigenvalues --   -1.14053  -1.14036  -1.14002  -1.13804  -1.13790
  Beta  occ. eigenvalues --   -1.13767  -1.13696  -1.13568  -1.13525  -1.13446
  Beta  occ. eigenvalues --   -1.13390  -1.13341  -1.12015  -1.11959  -1.11919
  Beta  occ. eigenvalues --   -0.17763  -0.14208  -0.10378
  Beta virt. eigenvalues --   -0.07550  -0.07117  -0.05328  -0.04166  -0.03038
  Beta virt. eigenvalues --   -0.02724  -0.01924  -0.01432  -0.01085  -0.00822
  Beta virt. eigenvalues --   -0.00401  -0.00034   0.00185   0.00358   0.00583

 Mulliken charges and spin densities:
               1          2
     1  Na   0.496740   0.150815
     2  Na  -0.155630   0.239875
     3  Na   0.336294   0.313578
     4  Na   0.065544   0.203389
     5  Na  -0.510351   0.057992
     6  Na  -0.404804  -0.076310
     7  Na   0.172206   0.110660
 Sum of Mulliken charges =  -0.00000   1.00000

 Dipole moment (field-independent basis, Debye):
    X=              0.4061    Y=             -0.4819    Z=              0.2050  Tot=              0.6627
 Quadrupole moment (field-independent basis, Debye-Ang):
   XX=            -51.7854   YY=            -77.5150   ZZ=            -68.7485
   XY=              2.0680   XZ=             -0.9918   YZ=              7.8062

 Normal termination of Gaussian 16 at Thu Dec  7 11:35:32 2023.
