 Gaussian 16, Revision B.01,
 Gaussian 16:  ES64L-G16RevB.01 20-Dec-2017

 -------------------------
 #P B3LYP/6-311+g(d) force
 -------------------------

 -----
 DPGEN
 -----
 Symbolic Z-matrix:
 Charge =  0 Multiplicity = 2

                         Standard orientation:
 ---------------------------------------------------------------------
 Center     Atomic      Atomic             Coordinates (Angstroms)
 Number     Number       Type             X           Y           Z
 ---------------------------------------------------------------------
      1         11           0        0.154518    1.524976   -0.567536
      2         11           0       -1.951417    3.474396    0.143313
      3         11           0       -3.562166    0.354013   -0.230976
      4         11           0       -2.556342   -2.830741    0.630114
      5         11           0        0.215546   -2.710752   -0.863509
      6         11           0        2.322746   -0.046453    1.125138
      7         11           0        5.377115    0.234561   -0.236543
 ---------------------------------------------------------------------

 SCF Done:  E(UB3LYP) =  -1136.11713168     A.U. after   19 cycles

 The electronic state is 2-A.
 Alpha  occ. eigenvalues --  -38.44498 -38.44280 -38.44247 -38.44209 -38.44049
 Alpha  occ. eigenvalues --  -38.43850 -38.43771  -2.20300  -2.20091  -2.20087
 Alpha  occ. eigenvalues --   -2.20012  -2.19942  -2.19677  -2.19591  -1.13980
 Alpha  occ. eigenvalues --   -1.13960  -1.13925  -1.13877  -1.13772  -1.13755
 Alpha  occ. eigenvalues --   -1.13737  -1.13733  -1.13675  -1.13651  -1.13648
 Alpha  occ. eigenvalues --   -1.13637  -1.13630  -1.13578  -1.13528  -1.13357
 Alpha  occ. eigenvalues --   -1.13331  -1.13314  -1.13254  -1.13248  -1.13242
 Alpha  occ. eigenvalues --   -0.16775  -0.13656  -0.12954  -0.10559
 Alpha virt. eigenvalues --   -0.06276  -0.05509  -0.05063  -0.03408  -0.02734
 Alpha virt. eigenvalues --   -0.02396  -0.01671  -0.01607  -0.01003  -0.00646
 Alpha virt. eigenvalues --   -0.00519  -0.00136   0.00432   0.00471   0.00545

  Beta  occ. eigenvalues --  -38.44475 -38.44249 -38.44227 -38.44104 -38.44021
  Beta  occ. eigenvalues --  -38.43857 -38.43765  -2.20255  -2.20094  -2.19992
  Beta  occ. eigenvalues --   -2.19890  -2.19817  -2.19698  -2.19583  -1.13953
  Beta  occ. eigenvalues --   -1.13932  -1.13892  -1.13868  -1.13741  -1.13722
  Beta  occ. eigenvalues --   -1.13704  -1.13690  -1.13613  -1.13605  -1.13542
  Beta  occ. eigenvalues --   -1.13518  -1.13515  -1.13507  -1.13506  -1.13365
  Beta  occ. eigenvalues --   -1.13348  -1.13288  -1.13250  -1.13244  -1.13218
  Beta  occ. eigenvalues --   -0.16345  -0.12993  -0.12723
  Beta virt. eigenvalues --   -0.07168  -0.05781  -0.05279  -0.04767  -0.02960
  Beta virt. eigenvalues --   -0.02461  -0.02363  -0.01562  -0.01235  -0.00758
  Beta virt. eigenvalues --   -0.00286  -0.00191   0.00117   0.00570   0.00610

 Mulliken charges and spin densities:
               1          2
     1  Na  -1.445091   0.047863
     2  Na   0.830336   0.047951
     3  Na   0.100119   0.367338
     4  Na   0.016542   0.083732
     5  Na  -0.014401   0.028869
     6  Na   0.437130  -0.082696
     7  Na   0.075364   0.506943
 Sum of Mulliken charges =  -0.00000   1.00000

 Dipole moment (field-independent basis, Debye):
    X=             -0.5823    Y=              0.2550    Z=             -0.1705  Tot=              0.6581
 Quadrupole moment (field-independent basis, Debye-Ang):
   XX=            -72.8309   YY=            -62.0256   ZZ=            -67.2630
   XY=             -4.1218   XZ=             -4.0853   YZ=              0.8258

 Normal termination of Gaussian 16 at Wed Nov 29 02:20:34 2023.
