 Gaussian 16, Revision B.01,
 Gaussian 16:  ES64L-G16RevB.01 20-Dec-2017

 -------------------------
 #P B3LYP/6-311+g(d) force
 -------------------------

 -----
 DPGEN
 -----
 Symbolic Z-matrix:
 Charge =  0 Multiplicity = 2

                         Standard orientation:
 ---------------------------------------------------------------------
 Center     Atomic      Atomic             Coordinates (Angstroms)
 Number     Number       Type             X           Y           Z
 ---------------------------------------------------------------------
      1         11           0       -1.792345    2.550458    0.243836
      2         11           0        2.837391   -1.243815    0.055743
      3         11           0        2.443485    2.188067    0.076943
      4         11           0       -0.339909   -0.357369    1.886368
      5         11           0        0.199803    0.231318   -1.839635
      6         11           0       -0.337585   -2.826591   -0.065363
      7         11           0       -3.010841   -0.542067   -0.357892
 ---------------------------------------------------------------------

 SCF Done:  E(UB3LYP) =  -1136.13811913     A.U. after   19 cycles

 The electronic state is 2-A.
 Alpha  occ. eigenvalues --  -38.44008 -38.43996 -38.43963 -38.43714 -38.43442
 Alpha  occ. eigenvalues --  -38.43431 -38.43035  -2.19853  -2.19839  -2.19754
 Alpha  occ. eigenvalues --   -2.19526  -2.19362  -2.19335  -2.18921  -1.13523
 Alpha  occ. eigenvalues --   -1.13520  -1.13516  -1.13512  -1.13496  -1.13482
 Alpha  occ. eigenvalues --   -1.13429  -1.13407  -1.13391  -1.13198  -1.13189
 Alpha  occ. eigenvalues --   -1.13167  -1.13056  -1.13015  -1.12998  -1.12975
 Alpha  occ. eigenvalues --   -1.12967  -1.12955  -1.12603  -1.12578  -1.12548
 Alpha  occ. eigenvalues --   -0.18489  -0.13151  -0.12265  -0.10630
 Alpha virt. eigenvalues --   -0.05625  -0.05517  -0.04622  -0.03272  -0.02863
 Alpha virt. eigenvalues --   -0.02457  -0.01537  -0.01166  -0.00587  -0.00363
 Alpha virt. eigenvalues --   -0.00014   0.00370   0.00778   0.00843   0.00879

  Beta  occ. eigenvalues --  -38.44005 -38.43987 -38.43964 -38.43709 -38.43363
  Beta  occ. eigenvalues --  -38.43356 -38.43027  -2.19839  -2.19836  -2.19758
  Beta  occ. eigenvalues --   -2.19520  -2.19216  -2.19198  -2.18912  -1.13517
  Beta  occ. eigenvalues --   -1.13512  -1.13498  -1.13493  -1.13481  -1.13478
  Beta  occ. eigenvalues --   -1.13418  -1.13408  -1.13395  -1.13188  -1.13170
  Beta  occ. eigenvalues --   -1.13166  -1.12961  -1.12922  -1.12896  -1.12871
  Beta  occ. eigenvalues --   -1.12868  -1.12852  -1.12593  -1.12551  -1.12535
  Beta  occ. eigenvalues --   -0.17749  -0.12945  -0.12041
  Beta virt. eigenvalues --   -0.06745  -0.05611  -0.05459  -0.04569  -0.02505
  Beta virt. eigenvalues --   -0.02109  -0.01479  -0.01406  -0.01080  -0.00631
  Beta virt. eigenvalues --   -0.00414   0.00129   0.00397   0.00835   0.00856

 Mulliken charges and spin densities:
               1          2
     1  Na  -0.079915  -0.116364
     2  Na   0.082150  -0.091406
     3  Na  -0.056365  -0.131966
     4  Na  -0.283334   0.721327
     5  Na  -0.188069   0.628308
     6  Na   0.263412  -0.031312
     7  Na   0.262120   0.021414
 Sum of Mulliken charges =  -0.00000   1.00000

 Dipole moment (field-independent basis, Debye):
    X=              0.0972    Y=              0.1700    Z=             -0.0060  Tot=              0.1960
 Quadrupole moment (field-independent basis, Debye-Ang):
   XX=            -56.4310   YY=            -62.4517   ZZ=            -74.6656
   XY=              0.0517   XZ=              1.3256   YZ=              1.5215

 Normal termination of Gaussian 16 at Fri Dec  8 03:27:00 2023.
