 Gaussian 16, Revision B.01,
 Gaussian 16:  ES64L-G16RevB.01 20-Dec-2017

 -------------------------
 #P B3LYP/6-311+g(d) force
 -------------------------

 -----
 DPGEN
 -----
 Symbolic Z-matrix:
 Charge =  0 Multiplicity = 2

                         Standard orientation:
 ---------------------------------------------------------------------
 Center     Atomic      Atomic             Coordinates (Angstroms)
 Number     Number       Type             X           Y           Z
 ---------------------------------------------------------------------
      1         11           0       -1.738258   -2.033478   -0.800717
      2         11           0        3.135416    2.492673   -0.148817
      3         11           0        1.937135   -2.941005   -0.278337
      4         11           0        4.264763   -1.183047    0.539254
      5         11           0       -3.634088    1.781832   -0.240641
      6         11           0        0.109794    3.235822    0.054038
      7         11           0       -4.074761   -1.352798    0.875219
 ---------------------------------------------------------------------

 SCF Done:  E(UB3LYP) =  -1136.10619597     A.U. after   23 cycles

 The electronic state is 2-A.
 Alpha  occ. eigenvalues --  -38.45525 -38.44395 -38.44386 -38.44312 -38.44274
 Alpha  occ. eigenvalues --  -38.44183 -38.44031  -2.21362  -2.20205  -2.20184
 Alpha  occ. eigenvalues --   -2.20159  -2.20075  -2.20009  -2.19815  -1.15089
 Alpha  occ. eigenvalues --   -1.15015  -1.14999  -1.13926  -1.13861  -1.13851
 Alpha  occ. eigenvalues --   -1.13844  -1.13843  -1.13831  -1.13825  -1.13793
 Alpha  occ. eigenvalues --   -1.13771  -1.13770  -1.13733  -1.13711  -1.13650
 Alpha  occ. eigenvalues --   -1.13632  -1.13624  -1.13483  -1.13478  -1.13445
 Alpha  occ. eigenvalues --   -0.16124  -0.14321  -0.13015  -0.10483
 Alpha virt. eigenvalues --   -0.07699  -0.04994  -0.04329  -0.03767  -0.03232
 Alpha virt. eigenvalues --   -0.02673  -0.02212  -0.01956  -0.00878  -0.00822
 Alpha virt. eigenvalues --   -0.00332  -0.00054   0.00100   0.00331   0.00578

  Beta  occ. eigenvalues --  -38.45527 -38.44386 -38.44313 -38.44250 -38.44246
  Beta  occ. eigenvalues --  -38.44138 -38.44026  -2.21372  -2.20190  -2.20053
  Beta  occ. eigenvalues --   -2.20044  -2.20026  -2.19927  -2.19810  -1.15083
  Beta  occ. eigenvalues --   -1.15028  -1.14976  -1.13901  -1.13860  -1.13834
  Beta  occ. eigenvalues --   -1.13758  -1.13755  -1.13739  -1.13731  -1.13727
  Beta  occ. eigenvalues --   -1.13716  -1.13701  -1.13690  -1.13674  -1.13595
  Beta  occ. eigenvalues --   -1.13580  -1.13569  -1.13484  -1.13478  -1.13414
  Beta  occ. eigenvalues --   -0.15564  -0.13804  -0.12335
  Beta virt. eigenvalues --   -0.07618  -0.07270  -0.04844  -0.03847  -0.03442
  Beta virt. eigenvalues --   -0.02825  -0.02380  -0.02046  -0.01736  -0.00767
  Beta virt. eigenvalues --   -0.00588  -0.00006   0.00164   0.00295   0.00333

 Mulliken charges and spin densities:
               1          2
     1  Na  -0.849670   0.299751
     2  Na   0.166695   0.101198
     3  Na   0.069873  -0.009599
     4  Na   0.059411   0.168911
     5  Na   0.026442   0.479163
     6  Na  -0.311131  -0.034283
     7  Na   0.838380  -0.005141
 Sum of Mulliken charges =  -0.00000   1.00000

 Dipole moment (field-independent basis, Debye):
    X=             -0.8003    Y=             -0.5014    Z=              0.3588  Tot=              1.0103
 Quadrupole moment (field-independent basis, Debye-Ang):
   XX=            -56.0366   YY=            -74.6371   ZZ=            -70.5433
   XY=              5.4072   XZ=             -2.3189   YZ=             -1.4453

 Normal termination of Gaussian 16 at Sun Dec  3 11:49:58 2023.
