 Gaussian 16, Revision B.01,
 Gaussian 16:  ES64L-G16RevB.01 20-Dec-2017

 -------------------------
 #P B3LYP/6-311+g(d) force
 -------------------------

 -----
 DPGEN
 -----
 Symbolic Z-matrix:
 Charge =  0 Multiplicity = 2

                         Standard orientation:
 ---------------------------------------------------------------------
 Center     Atomic      Atomic             Coordinates (Angstroms)
 Number     Number       Type             X           Y           Z
 ---------------------------------------------------------------------
      1         11           0       -2.801141   -0.443253   -0.243920
      2         11           0       -2.525782    3.748874    0.386770
      3         11           0        2.482871   -0.205848   -1.107620
      4         11           0       -2.553257   -2.996621    1.092602
      5         11           0        5.003511    0.291407    1.223062
      6         11           0        0.138392    2.308338   -0.502809
      7         11           0        0.255405   -2.702897   -0.848085
 ---------------------------------------------------------------------

 SCF Done:  E(UB3LYP) =  -1136.11705012     A.U. after   19 cycles

 The electronic state is 2-A.
 Alpha  occ. eigenvalues --  -38.44943 -38.44471 -38.44407 -38.44339 -38.44200
 Alpha  occ. eigenvalues --  -38.44109 -38.42903  -2.20783  -2.20299  -2.20195
 Alpha  occ. eigenvalues --   -2.20152  -2.20074  -2.19911  -2.18743  -1.14523
 Alpha  occ. eigenvalues --   -1.14443  -1.14414  -1.13976  -1.13959  -1.13920
 Alpha  occ. eigenvalues --   -1.13916  -1.13859  -1.13841  -1.13828  -1.13820
 Alpha  occ. eigenvalues --   -1.13746  -1.13727  -1.13704  -1.13681  -1.13544
 Alpha  occ. eigenvalues --   -1.13543  -1.13520  -1.12428  -1.12418  -1.12394
 Alpha  occ. eigenvalues --   -0.16665  -0.13651  -0.13133  -0.10624
 Alpha virt. eigenvalues --   -0.06470  -0.05696  -0.04464  -0.03995  -0.02542
 Alpha virt. eigenvalues --   -0.01996  -0.01848  -0.01697  -0.01606  -0.01009
 Alpha virt. eigenvalues --   -0.00212  -0.00019   0.00211   0.00398   0.00569

  Beta  occ. eigenvalues --  -38.44925 -38.44425 -38.44413 -38.44336 -38.44179
  Beta  occ. eigenvalues --  -38.43988 -38.42899  -2.20752  -2.20216  -2.20206
  Beta  occ. eigenvalues --   -2.20145  -2.20036  -2.19686  -2.18743  -1.14494
  Beta  occ. eigenvalues --   -1.14412  -1.14396  -1.13921  -1.13919  -1.13900
  Beta  occ. eigenvalues --   -1.13865  -1.13860  -1.13847  -1.13823  -1.13813
  Beta  occ. eigenvalues --   -1.13733  -1.13713  -1.13678  -1.13657  -1.13390
  Beta  occ. eigenvalues --   -1.13390  -1.13373  -1.12436  -1.12424  -1.12339
  Beta  occ. eigenvalues --   -0.16278  -0.13340  -0.12580
  Beta virt. eigenvalues --   -0.06952  -0.06255  -0.05528  -0.03968  -0.03845
  Beta virt. eigenvalues --   -0.02468  -0.01870  -0.01540  -0.01374  -0.01072
  Beta virt. eigenvalues --   -0.00730   0.00079   0.00233   0.00380   0.00574

 Mulliken charges and spin densities:
               1          2
     1  Na  -0.585857   0.133584
     2  Na   0.627238  -0.032685
     3  Na   0.064363  -0.301571
     4  Na   0.687230   0.143693
     5  Na   0.159869   0.670289
     6  Na  -0.593334   0.067426
     7  Na  -0.359509   0.319265
 Sum of Mulliken charges =  -0.00000   1.00000

 Dipole moment (field-independent basis, Debye):
    X=             -1.9272    Y=             -0.3013    Z=              0.4874  Tot=              2.0106
 Quadrupole moment (field-independent basis, Debye-Ang):
   XX=            -71.5916   YY=            -57.6616   ZZ=            -70.0333
   XY=             -3.5530   XZ=             -1.0308   YZ=             -0.7806

 Normal termination of Gaussian 16 at Tue Nov 28 20:12:27 2023.
