 Gaussian 16, Revision B.01,
 Gaussian 16:  ES64L-G16RevB.01 20-Dec-2017

 -------------------------
 #P B3LYP/6-311+g(d) force
 -------------------------

 -----
 DPGEN
 -----
 Symbolic Z-matrix:
 Charge =  0 Multiplicity = 2

                         Standard orientation:
 ---------------------------------------------------------------------
 Center     Atomic      Atomic             Coordinates (Angstroms)
 Number     Number       Type             X           Y           Z
 ---------------------------------------------------------------------
      1         11           0        3.217459    0.157386    0.873209
      2         11           0        2.104496    3.754474   -0.111144
      3         11           0       -4.284132    0.973845   -0.258094
      4         11           0        4.038116   -2.788925   -0.309604
      5         11           0       -5.743131   -1.472447    0.387009
      6         11           0       -0.064008    1.224230   -0.272431
      7         11           0        0.731199   -1.848563   -0.308945
 ---------------------------------------------------------------------

 SCF Done:  E(UB3LYP) =  -1136.11596527     A.U. after   19 cycles

 The electronic state is 2-A.
 Alpha  occ. eigenvalues --  -38.44615 -38.44240 -38.44171 -38.44066 -38.44042
 Alpha  occ. eigenvalues --  -38.43778 -38.43384  -2.20469  -2.20127  -2.19991
 Alpha  occ. eigenvalues --   -2.19891  -2.19850  -2.19577  -2.19268  -1.14174
 Alpha  occ. eigenvalues --   -1.14158  -1.14063  -1.13822  -1.13789  -1.13787
 Alpha  occ. eigenvalues --   -1.13723  -1.13629  -1.13626  -1.13555  -1.13547
 Alpha  occ. eigenvalues --   -1.13512  -1.13499  -1.13484  -1.13439  -1.13238
 Alpha  occ. eigenvalues --   -1.13235  -1.13207  -1.12961  -1.12938  -1.12869
 Alpha  occ. eigenvalues --   -0.16971  -0.13626  -0.12487  -0.10876
 Alpha virt. eigenvalues --   -0.06184  -0.05727  -0.04028  -0.03695  -0.03198
 Alpha virt. eigenvalues --   -0.02382  -0.02067  -0.01208  -0.01128  -0.01094
 Alpha virt. eigenvalues --   -0.00280   0.00017   0.00171   0.00491   0.00592

  Beta  occ. eigenvalues --  -38.44584 -38.44175 -38.44145 -38.44047 -38.44045
  Beta  occ. eigenvalues --  -38.43745 -38.43341  -2.20414  -2.20011  -2.19944
  Beta  occ. eigenvalues --   -2.19861  -2.19854  -2.19514  -2.19195  -1.14130
  Beta  occ. eigenvalues --   -1.14114  -1.14019  -1.13766  -1.13737  -1.13713
  Beta  occ. eigenvalues --   -1.13630  -1.13597  -1.13593  -1.13523  -1.13516
  Beta  occ. eigenvalues --   -1.13508  -1.13489  -1.13487  -1.13425  -1.13197
  Beta  occ. eigenvalues --   -1.13192  -1.13163  -1.12905  -1.12895  -1.12791
  Beta  occ. eigenvalues --   -0.16225  -0.13345  -0.12201
  Beta virt. eigenvalues --   -0.07279  -0.05969  -0.05321  -0.03765  -0.03394
  Beta virt. eigenvalues --   -0.02705  -0.02287  -0.01896  -0.01099  -0.00918
  Beta virt. eigenvalues --   -0.00610   0.00023   0.00143   0.00386   0.00568

 Mulliken charges and spin densities:
               1          2
     1  Na  -0.476740   0.295248
     2  Na   0.957843   0.301562
     3  Na  -0.075351   0.007251
     4  Na   0.972869   0.225452
     5  Na  -0.093780   0.085819
     6  Na  -0.869544   0.135060
     7  Na  -0.415298  -0.050393
 Sum of Mulliken charges =  -0.00000   1.00000

 Dipole moment (field-independent basis, Debye):
    X=              0.6861    Y=             -0.9686    Z=             -0.1327  Tot=              1.1944
 Quadrupole moment (field-independent basis, Debye-Ang):
   XX=            -67.2525   YY=            -57.2508   ZZ=            -72.0471
   XY=              1.3137   XZ=             -1.4046   YZ=             -0.7254

 Normal termination of Gaussian 16 at Tue Nov 28 23:41:59 2023.
