 Gaussian 16, Revision B.01,
 Gaussian 16:  ES64L-G16RevB.01 20-Dec-2017

 -------------------------
 #P B3LYP/6-311+g(d) force
 -------------------------

 -----
 DPGEN
 -----
 Symbolic Z-matrix:
 Charge =  0 Multiplicity = 2

                         Standard orientation:
 ---------------------------------------------------------------------
 Center     Atomic      Atomic             Coordinates (Angstroms)
 Number     Number       Type             X           Y           Z
 ---------------------------------------------------------------------
      1         11           0        1.773756    3.004056   -0.079174
      2         11           0        0.944012   -3.259855   -0.000042
      3         11           0       -1.116717   -0.906610    1.832336
      4         11           0        3.331755   -0.314112   -0.040990
      5         11           0       -2.973407   -1.116641   -1.100927
      6         11           0       -2.245249    2.480536    0.306406
      7         11           0        0.285849    0.112626   -0.917609
 ---------------------------------------------------------------------

 SCF Done:  E(UB3LYP) =  -1136.12786790     A.U. after   21 cycles

 The electronic state is 2-A.
 Alpha  occ. eigenvalues --  -38.44533 -38.44324 -38.44263 -38.44072 -38.43615
 Alpha  occ. eigenvalues --  -38.43481 -38.43017  -2.20300  -2.20134  -2.20049
 Alpha  occ. eigenvalues --   -2.19858  -2.19451  -2.19355  -2.19011  -1.13975
 Alpha  occ. eigenvalues --   -1.13957  -1.13934  -1.13834  -1.13805  -1.13746
 Alpha  occ. eigenvalues --   -1.13723  -1.13704  -1.13690  -1.13542  -1.13526
 Alpha  occ. eigenvalues --   -1.13484  -1.13114  -1.13104  -1.13073  -1.13061
 Alpha  occ. eigenvalues --   -1.12990  -1.12946  -1.12731  -1.12653  -1.12642
 Alpha  occ. eigenvalues --   -0.17801  -0.13130  -0.12524  -0.09694
 Alpha virt. eigenvalues --   -0.06095  -0.05735  -0.05315  -0.02887  -0.02496
 Alpha virt. eigenvalues --   -0.01922  -0.01769  -0.01557  -0.01087  -0.00971
 Alpha virt. eigenvalues --   -0.00032   0.00276   0.00639   0.00650   0.00723

  Beta  occ. eigenvalues --  -38.44521 -38.44322 -38.44260 -38.44076 -38.43549
  Beta  occ. eigenvalues --  -38.43418 -38.42994  -2.20280  -2.20131  -2.20046
  Beta  occ. eigenvalues --   -2.19866  -2.19330  -2.19238  -2.18974  -1.13952
  Beta  occ. eigenvalues --   -1.13940  -1.13920  -1.13831  -1.13798  -1.13745
  Beta  occ. eigenvalues --   -1.13711  -1.13695  -1.13691  -1.13546  -1.13531
  Beta  occ. eigenvalues --   -1.13484  -1.13027  -1.13017  -1.12992  -1.12983
  Beta  occ. eigenvalues --   -1.12904  -1.12859  -1.12678  -1.12630  -1.12615
  Beta  occ. eigenvalues --   -0.17271  -0.12836  -0.12337
  Beta virt. eigenvalues --   -0.06141  -0.05864  -0.05629  -0.05087  -0.02367
  Beta virt. eigenvalues --   -0.02006  -0.01720  -0.01562  -0.01134  -0.00998
  Beta virt. eigenvalues --   -0.00664   0.00201   0.00384   0.00697   0.00734

 Mulliken charges and spin densities:
               1          2
     1  Na  -0.063550  -0.114326
     2  Na   0.284134   0.028970
     3  Na  -0.602521   0.340786
     4  Na  -0.059031  -0.114912
     5  Na   0.105485   0.288108
     6  Na   0.036305   0.086414
     7  Na   0.299179   0.484959
 Sum of Mulliken charges =  -0.00000   1.00000

 Dipole moment (field-independent basis, Debye):
    X=              0.5698    Y=              0.1662    Z=              0.3561  Tot=              0.6922
 Quadrupole moment (field-independent basis, Debye-Ang):
   XX=            -57.5784   YY=            -55.9510   ZZ=            -78.0353
   XY=             -2.5483   XZ=              0.2773   YZ=              1.0663

 Normal termination of Gaussian 16 at Fri Dec  8 00:31:59 2023.
