 Gaussian 16, Revision B.01,
 Gaussian 16:  ES64L-G16RevB.01 20-Dec-2017

 -------------------------
 #P B3LYP/6-311+g(d) force
 -------------------------

 -----
 DPGEN
 -----
 Symbolic Z-matrix:
 Charge =  0 Multiplicity = 2

                         Standard orientation:
 ---------------------------------------------------------------------
 Center     Atomic      Atomic             Coordinates (Angstroms)
 Number     Number       Type             X           Y           Z
 ---------------------------------------------------------------------
      1         11           0        1.715775    2.000011   -0.281119
      2         11           0       -3.095667   -1.238821    0.370764
      3         11           0        3.532847   -0.398556    0.036431
      4         11           0        0.696601   -2.357870   -0.292940
      5         11           0       -2.039963    2.083791    0.167376
      6         11           0       -0.950814   -0.043359   -1.874454
      7         11           0        0.141221   -0.045196    1.873942
 ---------------------------------------------------------------------

 SCF Done:  E(UB3LYP) =  -1136.12919218     A.U. after   19 cycles

 The electronic state is 2-A.
 Alpha  occ. eigenvalues --  -38.44903 -38.44786 -38.43769 -38.43476 -38.43333
 Alpha  occ. eigenvalues --  -38.43218 -38.42890  -2.20741  -2.20607  -2.19699
 Alpha  occ. eigenvalues --   -2.19436  -2.19212  -2.19101  -2.18771  -1.14447
 Alpha  occ. eigenvalues --   -1.14391  -1.14368  -1.14286  -1.14264  -1.14240
 Alpha  occ. eigenvalues --   -1.13395  -1.13343  -1.13307  -1.13123  -1.13108
 Alpha  occ. eigenvalues --   -1.13046  -1.12875  -1.12874  -1.12834  -1.12781
 Alpha  occ. eigenvalues --   -1.12761  -1.12739  -1.12476  -1.12452  -1.12369
 Alpha  occ. eigenvalues --   -0.18854  -0.13842  -0.11663  -0.10878
 Alpha virt. eigenvalues --   -0.06659  -0.05197  -0.03841  -0.03442  -0.02615
 Alpha virt. eigenvalues --   -0.02561  -0.02224  -0.01116  -0.00280  -0.00100
 Alpha virt. eigenvalues --    0.00061   0.00300   0.00605   0.00769   0.00874

  Beta  occ. eigenvalues --  -38.44907 -38.44779 -38.43690 -38.43397 -38.43324
  Beta  occ. eigenvalues --  -38.43211 -38.42878  -2.20748  -2.20597  -2.19555
  Beta  occ. eigenvalues --   -2.19290  -2.19202  -2.19092  -2.18755  -1.14454
  Beta  occ. eigenvalues --   -1.14386  -1.14373  -1.14272  -1.14242  -1.14237
  Beta  occ. eigenvalues --   -1.13299  -1.13240  -1.13200  -1.13038  -1.13008
  Beta  occ. eigenvalues --   -1.12943  -1.12858  -1.12836  -1.12823  -1.12777
  Beta  occ. eigenvalues --   -1.12742  -1.12726  -1.12468  -1.12405  -1.12363
  Beta  occ. eigenvalues --   -0.18114  -0.13658  -0.11399
  Beta virt. eigenvalues --   -0.06956  -0.06538  -0.05207  -0.03622  -0.02909
  Beta virt. eigenvalues --   -0.02169  -0.01784  -0.01516  -0.01079  -0.00269
  Beta virt. eigenvalues --    0.00028   0.00059   0.00323   0.00780   0.00849

 Mulliken charges and spin densities:
               1          2
     1  Na   0.116445  -0.030948
     2  Na   0.272981  -0.069756
     3  Na   0.059664  -0.063858
     4  Na   0.175143  -0.059654
     5  Na   0.214578  -0.031299
     6  Na  -0.283593   0.560602
     7  Na  -0.555218   0.694914
 Sum of Mulliken charges =  -0.00000   1.00000

 Dipole moment (field-independent basis, Debye):
    X=             -0.0531    Y=             -0.2683    Z=              0.2062  Tot=              0.3425
 Quadrupole moment (field-independent basis, Debye-Ang):
   XX=            -47.9383   YY=            -71.8188   ZZ=            -73.1516
   XY=              0.1006   XZ=             -1.6398   YZ=             -0.4003

 Normal termination of Gaussian 16 at Tue Dec  5 21:15:54 2023.
