 Gaussian 16, Revision B.01,
 Gaussian 16:  ES64L-G16RevB.01 20-Dec-2017

 -------------------------
 #P B3LYP/6-311+g(d) force
 -------------------------

 -----
 DPGEN
 -----
 Symbolic Z-matrix:
 Charge =  0 Multiplicity = 2

                         Standard orientation:
 ---------------------------------------------------------------------
 Center     Atomic      Atomic             Coordinates (Angstroms)
 Number     Number       Type             X           Y           Z
 ---------------------------------------------------------------------
      1         11           0        2.727089   -1.711520   -0.168041
      2         11           0        3.179902    1.146514    0.448883
      3         11           0        0.131138   -0.073561    1.694292
      4         11           0       -2.659065    2.021169    0.300273
      5         11           0       -0.384515   -1.588976   -0.775721
      6         11           0        0.450464    1.670066   -1.503691
      7         11           0       -3.445013   -1.463692    0.004005
 ---------------------------------------------------------------------

 SCF Done:  E(UB3LYP) =  -1136.11472413     A.U. after   26 cycles

 The electronic state is 2-A.
 Alpha  occ. eigenvalues --  -38.45075 -38.44793 -38.44755 -38.44406 -38.44202
 Alpha  occ. eigenvalues --  -38.42792 -38.42772  -2.20875  -2.20677  -2.20667
 Alpha  occ. eigenvalues --   -2.20305  -2.19991  -2.18767  -2.18676  -1.14564
 Alpha  occ. eigenvalues --   -1.14530  -1.14508  -1.14440  -1.14423  -1.14333
 Alpha  occ. eigenvalues --   -1.14312  -1.14284  -1.14248  -1.13979  -1.13940
 Alpha  occ. eigenvalues --   -1.13933  -1.13671  -1.13641  -1.13638  -1.12499
 Alpha  occ. eigenvalues --   -1.12403  -1.12392  -1.12336  -1.12322  -1.12285
 Alpha  occ. eigenvalues --   -0.18795  -0.14216  -0.11407  -0.10421
 Alpha virt. eigenvalues --   -0.07195  -0.06096  -0.03630  -0.03267  -0.02881
 Alpha virt. eigenvalues --   -0.02498  -0.01892  -0.01631  -0.00599  -0.00261
 Alpha virt. eigenvalues --    0.00076   0.00190   0.00476   0.00581   0.00641

  Beta  occ. eigenvalues --  -38.45079 -38.44771 -38.44709 -38.44396 -38.44201
  Beta  occ. eigenvalues --  -38.42730 -38.42729  -2.20883  -2.20640  -2.20583
  Beta  occ. eigenvalues --   -2.20292  -2.19991  -2.18694  -2.18561  -1.14564
  Beta  occ. eigenvalues --   -1.14537  -1.14510  -1.14406  -1.14368  -1.14301
  Beta  occ. eigenvalues --   -1.14260  -1.14232  -1.14187  -1.13962  -1.13936
  Beta  occ. eigenvalues --   -1.13895  -1.13666  -1.13642  -1.13631  -1.12451
  Beta  occ. eigenvalues --   -1.12344  -1.12319  -1.12264  -1.12240  -1.12198
  Beta  occ. eigenvalues --   -0.18080  -0.13952  -0.11222
  Beta virt. eigenvalues --   -0.07043  -0.06586  -0.06041  -0.03148  -0.02928
  Beta virt. eigenvalues --   -0.02716  -0.01968  -0.01578  -0.01044  -0.00564
  Beta virt. eigenvalues --    0.00020   0.00136   0.00186   0.00552   0.00650

 Mulliken charges and spin densities:
               1          2
     1  Na   0.015614   0.003285
     2  Na   0.669714   0.286492
     3  Na  -0.496365   0.243432
     4  Na   0.092050   0.048093
     5  Na  -0.057810   0.297792
     6  Na  -0.567599   0.096769
     7  Na   0.344398   0.024137
 Sum of Mulliken charges =  -0.00000   1.00000

 Dipole moment (field-independent basis, Debye):
    X=             -0.2949    Y=              0.0212    Z=              0.1166  Tot=              0.3178
 Quadrupole moment (field-independent basis, Debye-Ang):
   XX=            -45.1664   YY=            -72.8088   ZZ=            -74.5010
   XY=              0.2753   XZ=             -0.9308   YZ=              0.9081

 Normal termination of Gaussian 16 at Thu Dec  7 09:52:52 2023.
