 Gaussian 16, Revision B.01,
 Gaussian 16:  ES64L-G16RevB.01 20-Dec-2017

 -------------------------
 #P B3LYP/6-311+g(d) force
 -------------------------

 -----
 DPGEN
 -----
 Symbolic Z-matrix:
 Charge =  0 Multiplicity = 2

                         Standard orientation:
 ---------------------------------------------------------------------
 Center     Atomic      Atomic             Coordinates (Angstroms)
 Number     Number       Type             X           Y           Z
 ---------------------------------------------------------------------
      1         11           0       -0.946680   -1.851193   -0.152427
      2         11           0       -0.259933    3.689707   -0.187309
      3         11           0       -4.358326   -1.511106   -0.651758
      4         11           0       -1.827251    1.335982    1.022818
      5         11           0        1.508067    0.254698   -1.358954
      6         11           0        4.167091   -0.828066   -0.569294
      7         11           0        1.717032   -1.090023    1.896923
 ---------------------------------------------------------------------

 SCF Done:  E(UB3LYP) =  -1136.11737027     A.U. after   21 cycles

 The electronic state is 2-A.
 Alpha  occ. eigenvalues --  -38.44863 -38.44599 -38.44451 -38.44013 -38.43942
 Alpha  occ. eigenvalues --  -38.43792 -38.42989  -2.20752  -2.20459  -2.20314
 Alpha  occ. eigenvalues --   -2.19798  -2.19781  -2.19650  -2.18799  -1.14498
 Alpha  occ. eigenvalues --   -1.14414  -1.14386  -1.14103  -1.14095  -1.14068
 Alpha  occ. eigenvalues --   -1.13971  -1.13963  -1.13920  -1.13468  -1.13464
 Alpha  occ. eigenvalues --   -1.13455  -1.13452  -1.13424  -1.13413  -1.13359
 Alpha  occ. eigenvalues --   -1.13324  -1.13250  -1.12475  -1.12454  -1.12437
 Alpha  occ. eigenvalues --   -0.17734  -0.13773  -0.11935  -0.10794
 Alpha virt. eigenvalues --   -0.07089  -0.05074  -0.04486  -0.03445  -0.02979
 Alpha virt. eigenvalues --   -0.02597  -0.01979  -0.01385  -0.00972  -0.00470
 Alpha virt. eigenvalues --   -0.00257   0.00100   0.00296   0.00506   0.00740

  Beta  occ. eigenvalues --  -38.44833 -38.44559 -38.44376 -38.43962 -38.43940
  Beta  occ. eigenvalues --  -38.43787 -38.42995  -2.20699  -2.20387  -2.20176
  Beta  occ. eigenvalues --   -2.19778  -2.19700  -2.19648  -2.18810  -1.14454
  Beta  occ. eigenvalues --   -1.14372  -1.14337  -1.14050  -1.14037  -1.14023
  Beta  occ. eigenvalues --   -1.13871  -1.13869  -1.13824  -1.13465  -1.13453
  Beta  occ. eigenvalues --   -1.13420  -1.13388  -1.13386  -1.13367  -1.13354
  Beta  occ. eigenvalues --   -1.13316  -1.13215  -1.12483  -1.12461  -1.12444
  Beta  occ. eigenvalues --   -0.17147  -0.13368  -0.11707
  Beta virt. eigenvalues --   -0.07159  -0.06868  -0.04712  -0.04255  -0.03096
  Beta virt. eigenvalues --   -0.02739  -0.02087  -0.01646  -0.01144  -0.00630
  Beta virt. eigenvalues --   -0.00294  -0.00126   0.00325   0.00435   0.00633

 Mulliken charges and spin densities:
               1          2
     1  Na  -0.131433   0.027847
     2  Na   0.117999  -0.060963
     3  Na   0.168990   0.265733
     4  Na  -0.168864   0.046676
     5  Na  -0.274417   0.280084
     6  Na   0.181470   0.116141
     7  Na   0.106254   0.324482
 Sum of Mulliken charges =  -0.00000   1.00000

 Dipole moment (field-independent basis, Debye):
    X=              1.1098    Y=             -0.4241    Z=              0.5448  Tot=              1.3071
 Quadrupole moment (field-independent basis, Debye-Ang):
   XX=            -56.7137   YY=            -72.4903   ZZ=            -68.4888
   XY=             -2.9617   XZ=              2.3857   YZ=              0.2771

 Normal termination of Gaussian 16 at Mon Dec  4 03:07:22 2023.
