 Gaussian 16, Revision B.01,
 Gaussian 16:  ES64L-G16RevB.01 20-Dec-2017

 -------------------------
 #P B3LYP/6-311+g(d) force
 -------------------------

 -----
 DPGEN
 -----
 Symbolic Z-matrix:
 Charge =  0 Multiplicity = 2

                         Standard orientation:
 ---------------------------------------------------------------------
 Center     Atomic      Atomic             Coordinates (Angstroms)
 Number     Number       Type             X           Y           Z
 ---------------------------------------------------------------------
      1         11           0        3.187541    0.489500   -0.036118
      2         11           0       -2.907843    1.555872    0.201297
      3         11           0       -0.195680    0.528453   -1.445125
      4         11           0        0.719519    2.662951    0.105754
      5         11           0        1.612115   -2.306503   -0.594444
      6         11           0        0.066842   -0.943283    2.232165
      7         11           0       -2.482495   -1.986990   -0.463528
 ---------------------------------------------------------------------

 SCF Done:  E(UB3LYP) =  -1136.12946324     A.U. after   19 cycles

 The electronic state is 2-A.
 Alpha  occ. eigenvalues --  -38.44386 -38.44217 -38.44125 -38.43716 -38.43499
 Alpha  occ. eigenvalues --  -38.43366 -38.43328  -2.20188  -2.20066  -2.19918
 Alpha  occ. eigenvalues --   -2.19548  -2.19354  -2.19348  -2.19263  -1.13868
 Alpha  occ. eigenvalues --   -1.13850  -1.13823  -1.13743  -1.13729  -1.13714
 Alpha  occ. eigenvalues --   -1.13597  -1.13575  -1.13554  -1.13300  -1.13202
 Alpha  occ. eigenvalues --   -1.13183  -1.13167  -1.13047  -1.13010  -1.12996
 Alpha  occ. eigenvalues --   -1.12984  -1.12943  -1.12889  -1.12852  -1.12817
 Alpha  occ. eigenvalues --   -0.18385  -0.13222  -0.12288  -0.10577
 Alpha virt. eigenvalues --   -0.05886  -0.05695  -0.04250  -0.03214  -0.03098
 Alpha virt. eigenvalues --   -0.02348  -0.01759  -0.01273  -0.00498  -0.00271
 Alpha virt. eigenvalues --   -0.00039   0.00322   0.00693   0.00818   0.00881

  Beta  occ. eigenvalues --  -38.44385 -38.44214 -38.44118 -38.43618 -38.43486
  Beta  occ. eigenvalues --  -38.43361 -38.43284  -2.20188  -2.20064  -2.19908
  Beta  occ. eigenvalues --   -2.19365  -2.19333  -2.19286  -2.19240  -1.13862
  Beta  occ. eigenvalues --   -1.13842  -1.13826  -1.13739  -1.13729  -1.13698
  Beta  occ. eigenvalues --   -1.13578  -1.13563  -1.13550  -1.13262  -1.13084
  Beta  occ. eigenvalues --   -1.13057  -1.13039  -1.13022  -1.12981  -1.12964
  Beta  occ. eigenvalues --   -1.12945  -1.12899  -1.12867  -1.12835  -1.12780
  Beta  occ. eigenvalues --   -0.17711  -0.13044  -0.12064
  Beta virt. eigenvalues --   -0.06667  -0.05812  -0.05679  -0.04165  -0.02525
  Beta virt. eigenvalues --   -0.02305  -0.01667  -0.01367  -0.01190  -0.00534
  Beta virt. eigenvalues --   -0.00283   0.00155   0.00368   0.00767   0.00830

 Mulliken charges and spin densities:
               1          2
     1  Na   0.178721   0.057562
     2  Na   0.061229   0.027542
     3  Na  -0.143964   0.106848
     4  Na   0.288949   0.115802
     5  Na   0.256545   0.058485
     6  Na  -0.749041   0.675932
     7  Na   0.107562  -0.042170
 Sum of Mulliken charges =  -0.00000   1.00000

 Dipole moment (field-independent basis, Debye):
    X=             -0.3428    Y=             -0.0474    Z=              0.1874  Tot=              0.3936
 Quadrupole moment (field-independent basis, Debye-Ang):
   XX=            -53.2236   YY=            -65.5665   ZZ=            -74.7269
   XY=              0.0254   XZ=             -0.5397   YZ=              2.9776

 Normal termination of Gaussian 16 at Thu Dec  7 23:59:06 2023.
