 Gaussian 16, Revision B.01,
 Gaussian 16:  ES64L-G16RevB.01 20-Dec-2017

 -------------------------
 #P B3LYP/6-311+g(d) force
 -------------------------

 -----
 DPGEN
 -----
 Symbolic Z-matrix:
 Charge =  0 Multiplicity = 2

                         Standard orientation:
 ---------------------------------------------------------------------
 Center     Atomic      Atomic             Coordinates (Angstroms)
 Number     Number       Type             X           Y           Z
 ---------------------------------------------------------------------
      1         11           0        2.695658    1.700253    0.195638
      2         11           0        1.424888   -1.502718    2.036208
      3         11           0       -1.385578    0.182127    2.123186
      4         11           0        2.509305   -1.095780   -1.992789
      5         11           0       -0.392639    2.745762   -0.596718
      6         11           0       -3.690394    0.284248   -0.881370
      7         11           0       -1.161240   -2.313891   -0.884155
 ---------------------------------------------------------------------

 SCF Done:  E(UB3LYP) =  -1136.12249094     A.U. after   21 cycles

 The electronic state is 2-A.
 Alpha  occ. eigenvalues --  -38.44890 -38.44795 -38.44478 -38.44247 -38.44099
 Alpha  occ. eigenvalues --  -38.43574 -38.43343  -2.20659  -2.20621  -2.20249
 Alpha  occ. eigenvalues --   -2.20063  -2.19870  -2.19376  -2.19117  -1.14325
 Alpha  occ. eigenvalues --   -1.14312  -1.14294  -1.14283  -1.14258  -1.14245
 Alpha  occ. eigenvalues --   -1.13926  -1.13896  -1.13880  -1.13748  -1.13702
 Alpha  occ. eigenvalues --   -1.13678  -1.13558  -1.13530  -1.13493  -1.13056
 Alpha  occ. eigenvalues --   -1.13047  -1.13019  -1.12800  -1.12794  -1.12737
 Alpha  occ. eigenvalues --   -0.17154  -0.13034  -0.11893  -0.11515
 Alpha virt. eigenvalues --   -0.05897  -0.05683  -0.04764  -0.03507  -0.03189
 Alpha virt. eigenvalues --   -0.03072  -0.01588  -0.00910  -0.00741  -0.00483
 Alpha virt. eigenvalues --   -0.00155   0.00149   0.00379   0.00420   0.00601

  Beta  occ. eigenvalues --  -38.44833 -38.44736 -38.44460 -38.44193 -38.44079
  Beta  occ. eigenvalues --  -38.43577 -38.43344  -2.20552  -2.20514  -2.20214
  Beta  occ. eigenvalues --   -2.19967  -2.19833  -2.19383  -2.19120  -1.14250
  Beta  occ. eigenvalues --   -1.14236  -1.14222  -1.14212  -1.14189  -1.14150
  Beta  occ. eigenvalues --   -1.13898  -1.13872  -1.13859  -1.13671  -1.13641
  Beta  occ. eigenvalues --   -1.13601  -1.13530  -1.13500  -1.13466  -1.13059
  Beta  occ. eigenvalues --   -1.13042  -1.13026  -1.12797  -1.12795  -1.12742
  Beta  occ. eigenvalues --   -0.16452  -0.12755  -0.11358
  Beta virt. eigenvalues --   -0.08068  -0.05716  -0.05133  -0.04589  -0.03286
  Beta virt. eigenvalues --   -0.02634  -0.02336  -0.01489  -0.00700  -0.00506
  Beta virt. eigenvalues --   -0.00277  -0.00110   0.00337   0.00447   0.00510

 Mulliken charges and spin densities:
               1          2
     1  Na  -0.249349   0.100903
     2  Na   0.225732   0.164969
     3  Na  -0.025963   0.215240
     4  Na   0.148589   0.212203
     5  Na  -0.061312  -0.026641
     6  Na   0.419554   0.036080
     7  Na  -0.457251   0.297246
 Sum of Mulliken charges =  -0.00000   1.00000

 Dipole moment (field-independent basis, Debye):
    X=             -0.2794    Y=             -0.4631    Z=             -0.1854  Tot=              0.5717
 Quadrupole moment (field-independent basis, Debye-Ang):
   XX=            -58.1290   YY=            -75.3032   ZZ=            -64.5512
   XY=             -2.0741   XZ=              1.3504   YZ=              1.4609

 Normal termination of Gaussian 16 at Sun Dec  3 14:43:38 2023.
