 Gaussian 16, Revision B.01,
 Gaussian 16:  ES64L-G16RevB.01 20-Dec-2017

 -------------------------
 #P B3LYP/6-311+g(d) force
 -------------------------

 -----
 DPGEN
 -----
 Symbolic Z-matrix:
 Charge =  0 Multiplicity = 2

                         Standard orientation:
 ---------------------------------------------------------------------
 Center     Atomic      Atomic             Coordinates (Angstroms)
 Number     Number       Type             X           Y           Z
 ---------------------------------------------------------------------
      1         11           0       -0.269580    0.037155    2.152616
      2         11           0       -0.212603    0.134498   -1.517936
      3         11           0       -2.437038   -1.808659   -0.244078
      4         11           0       -2.682074    1.579988    0.158903
      5         11           0        3.025294   -0.227455    0.460747
      6         11           0        1.254625   -2.707219   -0.449001
      7         11           0        1.321375    2.991692   -0.561250
 ---------------------------------------------------------------------

 SCF Done:  E(UB3LYP) =  -1136.13516262     A.U. after   19 cycles

 The electronic state is 2-A.
 Alpha  occ. eigenvalues --  -38.44165 -38.43980 -38.43932 -38.43794 -38.43557
 Alpha  occ. eigenvalues --  -38.43315 -38.43078  -2.20007  -2.19842  -2.19767
 Alpha  occ. eigenvalues --   -2.19652  -2.19346  -2.19168  -2.19070  -1.13691
 Alpha  occ. eigenvalues --   -1.13682  -1.13634  -1.13504  -1.13471  -1.13465
 Alpha  occ. eigenvalues --   -1.13451  -1.13429  -1.13399  -1.13352  -1.13310
 Alpha  occ. eigenvalues --   -1.13272  -1.13034  -1.12994  -1.12986  -1.12863
 Alpha  occ. eigenvalues --   -1.12821  -1.12807  -1.12753  -1.12703  -1.12688
 Alpha  occ. eigenvalues --   -0.18456  -0.13140  -0.12177  -0.10876
 Alpha virt. eigenvalues --   -0.05674  -0.05260  -0.04697  -0.03325  -0.02798
 Alpha virt. eigenvalues --   -0.02626  -0.01497  -0.01257  -0.00472  -0.00303
 Alpha virt. eigenvalues --   -0.00019   0.00353   0.00797   0.00826   0.00870

  Beta  occ. eigenvalues --  -38.44159 -38.43926 -38.43882 -38.43786 -38.43547
  Beta  occ. eigenvalues --  -38.43311 -38.43022  -2.20000  -2.19758  -2.19661
  Beta  occ. eigenvalues --   -2.19641  -2.19329  -2.19162  -2.18968  -1.13688
  Beta  occ. eigenvalues --   -1.13652  -1.13630  -1.13451  -1.13418  -1.13392
  Beta  occ. eigenvalues --   -1.13382  -1.13349  -1.13336  -1.13321  -1.13291
  Beta  occ. eigenvalues --   -1.13261  -1.13011  -1.12981  -1.12976  -1.12853
  Beta  occ. eigenvalues --   -1.12807  -1.12800  -1.12682  -1.12635  -1.12609
  Beta  occ. eigenvalues --   -0.17746  -0.12939  -0.11896
  Beta virt. eigenvalues --   -0.06994  -0.05600  -0.05198  -0.04606  -0.02572
  Beta virt. eigenvalues --   -0.02116  -0.01610  -0.01402  -0.01158  -0.00472
  Beta virt. eigenvalues --   -0.00337   0.00123   0.00385   0.00815   0.00877

 Mulliken charges and spin densities:
               1          2
     1  Na  -0.386041   0.629872
     2  Na  -0.143332   0.284583
     3  Na   0.175628  -0.001861
     4  Na   0.244367   0.020716
     5  Na   0.114024   0.085482
     6  Na   0.015683  -0.011562
     7  Na  -0.020330  -0.007231
 Sum of Mulliken charges =  -0.00000   1.00000

 Dipole moment (field-independent basis, Debye):
    X=             -0.3663    Y=              0.0820    Z=              0.2960  Tot=              0.4781
 Quadrupole moment (field-independent basis, Debye-Ang):
   XX=            -57.1724   YY=            -62.5315   ZZ=            -74.0306
   XY=             -0.1994   XZ=              0.4879   YZ=              0.4250

 Normal termination of Gaussian 16 at Thu Dec  7 16:10:48 2023.
