 Gaussian 16, Revision B.01,
 Gaussian 16:  ES64L-G16RevB.01 20-Dec-2017

 -------------------------
 #P B3LYP/6-311+g(d) force
 -------------------------

 -----
 DPGEN
 -----
 Symbolic Z-matrix:
 Charge =  0 Multiplicity = 2

                         Standard orientation:
 ---------------------------------------------------------------------
 Center     Atomic      Atomic             Coordinates (Angstroms)
 Number     Number       Type             X           Y           Z
 ---------------------------------------------------------------------
      1         11           0        1.466634    2.885387    1.205223
      2         11           0        0.256192   -2.850844    0.016559
      3         11           0        3.991665   -2.238243   -0.593448
      4         11           0        4.178097    1.026407   -0.128159
      5         11           0       -3.702467   -2.104607    1.123673
      6         11           0       -2.016292    3.267752   -0.688222
      7         11           0       -4.173829    0.014149   -0.935627
 ---------------------------------------------------------------------

 SCF Done:  E(UB3LYP) =  -1136.09972923     A.U. after   24 cycles

 The electronic state is 2-A.
 Alpha  occ. eigenvalues --  -38.45858 -38.45307 -38.44759 -38.44661 -38.44197
 Alpha  occ. eigenvalues --  -38.44190 -38.44009  -2.21591  -2.21109  -2.20519
 Alpha  occ. eigenvalues --   -2.20384  -2.20020  -2.20003  -2.19778  -1.15267
 Alpha  occ. eigenvalues --   -1.15256  -1.15178  -1.14817  -1.14767  -1.14746
 Alpha  occ. eigenvalues --   -1.14205  -1.14201  -1.14164  -1.14081  -1.14071
 Alpha  occ. eigenvalues --   -1.14026  -1.13693  -1.13666  -1.13657  -1.13653
 Alpha  occ. eigenvalues --   -1.13641  -1.13626  -1.13436  -1.13423  -1.13392
 Alpha  occ. eigenvalues --   -0.15446  -0.14166  -0.12732  -0.10647
 Alpha virt. eigenvalues --   -0.07927  -0.05147  -0.04653  -0.03578  -0.03366
 Alpha virt. eigenvalues --   -0.02695  -0.02284  -0.01660  -0.01231  -0.00930
 Alpha virt. eigenvalues --   -0.00834  -0.00339   0.00041   0.00337   0.00530

  Beta  occ. eigenvalues --  -38.45788 -38.45291 -38.44781 -38.44690 -38.44150
  Beta  occ. eigenvalues --  -38.44149 -38.43930  -2.21463  -2.21084  -2.20561
  Beta  occ. eigenvalues --   -2.20443  -2.19944  -2.19915  -2.19629  -1.15181
  Beta  occ. eigenvalues --   -1.15171  -1.15081  -1.14788  -1.14756  -1.14702
  Beta  occ. eigenvalues --   -1.14235  -1.14231  -1.14173  -1.14124  -1.14112
  Beta  occ. eigenvalues --   -1.14042  -1.13638  -1.13605  -1.13604  -1.13593
  Beta  occ. eigenvalues --   -1.13589  -1.13578  -1.13335  -1.13322  -1.13296
  Beta  occ. eigenvalues --   -0.14917  -0.13724  -0.12062
  Beta virt. eigenvalues --   -0.07913  -0.07372  -0.04787  -0.04218  -0.03426
  Beta virt. eigenvalues --   -0.03005  -0.02583  -0.01992  -0.01424  -0.01075
  Beta virt. eigenvalues --   -0.00705  -0.00571  -0.00076   0.00082   0.00430

 Mulliken charges and spin densities:
               1          2
     1  Na  -0.043711  -0.226887
     2  Na  -0.293790   0.432892
     3  Na   0.413261  -0.208282
     4  Na  -0.269287   0.275624
     5  Na   0.061899   0.236379
     6  Na  -0.029529   0.363671
     7  Na   0.161157   0.126602
 Sum of Mulliken charges =  -0.00000   1.00000

 Dipole moment (field-independent basis, Debye):
    X=             -0.1043    Y=             -1.1209    Z=              0.0427  Tot=              1.1266
 Quadrupole moment (field-independent basis, Debye-Ang):
   XX=            -61.3339   YY=            -72.9799   ZZ=            -68.6942
   XY=             -2.3580   XZ=             -0.2014   YZ=             -0.9566

 Normal termination of Gaussian 16 at Sun Dec  3 14:20:06 2023.
