 Gaussian 16, Revision B.01,
 Gaussian 16:  ES64L-G16RevB.01 20-Dec-2017

 -------------------------
 #P B3LYP/6-311+g(d) force
 -------------------------

 -----
 DPGEN
 -----
 Symbolic Z-matrix:
 Charge =  0 Multiplicity = 2

                         Standard orientation:
 ---------------------------------------------------------------------
 Center     Atomic      Atomic             Coordinates (Angstroms)
 Number     Number       Type             X           Y           Z
 ---------------------------------------------------------------------
      1         11           0        3.017044    2.360411   -0.480873
      2         11           0       -0.033558    3.623174   -0.183949
      3         11           0        4.440802   -1.076689    0.880504
      4         11           0       -4.429057   -1.412323    0.242893
      5         11           0        2.154209   -2.732896   -0.405134
      6         11           0       -1.704429   -2.993552   -0.402779
      7         11           0       -3.445012    2.231876    0.349339
 ---------------------------------------------------------------------

 SCF Done:  E(UB3LYP) =  -1136.10713696     A.U. after   24 cycles

 The electronic state is 2-A.
 Alpha  occ. eigenvalues --  -38.45128 -38.45118 -38.44806 -38.44632 -38.44357
 Alpha  occ. eigenvalues --  -38.44037 -38.44020  -2.20904  -2.20895  -2.20591
 Alpha  occ. eigenvalues --   -2.20446  -2.20135  -2.19820  -2.19806  -1.14592
 Alpha  occ. eigenvalues --   -1.14577  -1.14574  -1.14566  -1.14562  -1.14544
 Alpha  occ. eigenvalues --   -1.14255  -1.14248  -1.14210  -1.14097  -1.14090
 Alpha  occ. eigenvalues --   -1.14075  -1.13794  -1.13779  -1.13750  -1.13488
 Alpha  occ. eigenvalues --   -1.13485  -1.13473  -1.13466  -1.13457  -1.13451
 Alpha  occ. eigenvalues --   -0.15523  -0.14058  -0.13350  -0.10804
 Alpha virt. eigenvalues --   -0.07922  -0.04956  -0.04433  -0.03606  -0.03420
 Alpha virt. eigenvalues --   -0.02571  -0.02256  -0.01953  -0.01149  -0.00949
 Alpha virt. eigenvalues --   -0.00670  -0.00193   0.00108   0.00239   0.00575

  Beta  occ. eigenvalues --  -38.45141 -38.45108 -38.44750 -38.44595 -38.44278
  Beta  occ. eigenvalues --  -38.44041 -38.43966  -2.20925  -2.20889  -2.20490
  Beta  occ. eigenvalues --   -2.20379  -2.19986  -2.19819  -2.19720  -1.14598
  Beta  occ. eigenvalues --   -1.14595  -1.14575  -1.14561  -1.14536  -1.14529
  Beta  occ. eigenvalues --   -1.14188  -1.14180  -1.14131  -1.14051  -1.14042
  Beta  occ. eigenvalues --   -1.14031  -1.13692  -1.13680  -1.13654  -1.13501
  Beta  occ. eigenvalues --   -1.13497  -1.13423  -1.13405  -1.13399  -1.13394
  Beta  occ. eigenvalues --   -0.15001  -0.13460  -0.12621
  Beta virt. eigenvalues --   -0.07935  -0.07655  -0.04468  -0.04039  -0.03409
  Beta virt. eigenvalues --   -0.03061  -0.02330  -0.02102  -0.01750  -0.01057
  Beta virt. eigenvalues --   -0.00709  -0.00310   0.00059   0.00194   0.00374

 Mulliken charges and spin densities:
               1          2
     1  Na  -0.290644   0.219002
     2  Na   0.320734  -0.015315
     3  Na   0.100870   0.101002
     4  Na   0.569241   0.033506
     5  Na  -0.306979   0.063674
     6  Na  -0.199422   0.191904
     7  Na  -0.193800   0.406228
 Sum of Mulliken charges =  -0.00000   1.00000

 Dipole moment (field-independent basis, Debye):
    X=              0.6833    Y=             -0.5471    Z=              0.1626  Tot=              0.8903
 Quadrupole moment (field-independent basis, Debye-Ang):
   XX=            -54.2045   YY=            -72.4435   ZZ=            -72.7831
   XY=              2.2924   XZ=              0.5589   YZ=              0.9593

 Normal termination of Gaussian 16 at Sun Dec  3 16:15:00 2023.
