 Gaussian 16, Revision B.01,
 Gaussian 16:  ES64L-G16RevB.01 20-Dec-2017

 -------------------------
 #P B3LYP/6-311+g(d) force
 -------------------------

 -----
 DPGEN
 -----
 Symbolic Z-matrix:
 Charge =  0 Multiplicity = 2

                         Standard orientation:
 ---------------------------------------------------------------------
 Center     Atomic      Atomic             Coordinates (Angstroms)
 Number     Number       Type             X           Y           Z
 ---------------------------------------------------------------------
      1         11           0        2.963098    0.716524   -0.050700
      2         11           0        0.327992    2.884430    0.286481
      3         11           0       -2.190698    1.106272   -0.593874
      4         11           0        2.115772   -2.328535    0.156619
      5         11           0        0.158225   -0.597358   -2.099106
      6         11           0       -3.013692   -1.407072    0.156110
      7         11           0       -0.360697   -0.374260    2.144471
 ---------------------------------------------------------------------

 SCF Done:  E(UB3LYP) =  -1136.12508966     A.U. after   20 cycles

 The electronic state is 2-A.
 Alpha  occ. eigenvalues --  -38.44491 -38.44458 -38.44398 -38.44376 -38.43697
 Alpha  occ. eigenvalues --  -38.43507 -38.42426  -2.20343  -2.20325  -2.20260
 Alpha  occ. eigenvalues --   -2.20239  -2.19689  -2.19352  -2.18275  -1.14125
 Alpha  occ. eigenvalues --   -1.14009  -1.14000  -1.13974  -1.13972  -1.13964
 Alpha  occ. eigenvalues --   -1.13948  -1.13917  -1.13902  -1.13881  -1.13875
 Alpha  occ. eigenvalues --   -1.13865  -1.13347  -1.13309  -1.13304  -1.13021
 Alpha  occ. eigenvalues --   -1.13009  -1.12999  -1.11955  -1.11932  -1.11924
 Alpha  occ. eigenvalues --   -0.18587  -0.13661  -0.11781  -0.11540
 Alpha virt. eigenvalues --   -0.06064  -0.05083  -0.04060  -0.03915  -0.03280
 Alpha virt. eigenvalues --   -0.02838  -0.01664  -0.00823  -0.00265  -0.00151
 Alpha virt. eigenvalues --    0.00117   0.00370   0.00534   0.00699   0.00856

  Beta  occ. eigenvalues --  -38.44401 -38.44398 -38.44375 -38.44375 -38.43679
  Beta  occ. eigenvalues --  -38.43506 -38.42425  -2.20262  -2.20241  -2.20178
  Beta  occ. eigenvalues --   -2.20172  -2.19662  -2.19353  -2.18276  -1.14127
  Beta  occ. eigenvalues --   -1.13920  -1.13912  -1.13906  -1.13896  -1.13883
  Beta  occ. eigenvalues --   -1.13874  -1.13862  -1.13854  -1.13853  -1.13828
  Beta  occ. eigenvalues --   -1.13825  -1.13325  -1.13295  -1.13256  -1.13024
  Beta  occ. eigenvalues --   -1.13008  -1.12984  -1.11958  -1.11932  -1.11912
  Beta  occ. eigenvalues --   -0.17792  -0.13483  -0.11587
  Beta virt. eigenvalues --   -0.07583  -0.05927  -0.04992  -0.03963  -0.03153
  Beta virt. eigenvalues --   -0.02265  -0.02147  -0.01552  -0.00743  -0.00330
  Beta virt. eigenvalues --    0.00013   0.00142   0.00405   0.00805   0.00827

 Mulliken charges and spin densities:
               1          2
     1  Na  -0.062046   0.047061
     2  Na  -0.129990  -0.060100
     3  Na   0.016269   0.351065
     4  Na   0.029969  -0.027505
     5  Na   0.074866   0.238873
     6  Na   0.213057  -0.056969
     7  Na  -0.142125   0.507575
 Sum of Mulliken charges =  -0.00000   1.00000

 Dipole moment (field-independent basis, Debye):
    X=              0.1791    Y=             -0.7025    Z=              0.0818  Tot=              0.7296
 Quadrupole moment (field-independent basis, Debye-Ang):
   XX=            -58.5725   YY=            -69.6207   ZZ=            -69.3961
   XY=              1.7296   XZ=              0.3701   YZ=             -0.7458

 Normal termination of Gaussian 16 at Tue Dec  5 13:34:54 2023.
