 Gaussian 16, Revision B.01,
 Gaussian 16:  ES64L-G16RevB.01 20-Dec-2017

 -------------------------
 #P B3LYP/6-311+g(d) force
 -------------------------

 -----
 DPGEN
 -----
 Symbolic Z-matrix:
 Charge =  0 Multiplicity = 2

                         Standard orientation:
 ---------------------------------------------------------------------
 Center     Atomic      Atomic             Coordinates (Angstroms)
 Number     Number       Type             X           Y           Z
 ---------------------------------------------------------------------
      1         11           0        2.673482    1.659592   -0.251309
      2         11           0       -1.569491    2.705489   -0.366174
      3         11           0       -3.089347   -0.215689    0.034636
      4         11           0       -1.252297   -2.669546   -0.062352
      5         11           0        2.794817   -1.445781    0.244233
      6         11           0        0.046924    0.417983    2.049504
      7         11           0        0.395913   -0.452048   -1.648538
 ---------------------------------------------------------------------

 SCF Done:  E(UB3LYP) =  -1136.13132064     A.U. after   20 cycles

 The electronic state is 2-A.
 Alpha  occ. eigenvalues --  -38.44373 -38.44343 -38.44201 -38.43684 -38.43417
 Alpha  occ. eigenvalues --  -38.43333 -38.43105  -2.20238  -2.20190  -2.20071
 Alpha  occ. eigenvalues --   -2.19544  -2.19369  -2.19141  -2.18982  -1.13976
 Alpha  occ. eigenvalues --   -1.13908  -1.13885  -1.13857  -1.13832  -1.13789
 Alpha  occ. eigenvalues --   -1.13762  -1.13732  -1.13717  -1.13215  -1.13175
 Alpha  occ. eigenvalues --   -1.13160  -1.13060  -1.13016  -1.12997  -1.12813
 Alpha  occ. eigenvalues --   -1.12799  -1.12786  -1.12660  -1.12636  -1.12612
 Alpha  occ. eigenvalues --   -0.18519  -0.13708  -0.11943  -0.10638
 Alpha virt. eigenvalues --   -0.05961  -0.05639  -0.04312  -0.03549  -0.02772
 Alpha virt. eigenvalues --   -0.02368  -0.01749  -0.01181  -0.00494  -0.00357
 Alpha virt. eigenvalues --   -0.00025   0.00360   0.00701   0.00810   0.00893

  Beta  occ. eigenvalues --  -38.44367 -38.44336 -38.44200 -38.43594 -38.43358
  Beta  occ. eigenvalues --  -38.43328 -38.43102  -2.20229  -2.20181  -2.20071
  Beta  occ. eigenvalues --   -2.19377  -2.19260  -2.19134  -2.18980  -1.13973
  Beta  occ. eigenvalues --   -1.13898  -1.13856  -1.13840  -1.13811  -1.13787
  Beta  occ. eigenvalues --   -1.13765  -1.13725  -1.13707  -1.13104  -1.13056
  Beta  occ. eigenvalues --   -1.13039  -1.12982  -1.12939  -1.12919  -1.12808
  Beta  occ. eigenvalues --   -1.12783  -1.12781  -1.12659  -1.12627  -1.12597
  Beta  occ. eigenvalues --   -0.17798  -0.13500  -0.11745
  Beta virt. eigenvalues --   -0.06756  -0.05871  -0.05603  -0.04260  -0.02756
  Beta virt. eigenvalues --   -0.02029  -0.01644  -0.01401  -0.01101  -0.00519
  Beta virt. eigenvalues --   -0.00393   0.00141   0.00396   0.00781   0.00818

 Mulliken charges and spin densities:
               1          2
     1  Na   0.092150  -0.054256
     2  Na  -0.066896  -0.047760
     3  Na   0.064056   0.006118
     4  Na   0.213300  -0.026917
     5  Na   0.237802   0.034006
     6  Na  -0.419807   0.626619
     7  Na  -0.120605   0.462190
 Sum of Mulliken charges =  -0.00000   1.00000

 Dipole moment (field-independent basis, Debye):
    X=              0.5880    Y=              0.0618    Z=              0.1360  Tot=              0.6067
 Quadrupole moment (field-independent basis, Debye-Ang):
   XX=            -54.5078   YY=            -65.2008   ZZ=            -74.8529
   XY=              0.2810   XZ=              0.4265   YZ=             -2.2212

 Normal termination of Gaussian 16 at Thu Dec  7 03:41:36 2023.
