 Gaussian 16, Revision B.01,
 Gaussian 16:  ES64L-G16RevB.01 20-Dec-2017

 -------------------------
 #P B3LYP/6-311+g(d) force
 -------------------------

 -----
 DPGEN
 -----
 Symbolic Z-matrix:
 Charge =  0 Multiplicity = 2

                         Standard orientation:
 ---------------------------------------------------------------------
 Center     Atomic      Atomic             Coordinates (Angstroms)
 Number     Number       Type             X           Y           Z
 ---------------------------------------------------------------------
      1         11           0       -4.185546    1.055714   -0.715776
      2         11           0        2.556902   -2.762088   -0.307454
      3         11           0        4.522964    0.554953   -0.480766
      4         11           0        2.011291    3.111347   -0.146722
      5         11           0       -1.527715    2.909179    0.981915
      6         11           0       -0.084937   -2.766843    1.235100
      7         11           0       -3.292960   -2.102262   -0.566298
 ---------------------------------------------------------------------

 SCF Done:  E(UB3LYP) =  -1136.10740090     A.U. after   23 cycles

 The electronic state is 2-A.
 Alpha  occ. eigenvalues --  -38.44984 -38.44902 -38.44823 -38.44805 -38.44236
 Alpha  occ. eigenvalues --  -38.44136 -38.44055  -2.20771  -2.20693  -2.20589
 Alpha  occ. eigenvalues --   -2.20556  -2.20014  -2.19952  -2.19840  -1.14440
 Alpha  occ. eigenvalues --   -1.14433  -1.14411  -1.14398  -1.14356  -1.14327
 Alpha  occ. eigenvalues --   -1.14260  -1.14250  -1.14240  -1.14238  -1.14228
 Alpha  occ. eigenvalues --   -1.14191  -1.13675  -1.13663  -1.13631  -1.13615
 Alpha  occ. eigenvalues --   -1.13596  -1.13587  -1.13495  -1.13476  -1.13469
 Alpha  occ. eigenvalues --   -0.15592  -0.13863  -0.13196  -0.10791
 Alpha virt. eigenvalues --   -0.07580  -0.04995  -0.04550  -0.03600  -0.03449
 Alpha virt. eigenvalues --   -0.02422  -0.02013  -0.01814  -0.01161  -0.01051
 Alpha virt. eigenvalues --   -0.00686  -0.00259   0.00029   0.00443   0.00645

  Beta  occ. eigenvalues --  -38.44946 -38.44892 -38.44830 -38.44792 -38.44172
  Beta  occ. eigenvalues --  -38.44105 -38.43984  -2.20703  -2.20679  -2.20574
  Beta  occ. eigenvalues --   -2.20569  -2.19898  -2.19895  -2.19708  -1.14395
  Beta  occ. eigenvalues --   -1.14391  -1.14376  -1.14353  -1.14350  -1.14303
  Beta  occ. eigenvalues --   -1.14267  -1.14255  -1.14250  -1.14231  -1.14186
  Beta  occ. eigenvalues --   -1.14166  -1.13595  -1.13584  -1.13576  -1.13560
  Beta  occ. eigenvalues --   -1.13551  -1.13548  -1.13405  -1.13388  -1.13381
  Beta  occ. eigenvalues --   -0.15094  -0.13144  -0.12511
  Beta virt. eigenvalues --   -0.07767  -0.07646  -0.04514  -0.04057  -0.03387
  Beta virt. eigenvalues --   -0.03091  -0.02204  -0.01818  -0.01692  -0.00962
  Beta virt. eigenvalues --   -0.00771  -0.00484   0.00029   0.00265   0.00404

 Mulliken charges and spin densities:
               1          2
     1  Na   0.251014   0.023493
     2  Na   0.124109   0.025165
     3  Na   0.116785   0.362105
     4  Na  -0.030449  -0.045423
     5  Na  -0.238602   0.303596
     6  Na  -0.344512   0.148375
     7  Na   0.121654   0.182690
 Sum of Mulliken charges =  -0.00000   1.00000

 Dipole moment (field-independent basis, Debye):
    X=             -0.6434    Y=             -0.5548    Z=             -0.2431  Tot=              0.8836
 Quadrupole moment (field-independent basis, Debye-Ang):
   XX=            -62.7784   YY=            -67.3735   ZZ=            -70.9236
   XY=             -3.2755   XZ=             -0.9221   YZ=              0.6993

 Normal termination of Gaussian 16 at Sun Dec  3 23:31:27 2023.
