 Gaussian 16, Revision B.01,
 Gaussian 16:  ES64L-G16RevB.01 20-Dec-2017

 -------------------------
 #P B3LYP/6-311+g(d) force
 -------------------------

 -----
 DPGEN
 -----
 Symbolic Z-matrix:
 Charge =  0 Multiplicity = 2

                         Standard orientation:
 ---------------------------------------------------------------------
 Center     Atomic      Atomic             Coordinates (Angstroms)
 Number     Number       Type             X           Y           Z
 ---------------------------------------------------------------------
      1         11           0        0.014457    0.112431    1.801539
      2         11           0        0.106427    0.113089   -1.752280
      3         11           0        2.664023   -0.717274    0.043570
      4         11           0        1.280800    1.924639   -0.054516
      5         11           0       -1.665613    1.748286    0.031792
      6         11           0        0.116385   -2.150239   -0.003517
      7         11           0       -2.516480   -1.030931   -0.066586
 ---------------------------------------------------------------------

 SCF Done:  E(UB3LYP) =  -1136.09686612     A.U. after   18 cycles

 The electronic state is 2-A.
 Alpha  occ. eigenvalues --  -38.43978 -38.43922 -38.43737 -38.43736 -38.43342
 Alpha  occ. eigenvalues --  -38.43322 -38.43166  -2.20197  -2.20110  -2.19761
 Alpha  occ. eigenvalues --   -2.19757  -2.19484  -2.19422  -2.19305  -1.14036
 Alpha  occ. eigenvalues --   -1.13936  -1.13851  -1.13817  -1.13811  -1.13743
 Alpha  occ. eigenvalues --   -1.13541  -1.13498  -1.13462  -1.13457  -1.13378
 Alpha  occ. eigenvalues --   -1.13367  -1.13219  -1.13101  -1.13081  -1.13048
 Alpha  occ. eigenvalues --   -1.13037  -1.12954  -1.12931  -1.12927  -1.12857
 Alpha  occ. eigenvalues --   -0.21304  -0.13866  -0.12854  -0.12006
 Alpha virt. eigenvalues --   -0.05266  -0.04426  -0.04042  -0.03598  -0.03122
 Alpha virt. eigenvalues --   -0.02774  -0.01247  -0.00530  -0.00065   0.00354
 Alpha virt. eigenvalues --    0.00665   0.00685   0.00998   0.01123   0.01135

  Beta  occ. eigenvalues --  -38.43886 -38.43828 -38.43730 -38.43729 -38.43326
  Beta  occ. eigenvalues --  -38.43309 -38.43150  -2.20031  -2.19939  -2.19754
  Beta  occ. eigenvalues --   -2.19749  -2.19463  -2.19405  -2.19283  -1.13942
  Beta  occ. eigenvalues --   -1.13825  -1.13743  -1.13708  -1.13694  -1.13626
  Beta  occ. eigenvalues --   -1.13540  -1.13492  -1.13453  -1.13444  -1.13332
  Beta  occ. eigenvalues --   -1.13322  -1.13202  -1.13070  -1.13032  -1.13020
  Beta  occ. eigenvalues --   -1.12980  -1.12942  -1.12926  -1.12853  -1.12849
  Beta  occ. eigenvalues --   -0.20486  -0.13514  -0.12488
  Beta virt. eigenvalues --   -0.07846  -0.05292  -0.04414  -0.04028  -0.02654
  Beta virt. eigenvalues --   -0.02188  -0.01683  -0.01173  -0.00491   0.00077
  Beta virt. eigenvalues --    0.00380   0.00639   0.00653   0.01026   0.01122

 Mulliken charges and spin densities:
               1          2
     1  Na  -0.355013   0.492930
     2  Na  -0.335285   0.453496
     3  Na   0.033465  -0.057097
     4  Na   0.265338   0.036643
     5  Na   0.245570   0.033410
     6  Na   0.245637   0.096747
     7  Na  -0.099714  -0.056129
 Sum of Mulliken charges =  -0.00000   1.00000

 Dipole moment (field-independent basis, Debye):
    X=              0.0256    Y=             -0.0893    Z=              0.0714  Tot=              0.1172
 Quadrupole moment (field-independent basis, Debye-Ang):
   XX=            -57.8835   YY=            -69.4669   ZZ=            -69.4731
   XY=             -0.1615   XZ=              0.2666   YZ=              0.0276

 Normal termination of Gaussian 16 at Sat Dec  9 05:59:52 2023.
