 Gaussian 16, Revision B.01,
 Gaussian 16:  ES64L-G16RevB.01 20-Dec-2017

 -------------------------
 #P B3LYP/6-311+g(d) force
 -------------------------

 -----
 DPGEN
 -----
 Symbolic Z-matrix:
 Charge =  0 Multiplicity = 2

                         Standard orientation:
 ---------------------------------------------------------------------
 Center     Atomic      Atomic             Coordinates (Angstroms)
 Number     Number       Type             X           Y           Z
 ---------------------------------------------------------------------
      1         11           0       -1.246058   -2.624433   -0.577750
      2         11           0        2.626576    1.406491   -0.186269
      3         11           0       -0.344088    0.137532    2.186082
      4         11           0       -2.728389    0.085386    0.203943
      5         11           0        0.093460   -0.087509   -1.725146
      6         11           0        2.368126   -1.862109    0.419253
      7         11           0       -0.769626    2.944642   -0.320114
 ---------------------------------------------------------------------

 SCF Done:  E(UB3LYP) =  -1136.13660075     A.U. after   19 cycles

 The electronic state is 2-A.
 Alpha  occ. eigenvalues --  -38.44165 -38.43663 -38.43641 -38.43418 -38.43407
 Alpha  occ. eigenvalues --  -38.43397 -38.43350  -2.20052  -2.19506  -2.19471
 Alpha  occ. eigenvalues --   -2.19390  -2.19351  -2.19240  -2.19237  -1.13740
 Alpha  occ. eigenvalues --   -1.13680  -1.13658  -1.13223  -1.13186  -1.13154
 Alpha  occ. eigenvalues --   -1.13137  -1.13137  -1.13117  -1.13085  -1.13060
 Alpha  occ. eigenvalues --   -1.13042  -1.13029  -1.13004  -1.12978  -1.12915
 Alpha  occ. eigenvalues --   -1.12893  -1.12880  -1.12875  -1.12859  -1.12843
 Alpha  occ. eigenvalues --   -0.18807  -0.12962  -0.12461  -0.11311
 Alpha virt. eigenvalues --   -0.05153  -0.04970  -0.04755  -0.03418  -0.03121
 Alpha virt. eigenvalues --   -0.02936  -0.01145  -0.01112  -0.00211  -0.00084
 Alpha virt. eigenvalues --    0.00030   0.00377   0.00885   0.00905   0.00931

  Beta  occ. eigenvalues --  -38.44067 -38.43661 -38.43634 -38.43407 -38.43403
  Beta  occ. eigenvalues --  -38.43336 -38.43331  -2.19870  -2.19505  -2.19459
  Beta  occ. eigenvalues --   -2.19337  -2.19270  -2.19234  -2.19215  -1.13619
  Beta  occ. eigenvalues --   -1.13551  -1.13531  -1.13217  -1.13166  -1.13154
  Beta  occ. eigenvalues --   -1.13120  -1.13109  -1.13084  -1.13082  -1.13018
  Beta  occ. eigenvalues --   -1.13001  -1.12977  -1.12960  -1.12919  -1.12894
  Beta  occ. eigenvalues --   -1.12887  -1.12866  -1.12841  -1.12833  -1.12829
  Beta  occ. eigenvalues --   -0.18060  -0.12715  -0.12207
  Beta virt. eigenvalues --   -0.07360  -0.05159  -0.04856  -0.04709  -0.02603
  Beta virt. eigenvalues --   -0.02362  -0.01902  -0.01067  -0.01030  -0.00190
  Beta virt. eigenvalues --   -0.00112   0.00117   0.00400   0.00906   0.00927

 Mulliken charges and spin densities:
               1          2
     1  Na   0.194220   0.000849
     2  Na   0.035716  -0.076364
     3  Na  -0.522921   0.599146
     4  Na   0.446943   0.114271
     5  Na  -0.143391   0.389293
     6  Na  -0.025024   0.056209
     7  Na   0.014458  -0.083403
 Sum of Mulliken charges =  -0.00000   1.00000

 Dipole moment (field-independent basis, Debye):
    X=              0.2001    Y=              0.0635    Z=              0.2509  Tot=              0.3272
 Quadrupole moment (field-independent basis, Debye-Ang):
   XX=            -62.1216   YY=            -61.7310   ZZ=            -71.3659
   XY=             -0.1159   XZ=              0.9569   YZ=             -0.6529

 Normal termination of Gaussian 16 at Tue Dec  5 20:09:50 2023.
