 Gaussian 16, Revision B.01,
 Gaussian 16:  ES64L-G16RevB.01 20-Dec-2017

 -------------------------
 #P B3LYP/6-311+g(d) force
 -------------------------

 -----
 DPGEN
 -----
 Symbolic Z-matrix:
 Charge =  0 Multiplicity = 2

                         Standard orientation:
 ---------------------------------------------------------------------
 Center     Atomic      Atomic             Coordinates (Angstroms)
 Number     Number       Type             X           Y           Z
 ---------------------------------------------------------------------
      1         11           0       -0.556394   -2.821396   -0.236454
      2         11           0       -4.075866   -1.781998   -0.227032
      3         11           0       -3.950400    1.272372    0.269069
      4         11           0       -1.007525    3.300903   -0.188344
      5         11           0        1.827231    1.537745    0.143512
      6         11           0        2.427526   -1.634559    0.592342
      7         11           0        5.335427    0.126933   -0.353093
 ---------------------------------------------------------------------

 SCF Done:  E(UB3LYP) =  -1136.11772776     A.U. after   20 cycles

 The electronic state is 2-A.
 Alpha  occ. eigenvalues --  -38.45050 -38.44650 -38.44575 -38.44352 -38.44180
 Alpha  occ. eigenvalues --  -38.44034 -38.43322  -2.20856  -2.20453  -2.20392
 Alpha  occ. eigenvalues --   -2.20209  -2.19992  -2.19827  -2.19117  -1.14506
 Alpha  occ. eigenvalues --   -1.14500  -1.14454  -1.14147  -1.14121  -1.14102
 Alpha  occ. eigenvalues --   -1.14086  -1.14079  -1.14012  -1.13895  -1.13882
 Alpha  occ. eigenvalues --   -1.13829  -1.13659  -1.13649  -1.13620  -1.13495
 Alpha  occ. eigenvalues --   -1.13486  -1.13450  -1.12784  -1.12780  -1.12759
 Alpha  occ. eigenvalues --   -0.16448  -0.14373  -0.12545  -0.11472
 Alpha virt. eigenvalues --   -0.06552  -0.05861  -0.03956  -0.03629  -0.03041
 Alpha virt. eigenvalues --   -0.02620  -0.02111  -0.01541  -0.01145  -0.00766
 Alpha virt. eigenvalues --   -0.00586  -0.00063   0.00094   0.00504   0.00754

  Beta  occ. eigenvalues --  -38.44955 -38.44626 -38.44555 -38.44329 -38.44162
  Beta  occ. eigenvalues --  -38.43996 -38.43308  -2.20680  -2.20413  -2.20359
  Beta  occ. eigenvalues --   -2.20174  -2.19961  -2.19758  -2.19094  -1.14384
  Beta  occ. eigenvalues --   -1.14379  -1.14340  -1.14114  -1.14096  -1.14082
  Beta  occ. eigenvalues --   -1.14060  -1.14054  -1.13966  -1.13870  -1.13862
  Beta  occ. eigenvalues --   -1.13758  -1.13632  -1.13630  -1.13596  -1.13450
  Beta  occ. eigenvalues --   -1.13438  -1.13395  -1.12767  -1.12760  -1.12743
  Beta  occ. eigenvalues --   -0.15809  -0.13810  -0.12052
  Beta virt. eigenvalues --   -0.07985  -0.06545  -0.05276  -0.03756  -0.03295
  Beta virt. eigenvalues --   -0.02657  -0.02339  -0.01788  -0.01367  -0.00756
  Beta virt. eigenvalues --   -0.00681  -0.00129   0.00115   0.00287   0.00559

 Mulliken charges and spin densities:
               1          2
     1  Na  -0.022056   0.088565
     2  Na   0.369294   0.135782
     3  Na  -0.459101   0.120602
     4  Na   0.212453  -0.060534
     5  Na  -0.691127   0.216853
     6  Na  -0.304769   0.054037
     7  Na   0.895306   0.444695
 Sum of Mulliken charges =  -0.00000   1.00000

 Dipole moment (field-independent basis, Debye):
    X=              0.9953    Y=             -0.2828    Z=             -0.1432  Tot=              1.0446
 Quadrupole moment (field-independent basis, Debye-Ang):
   XX=            -54.0395   YY=            -69.0193   ZZ=            -72.3742
   XY=             -0.1305   XZ=             -0.9805   YZ=              0.0193

 Normal termination of Gaussian 16 at Sun Dec  3 23:00:12 2023.
