 Gaussian 16, Revision B.01,
 Gaussian 16:  ES64L-G16RevB.01 20-Dec-2017

 -------------------------
 #P B3LYP/6-311+g(d) force
 -------------------------

 -----
 DPGEN
 -----
 Symbolic Z-matrix:
 Charge =  0 Multiplicity = 2

                         Standard orientation:
 ---------------------------------------------------------------------
 Center     Atomic      Atomic             Coordinates (Angstroms)
 Number     Number       Type             X           Y           Z
 ---------------------------------------------------------------------
      1         11           0       -3.992801   -0.321014    0.013475
      2         11           0        1.636024    0.598404    2.268572
      3         11           0       -1.011415   -0.956829    1.471025
      4         11           0       -0.398229   -0.777751   -1.366881
      5         11           0        2.452619    1.556759   -0.668444
      6         11           0        2.566185   -1.959126   -0.844816
      7         11           0       -1.252383    1.859557   -0.872931
 ---------------------------------------------------------------------

 SCF Done:  E(UB3LYP) =  -1136.11284903     A.U. after   28 cycles

 The electronic state is 2-A.
 Alpha  occ. eigenvalues --  -38.45621 -38.44984 -38.44179 -38.43951 -38.43879
 Alpha  occ. eigenvalues --  -38.42758 -38.42745  -2.21410  -2.20822  -2.20040
 Alpha  occ. eigenvalues --   -2.19979  -2.19787  -2.18698  -2.18618  -1.15088
 Alpha  occ. eigenvalues --   -1.15068  -1.15029  -1.14505  -1.14449  -1.14427
 Alpha  occ. eigenvalues --   -1.13879  -1.13728  -1.13702  -1.13693  -1.13666
 Alpha  occ. eigenvalues --   -1.13533  -1.13424  -1.13394  -1.13347  -1.12437
 Alpha  occ. eigenvalues --   -1.12399  -1.12313  -1.12285  -1.12250  -1.12211
 Alpha  occ. eigenvalues --   -0.18788  -0.14016  -0.11911  -0.10728
 Alpha virt. eigenvalues --   -0.06969  -0.04995  -0.04106  -0.03278  -0.02800
 Alpha virt. eigenvalues --   -0.02507  -0.02421  -0.01205  -0.00474  -0.00011
 Alpha virt. eigenvalues --    0.00143   0.00192   0.00456   0.00728   0.00829

  Beta  occ. eigenvalues --  -38.45622 -38.44907 -38.44151 -38.43913 -38.43840
  Beta  occ. eigenvalues --  -38.42756 -38.42717  -2.21412  -2.20680  -2.19991
  Beta  occ. eigenvalues --   -2.19915  -2.19714  -2.18697  -2.18567  -1.15087
  Beta  occ. eigenvalues --   -1.15069  -1.15032  -1.14392  -1.14359  -1.14330
  Beta  occ. eigenvalues --   -1.13811  -1.13686  -1.13658  -1.13647  -1.13629
  Beta  occ. eigenvalues --   -1.13495  -1.13370  -1.13334  -1.13289  -1.12436
  Beta  occ. eigenvalues --   -1.12378  -1.12304  -1.12242  -1.12217  -1.12188
  Beta  occ. eigenvalues --   -0.18093  -0.13737  -0.10551
  Beta virt. eigenvalues --   -0.07853  -0.06827  -0.04481  -0.03874  -0.02871
  Beta virt. eigenvalues --   -0.02657  -0.01979  -0.01763  -0.00722  -0.00443
  Beta virt. eigenvalues --    0.00065   0.00200   0.00331   0.00482   0.00836

 Mulliken charges and spin densities:
               1          2
     1  Na   0.726228  -0.052529
     2  Na  -0.114474   0.069799
     3  Na  -0.821233   0.006978
     4  Na   0.028046   0.097357
     5  Na   0.173405   0.289537
     6  Na   0.084815   0.271444
     7  Na  -0.076787   0.317414
 Sum of Mulliken charges =  -0.00000   1.00000

 Dipole moment (field-independent basis, Debye):
    X=             -0.9130    Y=             -0.1133    Z=             -0.4631  Tot=              1.0300
 Quadrupole moment (field-independent basis, Debye-Ang):
   XX=            -42.8008   YY=            -66.3331   ZZ=            -81.9350
   XY=             -0.4386   XZ=             -0.7941   YZ=              3.9408

 Normal termination of Gaussian 16 at Tue Dec  5 10:23:49 2023.
