 Gaussian 16, Revision B.01,
 Gaussian 16:  ES64L-G16RevB.01 20-Dec-2017

 -------------------------
 #P B3LYP/6-311+g(d) force
 -------------------------

 -----
 DPGEN
 -----
 Symbolic Z-matrix:
 Charge =  0 Multiplicity = 2

                         Standard orientation:
 ---------------------------------------------------------------------
 Center     Atomic      Atomic             Coordinates (Angstroms)
 Number     Number       Type             X           Y           Z
 ---------------------------------------------------------------------
      1         11           0       -2.919792   -0.955495   -0.221232
      2         11           0       -1.529121    2.245026   -0.070968
      3         11           0        1.807842    2.063582    0.110986
      4         11           0       -0.358397   -0.174832   -1.623614
      5         11           0        3.058325   -0.767246   -0.342881
      6         11           0       -0.354368    0.140401    1.728082
      7         11           0        0.295511   -2.551435    0.419627
 ---------------------------------------------------------------------

 SCF Done:  E(UB3LYP) =  -1136.13063737     A.U. after   20 cycles

 The electronic state is 2-A.
 Alpha  occ. eigenvalues --  -38.44088 -38.43976 -38.43280 -38.43248 -38.43231
 Alpha  occ. eigenvalues --  -38.43161 -38.43121  -2.19992  -2.19833  -2.19300
 Alpha  occ. eigenvalues --   -2.19233  -2.19208  -2.19192  -2.19050  -1.13721
 Alpha  occ. eigenvalues --   -1.13647  -1.13607  -1.13526  -1.13487  -1.13476
 Alpha  occ. eigenvalues --   -1.13089  -1.13014  -1.12991  -1.12928  -1.12911
 Alpha  occ. eigenvalues --   -1.12894  -1.12860  -1.12844  -1.12827  -1.12800
 Alpha  occ. eigenvalues --   -1.12788  -1.12779  -1.12706  -1.12692  -1.12643
 Alpha  occ. eigenvalues --   -0.19624  -0.13479  -0.12598  -0.10897
 Alpha virt. eigenvalues --   -0.05751  -0.04963  -0.04292  -0.03237  -0.02849
 Alpha virt. eigenvalues --   -0.02329  -0.01641  -0.00919  -0.00127   0.00066
 Alpha virt. eigenvalues --    0.00094   0.00342   0.00864   0.00940   0.00954

  Beta  occ. eigenvalues --  -38.44077 -38.43972 -38.43275 -38.43238 -38.43162
  Beta  occ. eigenvalues --  -38.43106 -38.43074  -2.19976  -2.19828  -2.19200
  Beta  occ. eigenvalues --   -2.19187  -2.19172  -2.19070  -2.19026  -1.13701
  Beta  occ. eigenvalues --   -1.13620  -1.13592  -1.13526  -1.13477  -1.13465
  Beta  occ. eigenvalues --   -1.13040  -1.12935  -1.12915  -1.12887  -1.12858
  Beta  occ. eigenvalues --   -1.12828  -1.12825  -1.12803  -1.12785  -1.12765
  Beta  occ. eigenvalues --   -1.12722  -1.12701  -1.12672  -1.12637  -1.12617
  Beta  occ. eigenvalues --   -0.18897  -0.13198  -0.12303
  Beta virt. eigenvalues --   -0.06927  -0.05683  -0.04957  -0.04297  -0.02458
  Beta virt. eigenvalues --   -0.02023  -0.01555  -0.01262  -0.00881  -0.00098
  Beta virt. eigenvalues --    0.00037   0.00159   0.00369   0.00892   0.00943

 Mulliken charges and spin densities:
               1          2
     1  Na   0.418576  -0.053892
     2  Na   0.306388  -0.071463
     3  Na   0.105146  -0.021786
     4  Na  -0.637658   0.652112
     5  Na  -0.083114  -0.029924
     6  Na  -0.336530   0.535578
     7  Na   0.227192  -0.010625
 Sum of Mulliken charges =  -0.00000   1.00000

 Dipole moment (field-independent basis, Debye):
    X=             -0.1298    Y=             -0.1419    Z=             -0.0405  Tot=              0.1965
 Quadrupole moment (field-independent basis, Debye-Ang):
   XX=            -54.1936   YY=            -65.1372   ZZ=            -73.9958
   XY=              0.1483   XZ=             -0.3173   YZ=             -0.3690

 Normal termination of Gaussian 16 at Wed Nov 29 04:00:10 2023.
