 Gaussian 16, Revision B.01,
 Gaussian 16:  ES64L-G16RevB.01 20-Dec-2017

 -------------------------
 #P B3LYP/6-311+g(d) force
 -------------------------

 -----
 DPGEN
 -----
 Symbolic Z-matrix:
 Charge =  0 Multiplicity = 2

                         Standard orientation:
 ---------------------------------------------------------------------
 Center     Atomic      Atomic             Coordinates (Angstroms)
 Number     Number       Type             X           Y           Z
 ---------------------------------------------------------------------
      1         11           0        3.168273   -0.888562   -0.275676
      2         11           0        1.480281    0.363117    2.141518
      3         11           0       -3.915818   -1.242817   -0.080169
      4         11           0       -1.453048    0.033097    0.284951
      5         11           0        0.420004   -2.392992   -0.355208
      6         11           0        1.262483    1.095097   -1.662213
      7         11           0       -0.962175    3.033060   -0.053203
 ---------------------------------------------------------------------

 SCF Done:  E(UB3LYP) =  -1136.11610651     A.U. after   21 cycles

 The electronic state is 2-A.
 Alpha  occ. eigenvalues --  -38.44792 -38.44450 -38.44310 -38.44141 -38.43610
 Alpha  occ. eigenvalues --  -38.43357 -38.42765  -2.20606  -2.20315  -2.20242
 Alpha  occ. eigenvalues --   -2.20027  -2.19535  -2.19203  -2.18833  -1.14375
 Alpha  occ. eigenvalues --   -1.14240  -1.14213  -1.14045  -1.14000  -1.13971
 Alpha  occ. eigenvalues --   -1.13937  -1.13909  -1.13821  -1.13690  -1.13651
 Alpha  occ. eigenvalues --   -1.13615  -1.13214  -1.13192  -1.13140  -1.12929
 Alpha  occ. eigenvalues --   -1.12849  -1.12828  -1.12546  -1.12482  -1.12432
 Alpha  occ. eigenvalues --   -0.18829  -0.13525  -0.12051  -0.11102
 Alpha virt. eigenvalues --   -0.06736  -0.05165  -0.03928  -0.03331  -0.02705
 Alpha virt. eigenvalues --   -0.02539  -0.02224  -0.01097  -0.00365  -0.00160
 Alpha virt. eigenvalues --    0.00046   0.00170   0.00503   0.00718   0.00834

  Beta  occ. eigenvalues --  -38.44803 -38.44438 -38.44293 -38.44037 -38.43549
  Beta  occ. eigenvalues --  -38.43360 -38.42752  -2.20626  -2.20296  -2.20218
  Beta  occ. eigenvalues --   -2.19833  -2.19424  -2.19210  -2.18814  -1.14389
  Beta  occ. eigenvalues --   -1.14252  -1.14227  -1.14035  -1.13990  -1.13931
  Beta  occ. eigenvalues --   -1.13923  -1.13839  -1.13811  -1.13553  -1.13529
  Beta  occ. eigenvalues --   -1.13478  -1.13138  -1.13122  -1.13053  -1.12934
  Beta  occ. eigenvalues --   -1.12839  -1.12832  -1.12542  -1.12436  -1.12421
  Beta  occ. eigenvalues --   -0.18072  -0.13349  -0.11908
  Beta virt. eigenvalues --   -0.07013  -0.06550  -0.05085  -0.03754  -0.02693
  Beta virt. eigenvalues --   -0.02264  -0.01953  -0.01619  -0.01030  -0.00142
  Beta virt. eigenvalues --   -0.00002   0.00055   0.00248   0.00703   0.00743

 Mulliken charges and spin densities:
               1          2
     1  Na   1.848661   0.383151
     2  Na  -0.025906   0.303414
     3  Na   0.246195  -0.302484
     4  Na  -1.713024   0.524696
     5  Na  -0.465626  -0.005382
     6  Na  -0.609043   0.132225
     7  Na   0.718744  -0.035620
 Sum of Mulliken charges =  -0.00000   1.00000

 Dipole moment (field-independent basis, Debye):
    X=              0.0911    Y=             -0.1479    Z=             -0.0494  Tot=              0.1806
 Quadrupole moment (field-independent basis, Debye-Ang):
   XX=            -53.6306   YY=            -66.4001   ZZ=            -72.7612
   XY=             -1.1020   XZ=              0.3012   YZ=              1.5270

 Normal termination of Gaussian 16 at Thu Dec  7 07:53:30 2023.
