 Gaussian 16, Revision B.01,
 Gaussian 16:  ES64L-G16RevB.01 20-Dec-2017

 -------------------------
 #P B3LYP/6-311+g(d) force
 -------------------------

 -----
 DPGEN
 -----
 Symbolic Z-matrix:
 Charge =  0 Multiplicity = 2

                         Standard orientation:
 ---------------------------------------------------------------------
 Center     Atomic      Atomic             Coordinates (Angstroms)
 Number     Number       Type             X           Y           Z
 ---------------------------------------------------------------------
      1         11           0        0.011833   -1.665043    0.287674
      2         11           0        0.035124    0.329357    1.906854
      3         11           0        1.387518    1.619663   -0.095826
      4         11           0        2.471330   -0.906632   -0.075126
      5         11           0        0.005026    0.018557   -1.894326
      6         11           0       -2.444850   -0.906054   -0.069726
      7         11           0       -1.465981    1.510150   -0.059526
 ---------------------------------------------------------------------

 SCF Done:  E(UB3LYP) =  -1136.04446161     A.U. after   22 cycles

 The electronic state is 2-A.
 Alpha  occ. eigenvalues --  -38.45316 -38.44924 -38.44493 -38.44281 -38.44055
 Alpha  occ. eigenvalues --  -38.43761 -38.43515  -2.21593  -2.21190  -2.20650
 Alpha  occ. eigenvalues --   -2.20469  -2.20356  -2.20036  -2.19759  -1.15520
 Alpha  occ. eigenvalues --   -1.15321  -1.15179  -1.15047  -1.14882  -1.14869
 Alpha  occ. eigenvalues --   -1.14747  -1.14547  -1.14333  -1.14185  -1.14161
 Alpha  occ. eigenvalues --   -1.14008  -1.13922  -1.13899  -1.13762  -1.13646
 Alpha  occ. eigenvalues --   -1.13634  -1.13527  -1.13398  -1.13377  -1.13246
 Alpha  occ. eigenvalues --   -0.22359  -0.14320  -0.13061  -0.12445
 Alpha virt. eigenvalues --   -0.05403  -0.04191  -0.03959  -0.03883  -0.03165
 Alpha virt. eigenvalues --   -0.02913  -0.01186  -0.00275  -0.00229   0.00298
 Alpha virt. eigenvalues --    0.00807   0.00972   0.01112   0.01140   0.01255

  Beta  occ. eigenvalues --  -38.45210 -38.44820 -38.44485 -38.44273 -38.44025
  Beta  occ. eigenvalues --  -38.43741 -38.43497  -2.21403  -2.21004  -2.20639
  Beta  occ. eigenvalues --   -2.20442  -2.20335  -2.20010  -2.19736  -1.15402
  Beta  occ. eigenvalues --   -1.15186  -1.15046  -1.14942  -1.14810  -1.14744
  Beta  occ. eigenvalues --   -1.14664  -1.14534  -1.14320  -1.14161  -1.14127
  Beta  occ. eigenvalues --   -1.13933  -1.13890  -1.13822  -1.13751  -1.13626
  Beta  occ. eigenvalues --   -1.13549  -1.13520  -1.13371  -1.13309  -1.13239
  Beta  occ. eigenvalues --   -0.21457  -0.13901  -0.12081
  Beta virt. eigenvalues --   -0.08753  -0.05432  -0.03956  -0.03536  -0.03144
  Beta virt. eigenvalues --   -0.02245  -0.02135  -0.01098  -0.00257  -0.00045
  Beta virt. eigenvalues --    0.00322   0.00847   0.00973   0.01123   0.01195

 Mulliken charges and spin densities:
               1          2
     1  Na   0.010181   0.032502
     2  Na   0.266335   0.513948
     3  Na  -0.089941  -0.017714
     4  Na  -0.172861  -0.027294
     5  Na   0.243951   0.532764
     6  Na  -0.125052  -0.015923
     7  Na  -0.132613  -0.018282
 Sum of Mulliken charges =  -0.00000   1.00000

 Dipole moment (field-independent basis, Debye):
    X=              0.0869    Y=              0.0677    Z=             -0.1095  Tot=              0.1553
 Quadrupole moment (field-independent basis, Debye-Ang):
   XX=            -59.0965   YY=            -74.9647   ZZ=            -65.0225
   XY=              0.1121   XZ=             -0.0487   YZ=             -0.2487

 Normal termination of Gaussian 16 at Fri Dec  8 18:44:50 2023.
