 Gaussian 16, Revision B.01,
 Gaussian 16:  ES64L-G16RevB.01 20-Dec-2017

 -------------------------
 #P B3LYP/6-311+g(d) force
 -------------------------

 -----
 DPGEN
 -----
 Symbolic Z-matrix:
 Charge =  0 Multiplicity = 2

                         Standard orientation:
 ---------------------------------------------------------------------
 Center     Atomic      Atomic             Coordinates (Angstroms)
 Number     Number       Type             X           Y           Z
 ---------------------------------------------------------------------
      1         11           0       -3.262386   -1.610326    0.921831
      2         11           0       -2.891760    2.016992   -0.133106
      3         11           0        0.711778    1.673662   -1.321493
      4         11           0       -0.771480   -1.306270   -1.361458
      5         11           0        3.814926    0.468547    1.023054
      6         11           0        0.180563    0.319373    1.630545
      7         11           0        2.218359   -1.561978   -0.759373
 ---------------------------------------------------------------------

 SCF Done:  E(UB3LYP) =  -1136.12000582     A.U. after   25 cycles

 The electronic state is 2-A.
 Alpha  occ. eigenvalues --  -38.45162 -38.44820 -38.44167 -38.44071 -38.43582
 Alpha  occ. eigenvalues --  -38.43574 -38.42773  -2.21010  -2.20654  -2.19932
 Alpha  occ. eigenvalues --   -2.19875  -2.19499  -2.19474  -2.18722  -1.14739
 Alpha  occ. eigenvalues --   -1.14657  -1.14614  -1.14333  -1.14301  -1.14266
 Alpha  occ. eigenvalues --   -1.13620  -1.13587  -1.13572  -1.13543  -1.13516
 Alpha  occ. eigenvalues --   -1.13506  -1.13225  -1.13181  -1.13149  -1.13131
 Alpha  occ. eigenvalues --   -1.13127  -1.13057  -1.12424  -1.12357  -1.12349
 Alpha  occ. eigenvalues --   -0.18554  -0.14054  -0.11433  -0.10867
 Alpha virt. eigenvalues --   -0.06861  -0.05443  -0.04487  -0.03029  -0.02768
 Alpha virt. eigenvalues --   -0.02631  -0.02237  -0.01222  -0.00902  -0.00172
 Alpha virt. eigenvalues --    0.00045   0.00251   0.00392   0.00530   0.00580

  Beta  occ. eigenvalues --  -38.45142 -38.44774 -38.44173 -38.44035 -38.43554
  Beta  occ. eigenvalues --  -38.43525 -38.42734  -2.20972  -2.20570  -2.19944
  Beta  occ. eigenvalues --   -2.19807  -2.19469  -2.19373  -2.18658  -1.14704
  Beta  occ. eigenvalues --   -1.14635  -1.14583  -1.14278  -1.14236  -1.14212
  Beta  occ. eigenvalues --   -1.13627  -1.13590  -1.13573  -1.13497  -1.13474
  Beta  occ. eigenvalues --   -1.13458  -1.13181  -1.13129  -1.13106  -1.13101
  Beta  occ. eigenvalues --   -1.13039  -1.12990  -1.12382  -1.12311  -1.12273
  Beta  occ. eigenvalues --   -0.17833  -0.13613  -0.10679
  Beta virt. eigenvalues --   -0.07704  -0.06602  -0.05294  -0.03922  -0.02837
  Beta virt. eigenvalues --   -0.02513  -0.02074  -0.01543  -0.01160  -0.00563
  Beta virt. eigenvalues --   -0.00061   0.00114   0.00273   0.00493   0.00620

 Mulliken charges and spin densities:
               1          2
     1  Na   0.174393   0.162467
     2  Na  -0.066520  -0.030075
     3  Na  -0.149800   0.199784
     4  Na   0.004784   0.110926
     5  Na   0.547716   0.279825
     6  Na  -0.450780   0.234971
     7  Na  -0.059793   0.042102
 Sum of Mulliken charges =  -0.00000   1.00000

 Dipole moment (field-independent basis, Debye):
    X=              0.4139    Y=              0.4987    Z=              0.4662  Tot=              0.7984
 Quadrupole moment (field-independent basis, Debye-Ang):
   XX=            -49.4375   YY=            -77.5604   ZZ=            -67.9376
   XY=             -0.1734   XZ=             -0.5871   YZ=             -2.2656

 Normal termination of Gaussian 16 at Fri Dec  8 06:38:00 2023.
