 Gaussian 16, Revision B.01,
 Gaussian 16:  ES64L-G16RevB.01 20-Dec-2017

 -------------------------
 #P B3LYP/6-311+g(d) force
 -------------------------

 -----
 DPGEN
 -----
 Symbolic Z-matrix:
 Charge =  0 Multiplicity = 2

                         Standard orientation:
 ---------------------------------------------------------------------
 Center     Atomic      Atomic             Coordinates (Angstroms)
 Number     Number       Type             X           Y           Z
 ---------------------------------------------------------------------
      1         11           0        2.225768    2.182368    0.032047
      2         11           0       -1.424269    1.712984    0.864242
      3         11           0       -1.095233   -2.185616    0.313634
      4         11           0        0.378166    0.270512   -2.351158
      5         11           0       -4.238136    0.025541   -0.449105
      6         11           0        2.885226   -1.398612   -0.945396
      7         11           0        1.268477   -0.607178    2.535736
 ---------------------------------------------------------------------

 SCF Done:  E(UB3LYP) =  -1136.12193051     A.U. after   25 cycles

 The electronic state is 2-A.
 Alpha  occ. eigenvalues --  -38.44871 -38.44855 -38.44481 -38.44156 -38.43637
 Alpha  occ. eigenvalues --  -38.43602 -38.43459  -2.20657  -2.20623  -2.20311
 Alpha  occ. eigenvalues --   -2.19959  -2.19447  -2.19411  -2.19241  -1.14353
 Alpha  occ. eigenvalues --   -1.14307  -1.14298  -1.14284  -1.14269  -1.14254
 Alpha  occ. eigenvalues --   -1.13982  -1.13950  -1.13932  -1.13645  -1.13626
 Alpha  occ. eigenvalues --   -1.13575  -1.13118  -1.13103  -1.13089  -1.13081
 Alpha  occ. eigenvalues --   -1.13057  -1.13033  -1.12942  -1.12923  -1.12843
 Alpha  occ. eigenvalues --   -0.17648  -0.13124  -0.11988  -0.10869
 Alpha virt. eigenvalues --   -0.06670  -0.05211  -0.04326  -0.03458  -0.03200
 Alpha virt. eigenvalues --   -0.02807  -0.02237  -0.01242  -0.00589  -0.00246
 Alpha virt. eigenvalues --   -0.00024   0.00132   0.00206   0.00655   0.00743

  Beta  occ. eigenvalues --  -38.44871 -38.44822 -38.44430 -38.44124 -38.43618
  Beta  occ. eigenvalues --  -38.43547 -38.43454  -2.20622  -2.20599  -2.20217
  Beta  occ. eigenvalues --   -2.19903  -2.19414  -2.19311  -2.19234  -1.14296
  Beta  occ. eigenvalues --   -1.14293  -1.14284  -1.14273  -1.14253  -1.14230
  Beta  occ. eigenvalues --   -1.13921  -1.13871  -1.13867  -1.13610  -1.13580
  Beta  occ. eigenvalues --   -1.13525  -1.13089  -1.13081  -1.13054  -1.13010
  Beta  occ. eigenvalues --   -1.12990  -1.12961  -1.12935  -1.12905  -1.12840
  Beta  occ. eigenvalues --   -0.16829  -0.12960  -0.10719
  Beta virt. eigenvalues --   -0.08056  -0.06499  -0.04872  -0.03827  -0.03034
  Beta virt. eigenvalues --   -0.02846  -0.02185  -0.02019  -0.00935  -0.00477
  Beta virt. eigenvalues --   -0.00165   0.00147   0.00157   0.00240   0.00736

 Mulliken charges and spin densities:
               1          2
     1  Na   0.098158   0.004895
     2  Na  -0.081084   0.105145
     3  Na  -0.223227  -0.027963
     4  Na  -0.102024   0.506819
     5  Na   0.142408   0.003344
     6  Na   0.215316   0.035588
     7  Na  -0.049547   0.372171
 Sum of Mulliken charges =  -0.00000   1.00000

 Dipole moment (field-independent basis, Debye):
    X=             -0.2672    Y=             -0.1212    Z=             -0.5356  Tot=              0.6107
 Quadrupole moment (field-independent basis, Debye-Ang):
   XX=            -51.1279   YY=            -74.9957   ZZ=            -68.7815
   XY=              0.1484   XZ=              2.2968   YZ=              7.2214

 Normal termination of Gaussian 16 at Sun Dec  3 19:14:02 2023.
