 Gaussian 16, Revision B.01,
 Gaussian 16:  ES64L-G16RevB.01 20-Dec-2017

 -------------------------
 #P B3LYP/6-311+g(d) force
 -------------------------

 -----
 DPGEN
 -----
 Symbolic Z-matrix:
 Charge =  0 Multiplicity = 2

                         Standard orientation:
 ---------------------------------------------------------------------
 Center     Atomic      Atomic             Coordinates (Angstroms)
 Number     Number       Type             X           Y           Z
 ---------------------------------------------------------------------
      1         11           0        0.343992    0.411684   -0.569164
      2         11           0        2.493543    2.742175    0.347959
      3         11           0        3.432269   -1.187068   -0.416584
      4         11           0       -2.218689   -0.397908    1.834199
      5         11           0        0.714688   -2.582124    0.592408
      6         11           0       -2.513731   -1.297355   -1.435271
      7         11           0       -2.252072    2.310597   -0.353546
 ---------------------------------------------------------------------

 SCF Done:  E(UB3LYP) =  -1136.12328716     A.U. after   22 cycles

 The electronic state is 2-A.
 Alpha  occ. eigenvalues --  -38.44776 -38.44763 -38.44354 -38.43978 -38.43412
 Alpha  occ. eigenvalues --  -38.43409 -38.42823  -2.20582  -2.20577  -2.20111
 Alpha  occ. eigenvalues --   -2.19832  -2.19287  -2.19266  -2.18839  -1.14270
 Alpha  occ. eigenvalues --   -1.14257  -1.14254  -1.14241  -1.14207  -1.14196
 Alpha  occ. eigenvalues --   -1.13785  -1.13781  -1.13745  -1.13504  -1.13476
 Alpha  occ. eigenvalues --   -1.13451  -1.12982  -1.12950  -1.12922  -1.12919
 Alpha  occ. eigenvalues --   -1.12910  -1.12889  -1.12544  -1.12505  -1.12477
 Alpha  occ. eigenvalues --   -0.18029  -0.13680  -0.11950  -0.10019
 Alpha virt. eigenvalues --   -0.06628  -0.05888  -0.04569  -0.03081  -0.02375
 Alpha virt. eigenvalues --   -0.02186  -0.01884  -0.01434  -0.01117  -0.00434
 Alpha virt. eigenvalues --   -0.00180   0.00284   0.00368   0.00612   0.00684

  Beta  occ. eigenvalues --  -38.44779 -38.44751 -38.44362 -38.43917 -38.43405
  Beta  occ. eigenvalues --  -38.43330 -38.42805  -2.20587  -2.20559  -2.20126
  Beta  occ. eigenvalues --   -2.19720  -2.19255  -2.19142  -2.18810  -1.14261
  Beta  occ. eigenvalues --   -1.14260  -1.14255  -1.14213  -1.14209  -1.14177
  Beta  occ. eigenvalues --   -1.13795  -1.13790  -1.13756  -1.13419  -1.13398
  Beta  occ. eigenvalues --   -1.13369  -1.12976  -1.12900  -1.12881  -1.12847
  Beta  occ. eigenvalues --   -1.12821  -1.12802  -1.12500  -1.12485  -1.12452
  Beta  occ. eigenvalues --   -0.17413  -0.13498  -0.11825
  Beta virt. eigenvalues --   -0.06545  -0.06065  -0.05668  -0.04470  -0.02690
  Beta virt. eigenvalues --   -0.02037  -0.01810  -0.01573  -0.00994  -0.00789
  Beta virt. eigenvalues --   -0.00408   0.00142   0.00389   0.00486   0.00647

 Mulliken charges and spin densities:
               1          2
     1  Na  -2.260004   0.548463
     2  Na   0.372076  -0.198163
     3  Na   0.713359  -0.107031
     4  Na  -0.274882   0.367070
     5  Na   0.173880   0.039434
     6  Na   0.465319   0.221874
     7  Na   0.810251   0.128353
 Sum of Mulliken charges =  -0.00000   1.00000

 Dipole moment (field-independent basis, Debye):
    X=              0.6059    Y=              0.2811    Z=             -0.0819  Tot=              0.6730
 Quadrupole moment (field-independent basis, Debye-Ang):
   XX=            -51.3192   YY=            -62.6537   ZZ=            -76.8407
   XY=             -2.2793   XZ=              1.0086   YZ=              1.1113

 Normal termination of Gaussian 16 at Tue Dec  5 11:01:54 2023.
