 Gaussian 16, Revision B.01,
 Gaussian 16:  ES64L-G16RevB.01 20-Dec-2017

 -------------------------
 #P B3LYP/6-311+g(d) force
 -------------------------

 -----
 DPGEN
 -----
 Symbolic Z-matrix:
 Charge =  0 Multiplicity = 2

                         Standard orientation:
 ---------------------------------------------------------------------
 Center     Atomic      Atomic             Coordinates (Angstroms)
 Number     Number       Type             X           Y           Z
 ---------------------------------------------------------------------
      1         11           0        5.516941    0.938126   -1.368786
      2         11           0       -0.228943   -1.226271   -0.606917
      3         11           0       -2.587641   -2.579893    0.526704
      4         11           0       -3.994103    0.086937   -0.860594
      5         11           0       -4.425416    2.701554    0.171342
      6         11           0        2.878569   -1.458592    0.593417
      7         11           0        2.840593    1.538140    1.544834
 ---------------------------------------------------------------------

 SCF Done:  E(UB3LYP) =  -1136.10266037     A.U. after   22 cycles

 The electronic state is 2-A.
 Alpha  occ. eigenvalues --  -38.45929 -38.45155 -38.44364 -38.44327 -38.44116
 Alpha  occ. eigenvalues --  -38.43187 -38.43075  -2.21705  -2.21000  -2.20234
 Alpha  occ. eigenvalues --   -2.20126  -2.19979  -2.19081  -2.18914  -1.15396
 Alpha  occ. eigenvalues --   -1.15368  -1.15337  -1.14675  -1.14666  -1.14609
 Alpha  occ. eigenvalues --   -1.13988  -1.13873  -1.13865  -1.13770  -1.13766
 Alpha  occ. eigenvalues --   -1.13717  -1.13638  -1.13634  -1.13591  -1.12927
 Alpha  occ. eigenvalues --   -1.12748  -1.12716  -1.12538  -1.12536  -1.12485
 Alpha  occ. eigenvalues --   -0.16558  -0.14833  -0.11867  -0.10581
 Alpha virt. eigenvalues --   -0.07162  -0.05555  -0.04682  -0.03368  -0.03235
 Alpha virt. eigenvalues --   -0.02429  -0.01995  -0.01659  -0.01391  -0.00792
 Alpha virt. eigenvalues --   -0.00541  -0.00248  -0.00193   0.00178   0.00226

  Beta  occ. eigenvalues --  -38.45930 -38.45132 -38.44333 -38.44199 -38.44122
  Beta  occ. eigenvalues --  -38.43186 -38.43052  -2.21709  -2.20961  -2.20175
  Beta  occ. eigenvalues --   -2.19993  -2.19886  -2.19082  -2.18870  -1.15396
  Beta  occ. eigenvalues --   -1.15371  -1.15325  -1.14654  -1.14626  -1.14580
  Beta  occ. eigenvalues --   -1.13961  -1.13831  -1.13824  -1.13651  -1.13646
  Beta  occ. eigenvalues --   -1.13606  -1.13602  -1.13570  -1.13557  -1.12905
  Beta  occ. eigenvalues --   -1.12750  -1.12717  -1.12508  -1.12506  -1.12460
  Beta  occ. eigenvalues --   -0.16182  -0.14369  -0.11365
  Beta virt. eigenvalues --   -0.07255  -0.06672  -0.05367  -0.04442  -0.03233
  Beta virt. eigenvalues --   -0.02906  -0.01945  -0.01667  -0.01507  -0.01108
  Beta virt. eigenvalues --   -0.00359  -0.00189  -0.00118  -0.00021   0.00245

 Mulliken charges and spin densities:
               1          2
     1  Na  -0.039391   0.714702
     2  Na  -1.365278  -0.078437
     3  Na   1.354910   0.175893
     4  Na  -0.334352  -0.038003
     5  Na  -0.011307   0.142631
     6  Na   0.217203   0.143420
     7  Na   0.178214  -0.060206
 Sum of Mulliken charges =  -0.00000   1.00000

 Dipole moment (field-independent basis, Debye):
    X=              1.4162    Y=             -0.8235    Z=              1.5106  Tot=              2.2284
 Quadrupole moment (field-independent basis, Debye-Ang):
   XX=            -82.2490   YY=            -63.4927   ZZ=            -68.6527
   XY=              3.3201   XZ=              1.6384   YZ=              3.1016

 Normal termination of Gaussian 16 at Mon Dec  4 00:19:32 2023.
