 Gaussian 16, Revision B.01,
 Gaussian 16:  ES64L-G16RevB.01 20-Dec-2017

 -------------------------
 #P B3LYP/6-311+g(d) force
 -------------------------

 -----
 DPGEN
 -----
 Symbolic Z-matrix:
 Charge =  0 Multiplicity = 2

                         Standard orientation:
 ---------------------------------------------------------------------
 Center     Atomic      Atomic             Coordinates (Angstroms)
 Number     Number       Type             X           Y           Z
 ---------------------------------------------------------------------
      1         11           0        1.144715    2.207205   -0.386555
      2         11           0       -0.698715   -0.552481    2.133619
      3         11           0       -0.526863   -0.735590   -1.270886
      4         11           0        3.109959   -0.611343    1.479944
      5         11           0        3.003609   -0.799449   -1.595240
      6         11           0       -2.271433    1.913997    0.063927
      7         11           0       -3.761272   -1.422338   -0.424809
 ---------------------------------------------------------------------

 SCF Done:  E(UB3LYP) =  -1136.12209807     A.U. after   27 cycles

 The electronic state is 2-A.
 Alpha  occ. eigenvalues --  -38.45145 -38.44815 -38.44223 -38.44201 -38.43710
 Alpha  occ. eigenvalues --  -38.43660 -38.42605  -2.20970  -2.20640  -2.20131
 Alpha  occ. eigenvalues --   -2.20058  -2.19518  -2.19508  -2.18453  -1.14668
 Alpha  occ. eigenvalues --   -1.14599  -1.14568  -1.14325  -1.14295  -1.14279
 Alpha  occ. eigenvalues --   -1.13846  -1.13786  -1.13758  -1.13714  -1.13700
 Alpha  occ. eigenvalues --   -1.13686  -1.13208  -1.13189  -1.13181  -1.13179
 Alpha  occ. eigenvalues --   -1.13143  -1.13117  -1.12148  -1.12120  -1.12071
 Alpha  occ. eigenvalues --   -0.18275  -0.14148  -0.11625  -0.10722
 Alpha virt. eigenvalues --   -0.06781  -0.05414  -0.04927  -0.03404  -0.02573
 Alpha virt. eigenvalues --   -0.02526  -0.02207  -0.01153  -0.00965  -0.00308
 Alpha virt. eigenvalues --    0.00066   0.00185   0.00359   0.00392   0.00619

  Beta  occ. eigenvalues --  -38.45062 -38.44789 -38.44185 -38.44176 -38.43714
  Beta  occ. eigenvalues --  -38.43655 -38.42596  -2.20817  -2.20592  -2.20063
  Beta  occ. eigenvalues --   -2.20011  -2.19518  -2.19508  -2.18439  -1.14567
  Beta  occ. eigenvalues --   -1.14491  -1.14450  -1.14292  -1.14262  -1.14237
  Beta  occ. eigenvalues --   -1.13789  -1.13737  -1.13705  -1.13683  -1.13665
  Beta  occ. eigenvalues --   -1.13646  -1.13193  -1.13187  -1.13181  -1.13179
  Beta  occ. eigenvalues --   -1.13148  -1.13117  -1.12132  -1.12101  -1.12062
  Beta  occ. eigenvalues --   -0.17559  -0.14039  -0.10596
  Beta virt. eigenvalues --   -0.07638  -0.06527  -0.05127  -0.04443  -0.02887
  Beta virt. eigenvalues --   -0.02454  -0.01984  -0.01677  -0.01002  -0.00584
  Beta virt. eigenvalues --   -0.00195   0.00121   0.00302   0.00428   0.00498

 Mulliken charges and spin densities:
               1          2
     1  Na  -0.253515   0.089533
     2  Na  -0.120158   0.391266
     3  Na  -1.508112   0.449357
     4  Na  -0.169484   0.124327
     5  Na   0.849539  -0.041309
     6  Na   0.303764  -0.004730
     7  Na   0.897966  -0.008445
 Sum of Mulliken charges =  -0.00000   1.00000

 Dipole moment (field-independent basis, Debye):
    X=              0.0962    Y=              0.1869    Z=              0.4219  Tot=              0.4714
 Quadrupole moment (field-independent basis, Debye-Ang):
   XX=            -52.5683   YY=            -77.7706   ZZ=            -67.0070
   XY=             -1.3538   XZ=             -1.0825   YZ=             -0.0540

 Normal termination of Gaussian 16 at Tue Dec  5 11:48:24 2023.
