 Gaussian 16, Revision B.01,
 Gaussian 16:  ES64L-G16RevB.01 20-Dec-2017

 -------------------------
 #P B3LYP/6-311+g(d) force
 -------------------------

 -----
 DPGEN
 -----
 Symbolic Z-matrix:
 Charge =  0 Multiplicity = 2

                         Standard orientation:
 ---------------------------------------------------------------------
 Center     Atomic      Atomic             Coordinates (Angstroms)
 Number     Number       Type             X           Y           Z
 ---------------------------------------------------------------------
      1         11           0        0.934516   -0.427265    1.722435
      2         11           0        0.516345    0.866809   -1.552945
      3         11           0        3.190266    2.406583    0.172942
      4         11           0        2.557098   -1.821770   -0.174387
      5         11           0       -1.056346   -2.431357   -1.179911
      6         11           0       -3.599169    1.948247   -0.390828
      7         11           0       -2.542710   -0.541247    1.402695
 ---------------------------------------------------------------------

 SCF Done:  E(UB3LYP) =  -1136.11628591     A.U. after   23 cycles

 The electronic state is 2-A.
 Alpha  occ. eigenvalues --  -38.45100 -38.44626 -38.43988 -38.43984 -38.43941
 Alpha  occ. eigenvalues --  -38.43865 -38.43803  -2.20954  -2.20384  -2.19915
 Alpha  occ. eigenvalues --   -2.19836  -2.19704  -2.19678  -2.19654  -1.14748
 Alpha  occ. eigenvalues --   -1.14597  -1.14534  -1.14060  -1.14047  -1.14031
 Alpha  occ. eigenvalues --   -1.13616  -1.13580  -1.13523  -1.13482  -1.13478
 Alpha  occ. eigenvalues --   -1.13453  -1.13380  -1.13370  -1.13356  -1.13346
 Alpha  occ. eigenvalues --   -1.13332  -1.13330  -1.13296  -1.13293  -1.13277
 Alpha  occ. eigenvalues --   -0.17933  -0.13420  -0.11427  -0.10920
 Alpha virt. eigenvalues --   -0.06776  -0.05792  -0.04310  -0.03275  -0.02735
 Alpha virt. eigenvalues --   -0.02525  -0.02106  -0.01638  -0.00744  -0.00249
 Alpha virt. eigenvalues --   -0.00093   0.00118   0.00262   0.00512   0.00640

  Beta  occ. eigenvalues --  -38.45091 -38.44636 -38.43947 -38.43931 -38.43915
  Beta  occ. eigenvalues --  -38.43829 -38.43773  -2.20942  -2.20401  -2.19789
  Beta  occ. eigenvalues --   -2.19732  -2.19716  -2.19614  -2.19599  -1.14726
  Beta  occ. eigenvalues --   -1.14573  -1.14526  -1.14069  -1.14060  -1.14041
  Beta  occ. eigenvalues --   -1.13525  -1.13498  -1.13447  -1.13406  -1.13397
  Beta  occ. eigenvalues --   -1.13389  -1.13385  -1.13359  -1.13332  -1.13313
  Beta  occ. eigenvalues --   -1.13288  -1.13283  -1.13256  -1.13250  -1.13239
  Beta  occ. eigenvalues --   -0.17193  -0.13288  -0.11272
  Beta virt. eigenvalues --   -0.07045  -0.06654  -0.05590  -0.03814  -0.02996
  Beta virt. eigenvalues --   -0.02203  -0.02024  -0.01853  -0.01265  -0.00640
  Beta virt. eigenvalues --   -0.00077   0.00018   0.00185   0.00312   0.00560

 Mulliken charges and spin densities:
               1          2
     1  Na  -0.203130   0.272538
     2  Na  -0.494148   0.497201
     3  Na   0.102696  -0.117392
     4  Na   0.594552   0.079710
     5  Na  -0.111015   0.143009
     6  Na  -0.127113  -0.056330
     7  Na   0.238157   0.181265
 Sum of Mulliken charges =  -0.00000   1.00000

 Dipole moment (field-independent basis, Debye):
    X=              0.3585    Y=             -0.2213    Z=             -0.3669  Tot=              0.5586
 Quadrupole moment (field-independent basis, Debye-Ang):
   XX=            -55.5141   YY=            -66.4338   ZZ=            -72.6633
   XY=             -1.8144   XZ=              1.7092   YZ=              1.0000

 Normal termination of Gaussian 16 at Thu Dec  7 11:49:17 2023.
