 Gaussian 16, Revision B.01,
 Gaussian 16:  ES64L-G16RevB.01 20-Dec-2017

 -------------------------
 #P B3LYP/6-311+g(d) force
 -------------------------

 -----
 DPGEN
 -----
 Symbolic Z-matrix:
 Charge =  0 Multiplicity = 2

                         Standard orientation:
 ---------------------------------------------------------------------
 Center     Atomic      Atomic             Coordinates (Angstroms)
 Number     Number       Type             X           Y           Z
 ---------------------------------------------------------------------
      1         11           0        1.895854    0.393089    1.960272
      2         11           0        0.114819   -0.347757   -1.173401
      3         11           0       -2.055751   -2.113822    0.914634
      4         11           0        3.285444   -2.203563   -0.572948
      5         11           0       -3.409070   -0.058361   -1.359201
      6         11           0       -1.744195    1.720962    1.338172
      7         11           0        1.912900    2.609451   -1.107528
 ---------------------------------------------------------------------

 SCF Done:  E(UB3LYP) =  -1136.11932938     A.U. after   23 cycles

 The electronic state is 2-A.
 Alpha  occ. eigenvalues --  -38.44813 -38.44707 -38.44422 -38.44019 -38.44001
 Alpha  occ. eigenvalues --  -38.43726 -38.43350  -2.20615  -2.20537  -2.20213
 Alpha  occ. eigenvalues --   -2.19817  -2.19779  -2.19471  -2.19253  -1.14296
 Alpha  occ. eigenvalues --   -1.14278  -1.14260  -1.14203  -1.14182  -1.14148
 Alpha  occ. eigenvalues --   -1.13898  -1.13864  -1.13825  -1.13496  -1.13482
 Alpha  occ. eigenvalues --   -1.13458  -1.13434  -1.13426  -1.13401  -1.13148
 Alpha  occ. eigenvalues --   -1.13136  -1.13108  -1.12970  -1.12900  -1.12875
 Alpha  occ. eigenvalues --   -0.17607  -0.13477  -0.10917  -0.10741
 Alpha virt. eigenvalues --   -0.06386  -0.05649  -0.05344  -0.03057  -0.02574
 Alpha virt. eigenvalues --   -0.02435  -0.01971  -0.01318  -0.01213  -0.00210
 Alpha virt. eigenvalues --   -0.00123   0.00160   0.00223   0.00263   0.00598

  Beta  occ. eigenvalues --  -38.44801 -38.44683 -38.44382 -38.43986 -38.43969
  Beta  occ. eigenvalues --  -38.43731 -38.43314  -2.20595  -2.20492  -2.20140
  Beta  occ. eigenvalues --   -2.19759  -2.19721  -2.19480  -2.19192  -1.14284
  Beta  occ. eigenvalues --   -1.14252  -1.14241  -1.14163  -1.14152  -1.14122
  Beta  occ. eigenvalues --   -1.13845  -1.13809  -1.13770  -1.13455  -1.13423
  Beta  occ. eigenvalues --   -1.13408  -1.13399  -1.13387  -1.13364  -1.13150
  Beta  occ. eigenvalues --   -1.13142  -1.13115  -1.12906  -1.12858  -1.12831
  Beta  occ. eigenvalues --   -0.16942  -0.13260  -0.10742
  Beta virt. eigenvalues --   -0.07134  -0.06227  -0.05458  -0.04724  -0.02840
  Beta virt. eigenvalues --   -0.02135  -0.02031  -0.01567  -0.01173  -0.00752
  Beta virt. eigenvalues --   -0.00073  -0.00049   0.00253   0.00269   0.00362

 Mulliken charges and spin densities:
               1          2
     1  Na   0.051332   0.334171
     2  Na  -0.423108   0.310621
     3  Na  -0.120888   0.198114
     4  Na   0.103981  -0.026279
     5  Na   0.599481  -0.100036
     6  Na  -0.173359   0.291050
     7  Na  -0.037439  -0.007642
 Sum of Mulliken charges =  -0.00000   1.00000

 Dipole moment (field-independent basis, Debye):
    X=             -1.0100    Y=              0.1301    Z=              0.2177  Tot=              1.0413
 Quadrupole moment (field-independent basis, Debye-Ang):
   XX=            -53.7854   YY=            -70.9246   ZZ=            -68.6129
   XY=              1.9589   XZ=              1.5965   YZ=             -2.6580

 Normal termination of Gaussian 16 at Thu Dec  7 17:07:48 2023.
