 Gaussian 16, Revision B.01,
 Gaussian 16:  ES64L-G16RevB.01 20-Dec-2017

 -------------------------
 #P B3LYP/6-311+g(d) force
 -------------------------

 -----
 DPGEN
 -----
 Symbolic Z-matrix:
 Charge =  0 Multiplicity = 2

                         Standard orientation:
 ---------------------------------------------------------------------
 Center     Atomic      Atomic             Coordinates (Angstroms)
 Number     Number       Type             X           Y           Z
 ---------------------------------------------------------------------
      1         11           0        3.290903   -1.139591   -0.195241
      2         11           0       -0.141175    0.423325   -1.580975
      3         11           0       -1.481800    2.398324    0.358733
      4         11           0        0.399824   -0.317045    2.168581
      5         11           0        1.794546    2.060844   -0.307770
      6         11           0       -3.375678   -0.735629   -0.145522
      7         11           0       -0.486621   -2.690228   -0.297806
 ---------------------------------------------------------------------

 SCF Done:  E(UB3LYP) =  -1136.13041496     A.U. after   20 cycles

 The electronic state is 2-A.
 Alpha  occ. eigenvalues --  -38.44420 -38.44408 -38.43771 -38.43477 -38.43450
 Alpha  occ. eigenvalues --  -38.43432 -38.43246  -2.20197  -2.20195  -2.19631
 Alpha  occ. eigenvalues --   -2.19500  -2.19379  -2.19266  -2.19132  -1.13869
 Alpha  occ. eigenvalues --   -1.13868  -1.13858  -1.13851  -1.13842  -1.13833
 Alpha  occ. eigenvalues --   -1.13396  -1.13293  -1.13265  -1.13241  -1.13169
 Alpha  occ. eigenvalues --   -1.13137  -1.13015  -1.12971  -1.12969  -1.12942
 Alpha  occ. eigenvalues --   -1.12940  -1.12874  -1.12807  -1.12782  -1.12750
 Alpha  occ. eigenvalues --   -0.18554  -0.12997  -0.12302  -0.10806
 Alpha virt. eigenvalues --   -0.06174  -0.05030  -0.04352  -0.03163  -0.03023
 Alpha virt. eigenvalues --   -0.02560  -0.01942  -0.01123  -0.00279  -0.00195
 Alpha virt. eigenvalues --   -0.00052   0.00295   0.00755   0.00851   0.00872

  Beta  occ. eigenvalues --  -38.44420 -38.44408 -38.43671 -38.43437 -38.43424
  Beta  occ. eigenvalues --  -38.43421 -38.43237  -2.20200  -2.20197  -2.19446
  Beta  occ. eigenvalues --   -2.19405  -2.19354  -2.19254  -2.19118  -1.13866
  Beta  occ. eigenvalues --   -1.13859  -1.13854  -1.13848  -1.13845  -1.13836
  Beta  occ. eigenvalues --   -1.13346  -1.13172  -1.13136  -1.13109  -1.13097
  Beta  occ. eigenvalues --   -1.13074  -1.12979  -1.12960  -1.12945  -1.12915
  Beta  occ. eigenvalues --   -1.12904  -1.12868  -1.12793  -1.12748  -1.12743
  Beta  occ. eigenvalues --   -0.17825  -0.12795  -0.12082
  Beta virt. eigenvalues --   -0.06852  -0.06125  -0.05014  -0.04290  -0.02458
  Beta virt. eigenvalues --   -0.02193  -0.01866  -0.01534  -0.01060  -0.00297
  Beta virt. eigenvalues --   -0.00212   0.00096   0.00327   0.00824   0.00865

 Mulliken charges and spin densities:
               1          2
     1  Na   0.050809  -0.079454
     2  Na  -0.247885   0.306346
     3  Na   0.143987   0.089349
     4  Na  -0.598471   0.709649
     5  Na   0.533524   0.104025
     6  Na   0.052709  -0.052151
     7  Na   0.065327  -0.077763
 Sum of Mulliken charges =  -0.00000   1.00000

 Dipole moment (field-independent basis, Debye):
    X=             -0.0513    Y=             -0.2767    Z=              0.2058  Tot=              0.3487
 Quadrupole moment (field-independent basis, Debye-Ang):
   XX=            -52.5308   YY=            -66.5712   ZZ=            -74.0003
   XY=             -1.2930   XZ=             -1.1868   YZ=              1.5771

 Normal termination of Gaussian 16 at Thu Dec  7 18:45:19 2023.
