 Gaussian 16, Revision B.01,
 Gaussian 16:  ES64L-G16RevB.01 20-Dec-2017

 -------------------------
 #P B3LYP/6-311+g(d) force
 -------------------------

 -----
 DPGEN
 -----
 Symbolic Z-matrix:
 Charge =  0 Multiplicity = 2

                         Standard orientation:
 ---------------------------------------------------------------------
 Center     Atomic      Atomic             Coordinates (Angstroms)
 Number     Number       Type             X           Y           Z
 ---------------------------------------------------------------------
      1         11           0        3.067133    0.979466   -0.025780
      2         11           0        0.069481   -0.017077    1.931550
      3         11           0        1.992974   -2.541584    0.053396
      4         11           0       -0.055120    0.048982   -1.884084
      5         11           0       -2.870088    0.833452    0.234688
      6         11           0       -2.039333   -2.439397   -0.190496
      7         11           0       -0.165047    3.136159   -0.119275
 ---------------------------------------------------------------------

 SCF Done:  E(UB3LYP) =  -1136.13905542     A.U. after   19 cycles

 The electronic state is 2-A.
 Alpha  occ. eigenvalues --  -38.44169 -38.43984 -38.43719 -38.43674 -38.43560
 Alpha  occ. eigenvalues --  -38.43549 -38.43494  -2.19957  -2.19766  -2.19530
 Alpha  occ. eigenvalues --   -2.19526  -2.19439  -2.19381  -2.19360  -1.13637
 Alpha  occ. eigenvalues --   -1.13619  -1.13592  -1.13446  -1.13427  -1.13404
 Alpha  occ. eigenvalues --   -1.13234  -1.13208  -1.13198  -1.13189  -1.13178
 Alpha  occ. eigenvalues --   -1.13137  -1.13113  -1.13066  -1.13061  -1.13059
 Alpha  occ. eigenvalues --   -1.13039  -1.13019  -1.13007  -1.13001  -1.12989
 Alpha  occ. eigenvalues --   -0.18184  -0.12810  -0.12335  -0.10597
 Alpha virt. eigenvalues --   -0.05649  -0.05272  -0.05051  -0.03135  -0.02874
 Alpha virt. eigenvalues --   -0.02558  -0.01457  -0.01329  -0.00645  -0.00559
 Alpha virt. eigenvalues --   -0.00023   0.00371   0.00785   0.00805   0.00859

  Beta  occ. eigenvalues --  -38.44167 -38.43983 -38.43716 -38.43667 -38.43546
  Beta  occ. eigenvalues --  -38.43477 -38.43415  -2.19957  -2.19767  -2.19526
  Beta  occ. eigenvalues --   -2.19517  -2.19358  -2.19287  -2.19236  -1.13621
  Beta  occ. eigenvalues --   -1.13619  -1.13594  -1.13431  -1.13426  -1.13406
  Beta  occ. eigenvalues --   -1.13230  -1.13190  -1.13182  -1.13175  -1.13162
  Beta  occ. eigenvalues --   -1.13135  -1.13033  -1.13015  -1.13006  -1.13000
  Beta  occ. eigenvalues --   -1.12957  -1.12955  -1.12947  -1.12905  -1.12891
  Beta  occ. eigenvalues --   -0.17444  -0.12603  -0.12123
  Beta virt. eigenvalues --   -0.06721  -0.05679  -0.05220  -0.04962  -0.02355
  Beta virt. eigenvalues --   -0.02135  -0.01529  -0.01362  -0.01239  -0.00709
  Beta virt. eigenvalues --   -0.00619   0.00115   0.00389   0.00790   0.00849

 Mulliken charges and spin densities:
               1          2
     1  Na   0.023183  -0.140888
     2  Na  -0.155711   0.736595
     3  Na  -0.020874  -0.145877
     4  Na  -0.159341   0.778153
     5  Na   0.218483  -0.011623
     6  Na   0.037673  -0.102604
     7  Na   0.056588  -0.113756
 Sum of Mulliken charges =  -0.00000   1.00000

 Dipole moment (field-independent basis, Debye):
    X=              0.2541    Y=             -0.0704    Z=              0.0114  Tot=              0.2639
 Quadrupole moment (field-independent basis, Debye-Ang):
   XX=            -58.2322   YY=            -59.7855   ZZ=            -75.1650
   XY=              0.3222   XZ=             -0.3212   YZ=              0.2182

 Normal termination of Gaussian 16 at Thu Dec  7 04:12:13 2023.
