 Gaussian 16, Revision B.01,
 Gaussian 16:  ES64L-G16RevB.01 20-Dec-2017

 -------------------------
 #P B3LYP/6-311+g(d) force
 -------------------------

 -----
 DPGEN
 -----
 Symbolic Z-matrix:
 Charge =  0 Multiplicity = 2

                         Standard orientation:
 ---------------------------------------------------------------------
 Center     Atomic      Atomic             Coordinates (Angstroms)
 Number     Number       Type             X           Y           Z
 ---------------------------------------------------------------------
      1         11           0        1.529339    1.269774   -1.284983
      2         11           0       -1.407789    2.459536   -0.641074
      3         11           0       -4.043265   -0.774370    1.003253
      4         11           0       -1.723016   -1.231143   -1.163373
      5         11           0       -0.005337    0.136059    1.717572
      6         11           0        3.596896    0.056785    1.533265
      7         11           0        2.053171   -1.916642   -1.164659
 ---------------------------------------------------------------------

 SCF Done:  E(UB3LYP) =  -1136.12363327     A.U. after   24 cycles

 The electronic state is 2-A.
 Alpha  occ. eigenvalues --  -38.45139 -38.44598 -38.44166 -38.44163 -38.44069
 Alpha  occ. eigenvalues --  -38.43161 -38.42478  -2.20972  -2.20407  -2.20012
 Alpha  occ. eigenvalues --   -2.19948  -2.19921  -2.19076  -2.18324  -1.14675
 Alpha  occ. eigenvalues --   -1.14615  -1.14586  -1.14071  -1.14061  -1.14023
 Alpha  occ. eigenvalues --   -1.13704  -1.13670  -1.13662  -1.13620  -1.13612
 Alpha  occ. eigenvalues --   -1.13605  -1.13596  -1.13559  -1.13507  -1.12767
 Alpha  occ. eigenvalues --   -1.12746  -1.12698  -1.11996  -1.11982  -1.11964
 Alpha  occ. eigenvalues --   -0.18173  -0.13760  -0.11685  -0.10917
 Alpha virt. eigenvalues --   -0.06670  -0.05272  -0.04726  -0.03259  -0.02654
 Alpha virt. eigenvalues --   -0.02457  -0.02371  -0.01465  -0.00832  -0.00123
 Alpha virt. eigenvalues --    0.00080   0.00104   0.00349   0.00553   0.00626

  Beta  occ. eigenvalues --  -38.45092 -38.44555 -38.44165 -38.44109 -38.44042
  Beta  occ. eigenvalues --  -38.43142 -38.42479  -2.20887  -2.20328  -2.19952
  Beta  occ. eigenvalues --   -2.19909  -2.19874  -2.19045  -2.18326  -1.14613
  Beta  occ. eigenvalues --   -1.14557  -1.14515  -1.14015  -1.13995  -1.13977
  Beta  occ. eigenvalues --   -1.13657  -1.13628  -1.13611  -1.13601  -1.13598
  Beta  occ. eigenvalues --   -1.13580  -1.13532  -1.13529  -1.13469  -1.12742
  Beta  occ. eigenvalues --   -1.12696  -1.12688  -1.11990  -1.11985  -1.11965
  Beta  occ. eigenvalues --   -0.17424  -0.13614  -0.10795
  Beta virt. eigenvalues --   -0.07723  -0.06404  -0.04740  -0.04550  -0.02888
  Beta virt. eigenvalues --   -0.02394  -0.01936  -0.01866  -0.01052  -0.00710
  Beta virt. eigenvalues --   -0.00052   0.00124   0.00263   0.00446   0.00625

 Mulliken charges and spin densities:
               1          2
     1  Na   0.077188   0.349843
     2  Na   0.015754  -0.120980
     3  Na   0.421869  -0.005671
     4  Na  -0.325478   0.088100
     5  Na  -0.584299   0.479363
     6  Na   0.349592   0.048367
     7  Na   0.045374   0.160979
 Sum of Mulliken charges =  -0.00000   1.00000

 Dipole moment (field-independent basis, Debye):
    X=              0.3625    Y=              0.0906    Z=              0.5434  Tot=              0.6595
 Quadrupole moment (field-independent basis, Debye-Ang):
   XX=            -53.4823   YY=            -75.9568   ZZ=            -67.3624
   XY=             -2.1632   XZ=             -0.9679   YZ=              3.2589

 Normal termination of Gaussian 16 at Thu Dec  7 19:58:23 2023.
