 Gaussian 16, Revision B.01,
 Gaussian 16:  ES64L-G16RevB.01 20-Dec-2017

 -------------------------
 #P B3LYP/6-311+g(d) force
 -------------------------

 -----
 DPGEN
 -----
 Symbolic Z-matrix:
 Charge =  0 Multiplicity = 2

                         Standard orientation:
 ---------------------------------------------------------------------
 Center     Atomic      Atomic             Coordinates (Angstroms)
 Number     Number       Type             X           Y           Z
 ---------------------------------------------------------------------
      1         11           0        2.725687   -1.827028   -0.202523
      2         11           0       -2.575166    2.007874    0.064937
      3         11           0        3.410803    1.085366    0.543765
      4         11           0       -0.209408   -0.201688    2.034552
      5         11           0        0.653540    1.602611   -1.337031
      6         11           0       -3.381403   -1.339875    0.190164
      7         11           0       -0.624053   -1.327261   -1.293864
 ---------------------------------------------------------------------

 SCF Done:  E(UB3LYP) =  -1136.11788572     A.U. after   26 cycles

 The electronic state is 2-A.
 Alpha  occ. eigenvalues --  -38.45205 -38.45007 -38.44809 -38.44245 -38.43907
 Alpha  occ. eigenvalues --  -38.43095 -38.42859  -2.21013  -2.20843  -2.20638
 Alpha  occ. eigenvalues --   -2.20076  -2.19716  -2.19037  -2.18751  -1.14706
 Alpha  occ. eigenvalues --   -1.14649  -1.14624  -1.14534  -1.14496  -1.14481
 Alpha  occ. eigenvalues --   -1.14333  -1.14289  -1.14274  -1.13749  -1.13730
 Alpha  occ. eigenvalues --   -1.13724  -1.13390  -1.13370  -1.13369  -1.12745
 Alpha  occ. eigenvalues --   -1.12685  -1.12654  -1.12441  -1.12399  -1.12355
 Alpha  occ. eigenvalues --   -0.18435  -0.14247  -0.10988  -0.10939
 Alpha virt. eigenvalues --   -0.07204  -0.05927  -0.04103  -0.03107  -0.02782
 Alpha virt. eigenvalues --   -0.02523  -0.02438  -0.01463  -0.00535  -0.00489
 Alpha virt. eigenvalues --    0.00107   0.00175   0.00322   0.00582   0.00608

  Beta  occ. eigenvalues --  -38.45140 -38.44994 -38.44811 -38.44241 -38.43906
  Beta  occ. eigenvalues --  -38.43033 -38.42812  -2.20893  -2.20820  -2.20643
  Beta  occ. eigenvalues --   -2.20072  -2.19718  -2.18926  -2.18667  -1.14622
  Beta  occ. eigenvalues --   -1.14566  -1.14535  -1.14522  -1.14472  -1.14460
  Beta  occ. eigenvalues --   -1.14331  -1.14296  -1.14268  -1.13745  -1.13724
  Beta  occ. eigenvalues --   -1.13707  -1.13390  -1.13373  -1.13357  -1.12668
  Beta  occ. eigenvalues --   -1.12596  -1.12574  -1.12380  -1.12327  -1.12299
  Beta  occ. eigenvalues --   -0.17694  -0.14047  -0.10780
  Beta virt. eigenvalues --   -0.07163  -0.06888  -0.05936  -0.03417  -0.02962
  Beta virt. eigenvalues --   -0.02565  -0.01984  -0.01540  -0.01352  -0.00548
  Beta virt. eigenvalues --   -0.00187   0.00140   0.00176   0.00492   0.00662

 Mulliken charges and spin densities:
               1          2
     1  Na  -0.100350  -0.014647
     2  Na  -0.107200  -0.014617
     3  Na   0.494742   0.201072
     4  Na  -0.439282   0.384176
     5  Na  -0.261129   0.063217
     6  Na   0.700066   0.117599
     7  Na  -0.286848   0.263200
 Sum of Mulliken charges =  -0.00000   1.00000

 Dipole moment (field-independent basis, Debye):
    X=              0.0003    Y=             -0.0495    Z=              0.7106  Tot=              0.7123
 Quadrupole moment (field-independent basis, Debye-Ang):
   XX=            -46.2258   YY=            -75.6596   ZZ=            -72.2513
   XY=              0.6398   XZ=              0.1313   YZ=              0.9621

 Normal termination of Gaussian 16 at Thu Dec  7 18:51:43 2023.
