 Gaussian 16, Revision B.01,
 Gaussian 16:  ES64L-G16RevB.01 20-Dec-2017

 -------------------------
 #P B3LYP/6-311+g(d) force
 -------------------------

 -----
 DPGEN
 -----
 Symbolic Z-matrix:
 Charge =  0 Multiplicity = 2

                         Standard orientation:
 ---------------------------------------------------------------------
 Center     Atomic      Atomic             Coordinates (Angstroms)
 Number     Number       Type             X           Y           Z
 ---------------------------------------------------------------------
      1         11           0       -3.171063   -0.476370    1.345398
      2         11           0       -0.354709    0.756933    2.031797
      3         11           0        3.311133    1.345680    0.526634
      4         11           0       -0.264373   -2.687517   -0.628130
      5         11           0        2.589039   -2.065036   -0.247078
      6         11           0       -0.263085    2.975164   -1.184934
      7         11           0       -1.846942    0.151147   -1.843686
 ---------------------------------------------------------------------

 SCF Done:  E(UB3LYP) =  -1136.12043184     A.U. after   20 cycles

 The electronic state is 2-A.
 Alpha  occ. eigenvalues --  -38.44749 -38.44673 -38.44370 -38.44315 -38.44300
 Alpha  occ. eigenvalues --  -38.43576 -38.43305  -2.20575  -2.20512  -2.20159
 Alpha  occ. eigenvalues --   -2.20120  -2.20107  -2.19402  -2.19157  -1.14302
 Alpha  occ. eigenvalues --   -1.14231  -1.14214  -1.14152  -1.14127  -1.14122
 Alpha  occ. eigenvalues --   -1.13858  -1.13820  -1.13800  -1.13788  -1.13778
 Alpha  occ. eigenvalues --   -1.13762  -1.13756  -1.13739  -1.13718  -1.13184
 Alpha  occ. eigenvalues --   -1.13060  -1.13029  -1.12823  -1.12804  -1.12759
 Alpha  occ. eigenvalues --   -0.17484  -0.13023  -0.12240  -0.11792
 Alpha virt. eigenvalues --   -0.06206  -0.05359  -0.04619  -0.03384  -0.03146
 Alpha virt. eigenvalues --   -0.03095  -0.01783  -0.00846  -0.00721  -0.00356
 Alpha virt. eigenvalues --   -0.00268   0.00258   0.00377   0.00623   0.00795

  Beta  occ. eigenvalues --  -38.44685 -38.44627 -38.44367 -38.44269 -38.44241
  Beta  occ. eigenvalues --  -38.43583 -38.43296  -2.20458  -2.20430  -2.20114
  Beta  occ. eigenvalues --   -2.20051  -2.20025  -2.19416  -2.19141  -1.14218
  Beta  occ. eigenvalues --   -1.14154  -1.14130  -1.14097  -1.14072  -1.14040
  Beta  occ. eigenvalues --   -1.13793  -1.13780  -1.13773  -1.13754  -1.13744
  Beta  occ. eigenvalues --   -1.13718  -1.13703  -1.13680  -1.13648  -1.13191
  Beta  occ. eigenvalues --   -1.13069  -1.13037  -1.12806  -1.12791  -1.12755
  Beta  occ. eigenvalues --   -0.16793  -0.12796  -0.11918
  Beta virt. eigenvalues --   -0.07913  -0.06065  -0.05034  -0.04363  -0.03046
  Beta virt. eigenvalues --   -0.02650  -0.02232  -0.01602  -0.00700  -0.00618
  Beta virt. eigenvalues --   -0.00267  -0.00125   0.00363   0.00465   0.00801

 Mulliken charges and spin densities:
               1          2
     1  Na   0.128448  -0.066866
     2  Na  -0.025835   0.533225
     3  Na   0.143619   0.034021
     4  Na  -0.240049   0.082124
     5  Na  -0.159756  -0.088424
     6  Na  -0.432039   0.082064
     7  Na   0.585612   0.423856
 Sum of Mulliken charges =  -0.00000   1.00000

 Dipole moment (field-independent basis, Debye):
    X=             -0.5826    Y=              0.5914    Z=              0.2369  Tot=              0.8633
 Quadrupole moment (field-independent basis, Debye-Ang):
   XX=            -58.2833   YY=            -70.1006   ZZ=            -69.8407
   XY=              3.3582   XZ=             -0.4195   YZ=             -1.6656

 Normal termination of Gaussian 16 at Sun Dec  3 17:23:36 2023.
