 Gaussian 16, Revision B.01,
 Gaussian 16:  ES64L-G16RevB.01 20-Dec-2017

 -------------------------
 #P B3LYP/6-311+g(d) force
 -------------------------

 -----
 DPGEN
 -----
 Symbolic Z-matrix:
 Charge =  0 Multiplicity = 2

                         Standard orientation:
 ---------------------------------------------------------------------
 Center     Atomic      Atomic             Coordinates (Angstroms)
 Number     Number       Type             X           Y           Z
 ---------------------------------------------------------------------
      1         11           0        2.676099    1.147398   -1.710362
      2         11           0       -2.260037    2.031209   -0.244673
      3         11           0       -4.188650   -0.998865   -0.928880
      4         11           0       -1.724830   -0.889166    1.706907
      5         11           0        1.276255    1.597053    1.574983
      6         11           0        3.931875   -1.482569    0.324645
      7         11           0        0.289287   -1.405060   -0.722619
 ---------------------------------------------------------------------

 SCF Done:  E(UB3LYP) =  -1136.11351462     A.U. after   30 cycles

 The electronic state is 2-A.
 Alpha  occ. eigenvalues --  -38.44978 -38.44889 -38.44712 -38.44295 -38.44016
 Alpha  occ. eigenvalues --  -38.43978 -38.43001  -2.20731  -2.20702  -2.20541
 Alpha  occ. eigenvalues --   -2.20083  -2.19893  -2.19768  -2.18802  -1.14413
 Alpha  occ. eigenvalues --   -1.14406  -1.14392  -1.14375  -1.14337  -1.14296
 Alpha  occ. eigenvalues --   -1.14266  -1.14204  -1.14135  -1.13779  -1.13751
 Alpha  occ. eigenvalues --   -1.13685  -1.13597  -1.13529  -1.13492  -1.13437
 Alpha  occ. eigenvalues --   -1.13420  -1.13388  -1.12476  -1.12469  -1.12442
 Alpha  occ. eigenvalues --   -0.17516  -0.14220  -0.10727  -0.10518
 Alpha virt. eigenvalues --   -0.06978  -0.05930  -0.05004  -0.03006  -0.02840
 Alpha virt. eigenvalues --   -0.02406  -0.02094  -0.01632  -0.00999  -0.00666
 Alpha virt. eigenvalues --   -0.00090   0.00061   0.00251   0.00313   0.00425

  Beta  occ. eigenvalues --  -38.44995 -38.44844 -38.44677 -38.44264 -38.43964
  Beta  occ. eigenvalues --  -38.43945 -38.42993  -2.20763  -2.20617  -2.20482
  Beta  occ. eigenvalues --   -2.20027  -2.19799  -2.19706  -2.18789  -1.14435
  Beta  occ. eigenvalues --   -1.14415  -1.14391  -1.14333  -1.14286  -1.14241
  Beta  occ. eigenvalues --   -1.14184  -1.14169  -1.14104  -1.13739  -1.13716
  Beta  occ. eigenvalues --   -1.13632  -1.13524  -1.13460  -1.13424  -1.13394
  Beta  occ. eigenvalues --   -1.13367  -1.13350  -1.12467  -1.12447  -1.12429
  Beta  occ. eigenvalues --   -0.16858  -0.13850  -0.10378
  Beta virt. eigenvalues --   -0.07166  -0.06772  -0.05619  -0.04560  -0.02798
  Beta virt. eigenvalues --   -0.02706  -0.01896  -0.01576  -0.01425  -0.00649
  Beta virt. eigenvalues --   -0.00446   0.00018   0.00152   0.00315   0.00382

 Mulliken charges and spin densities:
               1          2
     1  Na   0.032272   0.146391
     2  Na  -0.289334   0.224634
     3  Na   0.104706   0.209971
     4  Na   0.295375   0.005361
     5  Na  -0.009287   0.189430
     6  Na   0.276199  -0.159151
     7  Na  -0.409930   0.383364
 Sum of Mulliken charges =  -0.00000   1.00000

 Dipole moment (field-independent basis, Debye):
    X=              0.8355    Y=             -0.0820    Z=              0.0380  Tot=              0.8403
 Quadrupole moment (field-independent basis, Debye-Ang):
   XX=            -56.7423   YY=            -77.0527   ZZ=            -64.6888
   XY=              0.2055   XZ=              2.3598   YZ=             -4.5202

 Normal termination of Gaussian 16 at Thu Nov 30 08:56:10 2023.
