 Gaussian 16, Revision B.01,
 Gaussian 16:  ES64L-G16RevB.01 20-Dec-2017

 -------------------------
 #P B3LYP/6-311+g(d) force
 -------------------------

 -----
 DPGEN
 -----
 Symbolic Z-matrix:
 Charge =  0 Multiplicity = 2

                         Standard orientation:
 ---------------------------------------------------------------------
 Center     Atomic      Atomic             Coordinates (Angstroms)
 Number     Number       Type             X           Y           Z
 ---------------------------------------------------------------------
      1         11           0        2.955708   -1.334226   -1.030737
      2         11           0        2.803723    2.037799    0.121143
      3         11           0        1.064150   -0.965066    1.595837
      4         11           0       -0.380851   -1.186103   -1.428457
      5         11           0       -3.229038    0.987802   -1.279667
      6         11           0       -0.841608    2.016186    0.737446
      7         11           0       -2.372083   -1.556392    1.284434
 ---------------------------------------------------------------------

 SCF Done:  E(UB3LYP) =  -1136.12938842     A.U. after   20 cycles

 The electronic state is 2-A.
 Alpha  occ. eigenvalues --  -38.44312 -38.44249 -38.44057 -38.43773 -38.43753
 Alpha  occ. eigenvalues --  -38.43631 -38.43113  -2.20155  -2.20088  -2.19918
 Alpha  occ. eigenvalues --   -2.19673  -2.19558  -2.19529  -2.18951  -1.13824
 Alpha  occ. eigenvalues --   -1.13816  -1.13783  -1.13751  -1.13740  -1.13708
 Alpha  occ. eigenvalues --   -1.13597  -1.13589  -1.13538  -1.13383  -1.13320
 Alpha  occ. eigenvalues --   -1.13277  -1.13237  -1.13216  -1.13208  -1.13204
 Alpha  occ. eigenvalues --   -1.13186  -1.13140  -1.12644  -1.12633  -1.12568
 Alpha  occ. eigenvalues --   -0.18320  -0.13945  -0.11390  -0.11220
 Alpha virt. eigenvalues --   -0.06118  -0.05551  -0.04743  -0.03285  -0.02638
 Alpha virt. eigenvalues --   -0.02416  -0.02058  -0.01236  -0.00683  -0.00041
 Alpha virt. eigenvalues --    0.00213   0.00249   0.00380   0.00469   0.00631

  Beta  occ. eigenvalues --  -38.44274 -38.44207 -38.44029 -38.43776 -38.43706
  Beta  occ. eigenvalues --  -38.43601 -38.43102  -2.20089  -2.20010  -2.19864
  Beta  occ. eigenvalues --   -2.19590  -2.19564  -2.19475  -2.18935  -1.13780
  Beta  occ. eigenvalues --   -1.13760  -1.13730  -1.13695  -1.13684  -1.13658
  Beta  occ. eigenvalues --   -1.13564  -1.13545  -1.13503  -1.13332  -1.13246
  Beta  occ. eigenvalues --   -1.13239  -1.13222  -1.13208  -1.13198  -1.13178
  Beta  occ. eigenvalues --   -1.13137  -1.13097  -1.12638  -1.12596  -1.12559
  Beta  occ. eigenvalues --   -0.17645  -0.13657  -0.11101
  Beta virt. eigenvalues --   -0.07474  -0.05932  -0.05463  -0.04074  -0.03139
  Beta virt. eigenvalues --   -0.02111  -0.01879  -0.01614  -0.01041  -0.00347
  Beta virt. eigenvalues --   -0.00025   0.00251   0.00281   0.00478   0.00610

 Mulliken charges and spin densities:
               1          2
     1  Na   0.426169   0.170624
     2  Na  -0.088521  -0.110910
     3  Na  -0.009146   0.348828
     4  Na  -0.581024   0.325435
     5  Na   0.657972   0.078082
     6  Na  -0.642371   0.094143
     7  Na   0.236921   0.093799
 Sum of Mulliken charges =  -0.00000   1.00000

 Dipole moment (field-independent basis, Debye):
    X=             -0.2673    Y=             -0.4832    Z=             -0.1260  Tot=              0.5664
 Quadrupole moment (field-independent basis, Debye-Ang):
   XX=            -50.7551   YY=            -75.3144   ZZ=            -68.3911
   XY=              0.6363   XZ=             -1.3372   YZ=             -2.2326

 Normal termination of Gaussian 16 at Tue Dec  5 22:00:54 2023.
