 Gaussian 16, Revision B.01,
 Gaussian 16:  ES64L-G16RevB.01 20-Dec-2017

 -------------------------
 #P B3LYP/6-311+g(d) force
 -------------------------

 -----
 DPGEN
 -----
 Symbolic Z-matrix:
 Charge =  0 Multiplicity = 2

                         Standard orientation:
 ---------------------------------------------------------------------
 Center     Atomic      Atomic             Coordinates (Angstroms)
 Number     Number       Type             X           Y           Z
 ---------------------------------------------------------------------
      1         11           0       -0.833195    2.670285    0.317504
      2         11           0       -3.255851    0.593945   -1.242093
      3         11           0       -0.116159   -1.169753   -1.256204
      4         11           0        2.833299    1.704208    0.012566
      5         11           0       -2.859350   -1.816573    0.877023
      6         11           0        0.391629   -0.467115    1.859361
      7         11           0        3.839627   -1.514997   -0.568158
 ---------------------------------------------------------------------

 SCF Done:  E(UB3LYP) =  -1136.12261835     A.U. after   21 cycles

 The electronic state is 2-A.
 Alpha  occ. eigenvalues --  -38.45124 -38.44546 -38.44465 -38.44153 -38.44096
 Alpha  occ. eigenvalues --  -38.44059 -38.42452  -2.20944  -2.20337  -2.20300
 Alpha  occ. eigenvalues --   -2.19974  -2.19940  -2.19919  -2.18253  -1.14684
 Alpha  occ. eigenvalues --   -1.14612  -1.14539  -1.14032  -1.14000  -1.13982
 Alpha  occ. eigenvalues --   -1.13962  -1.13957  -1.13942  -1.13673  -1.13603
 Alpha  occ. eigenvalues --   -1.13600  -1.13596  -1.13589  -1.13564  -1.13561
 Alpha  occ. eigenvalues --   -1.13553  -1.13534  -1.11933  -1.11929  -1.11891
 Alpha  occ. eigenvalues --   -0.17888  -0.14041  -0.11308  -0.10822
 Alpha virt. eigenvalues --   -0.06823  -0.05704  -0.04498  -0.03246  -0.02708
 Alpha virt. eigenvalues --   -0.02696  -0.02188  -0.01414  -0.00823  -0.00404
 Alpha virt. eigenvalues --   -0.00018   0.00101   0.00421   0.00423   0.00640

  Beta  occ. eigenvalues --  -38.45121 -38.44543 -38.44450 -38.44124 -38.44006
  Beta  occ. eigenvalues --  -38.44003 -38.42453  -2.20942  -2.20333  -2.20276
  Beta  occ. eigenvalues --   -2.19886  -2.19813  -2.19809  -2.18257  -1.14662
  Beta  occ. eigenvalues --   -1.14606  -1.14544  -1.14029  -1.14001  -1.13965
  Beta  occ. eigenvalues --   -1.13946  -1.13934  -1.13905  -1.13566  -1.13565
  Beta  occ. eigenvalues --   -1.13560  -1.13529  -1.13515  -1.13487  -1.13485
  Beta  occ. eigenvalues --   -1.13461  -1.13436  -1.11935  -1.11932  -1.11881
  Beta  occ. eigenvalues --   -0.17255  -0.13613  -0.11052
  Beta virt. eigenvalues --   -0.07257  -0.06628  -0.05497  -0.04003  -0.03066
  Beta virt. eigenvalues --   -0.02551  -0.01948  -0.01577  -0.01300  -0.00642
  Beta virt. eigenvalues --   -0.00235   0.00051   0.00169   0.00514   0.00616

 Mulliken charges and spin densities:
               1          2
     1  Na  -0.535919  -0.095670
     2  Na   0.608601   0.331508
     3  Na  -0.675615   0.101111
     4  Na   0.175871   0.009725
     5  Na   0.184671  -0.046432
     6  Na   0.140457   0.484955
     7  Na   0.101935   0.214804
 Sum of Mulliken charges =  -0.00000   1.00000

 Dipole moment (field-independent basis, Debye):
    X=              0.1078    Y=             -0.6799    Z=              0.2332  Tot=              0.7268
 Quadrupole moment (field-independent basis, Debye-Ang):
   XX=            -53.9657   YY=            -73.4150   ZZ=            -69.8067
   XY=              2.7828   XZ=             -1.1494   YZ=             -1.3049

 Normal termination of Gaussian 16 at Fri Dec  8 01:14:17 2023.
