 Gaussian 16, Revision B.01,
 Gaussian 16:  ES64L-G16RevB.01 20-Dec-2017

 -------------------------
 #P B3LYP/6-311+g(d) force
 -------------------------

 -----
 DPGEN
 -----
 Symbolic Z-matrix:
 Charge =  0 Multiplicity = 2

                         Standard orientation:
 ---------------------------------------------------------------------
 Center     Atomic      Atomic             Coordinates (Angstroms)
 Number     Number       Type             X           Y           Z
 ---------------------------------------------------------------------
      1         11           0       -4.239124   -1.611130   -0.586746
      2         11           0       -2.859929    1.643115   -0.583501
      3         11           0        1.750860    0.894917    0.130205
      4         11           0       -1.442018   -2.652073    0.930238
      5         11           0        4.490599    0.775976   -0.529639
      6         11           0        3.000511   -2.793827   -0.058363
      7         11           0       -0.700901    3.743022    0.697806
 ---------------------------------------------------------------------

 SCF Done:  E(UB3LYP) =  -1136.11136517     A.U. after   23 cycles

 The electronic state is 2-A.
 Alpha  occ. eigenvalues --  -38.45197 -38.45067 -38.44722 -38.44699 -38.44173
 Alpha  occ. eigenvalues --  -38.43521 -38.43302  -2.20951  -2.20807  -2.20572
 Alpha  occ. eigenvalues --   -2.20487  -2.20051  -2.19343  -2.19109  -1.14629
 Alpha  occ. eigenvalues --   -1.14602  -1.14563  -1.14501  -1.14488  -1.14429
 Alpha  occ. eigenvalues --   -1.14384  -1.14251  -1.14182  -1.14176  -1.14159
 Alpha  occ. eigenvalues --   -1.14115  -1.13702  -1.13666  -1.13624  -1.12998
 Alpha  occ. eigenvalues --   -1.12996  -1.12976  -1.12769  -1.12766  -1.12746
 Alpha  occ. eigenvalues --   -0.16081  -0.14222  -0.12613  -0.10449
 Alpha virt. eigenvalues --   -0.07096  -0.05129  -0.04490  -0.03802  -0.03019
 Alpha virt. eigenvalues --   -0.02420  -0.02160  -0.01837  -0.01070  -0.00959
 Alpha virt. eigenvalues --   -0.00411  -0.00051   0.00259   0.00453   0.00590

  Beta  occ. eigenvalues --  -38.45145 -38.45068 -38.44709 -38.44692 -38.44103
  Beta  occ. eigenvalues --  -38.43484 -38.43285  -2.20855  -2.20811  -2.20554
  Beta  occ. eigenvalues --   -2.20477  -2.19922  -2.19272  -2.19078  -1.14565
  Beta  occ. eigenvalues --   -1.14533  -1.14506  -1.14493  -1.14489  -1.14410
  Beta  occ. eigenvalues --   -1.14323  -1.14244  -1.14179  -1.14170  -1.14156
  Beta  occ. eigenvalues --   -1.14084  -1.13614  -1.13579  -1.13544  -1.12947
  Beta  occ. eigenvalues --   -1.12946  -1.12935  -1.12748  -1.12745  -1.12726
  Beta  occ. eigenvalues --   -0.15630  -0.13745  -0.12198
  Beta virt. eigenvalues --   -0.07127  -0.06825  -0.04940  -0.03955  -0.03637
  Beta virt. eigenvalues --   -0.02578  -0.02273  -0.01862  -0.01559  -0.00959
  Beta virt. eigenvalues --   -0.00575  -0.00122   0.00212   0.00372   0.00489

 Mulliken charges and spin densities:
               1          2
     1  Na   0.291722   0.151633
     2  Na  -0.522612   0.079479
     3  Na  -2.132589   0.117626
     4  Na  -0.134071   0.042315
     5  Na   0.938295   0.173647
     6  Na   0.328912   0.342538
     7  Na   1.230343   0.092762
 Sum of Mulliken charges =  -0.00000   1.00000

 Dipole moment (field-independent basis, Debye):
    X=              0.7272    Y=             -0.3630    Z=             -0.1056  Tot=              0.8196
 Quadrupole moment (field-independent basis, Debye-Ang):
   XX=            -58.3780   YY=            -67.5154   ZZ=            -71.3065
   XY=             -3.4383   XZ=              0.6016   YZ=              0.8125

 Normal termination of Gaussian 16 at Sun Dec  3 12:58:45 2023.
