 Gaussian 16, Revision B.01,
 Gaussian 16:  ES64L-G16RevB.01 20-Dec-2017

 -------------------------
 #P B3LYP/6-311+g(d) force
 -------------------------

 -----
 DPGEN
 -----
 Symbolic Z-matrix:
 Charge =  0 Multiplicity = 2

                         Standard orientation:
 ---------------------------------------------------------------------
 Center     Atomic      Atomic             Coordinates (Angstroms)
 Number     Number       Type             X           Y           Z
 ---------------------------------------------------------------------
      1         11           0        0.688334   -1.782467    0.824959
      2         11           0        4.415480   -2.221418    0.039039
      3         11           0        2.326552    0.192911   -1.059474
      4         11           0        1.456389    3.708639    0.359420
      5         11           0       -0.910653    1.396039   -0.505553
      6         11           0       -2.984707   -0.000279    1.218908
      7         11           0       -4.991394   -1.293425   -0.877299
 ---------------------------------------------------------------------

 SCF Done:  E(UB3LYP) =  -1136.11744041     A.U. after   21 cycles

 The electronic state is 2-A.
 Alpha  occ. eigenvalues --  -38.44393 -38.44241 -38.44203 -38.44112 -38.43893
 Alpha  occ. eigenvalues --  -38.43843 -38.43762  -2.20227  -2.20073  -2.20033
 Alpha  occ. eigenvalues --   -2.19925  -2.19759  -2.19734  -2.19548  -1.13964
 Alpha  occ. eigenvalues --   -1.13904  -1.13806  -1.13786  -1.13755  -1.13709
 Alpha  occ. eigenvalues --   -1.13695  -1.13663  -1.13612  -1.13601  -1.13564
 Alpha  occ. eigenvalues --   -1.13561  -1.13557  -1.13425  -1.13404  -1.13389
 Alpha  occ. eigenvalues --   -1.13365  -1.13299  -1.13211  -1.13208  -1.13159
 Alpha  occ. eigenvalues --   -0.17138  -0.13955  -0.12246  -0.10357
 Alpha virt. eigenvalues --   -0.06380  -0.05850  -0.04468  -0.03402  -0.02914
 Alpha virt. eigenvalues --   -0.02312  -0.02134  -0.01401  -0.00931  -0.00585
 Alpha virt. eigenvalues --   -0.00384   0.00127   0.00183   0.00393   0.00638

  Beta  occ. eigenvalues --  -38.44340 -38.44214 -38.44197 -38.44031 -38.43896
  Beta  occ. eigenvalues --  -38.43838 -38.43737  -2.20131  -2.20064  -2.19983
  Beta  occ. eigenvalues --   -2.19774  -2.19770  -2.19727  -2.19500  -1.13909
  Beta  occ. eigenvalues --   -1.13842  -1.13767  -1.13747  -1.13712  -1.13677
  Beta  occ. eigenvalues --   -1.13661  -1.13637  -1.13595  -1.13573  -1.13514
  Beta  occ. eigenvalues --   -1.13457  -1.13456  -1.13421  -1.13400  -1.13375
  Beta  occ. eigenvalues --   -1.13336  -1.13282  -1.13178  -1.13174  -1.13131
  Beta  occ. eigenvalues --   -0.16592  -0.13540  -0.11843
  Beta virt. eigenvalues --   -0.07067  -0.06057  -0.05399  -0.04257  -0.03106
  Beta virt. eigenvalues --   -0.02644  -0.02166  -0.01857  -0.01003  -0.00679
  Beta virt. eigenvalues --   -0.00350  -0.00171   0.00287   0.00349   0.00541

 Mulliken charges and spin densities:
               1          2
     1  Na  -0.371368   0.209148
     2  Na   0.578512   0.151063
     3  Na  -0.335766   0.187294
     4  Na   0.614798   0.212632
     5  Na  -1.136260  -0.093783
     6  Na   0.757390  -0.095516
     7  Na  -0.107306   0.429160
 Sum of Mulliken charges =  -0.00000   1.00000

 Dipole moment (field-independent basis, Debye):
    X=              1.0616    Y=             -0.6247    Z=              0.5129  Tot=              1.3343
 Quadrupole moment (field-independent basis, Debye-Ang):
   XX=            -67.5083   YY=            -66.5209   ZZ=            -65.9881
   XY=             -2.0851   XZ=              2.4148   YZ=              2.4319

 Normal termination of Gaussian 16 at Tue Nov 28 21:04:57 2023.
