 Gaussian 16, Revision B.01,
 Gaussian 16:  ES64L-G16RevB.01 20-Dec-2017

 -------------------------
 #P B3LYP/6-311+g(d) force
 -------------------------

 -----
 DPGEN
 -----
 Symbolic Z-matrix:
 Charge =  0 Multiplicity = 2

                         Standard orientation:
 ---------------------------------------------------------------------
 Center     Atomic      Atomic             Coordinates (Angstroms)
 Number     Number       Type             X           Y           Z
 ---------------------------------------------------------------------
      1         11           0        2.818571   -1.732178   -0.314477
      2         11           0       -3.641032   -0.902502    0.579217
      3         11           0        3.063482    1.408205    0.644217
      4         11           0       -0.049364   -0.145334    2.112194
      5         11           0       -2.307911    1.943381   -0.581768
      6         11           0        0.654378    1.218124   -1.282444
      7         11           0       -0.538123   -1.789696   -1.156940
 ---------------------------------------------------------------------

 SCF Done:  E(UB3LYP) =  -1136.12014909     A.U. after   23 cycles

 The electronic state is 2-A.
 Alpha  occ. eigenvalues --  -38.45228 -38.45147 -38.44366 -38.44095 -38.43670
 Alpha  occ. eigenvalues --  -38.43045 -38.42985  -2.21033  -2.20940  -2.20227
 Alpha  occ. eigenvalues --   -2.19926  -2.19516  -2.18962  -2.18923  -1.14717
 Alpha  occ. eigenvalues --   -1.14672  -1.14642  -1.14606  -1.14600  -1.14570
 Alpha  occ. eigenvalues --   -1.13922  -1.13880  -1.13866  -1.13593  -1.13580
 Alpha  occ. eigenvalues --   -1.13573  -1.13228  -1.13166  -1.13151  -1.12707
 Alpha  occ. eigenvalues --   -1.12615  -1.12609  -1.12578  -1.12548  -1.12522
 Alpha  occ. eigenvalues --   -0.18504  -0.14082  -0.11219  -0.11066
 Alpha virt. eigenvalues --   -0.07115  -0.05525  -0.04235  -0.03212  -0.02685
 Alpha virt. eigenvalues --   -0.02573  -0.02436  -0.01349  -0.00616  -0.00249
 Alpha virt. eigenvalues --    0.00132   0.00207   0.00305   0.00622   0.00672

  Beta  occ. eigenvalues --  -38.45157 -38.45134 -38.44355 -38.44092 -38.43657
  Beta  occ. eigenvalues --  -38.43008 -38.42936  -2.20917  -2.20900  -2.20207
  Beta  occ. eigenvalues --   -2.19923  -2.19496  -2.18877  -2.18857  -1.14626
  Beta  occ. eigenvalues --   -1.14591  -1.14584  -1.14579  -1.14557  -1.14536
  Beta  occ. eigenvalues --   -1.13911  -1.13870  -1.13839  -1.13588  -1.13574
  Beta  occ. eigenvalues --   -1.13563  -1.13201  -1.13146  -1.13137  -1.12647
  Beta  occ. eigenvalues --   -1.12559  -1.12543  -1.12521  -1.12486  -1.12471
  Beta  occ. eigenvalues --   -0.17778  -0.13882  -0.10799
  Beta virt. eigenvalues --   -0.07401  -0.06825  -0.05549  -0.03577  -0.02982
  Beta virt. eigenvalues --   -0.02453  -0.01965  -0.01615  -0.01263  -0.00352
  Beta virt. eigenvalues --   -0.00231   0.00145   0.00230   0.00487   0.00696

 Mulliken charges and spin densities:
               1          2
     1  Na   0.090343  -0.006350
     2  Na   0.512861   0.197819
     3  Na   0.655630   0.139158
     4  Na  -0.496863   0.439835
     5  Na  -0.228947  -0.066349
     6  Na  -0.177617   0.278796
     7  Na  -0.355408   0.017090
 Sum of Mulliken charges =  -0.00000   1.00000

 Dipole moment (field-independent basis, Debye):
    X=             -0.2642    Y=             -0.2783    Z=              0.7853  Tot=              0.8741
 Quadrupole moment (field-independent basis, Debye-Ang):
   XX=            -45.9149   YY=            -76.8088   ZZ=            -71.1882
   XY=              0.5394   XZ=              0.0898   YZ=              0.6818

 Normal termination of Gaussian 16 at Thu Dec  7 10:05:16 2023.
