 Gaussian 16, Revision B.01,
 Gaussian 16:  ES64L-G16RevB.01 20-Dec-2017

 -------------------------
 #P B3LYP/6-311+g(d) force
 -------------------------

 -----
 DPGEN
 -----
 Symbolic Z-matrix:
 Charge =  0 Multiplicity = 2

                         Standard orientation:
 ---------------------------------------------------------------------
 Center     Atomic      Atomic             Coordinates (Angstroms)
 Number     Number       Type             X           Y           Z
 ---------------------------------------------------------------------
      1         11           0        0.825859   -1.052338   -1.785375
      2         11           0       -2.869103    0.630919   -1.087759
      3         11           0       -2.146686   -3.002239    0.282398
      4         11           0       -1.851236    3.273208    0.370126
      5         11           0        2.011653    2.424303    0.573795
      6         11           0        4.132958   -0.665235   -0.316055
      7         11           0       -0.103445   -1.608618    1.962870
 ---------------------------------------------------------------------

 SCF Done:  E(UB3LYP) =  -1136.11611695     A.U. after   20 cycles

 The electronic state is 2-A.
 Alpha  occ. eigenvalues --  -38.44834 -38.44754 -38.44681 -38.44510 -38.44154
 Alpha  occ. eigenvalues --  -38.43958 -38.43504  -2.20576  -2.20534  -2.20433
 Alpha  occ. eigenvalues --   -2.20344  -2.19979  -2.19762  -2.19286  -1.14260
 Alpha  occ. eigenvalues --   -1.14243  -1.14212  -1.14200  -1.14180  -1.14139
 Alpha  occ. eigenvalues --   -1.14107  -1.14092  -1.14062  -1.14055  -1.13983
 Alpha  occ. eigenvalues --   -1.13971  -1.13641  -1.13629  -1.13603  -1.13438
 Alpha  occ. eigenvalues --   -1.13430  -1.13389  -1.12958  -1.12952  -1.12929
 Alpha  occ. eigenvalues --   -0.16708  -0.13093  -0.12496  -0.10581
 Alpha virt. eigenvalues --   -0.06345  -0.05988  -0.05065  -0.03216  -0.03017
 Alpha virt. eigenvalues --   -0.02458  -0.02143  -0.01533  -0.01107  -0.00705
 Alpha virt. eigenvalues --   -0.00200   0.00229   0.00356   0.00491   0.00532

  Beta  occ. eigenvalues --  -38.44795 -38.44694 -38.44680 -38.44448 -38.44152
  Beta  occ. eigenvalues --  -38.43928 -38.43514  -2.20504  -2.20433  -2.20422
  Beta  occ. eigenvalues --   -2.20229  -2.19980  -2.19705  -2.19305  -1.14208
  Beta  occ. eigenvalues --   -1.14195  -1.14136  -1.14130  -1.14124  -1.14107
  Beta  occ. eigenvalues --   -1.14090  -1.14071  -1.14040  -1.13986  -1.13904
  Beta  occ. eigenvalues --   -1.13887  -1.13635  -1.13618  -1.13592  -1.13404
  Beta  occ. eigenvalues --   -1.13386  -1.13356  -1.12973  -1.12962  -1.12932
  Beta  occ. eigenvalues --   -0.16123  -0.12830  -0.12256
  Beta virt. eigenvalues --   -0.07200  -0.05959  -0.05707  -0.04680  -0.02820
  Beta virt. eigenvalues --   -0.02620  -0.02000  -0.01844  -0.01459  -0.00825
  Beta virt. eigenvalues --   -0.00647   0.00001   0.00303   0.00544   0.00612

 Mulliken charges and spin densities:
               1          2
     1  Na  -0.016689   0.344306
     2  Na  -0.396181   0.174095
     3  Na   0.531116  -0.090418
     4  Na   0.289345  -0.086722
     5  Na  -0.330954   0.268539
     6  Na   0.245949  -0.028388
     7  Na  -0.322585   0.418587
 Sum of Mulliken charges =  -0.00000   1.00000

 Dipole moment (field-independent basis, Debye):
    X=              0.7668    Y=             -0.8199    Z=              0.0836  Tot=              1.1257
 Quadrupole moment (field-independent basis, Debye-Ang):
   XX=            -57.5465   YY=            -67.4098   ZZ=            -73.2397
   XY=              2.4735   XZ=              2.2884   YZ=              3.0488

 Normal termination of Gaussian 16 at Sun Dec  3 11:54:16 2023.
