 Gaussian 16, Revision B.01,
 Gaussian 16:  ES64L-G16RevB.01 20-Dec-2017

 -------------------------
 #P B3LYP/6-311+g(d) force
 -------------------------

 -----
 DPGEN
 -----
 Symbolic Z-matrix:
 Charge =  0 Multiplicity = 2

                         Standard orientation:
 ---------------------------------------------------------------------
 Center     Atomic      Atomic             Coordinates (Angstroms)
 Number     Number       Type             X           Y           Z
 ---------------------------------------------------------------------
      1         11           0       -0.197463   -0.128818   -1.406907
      2         11           0       -3.204834   -1.041538    0.156688
      3         11           0        0.150843   -2.919189   -0.319071
      4         11           0        3.458440   -0.813276    0.197723
      5         11           0       -2.025529    2.451013   -0.247584
      6         11           0        2.111213    2.317825   -0.182600
      7         11           0       -0.292670    0.133982    1.801750
 ---------------------------------------------------------------------

 SCF Done:  E(UB3LYP) =  -1136.13049319     A.U. after   21 cycles

 The electronic state is 2-A.
 Alpha  occ. eigenvalues --  -38.44788 -38.44718 -38.43889 -38.43735 -38.43347
 Alpha  occ. eigenvalues --  -38.43254 -38.42779  -2.20596  -2.20488  -2.19693
 Alpha  occ. eigenvalues --   -2.19558  -2.19258  -2.19104  -2.18796  -1.14272
 Alpha  occ. eigenvalues --   -1.14252  -1.14230  -1.14164  -1.14147  -1.14126
 Alpha  occ. eigenvalues --   -1.13373  -1.13360  -1.13326  -1.13240  -1.13224
 Alpha  occ. eigenvalues --   -1.13190  -1.12979  -1.12881  -1.12865  -1.12861
 Alpha  occ. eigenvalues --   -1.12753  -1.12711  -1.12493  -1.12414  -1.12398
 Alpha  occ. eigenvalues --   -0.18351  -0.13216  -0.12169  -0.09961
 Alpha virt. eigenvalues --   -0.06363  -0.05598  -0.04545  -0.03013  -0.02460
 Alpha virt. eigenvalues --   -0.02142  -0.01900  -0.01452  -0.00738  -0.00552
 Alpha virt. eigenvalues --   -0.00011   0.00283   0.00697   0.00774   0.00810

  Beta  occ. eigenvalues --  -38.44780 -38.44718 -38.43887 -38.43726 -38.43269
  Beta  occ. eigenvalues --  -38.43243 -38.42717  -2.20585  -2.20489  -2.19691
  Beta  occ. eigenvalues --   -2.19546  -2.19114  -2.19087  -2.18684  -1.14249
  Beta  occ. eigenvalues --   -1.14239  -1.14223  -1.14158  -1.14144  -1.14127
  Beta  occ. eigenvalues --   -1.13367  -1.13351  -1.13323  -1.13228  -1.13202
  Beta  occ. eigenvalues --   -1.13178  -1.12883  -1.12844  -1.12777  -1.12754
  Beta  occ. eigenvalues --   -1.12722  -1.12703  -1.12407  -1.12332  -1.12322
  Beta  occ. eigenvalues --   -0.17672  -0.13022  -0.11889
  Beta virt. eigenvalues --   -0.06345  -0.06074  -0.05610  -0.04508  -0.02347
  Beta virt. eigenvalues --   -0.02012  -0.01753  -0.01398  -0.00922  -0.00769
  Beta virt. eigenvalues --   -0.00572   0.00151   0.00328   0.00744   0.00781

 Mulliken charges and spin densities:
               1          2
     1  Na  -0.181901   0.446280
     2  Na   0.268820   0.004484
     3  Na   0.103855  -0.058849
     4  Na  -0.004693  -0.004798
     5  Na   0.054282  -0.085785
     6  Na   0.033732  -0.076790
     7  Na  -0.274095   0.775457
 Sum of Mulliken charges =  -0.00000   1.00000

 Dipole moment (field-independent basis, Debye):
    X=             -0.1113    Y=             -0.0375    Z=              0.1442  Tot=              0.1860
 Quadrupole moment (field-independent basis, Debye-Ang):
   XX=            -48.8781   YY=            -62.3013   ZZ=            -78.6423
   XY=             -0.2570   XZ=              0.5177   YZ=             -0.9102

 Normal termination of Gaussian 16 at Fri Dec  8 03:27:40 2023.
