 Gaussian 16, Revision B.01,
 Gaussian 16:  ES64L-G16RevB.01 20-Dec-2017

 -------------------------
 #P B3LYP/6-311+g(d) force
 -------------------------

 -----
 DPGEN
 -----
 Symbolic Z-matrix:
 Charge =  0 Multiplicity = 2

                         Standard orientation:
 ---------------------------------------------------------------------
 Center     Atomic      Atomic             Coordinates (Angstroms)
 Number     Number       Type             X           Y           Z
 ---------------------------------------------------------------------
      1         11           0       -1.540968    2.081026    0.203266
      2         11           0       -3.247979   -0.767897    0.165390
      3         11           0        0.598984   -0.184389    2.063659
      4         11           0        3.315526   -1.298624   -0.255059
      5         11           0        1.597368    2.384586   -0.006739
      6         11           0       -0.537324   -2.583396   -0.192953
      7         11           0       -0.185608    0.368693   -1.977564
 ---------------------------------------------------------------------

 SCF Done:  E(UB3LYP) =  -1136.13239051     A.U. after   20 cycles

 The electronic state is 2-A.
 Alpha  occ. eigenvalues --  -38.44520 -38.44013 -38.43869 -38.43799 -38.43438
 Alpha  occ. eigenvalues --  -38.43437 -38.43106  -2.20268  -2.19845  -2.19743
 Alpha  occ. eigenvalues --   -2.19727  -2.19321  -2.19286  -2.19047  -1.13944
 Alpha  occ. eigenvalues --   -1.13928  -1.13906  -1.13523  -1.13504  -1.13496
 Alpha  occ. eigenvalues --   -1.13430  -1.13413  -1.13388  -1.13365  -1.13352
 Alpha  occ. eigenvalues --   -1.13343  -1.13018  -1.12987  -1.12972  -1.12965
 Alpha  occ. eigenvalues --   -1.12952  -1.12896  -1.12733  -1.12696  -1.12665
 Alpha  occ. eigenvalues --   -0.18572  -0.12889  -0.12317  -0.11034
 Alpha virt. eigenvalues --   -0.06080  -0.05085  -0.04211  -0.03331  -0.03122
 Alpha virt. eigenvalues --   -0.02773  -0.01820  -0.01062  -0.00174  -0.00106
 Alpha virt. eigenvalues --   -0.00064   0.00327   0.00726   0.00773   0.00886

  Beta  occ. eigenvalues --  -38.44523 -38.44013 -38.43788 -38.43717 -38.43432
  Beta  occ. eigenvalues --  -38.43429 -38.43095  -2.20273  -2.19846  -2.19594
  Beta  occ. eigenvalues --   -2.19577  -2.19314  -2.19274  -2.19032  -1.13935
  Beta  occ. eigenvalues --   -1.13934  -1.13911  -1.13525  -1.13504  -1.13482
  Beta  occ. eigenvalues --   -1.13334  -1.13315  -1.13281  -1.13257  -1.13244
  Beta  occ. eigenvalues --   -1.13236  -1.13015  -1.12966  -1.12957  -1.12942
  Beta  occ. eigenvalues --   -1.12929  -1.12894  -1.12720  -1.12661  -1.12651
  Beta  occ. eigenvalues --   -0.17794  -0.12707  -0.12093
  Beta virt. eigenvalues --   -0.07118  -0.05997  -0.05051  -0.04142  -0.02619
  Beta virt. eigenvalues --   -0.02307  -0.01804  -0.01686  -0.01008  -0.00220
  Beta virt. eigenvalues --   -0.00095   0.00055   0.00343   0.00808   0.00881

 Mulliken charges and spin densities:
               1          2
     1  Na   0.383823   0.133519
     2  Na   0.017849  -0.050915
     3  Na  -0.468957   0.567807
     4  Na   0.025461  -0.137974
     5  Na   0.365163  -0.071267
     6  Na   0.118105  -0.046079
     7  Na  -0.441445   0.604909
 Sum of Mulliken charges =  -0.00000   1.00000

 Dipole moment (field-independent basis, Debye):
    X=              0.3356    Y=             -0.1844    Z=              0.0035  Tot=              0.3829
 Quadrupole moment (field-independent basis, Debye-Ang):
   XX=            -54.7729   YY=            -67.7173   ZZ=            -71.9079
   XY=              0.2802   XZ=             -1.8448   YZ=              1.0661

 Normal termination of Gaussian 16 at Tue Dec  5 16:45:35 2023.
