 Gaussian 16, Revision B.01,
 Gaussian 16:  ES64L-G16RevB.01 20-Dec-2017

 -------------------------
 #P B3LYP/6-311+g(d) force
 -------------------------

 -----
 DPGEN
 -----
 Symbolic Z-matrix:
 Charge =  0 Multiplicity = 2

                         Standard orientation:
 ---------------------------------------------------------------------
 Center     Atomic      Atomic             Coordinates (Angstroms)
 Number     Number       Type             X           Y           Z
 ---------------------------------------------------------------------
      1         11           0       -2.757028   -1.677223   -0.059894
      2         11           0       -0.217658   -0.079355    2.098181
      3         11           0        1.217092    2.685019    0.114810
      4         11           0        0.057350    0.267204   -1.495946
      5         11           0        0.662215   -2.786399   -0.268008
      6         11           0        3.278573   -0.455746   -0.082767
      7         11           0       -2.240545    2.046500   -0.306376
 ---------------------------------------------------------------------

 SCF Done:  E(UB3LYP) =  -1136.13815073     A.U. after   19 cycles

 The electronic state is 2-A.
 Alpha  occ. eigenvalues --  -38.43987 -38.43875 -38.43764 -38.43617 -38.43509
 Alpha  occ. eigenvalues --  -38.43473 -38.43014  -2.19788  -2.19681  -2.19618
 Alpha  occ. eigenvalues --   -2.19477  -2.19383  -2.19321  -2.19027  -1.13460
 Alpha  occ. eigenvalues --   -1.13444  -1.13437  -1.13354  -1.13344  -1.13334
 Alpha  occ. eigenvalues --   -1.13327  -1.13273  -1.13240  -1.13193  -1.13139
 Alpha  occ. eigenvalues --   -1.13089  -1.13052  -1.13021  -1.13012  -1.12997
 Alpha  occ. eigenvalues --   -1.12980  -1.12938  -1.12709  -1.12662  -1.12643
 Alpha  occ. eigenvalues --   -0.18549  -0.12776  -0.12648  -0.10561
 Alpha virt. eigenvalues --   -0.05536  -0.05376  -0.04810  -0.02945  -0.02904
 Alpha virt. eigenvalues --   -0.02459  -0.01568  -0.01269  -0.00466  -0.00418
 Alpha virt. eigenvalues --   -0.00008   0.00338   0.00784   0.00851   0.00874

  Beta  occ. eigenvalues --  -38.43987 -38.43873 -38.43754 -38.43612 -38.43466
  Beta  occ. eigenvalues --  -38.43407 -38.42959  -2.19790  -2.19681  -2.19604
  Beta  occ. eigenvalues --   -2.19470  -2.19311  -2.19196  -2.18929  -1.13450
  Beta  occ. eigenvalues --   -1.13448  -1.13436  -1.13342  -1.13337  -1.13330
  Beta  occ. eigenvalues --   -1.13316  -1.13245  -1.13234  -1.13185  -1.13109
  Beta  occ. eigenvalues --   -1.13088  -1.13011  -1.12966  -1.12935  -1.12923
  Beta  occ. eigenvalues --   -1.12875  -1.12860  -1.12637  -1.12591  -1.12571
  Beta  occ. eigenvalues --   -0.17833  -0.12550  -0.12427
  Beta virt. eigenvalues --   -0.06626  -0.05512  -0.05373  -0.04757  -0.02192
  Beta virt. eigenvalues --   -0.02142  -0.01493  -0.01381  -0.01193  -0.00515
  Beta virt. eigenvalues --   -0.00456   0.00143   0.00372   0.00839   0.00848

 Mulliken charges and spin densities:
               1          2
     1  Na   0.134828  -0.045892
     2  Na  -0.536708   0.808364
     3  Na   0.235957   0.001792
     4  Na  -0.346235   0.344315
     5  Na   0.125302  -0.049504
     6  Na   0.076523  -0.041504
     7  Na   0.310332  -0.017571
 Sum of Mulliken charges =  -0.00000   1.00000

 Dipole moment (field-independent basis, Debye):
    X=             -0.0173    Y=              0.0416    Z=              0.1648  Tot=              0.1709
 Quadrupole moment (field-independent basis, Debye-Ang):
   XX=            -55.4881   YY=            -61.3349   ZZ=            -75.6236
   XY=              0.4370   XZ=              0.6992   YZ=              0.7196

 Normal termination of Gaussian 16 at Thu Dec  7 07:05:22 2023.
