 Gaussian 16, Revision B.01,
 Gaussian 16:  ES64L-G16RevB.01 20-Dec-2017

 -------------------------
 #P B3LYP/6-311+g(d) force
 -------------------------

 -----
 DPGEN
 -----
 Symbolic Z-matrix:
 Charge =  0 Multiplicity = 2

                         Standard orientation:
 ---------------------------------------------------------------------
 Center     Atomic      Atomic             Coordinates (Angstroms)
 Number     Number       Type             X           Y           Z
 ---------------------------------------------------------------------
      1         11           0        0.728649   -1.870208   -0.039480
      2         11           0       -0.108798    0.070151   -1.790925
      3         11           0       -1.970209    1.507108    0.074394
      4         11           0        0.825900    1.880044    0.032577
      5         11           0        2.732911   -0.010138    0.045584
      6         11           0       -0.237647   -0.169182    1.809254
      7         11           0       -1.970805   -1.407775   -0.131404
 ---------------------------------------------------------------------

 SCF Done:  E(UB3LYP) =  -1136.06826766     A.U. after   23 cycles

 The electronic state is 2-A.
 Alpha  occ. eigenvalues --  -38.44499 -38.44462 -38.44351 -38.43700 -38.43668
 Alpha  occ. eigenvalues --  -38.43531 -38.43518  -2.20778  -2.20719  -2.20420
 Alpha  occ. eigenvalues --   -2.19945  -2.19854  -2.19758  -2.19634  -1.14670
 Alpha  occ. eigenvalues --   -1.14537  -1.14536  -1.14422  -1.14394  -1.14358
 Alpha  occ. eigenvalues --   -1.14261  -1.14223  -1.13988  -1.13786  -1.13582
 Alpha  occ. eigenvalues --   -1.13556  -1.13514  -1.13480  -1.13465  -1.13355
 Alpha  occ. eigenvalues --   -1.13330  -1.13303  -1.13254  -1.13216  -1.13118
 Alpha  occ. eigenvalues --   -0.21967  -0.14085  -0.12839  -0.12496
 Alpha virt. eigenvalues --   -0.05305  -0.04200  -0.03954  -0.03814  -0.03207
 Alpha virt. eigenvalues --   -0.02890  -0.01149  -0.00403  -0.00115   0.00324
 Alpha virt. eigenvalues --    0.00801   0.00871   0.01037   0.01165   0.01265

  Beta  occ. eigenvalues --  -38.44400 -38.44364 -38.44346 -38.43685 -38.43648
  Beta  occ. eigenvalues --  -38.43513 -38.43505  -2.20599  -2.20543  -2.20416
  Beta  occ. eigenvalues --   -2.19918  -2.19833  -2.19734  -2.19617  -1.14580
  Beta  occ. eigenvalues --   -1.14426  -1.14408  -1.14332  -1.14274  -1.14260
  Beta  occ. eigenvalues --   -1.14234  -1.14173  -1.13944  -1.13768  -1.13573
  Beta  occ. eigenvalues --   -1.13544  -1.13466  -1.13422  -1.13383  -1.13322
  Beta  occ. eigenvalues --   -1.13296  -1.13266  -1.13212  -1.13187  -1.13113
  Beta  occ. eigenvalues --   -0.21114  -0.13706  -0.12445
  Beta virt. eigenvalues --   -0.08260  -0.05329  -0.04195  -0.03878  -0.02833
  Beta virt. eigenvalues --   -0.02260  -0.01847  -0.01075  -0.00365   0.00037
  Beta virt. eigenvalues --    0.00350   0.00809   0.00847   0.01068   0.01163

 Mulliken charges and spin densities:
               1          2
     1  Na   0.087660   0.034503
     2  Na  -0.133476   0.483158
     3  Na   0.128590  -0.001765
     4  Na   0.189049   0.073669
     5  Na  -0.346766  -0.097406
     6  Na  -0.138995   0.515721
     7  Na   0.213940  -0.007880
 Sum of Mulliken charges =  -0.00000   1.00000

 Dipole moment (field-independent basis, Debye):
    X=              0.0503    Y=              0.1186    Z=              0.0664  Tot=              0.1449
 Quadrupole moment (field-independent basis, Debye-Ang):
   XX=            -58.9189   YY=            -71.6718   ZZ=            -67.7276
   XY=             -0.1984   XZ=              0.2526   YZ=              0.4616

 Normal termination of Gaussian 16 at Sat Dec  9 06:50:26 2023.
