 Gaussian 16, Revision B.01,
 Gaussian 16:  ES64L-G16RevB.01 20-Dec-2017

 -------------------------
 #P B3LYP/6-311+g(d) force
 -------------------------

 -----
 DPGEN
 -----
 Symbolic Z-matrix:
 Charge =  0 Multiplicity = 2

                         Standard orientation:
 ---------------------------------------------------------------------
 Center     Atomic      Atomic             Coordinates (Angstroms)
 Number     Number       Type             X           Y           Z
 ---------------------------------------------------------------------
      1         11           0       -0.618124    0.485801    2.166126
      2         11           0        4.144278   -1.452478   -0.257768
      3         11           0       -1.257652    2.651209   -0.738712
      4         11           0        2.483867    1.882094    0.187781
      5         11           0        0.846054   -0.874032   -0.915597
      6         11           0       -3.440072    0.072481   -0.649715
      7         11           0       -2.158352   -2.765075    0.207886
 ---------------------------------------------------------------------

 SCF Done:  E(UB3LYP) =  -1136.12457375     A.U. after   21 cycles

 The electronic state is 2-A.
 Alpha  occ. eigenvalues --  -38.44787 -38.44425 -38.44327 -38.44108 -38.44047
 Alpha  occ. eigenvalues --  -38.43594 -38.43101  -2.20581  -2.20265  -2.20110
 Alpha  occ. eigenvalues --   -2.19937  -2.19897  -2.19405  -2.18926  -1.14285
 Alpha  occ. eigenvalues --   -1.14262  -1.14178  -1.13975  -1.13941  -1.13884
 Alpha  occ. eigenvalues --   -1.13774  -1.13770  -1.13728  -1.13608  -1.13579
 Alpha  occ. eigenvalues --   -1.13565  -1.13549  -1.13542  -1.13535  -1.13071
 Alpha  occ. eigenvalues --   -1.13065  -1.13045  -1.12606  -1.12598  -1.12545
 Alpha  occ. eigenvalues --   -0.17588  -0.13792  -0.11779  -0.10397
 Alpha virt. eigenvalues --   -0.06594  -0.06031  -0.04348  -0.03194  -0.02663
 Alpha virt. eigenvalues --   -0.02558  -0.02068  -0.01616  -0.01022  -0.00437
 Alpha virt. eigenvalues --   -0.00255   0.00077   0.00457   0.00594   0.00658

  Beta  occ. eigenvalues --  -38.44786 -38.44421 -38.44314 -38.44020 -38.44002
  Beta  occ. eigenvalues --  -38.43588 -38.43074  -2.20581  -2.20260  -2.20084
  Beta  occ. eigenvalues --   -2.19815  -2.19774  -2.19395  -2.18879  -1.14286
  Beta  occ. eigenvalues --   -1.14254  -1.14176  -1.13954  -1.13943  -1.13879
  Beta  occ. eigenvalues --   -1.13755  -1.13753  -1.13713  -1.13507  -1.13497
  Beta  occ. eigenvalues --   -1.13493  -1.13473  -1.13466  -1.13418  -1.13064
  Beta  occ. eigenvalues --   -1.13057  -1.13029  -1.12574  -1.12568  -1.12492
  Beta  occ. eigenvalues --   -0.17028  -0.13460  -0.11550
  Beta virt. eigenvalues --   -0.06756  -0.06236  -0.05939  -0.04169  -0.02733
  Beta virt. eigenvalues --   -0.02409  -0.02043  -0.01681  -0.01223  -0.00938
  Beta virt. eigenvalues --   -0.00331   0.00020   0.00195   0.00594   0.00618

 Mulliken charges and spin densities:
               1          2
     1  Na  -0.147697   0.390921
     2  Na   0.389603   0.051368
     3  Na  -0.036853   0.151122
     4  Na   0.309322   0.000073
     5  Na  -0.990969   0.047369
     6  Na   0.118378   0.291444
     7  Na   0.358215   0.067702
 Sum of Mulliken charges =  -0.00000   1.00000

 Dipole moment (field-independent basis, Debye):
    X=              1.1248    Y=             -0.0547    Z=              0.6647  Tot=              1.3077
 Quadrupole moment (field-independent basis, Debye-Ang):
   XX=            -57.2466   YY=            -67.0030   ZZ=            -72.4109
   XY=              3.0698   XZ=              0.1889   YZ=             -0.4384

 Normal termination of Gaussian 16 at Thu Dec  7 03:38:59 2023.
