 Gaussian 16, Revision B.01,
 Gaussian 16:  ES64L-G16RevB.01 20-Dec-2017

 -------------------------
 #P B3LYP/6-311+g(d) force
 -------------------------

 -----
 DPGEN
 -----
 Symbolic Z-matrix:
 Charge =  0 Multiplicity = 2

                         Standard orientation:
 ---------------------------------------------------------------------
 Center     Atomic      Atomic             Coordinates (Angstroms)
 Number     Number       Type             X           Y           Z
 ---------------------------------------------------------------------
      1         11           0       -0.366537    0.061561    1.879685
      2         11           0       -3.119115   -0.283566   -0.453691
      3         11           0       -1.502903    2.418420    0.015860
      4         11           0        2.047551    2.352409   -0.089919
      5         11           0        0.469213   -0.600330   -1.874867
      6         11           0        2.879420   -1.025776    0.174832
      7         11           0       -0.407629   -2.922717    0.348099
 ---------------------------------------------------------------------

 SCF Done:  E(UB3LYP) =  -1136.13743626     A.U. after   18 cycles

 The electronic state is 2-A.
 Alpha  occ. eigenvalues --  -38.44100 -38.44020 -38.43597 -38.43561 -38.43499
 Alpha  occ. eigenvalues --  -38.43421 -38.43345  -2.19943  -2.19856  -2.19470
 Alpha  occ. eigenvalues --   -2.19410  -2.19348  -2.19348  -2.19224  -1.13649
 Alpha  occ. eigenvalues --   -1.13606  -1.13567  -1.13544  -1.13514  -1.13491
 Alpha  occ. eigenvalues --   -1.13152  -1.13113  -1.13100  -1.13084  -1.13075
 Alpha  occ. eigenvalues --   -1.13062  -1.13055  -1.13043  -1.13000  -1.12979
 Alpha  occ. eigenvalues --   -1.12970  -1.12953  -1.12880  -1.12877  -1.12850
 Alpha  occ. eigenvalues --   -0.18544  -0.13091  -0.12465  -0.10742
 Alpha virt. eigenvalues --   -0.05672  -0.05172  -0.04730  -0.03343  -0.02961
 Alpha virt. eigenvalues --   -0.02529  -0.01460  -0.01118  -0.00406  -0.00297
 Alpha virt. eigenvalues --   -0.00018   0.00378   0.00810   0.00860   0.00903

  Beta  occ. eigenvalues --  -38.44096 -38.44009 -38.43597 -38.43493 -38.43488
  Beta  occ. eigenvalues --  -38.43340 -38.43339  -2.19940  -2.19838  -2.19412
  Beta  occ. eigenvalues --   -2.19343  -2.19332  -2.19218  -2.19199  -1.13638
  Beta  occ. eigenvalues --   -1.13590  -1.13564  -1.13533  -1.13482  -1.13481
  Beta  occ. eigenvalues --   -1.13084  -1.13081  -1.13072  -1.13054  -1.13027
  Beta  occ. eigenvalues --   -1.13015  -1.13004  -1.12972  -1.12962  -1.12956
  Beta  occ. eigenvalues --   -1.12897  -1.12863  -1.12859  -1.12847  -1.12822
  Beta  occ. eigenvalues --   -0.17824  -0.12865  -0.12238
  Beta virt. eigenvalues --   -0.06882  -0.05615  -0.05148  -0.04639  -0.02578
  Beta virt. eigenvalues --   -0.02217  -0.01520  -0.01346  -0.01052  -0.00455
  Beta virt. eigenvalues --   -0.00328   0.00123   0.00408   0.00836   0.00892

 Mulliken charges and spin densities:
               1          2
     1  Na  -0.178843   0.637087
     2  Na   0.046809   0.010403
     3  Na   0.097712  -0.034753
     4  Na  -0.084508  -0.109510
     5  Na  -0.328466   0.644658
     6  Na   0.274862  -0.073379
     7  Na   0.172433  -0.074505
 Sum of Mulliken charges =  -0.00000   1.00000

 Dipole moment (field-independent basis, Debye):
    X=              0.1105    Y=             -0.2334    Z=             -0.0510  Tot=              0.2632
 Quadrupole moment (field-independent basis, Debye-Ang):
   XX=            -57.7459   YY=            -62.8533   ZZ=            -73.6930
   XY=              0.5897   XZ=              1.8743   YZ=             -1.2222

 Normal termination of Gaussian 16 at Tue Dec  5 12:47:48 2023.
