 Gaussian 16, Revision B.01,
 Gaussian 16:  ES64L-G16RevB.01 20-Dec-2017

 -------------------------
 #P B3LYP/6-311+g(d) force
 -------------------------

 -----
 DPGEN
 -----
 Symbolic Z-matrix:
 Charge =  0 Multiplicity = 2

                         Standard orientation:
 ---------------------------------------------------------------------
 Center     Atomic      Atomic             Coordinates (Angstroms)
 Number     Number       Type             X           Y           Z
 ---------------------------------------------------------------------
      1         11           0        2.910861    1.635394    0.397582
      2         11           0        1.480666   -1.587388    2.171109
      3         11           0       -1.548714    0.642290    1.921540
      4         11           0        2.316417   -0.953154   -2.138286
      5         11           0       -0.413745    2.467724   -0.913591
      6         11           0       -3.812614    0.084464   -0.638004
      7         11           0       -0.932872   -2.289330   -0.800351
 ---------------------------------------------------------------------

 SCF Done:  E(UB3LYP) =  -1136.12156078     A.U. after   21 cycles

 The electronic state is 2-A.
 Alpha  occ. eigenvalues --  -38.44718 -38.44705 -38.44687 -38.44364 -38.44037
 Alpha  occ. eigenvalues --  -38.43756 -38.43382  -2.20500  -2.20488  -2.20483
 Alpha  occ. eigenvalues --   -2.20149  -2.19804  -2.19525  -2.19158  -1.14181
 Alpha  occ. eigenvalues --   -1.14175  -1.14160  -1.14147  -1.14140  -1.14126
 Alpha  occ. eigenvalues --   -1.14122  -1.14112  -1.14094  -1.13813  -1.13792
 Alpha  occ. eigenvalues --   -1.13768  -1.13478  -1.13463  -1.13453  -1.13212
 Alpha  occ. eigenvalues --   -1.13209  -1.13133  -1.12850  -1.12827  -1.12784
 Alpha  occ. eigenvalues --   -0.17079  -0.13092  -0.11640  -0.11271
 Alpha virt. eigenvalues --   -0.06270  -0.05550  -0.04795  -0.03353  -0.03192
 Alpha virt. eigenvalues --   -0.03056  -0.01866  -0.00930  -0.00795  -0.00422
 Alpha virt. eigenvalues --   -0.00079   0.00069   0.00328   0.00465   0.00568

  Beta  occ. eigenvalues --  -38.44696 -38.44661 -38.44650 -38.44294 -38.44040
  Beta  occ. eigenvalues --  -38.43752 -38.43372  -2.20465  -2.20432  -2.20382
  Beta  occ. eigenvalues --   -2.20021  -2.19811  -2.19517  -2.19141  -1.14154
  Beta  occ. eigenvalues --   -1.14140  -1.14123  -1.14112  -1.14094  -1.14084
  Beta  occ. eigenvalues --   -1.14055  -1.14050  -1.14036  -1.13718  -1.13707
  Beta  occ. eigenvalues --   -1.13679  -1.13471  -1.13466  -1.13460  -1.13207
  Beta  occ. eigenvalues --   -1.13198  -1.13129  -1.12837  -1.12804  -1.12773
  Beta  occ. eigenvalues --   -0.16419  -0.12867  -0.11105
  Beta virt. eigenvalues --   -0.07869  -0.06082  -0.05079  -0.04492  -0.03119
  Beta virt. eigenvalues --   -0.02707  -0.02282  -0.01793  -0.00713  -0.00456
  Beta virt. eigenvalues --   -0.00295  -0.00013   0.00212   0.00377   0.00565

 Mulliken charges and spin densities:
               1          2
     1  Na  -0.054209   0.018836
     2  Na   0.161079   0.371592
     3  Na  -0.147815   0.146830
     4  Na   0.070687   0.165836
     5  Na  -0.064651   0.092904
     6  Na   0.575747  -0.038290
     7  Na  -0.540838   0.242292
 Sum of Mulliken charges =  -0.00000   1.00000

 Dipole moment (field-independent basis, Debye):
    X=             -0.3994    Y=              0.1137    Z=             -0.0856  Tot=              0.4240
 Quadrupole moment (field-independent basis, Debye-Ang):
   XX=            -54.9602   YY=            -77.4359   ZZ=            -64.3861
   XY=             -0.9119   XZ=              2.3192   YZ=             -0.0125

 Normal termination of Gaussian 16 at Sun Dec  3 18:52:21 2023.
