 Gaussian 16, Revision B.01,
 Gaussian 16:  ES64L-G16RevB.01 20-Dec-2017

 -------------------------
 #P B3LYP/6-311+g(d) force
 -------------------------

 -----
 DPGEN
 -----
 Symbolic Z-matrix:
 Charge =  0 Multiplicity = 2

                         Standard orientation:
 ---------------------------------------------------------------------
 Center     Atomic      Atomic             Coordinates (Angstroms)
 Number     Number       Type             X           Y           Z
 ---------------------------------------------------------------------
      1         11           0        2.828162    1.342976    1.003709
      2         11           0       -0.099927    2.838518   -0.476055
      3         11           0       -3.091182   -0.827810    2.561233
      4         11           0        0.064248   -0.276792    0.579996
      5         11           0       -2.002125    0.851993   -1.784959
      6         11           0       -0.561857   -2.014084   -1.989497
      7         11           0        2.862681   -1.914801    0.105575
 ---------------------------------------------------------------------

 SCF Done:  E(UB3LYP) =  -1136.12063476     A.U. after   21 cycles

 The electronic state is 2-A.
 Alpha  occ. eigenvalues --  -38.45995 -38.43729 -38.43635 -38.43488 -38.43382
 Alpha  occ. eigenvalues --  -38.43101 -38.42869  -2.21782  -2.19548  -2.19546
 Alpha  occ. eigenvalues --   -2.19331  -2.19238  -2.19138  -2.18746  -1.15408
 Alpha  occ. eigenvalues --   -1.15397  -1.15379  -1.13251  -1.13236  -1.13221
 Alpha  occ. eigenvalues --   -1.13215  -1.13188  -1.13179  -1.13039  -1.13002
 Alpha  occ. eigenvalues --   -1.12963  -1.12943  -1.12890  -1.12851  -1.12836
 Alpha  occ. eigenvalues --   -1.12777  -1.12757  -1.12427  -1.12397  -1.12371
 Alpha  occ. eigenvalues --   -0.17801  -0.13207  -0.12320  -0.11673
 Alpha virt. eigenvalues --   -0.05589  -0.05218  -0.04670  -0.03423  -0.02830
 Alpha virt. eigenvalues --   -0.02539  -0.01646  -0.00945  -0.00792  -0.00170
 Alpha virt. eigenvalues --   -0.00061   0.00190   0.00310   0.00471   0.00928

  Beta  occ. eigenvalues --  -38.45840 -38.43731 -38.43616 -38.43492 -38.43360
  Beta  occ. eigenvalues --  -38.43092 -38.42864  -2.21492  -2.19552  -2.19513
  Beta  occ. eigenvalues --   -2.19338  -2.19198  -2.19124  -2.18738  -1.15208
  Beta  occ. eigenvalues --   -1.15200  -1.15184  -1.13240  -1.13227  -1.13224
  Beta  occ. eigenvalues --   -1.13187  -1.13181  -1.13161  -1.13041  -1.13005
  Beta  occ. eigenvalues --   -1.12949  -1.12939  -1.12859  -1.12822  -1.12805
  Beta  occ. eigenvalues --   -1.12762  -1.12754  -1.12421  -1.12389  -1.12365
  Beta  occ. eigenvalues --   -0.17419  -0.12781  -0.11614
  Beta virt. eigenvalues --   -0.07792  -0.05317  -0.05021  -0.04330  -0.03128
  Beta virt. eigenvalues --   -0.02272  -0.01953  -0.01211  -0.00784  -0.00373
  Beta virt. eigenvalues --   -0.00126  -0.00019   0.00379   0.00617   0.00794

 Mulliken charges and spin densities:
               1          2
     1  Na   0.604087  -0.146667
     2  Na  -0.269730   0.109809
     3  Na   0.209981   0.509360
     4  Na  -1.469636   0.445824
     5  Na   0.462146   0.012917
     6  Na  -0.167602   0.180798
     7  Na   0.630753  -0.112042
 Sum of Mulliken charges =  -0.00000   1.00000

 Dipole moment (field-independent basis, Debye):
    X=             -0.3243    Y=             -0.3227    Z=              0.1236  Tot=              0.4739
 Quadrupole moment (field-independent basis, Debye-Ang):
   XX=            -57.5745   YY=            -69.2452   ZZ=            -66.5727
   XY=             -0.6571   XZ=             -0.7306   YZ=             -0.2491

 Normal termination of Gaussian 16 at Tue Dec  5 13:14:35 2023.
