 Gaussian 16, Revision B.01,
 Gaussian 16:  ES64L-G16RevB.01 20-Dec-2017

 -------------------------
 #P B3LYP/6-311+g(d) force
 -------------------------

 -----
 DPGEN
 -----
 Symbolic Z-matrix:
 Charge =  0 Multiplicity = 2

                         Standard orientation:
 ---------------------------------------------------------------------
 Center     Atomic      Atomic             Coordinates (Angstroms)
 Number     Number       Type             X           Y           Z
 ---------------------------------------------------------------------
      1         11           0       -2.306208    1.868706    0.198135
      2         11           0       -1.329007   -1.003431   -0.638154
      3         11           0        2.305783   -1.433379   -1.270773
      4         11           0        1.232149    1.034280    0.776964
      5         11           0        4.310134    1.174927   -0.557709
      6         11           0        0.563691   -1.478616    2.080399
      7         11           0       -4.776542   -0.162487   -0.588861
 ---------------------------------------------------------------------

 SCF Done:  E(UB3LYP) =  -1136.11707441     A.U. after   23 cycles

 The electronic state is 2-A.
 Alpha  occ. eigenvalues --  -38.44495 -38.44327 -38.44234 -38.43962 -38.43932
 Alpha  occ. eigenvalues --  -38.43400 -38.42611  -2.20363  -2.20141  -2.20100
 Alpha  occ. eigenvalues --   -2.19863  -2.19838  -2.19401  -2.18438  -1.14081
 Alpha  occ. eigenvalues --   -1.14025  -1.13976  -1.13803  -1.13798  -1.13798
 Alpha  occ. eigenvalues --   -1.13764  -1.13756  -1.13689  -1.13627  -1.13582
 Alpha  occ. eigenvalues --   -1.13552  -1.13492  -1.13465  -1.13408  -1.13098
 Alpha  occ. eigenvalues --   -1.13046  -1.12979  -1.12109  -1.12096  -1.12077
 Alpha  occ. eigenvalues --   -0.18278  -0.14332  -0.11217  -0.11063
 Alpha virt. eigenvalues --   -0.07085  -0.05265  -0.04277  -0.03121  -0.02926
 Alpha virt. eigenvalues --   -0.02346  -0.02074  -0.01278  -0.01241  -0.00340
 Alpha virt. eigenvalues --   -0.00233   0.00151   0.00459   0.00563   0.00776

  Beta  occ. eigenvalues --  -38.44460 -38.44306 -38.44188 -38.43974 -38.43900
  Beta  occ. eigenvalues --  -38.43346 -38.42607  -2.20301  -2.20102  -2.20014
  Beta  occ. eigenvalues --   -2.19864  -2.19809  -2.19304  -2.18431  -1.14043
  Beta  occ. eigenvalues --   -1.13986  -1.13909  -1.13773  -1.13769  -1.13741
  Beta  occ. eigenvalues --   -1.13731  -1.13711  -1.13635  -1.13614  -1.13546
  Beta  occ. eigenvalues --   -1.13523  -1.13473  -1.13458  -1.13378  -1.13040
  Beta  occ. eigenvalues --   -1.12977  -1.12892  -1.12100  -1.12090  -1.12074
  Beta  occ. eigenvalues --   -0.17547  -0.14112  -0.11021
  Beta virt. eigenvalues --   -0.07324  -0.06684  -0.04757  -0.04122  -0.03001
  Beta virt. eigenvalues --   -0.02408  -0.01918  -0.01740  -0.01100  -0.00722
  Beta virt. eigenvalues --   -0.00198  -0.00123   0.00301   0.00545   0.00653

 Mulliken charges and spin densities:
               1          2
     1  Na   0.199571   0.061479
     2  Na  -1.062645   0.232844
     3  Na   0.161515   0.148771
     4  Na  -0.774940   0.211170
     5  Na   0.369236   0.066506
     6  Na   0.570395   0.142326
     7  Na   0.536867   0.136905
 Sum of Mulliken charges =  -0.00000   1.00000

 Dipole moment (field-independent basis, Debye):
    X=             -1.4443    Y=             -0.7609    Z=              0.6579  Tot=              1.7600
 Quadrupole moment (field-independent basis, Debye-Ang):
   XX=            -62.4657   YY=            -67.7935   ZZ=            -68.4618
   XY=             -1.2663   XZ=              2.1328   YZ=              0.7657

 Normal termination of Gaussian 16 at Wed Nov 29 03:27:40 2023.
