 Gaussian 16, Revision B.01,
 Gaussian 16:  ES64L-G16RevB.01 20-Dec-2017

 -------------------------
 #P B3LYP/6-311+g(d) force
 -------------------------

 -----
 DPGEN
 -----
 Symbolic Z-matrix:
 Charge =  0 Multiplicity = 2

                         Standard orientation:
 ---------------------------------------------------------------------
 Center     Atomic      Atomic             Coordinates (Angstroms)
 Number     Number       Type             X           Y           Z
 ---------------------------------------------------------------------
      1         11           0        0.405895   -0.042740    1.836125
      2         11           0       -1.339961    2.355936    0.392646
      3         11           0       -0.754027   -2.500747    0.418942
      4         11           0        2.437882   -1.384495   -0.269733
      5         11           0        2.004487    1.869817   -0.138336
      6         11           0        0.072075    0.025596   -1.828025
      7         11           0       -2.826352   -0.323367   -0.411618
 ---------------------------------------------------------------------

 SCF Done:  E(UB3LYP) =  -1136.13352539     A.U. after   19 cycles

 The electronic state is 2-A.
 Alpha  occ. eigenvalues --  -38.43543 -38.43515 -38.43509 -38.43485 -38.43342
 Alpha  occ. eigenvalues --  -38.43185 -38.43100  -2.19551  -2.19546  -2.19464
 Alpha  occ. eigenvalues --   -2.19424  -2.19288  -2.19096  -2.19044  -1.13300
 Alpha  occ. eigenvalues --   -1.13256  -1.13235  -1.13220  -1.13198  -1.13188
 Alpha  occ. eigenvalues --   -1.13142  -1.13120  -1.13107  -1.13066  -1.13060
 Alpha  occ. eigenvalues --   -1.13047  -1.12950  -1.12945  -1.12894  -1.12771
 Alpha  occ. eigenvalues --   -1.12746  -1.12727  -1.12721  -1.12685  -1.12657
 Alpha  occ. eigenvalues --   -0.19773  -0.13307  -0.12668  -0.11468
 Alpha virt. eigenvalues --   -0.05075  -0.04903  -0.04343  -0.03442  -0.03128
 Alpha virt. eigenvalues --   -0.02844  -0.01152  -0.00869  -0.00099   0.00251
 Alpha virt. eigenvalues --    0.00297   0.00381   0.00932   0.00984   0.01003

  Beta  occ. eigenvalues --  -38.43535 -38.43474 -38.43432 -38.43423 -38.43333
  Beta  occ. eigenvalues --  -38.43177 -38.43088  -2.19455  -2.19411  -2.19397
  Beta  occ. eigenvalues --   -2.19392  -2.19277  -2.19084  -2.19027  -1.13231
  Beta  occ. eigenvalues --   -1.13191  -1.13146  -1.13135  -1.13132  -1.13112
  Beta  occ. eigenvalues --   -1.13093  -1.13087  -1.13054  -1.13041  -1.13008
  Beta  occ. eigenvalues --   -1.12992  -1.12930  -1.12905  -1.12880  -1.12759
  Beta  occ. eigenvalues --   -1.12720  -1.12712  -1.12706  -1.12652  -1.12646
  Beta  occ. eigenvalues --   -0.19007  -0.13018  -0.12372
  Beta virt. eigenvalues --   -0.07450  -0.05044  -0.04908  -0.04327  -0.02600
  Beta virt. eigenvalues --   -0.02289  -0.01738  -0.01075  -0.00815   0.00028
  Beta virt. eigenvalues --    0.00225   0.00247   0.00398   0.00978   0.00986

 Mulliken charges and spin densities:
               1          2
     1  Na  -0.422284   0.562537
     2  Na   0.066657  -0.022324
     3  Na   0.207556  -0.008787
     4  Na   0.281147  -0.043613
     5  Na   0.221387  -0.054753
     6  Na  -0.448740   0.562779
     7  Na   0.094276   0.004161
 Sum of Mulliken charges =  -0.00000   1.00000

 Dipole moment (field-independent basis, Debye):
    X=              0.1265    Y=              0.0378    Z=             -0.0538  Tot=              0.1425
 Quadrupole moment (field-independent basis, Debye-Ang):
   XX=            -59.6134   YY=            -64.7829   ZZ=            -70.9208
   XY=             -0.2258   XZ=             -0.4498   YZ=              0.3250

 Normal termination of Gaussian 16 at Thu Dec  7 13:07:01 2023.
