 Gaussian 16, Revision B.01,
 Gaussian 16:  ES64L-G16RevB.01 20-Dec-2017

 -------------------------
 #P B3LYP/6-311+g(d) force
 -------------------------

 -----
 DPGEN
 -----
 Symbolic Z-matrix:
 Charge =  0 Multiplicity = 2

                         Standard orientation:
 ---------------------------------------------------------------------
 Center     Atomic      Atomic             Coordinates (Angstroms)
 Number     Number       Type             X           Y           Z
 ---------------------------------------------------------------------
      1         11           0        1.987429    2.392302   -0.263282
      2         11           0        3.165971   -0.410141    0.104781
      3         11           0       -0.521149   -0.522490   -1.665490
      4         11           0       -2.184889    2.394507   -0.310738
      5         11           0       -3.232666   -1.269368    0.292622
      6         11           0        0.914322   -2.811671   -0.164629
      7         11           0       -0.129017    0.226862    2.006737
 ---------------------------------------------------------------------

 SCF Done:  E(UB3LYP) =  -1136.12909863     A.U. after   21 cycles

 The electronic state is 2-A.
 Alpha  occ. eigenvalues --  -38.45073 -38.44268 -38.44120 -38.43708 -38.43668
 Alpha  occ. eigenvalues --  -38.43344 -38.43303  -2.20847  -2.20046  -2.19981
 Alpha  occ. eigenvalues --   -2.19558  -2.19489  -2.19263  -2.19162  -1.14524
 Alpha  occ. eigenvalues --   -1.14500  -1.14485  -1.13724  -1.13707  -1.13695
 Alpha  occ. eigenvalues --   -1.13679  -1.13635  -1.13626  -1.13233  -1.13191
 Alpha  occ. eigenvalues --   -1.13175  -1.13163  -1.13142  -1.13120  -1.13008
 Alpha  occ. eigenvalues --   -1.12921  -1.12891  -1.12810  -1.12800  -1.12782
 Alpha  occ. eigenvalues --   -0.18119  -0.13339  -0.12049  -0.10410
 Alpha virt. eigenvalues --   -0.06365  -0.05638  -0.04377  -0.03356  -0.02733
 Alpha virt. eigenvalues --   -0.02341  -0.01985  -0.01357  -0.00705  -0.00412
 Alpha virt. eigenvalues --   -0.00044   0.00324   0.00669   0.00730   0.00754

  Beta  occ. eigenvalues --  -38.45067 -38.44259 -38.44120 -38.43666 -38.43619
  Beta  occ. eigenvalues --  -38.43298 -38.43284  -2.20839  -2.20032  -2.19981
  Beta  occ. eigenvalues --   -2.19487  -2.19394  -2.19161  -2.19150  -1.14505
  Beta  occ. eigenvalues --   -1.14489  -1.14483  -1.13702  -1.13699  -1.13693
  Beta  occ. eigenvalues --   -1.13672  -1.13633  -1.13612  -1.13166  -1.13132
  Beta  occ. eigenvalues --   -1.13123  -1.13117  -1.13074  -1.13051  -1.12955
  Beta  occ. eigenvalues --   -1.12847  -1.12820  -1.12798  -1.12778  -1.12746
  Beta  occ. eigenvalues --   -0.17429  -0.13155  -0.11829
  Beta virt. eigenvalues --   -0.06601  -0.06283  -0.05580  -0.04310  -0.02633
  Beta virt. eigenvalues --   -0.02031  -0.01852  -0.01350  -0.01274  -0.00740
  Beta virt. eigenvalues --   -0.00444   0.00120   0.00363   0.00737   0.00759

 Mulliken charges and spin densities:
               1          2
     1  Na  -0.045855  -0.032833
     2  Na   0.040599   0.007063
     3  Na  -0.051195   0.490151
     4  Na  -0.055175  -0.054228
     5  Na   0.091763  -0.076561
     6  Na   0.336750  -0.033824
     7  Na  -0.316888   0.700233
 Sum of Mulliken charges =  -0.00000   1.00000

 Dipole moment (field-independent basis, Debye):
    X=             -0.8104    Y=             -0.0615    Z=              0.1464  Tot=              0.8258
 Quadrupole moment (field-independent basis, Debye-Ang):
   XX=            -52.9350   YY=            -64.2073   ZZ=            -76.2240
   XY=              0.2380   XZ=             -0.6032   YZ=             -1.9077

 Normal termination of Gaussian 16 at Thu Dec  7 10:52:45 2023.
