 Gaussian 16, Revision B.01,
 Gaussian 16:  ES64L-G16RevB.01 20-Dec-2017

 -------------------------
 #P B3LYP/6-311+g(d) force
 -------------------------

 -----
 DPGEN
 -----
 Symbolic Z-matrix:
 Charge =  0 Multiplicity = 2

                         Standard orientation:
 ---------------------------------------------------------------------
 Center     Atomic      Atomic             Coordinates (Angstroms)
 Number     Number       Type             X           Y           Z
 ---------------------------------------------------------------------
      1         11           0       -0.317275   -0.668113   -1.413300
      2         11           0       -0.657477   -1.109711    1.313200
      3         11           0       -2.981673   -0.392099   -0.280400
      4         11           0       -1.116063    1.774591    0.254000
      5         11           0        1.453832    0.708378    1.548900
      6         11           0        1.609435    1.328278   -1.171700
      7         11           0        2.009220   -1.641324   -0.250700
 ---------------------------------------------------------------------

 SCF Done:  E(UB3LYP) =  -1136.08354293     A.U. after   22 cycles

 The electronic state is 2-A.
 Alpha  occ. eigenvalues --  -38.44370 -38.44197 -38.44052 -38.43791 -38.43755
 Alpha  occ. eigenvalues --  -38.43273 -38.42663  -2.20399  -2.20367  -2.20364
 Alpha  occ. eigenvalues --   -2.19977  -2.19910  -2.19345  -2.18792  -1.14344
 Alpha  occ. eigenvalues --   -1.14282  -1.14202  -1.14128  -1.14098  -1.14056
 Alpha  occ. eigenvalues --   -1.14009  -1.13950  -1.13923  -1.13590  -1.13563
 Alpha  occ. eigenvalues --   -1.13524  -1.13513  -1.13487  -1.13465  -1.13032
 Alpha  occ. eigenvalues --   -1.12983  -1.12922  -1.12510  -1.12440  -1.12396
 Alpha  occ. eigenvalues --   -0.21471  -0.14284  -0.12695  -0.11955
 Alpha virt. eigenvalues --   -0.05637  -0.04140  -0.04037  -0.03632  -0.02865
 Alpha virt. eigenvalues --   -0.02809  -0.01337  -0.00387  -0.00312   0.00301
 Alpha virt. eigenvalues --    0.00717   0.00900   0.00990   0.01054   0.01078

  Beta  occ. eigenvalues --  -38.44366 -38.44131 -38.43982 -38.43750 -38.43697
  Beta  occ. eigenvalues --  -38.43260 -38.42648  -2.20383  -2.20253  -2.20249
  Beta  occ. eigenvalues --   -2.19877  -2.19838  -2.19328  -2.18771  -1.14289
  Beta  occ. eigenvalues --   -1.14213  -1.14104  -1.14058  -1.14043  -1.14013
  Beta  occ. eigenvalues --   -1.13974  -1.13873  -1.13862  -1.13524  -1.13476
  Beta  occ. eigenvalues --   -1.13462  -1.13452  -1.13424  -1.13385  -1.13019
  Beta  occ. eigenvalues --   -1.12946  -1.12896  -1.12501  -1.12395  -1.12366
  Beta  occ. eigenvalues --   -0.20625  -0.14024  -0.11723
  Beta virt. eigenvalues --   -0.08235  -0.05561  -0.04062  -0.03375  -0.03241
  Beta virt. eigenvalues --   -0.02091  -0.01851  -0.01274  -0.00373  -0.00052
  Beta virt. eigenvalues --    0.00339   0.00771   0.00902   0.01049   0.01105

 Mulliken charges and spin densities:
               1          2
     1  Na  -0.088015   0.469606
     2  Na  -0.486615   0.279845
     3  Na   0.958830  -0.029420
     4  Na  -0.874530   0.101002
     5  Na   0.619759   0.254464
     6  Na   0.141217   0.018569
     7  Na  -0.270646  -0.094065
 Sum of Mulliken charges =  -0.00000   1.00000

 Dipole moment (field-independent basis, Debye):
    X=             -0.2065    Y=              0.0904    Z=              0.0260  Tot=              0.2269
 Quadrupole moment (field-independent basis, Debye-Ang):
   XX=            -55.7625   YY=            -74.5789   ZZ=            -65.8498
   XY=             -0.2075   XZ=              0.2092   YZ=             -0.2546

 Normal termination of Gaussian 16 at Thu Dec  7 18:08:31 2023.
