 Gaussian 16, Revision B.01,
 Gaussian 16:  ES64L-G16RevB.01 20-Dec-2017

 -------------------------
 #P B3LYP/6-311+g(d) force
 -------------------------

 -----
 DPGEN
 -----
 Symbolic Z-matrix:
 Charge =  0 Multiplicity = 2

                         Standard orientation:
 ---------------------------------------------------------------------
 Center     Atomic      Atomic             Coordinates (Angstroms)
 Number     Number       Type             X           Y           Z
 ---------------------------------------------------------------------
      1         11           0        2.429015   -1.895226   -0.193940
      2         11           0        2.734010    1.513666    0.252972
      3         11           0        0.005031    0.179005    1.884504
      4         11           0       -0.563721    2.501896   -0.331583
      5         11           0       -3.442221    0.348176   -0.191832
      6         11           0        0.258475   -0.409699   -1.843100
      7         11           0       -1.420589   -2.237819    0.422979
 ---------------------------------------------------------------------

 SCF Done:  E(UB3LYP) =  -1136.13466078     A.U. after   20 cycles

 The electronic state is 2-A.
 Alpha  occ. eigenvalues --  -38.44648 -38.43935 -38.43654 -38.43572 -38.43543
 Alpha  occ. eigenvalues --  -38.43226 -38.42855  -2.20446  -2.19782  -2.19525
 Alpha  occ. eigenvalues --   -2.19513  -2.19494  -2.19119  -2.18740  -1.14113
 Alpha  occ. eigenvalues --   -1.14112  -1.14087  -1.13463  -1.13441  -1.13426
 Alpha  occ. eigenvalues --   -1.13284  -1.13218  -1.13177  -1.13171  -1.13152
 Alpha  occ. eigenvalues --   -1.13144  -1.13128  -1.13115  -1.13074  -1.12809
 Alpha  occ. eigenvalues --   -1.12782  -1.12723  -1.12436  -1.12416  -1.12346
 Alpha  occ. eigenvalues --   -0.18856  -0.13335  -0.12089  -0.10965
 Alpha virt. eigenvalues --   -0.06162  -0.05102  -0.03960  -0.03391  -0.02873
 Alpha virt. eigenvalues --   -0.02610  -0.01943  -0.01078  -0.00181  -0.00090
 Alpha virt. eigenvalues --    0.00016   0.00317   0.00755   0.00849   0.00898

  Beta  occ. eigenvalues --  -38.44648 -38.43929 -38.43649 -38.43488 -38.43467
  Beta  occ. eigenvalues --  -38.43211 -38.42844  -2.20449  -2.19774  -2.19506
  Beta  occ. eigenvalues --   -2.19370  -2.19356  -2.19096  -2.18724  -1.14119
  Beta  occ. eigenvalues --   -1.14099  -1.14089  -1.13450  -1.13427  -1.13418
  Beta  occ. eigenvalues --   -1.13246  -1.13148  -1.13139  -1.13114  -1.13067
  Beta  occ. eigenvalues --   -1.13062  -1.13025  -1.13023  -1.12992  -1.12786
  Beta  occ. eigenvalues --   -1.12740  -1.12711  -1.12428  -1.12379  -1.12335
  Beta  occ. eigenvalues --   -0.18112  -0.13113  -0.11814
  Beta virt. eigenvalues --   -0.07042  -0.06089  -0.05094  -0.03937  -0.02631
  Beta virt. eigenvalues --   -0.02079  -0.01856  -0.01556  -0.01024  -0.00196
  Beta virt. eigenvalues --   -0.00059   0.00088   0.00338   0.00819   0.00881

 Mulliken charges and spin densities:
               1          2
     1  Na   0.294990  -0.072088
     2  Na   0.162903  -0.034634
     3  Na  -0.332589   0.600213
     4  Na   0.087666  -0.032432
     5  Na  -0.079644  -0.083056
     6  Na  -0.437467   0.663220
     7  Na   0.304141  -0.041222
 Sum of Mulliken charges =  -0.00000   1.00000

 Dipole moment (field-independent basis, Debye):
    X=             -0.1480    Y=              0.0280    Z=             -0.0005  Tot=              0.1506
 Quadrupole moment (field-independent basis, Debye-Ang):
   XX=            -51.3963   YY=            -68.5492   ZZ=            -73.2283
   XY=             -0.2621   XZ=              1.1493   YZ=             -1.0242

 Normal termination of Gaussian 16 at Thu Dec  7 04:17:56 2023.
