 Gaussian 16, Revision B.01,
 Gaussian 16:  ES64L-G16RevB.01 20-Dec-2017

 -------------------------
 #P B3LYP/6-311+g(d) force
 -------------------------

 -----
 DPGEN
 -----
 Symbolic Z-matrix:
 Charge =  0 Multiplicity = 2

                         Standard orientation:
 ---------------------------------------------------------------------
 Center     Atomic      Atomic             Coordinates (Angstroms)
 Number     Number       Type             X           Y           Z
 ---------------------------------------------------------------------
      1         11           0       -2.390321   -2.206120   -0.592866
      2         11           0        2.892792    1.745651   -0.876442
      3         11           0       -3.676255    1.415880   -0.025671
      4         11           0        3.626672   -0.910167    0.214322
      5         11           0       -0.206406   -0.450225   -1.665655
      6         11           0       -0.649451    1.969985    1.220519
      7         11           0        0.402968   -1.565005    1.725794
 ---------------------------------------------------------------------

 SCF Done:  E(UB3LYP) =  -1136.11596392     A.U. after   23 cycles

 The electronic state is 2-A.
 Alpha  occ. eigenvalues --  -38.45352 -38.44733 -38.44506 -38.44200 -38.43570
 Alpha  occ. eigenvalues --  -38.43527 -38.43437  -2.21175  -2.20498  -2.20378
 Alpha  occ. eigenvalues --   -2.20041  -2.19423  -2.19376  -2.19260  -1.14892
 Alpha  occ. eigenvalues --   -1.14828  -1.14807  -1.14177  -1.14162  -1.14144
 Alpha  occ. eigenvalues --   -1.14068  -1.14052  -1.14002  -1.13718  -1.13683
 Alpha  occ. eigenvalues --   -1.13666  -1.13118  -1.13062  -1.13047  -1.13044
 Alpha  occ. eigenvalues --   -1.13022  -1.12979  -1.12933  -1.12916  -1.12882
 Alpha  occ. eigenvalues --   -0.17806  -0.13924  -0.11420  -0.10945
 Alpha virt. eigenvalues --   -0.07205  -0.05545  -0.03876  -0.03457  -0.03282
 Alpha virt. eigenvalues --   -0.02563  -0.02280  -0.01571  -0.00461  -0.00386
 Alpha virt. eigenvalues --   -0.00090   0.00124   0.00279   0.00599   0.00620

  Beta  occ. eigenvalues --  -38.45346 -38.44750 -38.44469 -38.44171 -38.43556
  Beta  occ. eigenvalues --  -38.43448 -38.43397  -2.21168  -2.20530  -2.20311
  Beta  occ. eigenvalues --   -2.19989  -2.19398  -2.19231  -2.19187  -1.14881
  Beta  occ. eigenvalues --   -1.14819  -1.14789  -1.14200  -1.14178  -1.14163
  Beta  occ. eigenvalues --   -1.14021  -1.13993  -1.13956  -1.13687  -1.13642
  Beta  occ. eigenvalues --   -1.13626  -1.13093  -1.13043  -1.13023  -1.12949
  Beta  occ. eigenvalues --   -1.12919  -1.12886  -1.12880  -1.12852  -1.12836
  Beta  occ. eigenvalues --   -0.17141  -0.13662  -0.11214
  Beta virt. eigenvalues --   -0.07217  -0.07059  -0.05318  -0.03324  -0.03135
  Beta virt. eigenvalues --   -0.02936  -0.02277  -0.01514  -0.01447  -0.00417
  Beta virt. eigenvalues --   -0.00156   0.00021   0.00143   0.00417   0.00637

 Mulliken charges and spin densities:
               1          2
     1  Na   0.699777   0.160418
     2  Na   0.442618   0.197467
     3  Na   0.015955  -0.127755
     4  Na  -0.100067   0.007064
     5  Na  -0.603220   0.232225
     6  Na  -0.303895   0.171119
     7  Na  -0.151169   0.359461
 Sum of Mulliken charges =  -0.00000   1.00000

 Dipole moment (field-independent basis, Debye):
    X=              0.2111    Y=             -0.3526    Z=             -0.1532  Tot=              0.4385
 Quadrupole moment (field-independent basis, Debye-Ang):
   XX=            -49.6466   YY=            -73.5581   ZZ=            -73.1404
   XY=              0.5303   XZ=              1.4192   YZ=             -2.7285

 Normal termination of Gaussian 16 at Mon Dec  4 01:48:14 2023.
