 Gaussian 16, Revision B.01,
 Gaussian 16:  ES64L-G16RevB.01 20-Dec-2017

 -------------------------
 #P B3LYP/6-311+g(d) force
 -------------------------

 -----
 DPGEN
 -----
 Symbolic Z-matrix:
 Charge =  0 Multiplicity = 2

                         Standard orientation:
 ---------------------------------------------------------------------
 Center     Atomic      Atomic             Coordinates (Angstroms)
 Number     Number       Type             X           Y           Z
 ---------------------------------------------------------------------
      1         11           0        1.431939   -2.411705   -0.066823
      2         11           0       -2.472795   -1.995368    0.102552
      3         11           0        0.440005    2.899636   -0.184518
      4         11           0       -2.980168    1.170130    0.068963
      5         11           0        0.352313    0.200011    2.005723
      6         11           0       -0.091781   -0.059859   -1.853389
      7         11           0        3.320487    0.197154   -0.072508
 ---------------------------------------------------------------------

 SCF Done:  E(UB3LYP) =  -1136.13588968     A.U. after   19 cycles

 The electronic state is 2-A.
 Alpha  occ. eigenvalues --  -38.44689 -38.44296 -38.43720 -38.43674 -38.43505
 Alpha  occ. eigenvalues --  -38.43231 -38.43011  -2.20508  -2.20115  -2.19599
 Alpha  occ. eigenvalues --   -2.19497  -2.19419  -2.19107  -2.18838  -1.14181
 Alpha  occ. eigenvalues --   -1.14175  -1.14145  -1.13797  -1.13786  -1.13749
 Alpha  occ. eigenvalues --   -1.13272  -1.13232  -1.13217  -1.13168  -1.13161
 Alpha  occ. eigenvalues --   -1.13141  -1.13102  -1.13062  -1.13034  -1.12788
 Alpha  occ. eigenvalues --   -1.12769  -1.12738  -1.12517  -1.12509  -1.12467
 Alpha  occ. eigenvalues --   -0.18419  -0.13322  -0.12006  -0.10744
 Alpha virt. eigenvalues --   -0.06180  -0.05138  -0.04395  -0.03389  -0.02794
 Alpha virt. eigenvalues --   -0.02611  -0.01889  -0.01041  -0.00445  -0.00330
 Alpha virt. eigenvalues --   -0.00054   0.00364   0.00742   0.00797   0.00862

  Beta  occ. eigenvalues --  -38.44687 -38.44295 -38.43673 -38.43635 -38.43426
  Beta  occ. eigenvalues --  -38.43223 -38.43006  -2.20508  -2.20115  -2.19498
  Beta  occ. eigenvalues --   -2.19442  -2.19275  -2.19097  -2.18832  -1.14185
  Beta  occ. eigenvalues --   -1.14151  -1.14147  -1.13800  -1.13767  -1.13753
  Beta  occ. eigenvalues --   -1.13172  -1.13166  -1.13143  -1.13142  -1.13119
  Beta  occ. eigenvalues --   -1.13104  -1.13009  -1.12958  -1.12931  -1.12780
  Beta  occ. eigenvalues --   -1.12737  -1.12728  -1.12513  -1.12481  -1.12467
  Beta  occ. eigenvalues --   -0.17673  -0.13132  -0.11770
  Beta virt. eigenvalues --   -0.06853  -0.06095  -0.05166  -0.04343  -0.02614
  Beta virt. eigenvalues --   -0.02005  -0.01785  -0.01581  -0.00985  -0.00502
  Beta virt. eigenvalues --   -0.00375   0.00100   0.00383   0.00810   0.00854

 Mulliken charges and spin densities:
               1          2
     1  Na   0.129097  -0.067153
     2  Na   0.026647  -0.074223
     3  Na  -0.010082  -0.167725
     4  Na   0.098532  -0.078421
     5  Na  -0.362968   0.764752
     6  Na  -0.144231   0.692324
     7  Na   0.263006  -0.069555
 Sum of Mulliken charges =  -0.00000   1.00000

 Dipole moment (field-independent basis, Debye):
    X=              0.1782    Y=              0.1066    Z=              0.0659  Tot=              0.2178
 Quadrupole moment (field-independent basis, Debye-Ang):
   XX=            -53.3360   YY=            -66.2028   ZZ=            -74.2198
   XY=              0.2641   XZ=             -0.9590   YZ=             -0.5930

 Normal termination of Gaussian 16 at Tue Dec  5 10:49:11 2023.
