 Gaussian 16, Revision B.01,
 Gaussian 16:  ES64L-G16RevB.01 20-Dec-2017

 -------------------------
 #P B3LYP/6-311+g(d) force
 -------------------------

 -----
 DPGEN
 -----
 Symbolic Z-matrix:
 Charge =  0 Multiplicity = 2

                         Standard orientation:
 ---------------------------------------------------------------------
 Center     Atomic      Atomic             Coordinates (Angstroms)
 Number     Number       Type             X           Y           Z
 ---------------------------------------------------------------------
      1         11           0        3.372471    0.714270   -0.278518
      2         11           0        1.718757   -2.479429    0.680917
      3         11           0       -3.172223    0.972301   -0.158538
      4         11           0       -2.038284   -1.888397   -0.195678
      5         11           0        0.143826   -0.597601   -1.789756
      6         11           0       -0.491987    0.373942    1.760916
      7         11           0        0.467441    2.904914   -0.019342
 ---------------------------------------------------------------------

 SCF Done:  E(UB3LYP) =  -1136.13051551     A.U. after   20 cycles

 The electronic state is 2-A.
 Alpha  occ. eigenvalues --  -38.44701 -38.44478 -38.43607 -38.43546 -38.43532
 Alpha  occ. eigenvalues --  -38.43332 -38.43272  -2.20472  -2.20328  -2.19530
 Alpha  occ. eigenvalues --   -2.19487  -2.19348  -2.19212  -2.19147  -1.14151
 Alpha  occ. eigenvalues --   -1.14119  -1.14115  -1.14030  -1.13983  -1.13962
 Alpha  occ. eigenvalues --   -1.13348  -1.13185  -1.13152  -1.13142  -1.13100
 Alpha  occ. eigenvalues --   -1.13071  -1.13016  -1.13000  -1.12986  -1.12925
 Alpha  occ. eigenvalues --   -1.12875  -1.12828  -1.12814  -1.12791  -1.12763
 Alpha  occ. eigenvalues --   -0.18499  -0.13324  -0.12151  -0.10553
 Alpha virt. eigenvalues --   -0.06285  -0.05176  -0.04497  -0.03308  -0.02846
 Alpha virt. eigenvalues --   -0.02259  -0.01941  -0.01151  -0.00444  -0.00339
 Alpha virt. eigenvalues --   -0.00021   0.00324   0.00711   0.00798   0.00851

  Beta  occ. eigenvalues --  -38.44697 -38.44474 -38.43542 -38.43532 -38.43513
  Beta  occ. eigenvalues --  -38.43330 -38.43199  -2.20467  -2.20323  -2.19471
  Beta  occ. eigenvalues --   -2.19407  -2.19314  -2.19147  -2.19079  -1.14135
  Beta  occ. eigenvalues --   -1.14118  -1.14114  -1.14031  -1.13963  -1.13953
  Beta  occ. eigenvalues --   -1.13296  -1.13131  -1.13098  -1.13081  -1.13054
  Beta  occ. eigenvalues --   -1.13009  -1.12983  -1.12968  -1.12962  -1.12880
  Beta  occ. eigenvalues --   -1.12807  -1.12790  -1.12769  -1.12741  -1.12710
  Beta  occ. eigenvalues --   -0.17791  -0.13095  -0.11907
  Beta virt. eigenvalues --   -0.06743  -0.06205  -0.05113  -0.04387  -0.02618
  Beta virt. eigenvalues --   -0.02125  -0.01853  -0.01305  -0.01058  -0.00452
  Beta virt. eigenvalues --   -0.00355   0.00122   0.00362   0.00786   0.00857

 Mulliken charges and spin densities:
               1          2
     1  Na  -0.045546  -0.050065
     2  Na  -0.141094   0.037082
     3  Na   0.018181  -0.112097
     4  Na   0.572677   0.213046
     5  Na  -0.190328   0.452022
     6  Na  -0.073114   0.597158
     7  Na  -0.140776  -0.137146
 Sum of Mulliken charges =  -0.00000   1.00000

 Dipole moment (field-independent basis, Debye):
    X=              0.1355    Y=              0.1607    Z=             -0.0856  Tot=              0.2270
 Quadrupole moment (field-independent basis, Debye-Ang):
   XX=            -52.0334   YY=            -66.1427   ZZ=            -74.9041
   XY=             -1.3869   XZ=              0.9209   YZ=             -2.4285

 Normal termination of Gaussian 16 at Thu Dec  7 01:44:15 2023.
