 Gaussian 16, Revision B.01,
 Gaussian 16:  ES64L-G16RevB.01 20-Dec-2017

 -------------------------
 #P B3LYP/6-311+g(d) force
 -------------------------

 -----
 DPGEN
 -----
 Symbolic Z-matrix:
 Charge =  0 Multiplicity = 2

                         Standard orientation:
 ---------------------------------------------------------------------
 Center     Atomic      Atomic             Coordinates (Angstroms)
 Number     Number       Type             X           Y           Z
 ---------------------------------------------------------------------
      1         11           0        3.187446   -0.498642   -0.073451
      2         11           0       -2.265111    1.790616   -0.195410
      3         11           0        0.360257   -2.661265    0.098166
      4         11           0        0.022019   -0.219533   -1.644769
      5         11           0       -2.630892   -1.226463   -0.067376
      6         11           0        1.363998    2.488667   -0.223938
      7         11           0       -0.037717    0.326619    2.106778
 ---------------------------------------------------------------------

 SCF Done:  E(UB3LYP) =  -1136.13650201     A.U. after   18 cycles

 The electronic state is 2-A.
 Alpha  occ. eigenvalues --  -38.44235 -38.43685 -38.43608 -38.43507 -38.43315
 Alpha  occ. eigenvalues --  -38.43218 -38.43000  -2.20052  -2.19583  -2.19534
 Alpha  occ. eigenvalues --   -2.19406  -2.19252  -2.19176  -2.18910  -1.13726
 Alpha  occ. eigenvalues --   -1.13707  -1.13699  -1.13300  -1.13249  -1.13214
 Alpha  occ. eigenvalues --   -1.13208  -1.13206  -1.13171  -1.13074  -1.13046
 Alpha  occ. eigenvalues --   -1.13015  -1.12975  -1.12927  -1.12868  -1.12843
 Alpha  occ. eigenvalues --   -1.12825  -1.12796  -1.12588  -1.12561  -1.12521
 Alpha  occ. eigenvalues --   -0.19118  -0.13255  -0.12405  -0.11012
 Alpha virt. eigenvalues --   -0.05738  -0.04957  -0.04350  -0.03293  -0.02963
 Alpha virt. eigenvalues --   -0.02671  -0.01591  -0.00912  -0.00154  -0.00067
 Alpha virt. eigenvalues --   -0.00028   0.00363   0.00816   0.00931   0.00955

  Beta  occ. eigenvalues --  -38.44234 -38.43601 -38.43586 -38.43500 -38.43309
  Beta  occ. eigenvalues --  -38.43153 -38.42993  -2.20054  -2.19526  -2.19402
  Beta  occ. eigenvalues --   -2.19396  -2.19168  -2.19134  -2.18901  -1.13714
  Beta  occ. eigenvalues --   -1.13704  -1.13703  -1.13294  -1.13205  -1.13149
  Beta  occ. eigenvalues --   -1.13127  -1.13084  -1.13076  -1.13054  -1.13019
  Beta  occ. eigenvalues --   -1.13009  -1.12902  -1.12881  -1.12818  -1.12801
  Beta  occ. eigenvalues --   -1.12795  -1.12761  -1.12574  -1.12524  -1.12520
  Beta  occ. eigenvalues --   -0.18359  -0.13016  -0.12154
  Beta virt. eigenvalues --   -0.07031  -0.05709  -0.04964  -0.04326  -0.02483
  Beta virt. eigenvalues --   -0.02129  -0.01597  -0.01503  -0.00853  -0.00208
  Beta virt. eigenvalues --   -0.00115   0.00118   0.00383   0.00869   0.00920

 Mulliken charges and spin densities:
               1          2
     1  Na   0.089587  -0.069339
     2  Na   0.328736  -0.011667
     3  Na   0.283691   0.009395
     4  Na  -0.501311   0.375517
     5  Na   0.335105   0.053251
     6  Na   0.187490  -0.080978
     7  Na  -0.723298   0.723822
 Sum of Mulliken charges =  -0.00000   1.00000

 Dipole moment (field-independent basis, Debye):
    X=              0.3446    Y=              0.0962    Z=              0.2189  Tot=              0.4194
 Quadrupole moment (field-independent basis, Debye-Ang):
   XX=            -55.7131   YY=            -65.4029   ZZ=            -72.9233
   XY=             -0.2823   XZ=              0.1709   YZ=             -1.1766

 Normal termination of Gaussian 16 at Fri Dec  8 06:05:46 2023.
