 Gaussian 16, Revision B.01,
 Gaussian 16:  ES64L-G16RevB.01 20-Dec-2017

 -------------------------
 #P B3LYP/6-311+g(d) force
 -------------------------

 -----
 DPGEN
 -----
 Symbolic Z-matrix:
 Charge =  0 Multiplicity = 2

                         Standard orientation:
 ---------------------------------------------------------------------
 Center     Atomic      Atomic             Coordinates (Angstroms)
 Number     Number       Type             X           Y           Z
 ---------------------------------------------------------------------
      1         11           0        0.238807    0.344515    2.243012
      2         11           0        2.666942    1.419710   -0.690768
      3         11           0        2.923203   -1.858739    0.334219
      4         11           0       -0.836497    2.879307   -0.413244
      5         11           0       -2.033146   -2.679712   -0.442294
      6         11           0       -3.077120    0.457730    0.248479
      7         11           0        0.117811   -0.562811   -1.279405
 ---------------------------------------------------------------------

 SCF Done:  E(UB3LYP) =  -1136.13196858     A.U. after   21 cycles

 The electronic state is 2-A.
 Alpha  occ. eigenvalues --  -38.44484 -38.44232 -38.44107 -38.44052 -38.43407
 Alpha  occ. eigenvalues --  -38.43144 -38.43099  -2.20281  -2.20070  -2.19951
 Alpha  occ. eigenvalues --   -2.19883  -2.19240  -2.19113  -2.18926  -1.13945
 Alpha  occ. eigenvalues --   -1.13939  -1.13930  -1.13751  -1.13737  -1.13705
 Alpha  occ. eigenvalues --   -1.13647  -1.13605  -1.13565  -1.13547  -1.13518
 Alpha  occ. eigenvalues --   -1.13485  -1.12972  -1.12886  -1.12876  -1.12806
 Alpha  occ. eigenvalues --   -1.12750  -1.12727  -1.12604  -1.12579  -1.12574
 Alpha  occ. eigenvalues --   -0.18159  -0.13396  -0.11972  -0.10666
 Alpha virt. eigenvalues --   -0.06051  -0.05489  -0.04554  -0.03305  -0.02651
 Alpha virt. eigenvalues --   -0.02495  -0.01835  -0.01314  -0.00656  -0.00373
 Alpha virt. eigenvalues --   -0.00061   0.00304   0.00664   0.00759   0.00817

  Beta  occ. eigenvalues --  -38.44478 -38.44230 -38.44085 -38.43948 -38.43403
  Beta  occ. eigenvalues --  -38.43107 -38.43095  -2.20272  -2.20068  -2.19912
  Beta  occ. eigenvalues --   -2.19692  -2.19235  -2.19048  -2.18921  -1.13938
  Beta  occ. eigenvalues --   -1.13930  -1.13914  -1.13745  -1.13733  -1.13700
  Beta  occ. eigenvalues --   -1.13613  -1.13570  -1.13537  -1.13418  -1.13387
  Beta  occ. eigenvalues --   -1.13346  -1.12957  -1.12879  -1.12871  -1.12752
  Beta  occ. eigenvalues --   -1.12702  -1.12684  -1.12601  -1.12575  -1.12555
  Beta  occ. eigenvalues --   -0.17484  -0.13216  -0.11754
  Beta virt. eigenvalues --   -0.06795  -0.05902  -0.05409  -0.04440  -0.02650
  Beta virt. eigenvalues --   -0.02024  -0.01717  -0.01517  -0.01164  -0.00642
  Beta virt. eigenvalues --   -0.00382   0.00121   0.00356   0.00759   0.00769

 Mulliken charges and spin densities:
               1          2
     1  Na  -0.499586   0.665554
     2  Na   0.395947   0.031536
     3  Na  -0.005261   0.130262
     4  Na  -0.080102   0.028666
     5  Na   0.240160   0.057007
     6  Na   0.182822   0.035766
     7  Na  -0.233980   0.051208
 Sum of Mulliken charges =  -0.00000   1.00000

 Dipole moment (field-independent basis, Debye):
    X=              0.4434    Y=             -0.1771    Z=              0.3004  Tot=              0.5642
 Quadrupole moment (field-independent basis, Debye-Ang):
   XX=            -54.3708   YY=            -63.9241   ZZ=            -75.0682
   XY=             -1.5695   XZ=             -0.7129   YZ=             -1.9357

 Normal termination of Gaussian 16 at Thu Dec  7 12:56:25 2023.
