 Gaussian 16, Revision B.01,
 Gaussian 16:  ES64L-G16RevB.01 20-Dec-2017

 -------------------------
 #P B3LYP/6-311+g(d) force
 -------------------------

 -----
 DPGEN
 -----
 Symbolic Z-matrix:
 Charge =  0 Multiplicity = 2

                         Standard orientation:
 ---------------------------------------------------------------------
 Center     Atomic      Atomic             Coordinates (Angstroms)
 Number     Number       Type             X           Y           Z
 ---------------------------------------------------------------------
      1         11           0       -0.865893    1.521309   -0.227682
      2         11           0        0.358934    4.280638    0.383888
      3         11           0        2.694247    1.036374   -0.498022
      4         11           0        4.826286   -2.400938    0.082803
      5         11           0        1.193065   -1.716468   -0.022569
      6         11           0       -2.676379   -1.549935    0.767856
      7         11           0       -5.530260   -1.170981   -0.486275
 ---------------------------------------------------------------------

 SCF Done:  E(UB3LYP) =  -1136.11943775     A.U. after   20 cycles

 The electronic state is 2-A.
 Alpha  occ. eigenvalues --  -38.45651 -38.44666 -38.44027 -38.44007 -38.43968
 Alpha  occ. eigenvalues --  -38.43844 -38.43247  -2.21440  -2.20434  -2.19890
 Alpha  occ. eigenvalues --   -2.19823  -2.19782  -2.19699  -2.19071  -1.15176
 Alpha  occ. eigenvalues --   -1.15146  -1.15001  -1.14096  -1.14095  -1.14033
 Alpha  occ. eigenvalues --   -1.13628  -1.13576  -1.13559  -1.13471  -1.13459
 Alpha  occ. eigenvalues --   -1.13436  -1.13417  -1.13414  -1.13412  -1.13398
 Alpha  occ. eigenvalues --   -1.13381  -1.13273  -1.12753  -1.12744  -1.12717
 Alpha  occ. eigenvalues --   -0.16825  -0.13528  -0.12948  -0.10524
 Alpha virt. eigenvalues --   -0.06832  -0.05119  -0.04556  -0.03811  -0.02871
 Alpha virt. eigenvalues --   -0.02357  -0.01942  -0.01622  -0.01426  -0.00998
 Alpha virt. eigenvalues --   -0.00303   0.00025   0.00207   0.00336   0.00570

  Beta  occ. eigenvalues --  -38.45658 -38.44614 -38.44017 -38.43984 -38.43893
  Beta  occ. eigenvalues --  -38.43805 -38.43247  -2.21454  -2.20336  -2.19876
  Beta  occ. eigenvalues --   -2.19781  -2.19642  -2.19630  -2.19078  -1.15170
  Beta  occ. eigenvalues --   -1.15157  -1.15015  -1.14028  -1.14027  -1.13971
  Beta  occ. eigenvalues --   -1.13607  -1.13565  -1.13542  -1.13442  -1.13428
  Beta  occ. eigenvalues --   -1.13375  -1.13370  -1.13346  -1.13338  -1.13321
  Beta  occ. eigenvalues --   -1.13318  -1.13193  -1.12766  -1.12755  -1.12664
  Beta  occ. eigenvalues --   -0.16300  -0.13039  -0.12508
  Beta virt. eigenvalues --   -0.07284  -0.06411  -0.04815  -0.04213  -0.03601
  Beta virt. eigenvalues --   -0.02689  -0.02112  -0.01738  -0.01368  -0.00980
  Beta virt. eigenvalues --   -0.00706  -0.00104   0.00268   0.00341   0.00481

 Mulliken charges and spin densities:
               1          2
     1  Na  -1.309554  -0.109983
     2  Na   0.806141   0.168536
     3  Na   0.325495   0.107481
     4  Na   0.962052   0.335697
     5  Na  -1.163162   0.220641
     6  Na   0.032788  -0.091888
     7  Na   0.346240   0.369517
 Sum of Mulliken charges =  -0.00000   1.00000

 Dipole moment (field-independent basis, Debye):
    X=              1.5344    Y=              0.4706    Z=             -0.0873  Tot=              1.6073
 Quadrupole moment (field-independent basis, Debye-Ang):
   XX=            -62.6508   YY=            -62.0242   ZZ=            -71.7106
   XY=             -3.6826   XZ=              2.1108   YZ=             -0.2233

 Normal termination of Gaussian 16 at Tue Nov 28 21:07:58 2023.
