 Gaussian 16, Revision B.01,
 Gaussian 16:  ES64L-G16RevB.01 20-Dec-2017

 -------------------------
 #P B3LYP/6-311+g(d) force
 -------------------------

 -----
 DPGEN
 -----
 Symbolic Z-matrix:
 Charge =  0 Multiplicity = 2

                         Standard orientation:
 ---------------------------------------------------------------------
 Center     Atomic      Atomic             Coordinates (Angstroms)
 Number     Number       Type             X           Y           Z
 ---------------------------------------------------------------------
      1         11           0        1.078326   -1.701281    1.340316
      2         11           0       -1.004209    2.422006   -0.864722
      3         11           0       -3.285680   -1.339083   -0.651938
      4         11           0        1.493304    1.681239    0.704264
      5         11           0       -0.261207   -0.815252   -1.310588
      6         11           0        3.524731   -0.638909   -0.915247
      7         11           0       -1.545265    0.391280    1.697916
 ---------------------------------------------------------------------

 SCF Done:  E(UB3LYP) =  -1136.12890843     A.U. after   21 cycles

 The electronic state is 2-A.
 Alpha  occ. eigenvalues --  -38.44426 -38.43988 -38.43751 -38.43579 -38.43494
 Alpha  occ. eigenvalues --  -38.42893 -38.42886  -2.20238  -2.19820  -2.19669
 Alpha  occ. eigenvalues --   -2.19538  -2.19484  -2.18842  -2.18798  -1.13903
 Alpha  occ. eigenvalues --   -1.13896  -1.13863  -1.13519  -1.13480  -1.13451
 Alpha  occ. eigenvalues --   -1.13431  -1.13333  -1.13267  -1.13225  -1.13191
 Alpha  occ. eigenvalues --   -1.13162  -1.13137  -1.13134  -1.13072  -1.12615
 Alpha  occ. eigenvalues --   -1.12525  -1.12478  -1.12455  -1.12431  -1.12362
 Alpha  occ. eigenvalues --   -0.19047  -0.13493  -0.11668  -0.11376
 Alpha virt. eigenvalues --   -0.06235  -0.04770  -0.04157  -0.03265  -0.02722
 Alpha virt. eigenvalues --   -0.02576  -0.02042  -0.00951  -0.00549   0.00162
 Alpha virt. eigenvalues --    0.00241   0.00397   0.00496   0.00823   0.00902

  Beta  occ. eigenvalues --  -38.44407 -38.43979 -38.43703 -38.43523 -38.43456
  Beta  occ. eigenvalues --  -38.42882 -38.42869  -2.20203  -2.19805  -2.19585
  Beta  occ. eigenvalues --   -2.19438  -2.19418  -2.18826  -2.18767  -1.13879
  Beta  occ. eigenvalues --   -1.13866  -1.13842  -1.13500  -1.13471  -1.13437
  Beta  occ. eigenvalues --   -1.13378  -1.13252  -1.13201  -1.13162  -1.13110
  Beta  occ. eigenvalues --   -1.13090  -1.13080  -1.13071  -1.13025  -1.12604
  Beta  occ. eigenvalues --   -1.12496  -1.12452  -1.12426  -1.12407  -1.12346
  Beta  occ. eigenvalues --   -0.18256  -0.13278  -0.11484
  Beta virt. eigenvalues --   -0.07370  -0.06038  -0.04617  -0.03807  -0.02984
  Beta virt. eigenvalues --   -0.02167  -0.01958  -0.01551  -0.00799  -0.00273
  Beta virt. eigenvalues --    0.00205   0.00270   0.00459   0.00620   0.00853

 Mulliken charges and spin densities:
               1          2
     1  Na  -0.128812   0.230129
     2  Na  -0.135485  -0.018883
     3  Na  -0.035910   0.023373
     4  Na  -0.093823   0.303940
     5  Na  -0.310582   0.389877
     6  Na   0.392699  -0.065023
     7  Na   0.311913   0.136587
 Sum of Mulliken charges =  -0.00000   1.00000

 Dipole moment (field-independent basis, Debye):
    X=              0.2205    Y=             -0.1849    Z=             -0.0856  Tot=              0.3003
 Quadrupole moment (field-independent basis, Debye-Ang):
   XX=            -51.6889   YY=            -73.2980   ZZ=            -67.7658
   XY=             -0.5312   XZ=             -1.5117   YZ=             -1.1156

 Normal termination of Gaussian 16 at Tue Dec  5 23:12:57 2023.
