 Gaussian 16, Revision B.01,
 Gaussian 16:  ES64L-G16RevB.01 20-Dec-2017

 -------------------------
 #P B3LYP/6-311+g(d) force
 -------------------------

 -----
 DPGEN
 -----
 Symbolic Z-matrix:
 Charge =  0 Multiplicity = 2

                         Standard orientation:
 ---------------------------------------------------------------------
 Center     Atomic      Atomic             Coordinates (Angstroms)
 Number     Number       Type             X           Y           Z
 ---------------------------------------------------------------------
      1         11           0       -1.903750   -1.823189   -0.661090
      2         11           0        1.038366    0.194898    1.283391
      3         11           0        1.560904    3.148417   -0.589992
      4         11           0       -1.563670    1.890952   -0.017755
      5         11           0       -4.568355   -0.057798    0.231909
      6         11           0        3.904927   -0.319822   -0.110014
      7         11           0        1.531579   -3.033459   -0.136449
 ---------------------------------------------------------------------

 SCF Done:  E(UB3LYP) =  -1136.12843963     A.U. after   20 cycles

 The electronic state is 2-A.
 Alpha  occ. eigenvalues --  -38.44518 -38.44270 -38.43984 -38.43782 -38.43694
 Alpha  occ. eigenvalues --  -38.43554 -38.43405  -2.20408  -2.20063  -2.19804
 Alpha  occ. eigenvalues --   -2.19638  -2.19503  -2.19403  -2.19245  -1.14118
 Alpha  occ. eigenvalues --   -1.14101  -1.14010  -1.13743  -1.13716  -1.13706
 Alpha  occ. eigenvalues --   -1.13503  -1.13480  -1.13430  -1.13351  -1.13332
 Alpha  occ. eigenvalues --   -1.13218  -1.13185  -1.13160  -1.13141  -1.13066
 Alpha  occ. eigenvalues --   -1.13043  -1.13004  -1.12897  -1.12887  -1.12856
 Alpha  occ. eigenvalues --   -0.17317  -0.13950  -0.12713  -0.10085
 Alpha virt. eigenvalues --   -0.06385  -0.05553  -0.04743  -0.03278  -0.02732
 Alpha virt. eigenvalues --   -0.02371  -0.01978  -0.01140  -0.01008  -0.00652
 Alpha virt. eigenvalues --   -0.00274  -0.00045   0.00516   0.00565   0.00723

  Beta  occ. eigenvalues --  -38.44507 -38.44277 -38.43968 -38.43769 -38.43680
  Beta  occ. eigenvalues --  -38.43474 -38.43335  -2.20392  -2.20077  -2.19779
  Beta  occ. eigenvalues --   -2.19618  -2.19481  -2.19253  -2.19113  -1.14099
  Beta  occ. eigenvalues --   -1.14066  -1.14005  -1.13755  -1.13721  -1.13705
  Beta  occ. eigenvalues --   -1.13489  -1.13466  -1.13374  -1.13336  -1.13314
  Beta  occ. eigenvalues --   -1.13191  -1.13174  -1.13148  -1.13098  -1.12965
  Beta  occ. eigenvalues --   -1.12942  -1.12906  -1.12807  -1.12796  -1.12774
  Beta  occ. eigenvalues --   -0.16845  -0.13272  -0.12339
  Beta virt. eigenvalues --   -0.06694  -0.06239  -0.05459  -0.04355  -0.02649
  Beta virt. eigenvalues --   -0.02473  -0.02282  -0.01434  -0.01021  -0.00868
  Beta virt. eigenvalues --   -0.00497   0.00057   0.00271   0.00645   0.00686

 Mulliken charges and spin densities:
               1          2
     1  Na  -0.369594   0.093328
     2  Na   0.388788   0.032563
     3  Na  -0.027583  -0.031059
     4  Na  -0.458030  -0.008284
     5  Na   0.534640   0.409182
     6  Na  -0.087168   0.493475
     7  Na   0.018948   0.010795
 Sum of Mulliken charges =  -0.00000   1.00000

 Dipole moment (field-independent basis, Debye):
    X=              0.3806    Y=              0.4055    Z=             -0.3522  Tot=              0.6583
 Quadrupole moment (field-independent basis, Debye-Ang):
   XX=            -71.4614   YY=            -62.6952   ZZ=            -67.4131
   XY=              1.2346   XZ=             -2.9034   YZ=             -0.6677

 Normal termination of Gaussian 16 at Tue Nov 28 22:09:12 2023.
