 Gaussian 16, Revision B.01,
 Gaussian 16:  ES64L-G16RevB.01 20-Dec-2017

 -------------------------
 #P B3LYP/6-311+g(d) force
 -------------------------

 -----
 DPGEN
 -----
 Symbolic Z-matrix:
 Charge =  0 Multiplicity = 2

                         Standard orientation:
 ---------------------------------------------------------------------
 Center     Atomic      Atomic             Coordinates (Angstroms)
 Number     Number       Type             X           Y           Z
 ---------------------------------------------------------------------
      1         11           0        0.087626   -0.042605    2.105092
      2         11           0       -0.950946    1.022433   -1.215078
      3         11           0       -3.832634    0.810017    0.470471
      4         11           0        1.943272    2.259117   -0.289567
      5         11           0        3.820097   -0.884257    0.480522
      6         11           0       -2.164100   -2.005365   -0.273467
      7         11           0        1.096685   -1.159340   -1.277972
 ---------------------------------------------------------------------

 SCF Done:  E(UB3LYP) =  -1136.11459146     A.U. after   31 cycles

 The electronic state is 2-A.
 Alpha  occ. eigenvalues --  -38.45797 -38.45525 -38.45183 -38.43373 -38.43087
 Alpha  occ. eigenvalues --  -38.42832 -38.42744  -2.21587  -2.21326  -2.20975
 Alpha  occ. eigenvalues --   -2.19238  -2.19049  -2.18748  -2.18677  -1.15279
 Alpha  occ. eigenvalues --   -1.15223  -1.15199  -1.14998  -1.14978  -1.14961
 Alpha  occ. eigenvalues --   -1.14656  -1.14622  -1.14604  -1.12930  -1.12903
 Alpha  occ. eigenvalues --   -1.12879  -1.12829  -1.12690  -1.12647  -1.12446
 Alpha  occ. eigenvalues --   -1.12392  -1.12389  -1.12340  -1.12319  -1.12292
 Alpha  occ. eigenvalues --   -0.18607  -0.14149  -0.11161  -0.10679
 Alpha virt. eigenvalues --   -0.07712  -0.05140  -0.04291  -0.03208  -0.03024
 Alpha virt. eigenvalues --   -0.02377  -0.02161  -0.01192  -0.01015  -0.00330
 Alpha virt. eigenvalues --   -0.00082   0.00179   0.00272   0.00608   0.00689

  Beta  occ. eigenvalues --  -38.45740 -38.45512 -38.45164 -38.43364 -38.43034
  Beta  occ. eigenvalues --  -38.42829 -38.42692  -2.21480  -2.21302  -2.20939
  Beta  occ. eigenvalues --   -2.19225  -2.18956  -2.18674  -2.18661  -1.15204
  Beta  occ. eigenvalues --   -1.15150  -1.15118  -1.14980  -1.14962  -1.14941
  Beta  occ. eigenvalues --   -1.14629  -1.14598  -1.14576  -1.12916  -1.12893
  Beta  occ. eigenvalues --   -1.12852  -1.12749  -1.12613  -1.12586  -1.12398
  Beta  occ. eigenvalues --   -1.12352  -1.12332  -1.12318  -1.12297  -1.12248
  Beta  occ. eigenvalues --   -0.17855  -0.13921  -0.10453
  Beta virt. eigenvalues --   -0.07548  -0.07174  -0.05165  -0.03753  -0.02831
  Beta virt. eigenvalues --   -0.02759  -0.01666  -0.01593  -0.01108  -0.00701
  Beta virt. eigenvalues --   -0.00316  -0.00027   0.00202   0.00441   0.00678

 Mulliken charges and spin densities:
               1          2
     1  Na  -0.463900   0.423626
     2  Na  -0.022856   0.134083
     3  Na   0.289576   0.166523
     4  Na  -0.093610  -0.016691
     5  Na   0.264929   0.215680
     6  Na   0.212111   0.066148
     7  Na  -0.186250   0.010630
 Sum of Mulliken charges =  -0.00000   1.00000

 Dipole moment (field-independent basis, Debye):
    X=             -0.3907    Y=              0.0998    Z=              0.9971  Tot=              1.0755
 Quadrupole moment (field-independent basis, Debye-Ang):
   XX=            -43.8926   YY=            -78.4266   ZZ=            -70.0738
   XY=             -0.2091   XZ=             -0.3645   YZ=              0.7348

 Normal termination of Gaussian 16 at Thu Dec  7 06:15:58 2023.
