 Gaussian 16, Revision B.01,
 Gaussian 16:  ES64L-G16RevB.01 20-Dec-2017

 -------------------------
 #P B3LYP/6-311+g(d) force
 -------------------------

 -----
 DPGEN
 -----
 Symbolic Z-matrix:
 Charge =  0 Multiplicity = 2

                         Standard orientation:
 ---------------------------------------------------------------------
 Center     Atomic      Atomic             Coordinates (Angstroms)
 Number     Number       Type             X           Y           Z
 ---------------------------------------------------------------------
      1         11           0        3.140685    1.111151    0.337919
      2         11           0       -0.597893    0.556995   -1.816920
      3         11           0        2.559417   -2.205692   -0.350651
      4         11           0       -0.504145   -2.317538    0.218507
      5         11           0       -3.365840   -0.558554   -0.375221
      6         11           0       -1.146828    0.252802    2.104051
      7         11           0       -0.085395    3.160836   -0.117685
 ---------------------------------------------------------------------

 SCF Done:  E(UB3LYP) =  -1136.12661937     A.U. after   21 cycles

 The electronic state is 2-A.
 Alpha  occ. eigenvalues --  -38.44950 -38.44699 -38.43940 -38.43717 -38.43485
 Alpha  occ. eigenvalues --  -38.43447 -38.43395  -2.20701  -2.20545  -2.19816
 Alpha  occ. eigenvalues --   -2.19625  -2.19309  -2.19301  -2.19272  -1.14386
 Alpha  occ. eigenvalues --   -1.14363  -1.14331  -1.14218  -1.14201  -1.14189
 Alpha  occ. eigenvalues --   -1.13497  -1.13443  -1.13423  -1.13303  -1.13285
 Alpha  occ. eigenvalues --   -1.13252  -1.13054  -1.12996  -1.12981  -1.12972
 Alpha  occ. eigenvalues --   -1.12953  -1.12928  -1.12921  -1.12913  -1.12861
 Alpha  occ. eigenvalues --   -0.18135  -0.13124  -0.12355  -0.10881
 Alpha virt. eigenvalues --   -0.06469  -0.05054  -0.04668  -0.03313  -0.02918
 Alpha virt. eigenvalues --   -0.02774  -0.01927  -0.00921  -0.00674  -0.00281
 Alpha virt. eigenvalues --   -0.00079   0.00292   0.00579   0.00719   0.00860

  Beta  occ. eigenvalues --  -38.44951 -38.44688 -38.43845 -38.43646 -38.43483
  Beta  occ. eigenvalues --  -38.43448 -38.43383  -2.20703  -2.20529  -2.19641
  Beta  occ. eigenvalues --   -2.19496  -2.19299  -2.19293  -2.19274  -1.14382
  Beta  occ. eigenvalues --   -1.14365  -1.14336  -1.14200  -1.14190  -1.14157
  Beta  occ. eigenvalues --   -1.13378  -1.13327  -1.13296  -1.13219  -1.13197
  Beta  occ. eigenvalues --   -1.13158  -1.13050  -1.12981  -1.12964  -1.12941
  Beta  occ. eigenvalues --   -1.12935  -1.12928  -1.12915  -1.12911  -1.12857
  Beta  occ. eigenvalues --   -0.17411  -0.12968  -0.12160
  Beta virt. eigenvalues --   -0.06952  -0.06371  -0.04931  -0.04571  -0.02653
  Beta virt. eigenvalues --   -0.02267  -0.01865  -0.01746  -0.00902  -0.00657
  Beta virt. eigenvalues --   -0.00227   0.00101   0.00357   0.00751   0.00768

 Mulliken charges and spin densities:
               1          2
     1  Na  -0.101091   0.011769
     2  Na   0.233563   0.446927
     3  Na  -0.154852  -0.128851
     4  Na  -0.016631   0.233611
     5  Na   0.349714   0.021769
     6  Na  -0.062639   0.444037
     7  Na  -0.248064  -0.029263
 Sum of Mulliken charges =  -0.00000   1.00000

 Dipole moment (field-independent basis, Debye):
    X=             -0.3171    Y=              0.3431    Z=              0.0892  Tot=              0.4756
 Quadrupole moment (field-independent basis, Debye-Ang):
   XX=            -54.3501   YY=            -67.4744   ZZ=            -73.6035
   XY=              1.8171   XZ=              1.1533   YZ=              1.7742

 Normal termination of Gaussian 16 at Sun Dec  3 21:35:30 2023.
