 Gaussian 16, Revision B.01,
 Gaussian 16:  ES64L-G16RevB.01 20-Dec-2017

 -------------------------
 #P B3LYP/6-311+g(d) force
 -------------------------

 -----
 DPGEN
 -----
 Symbolic Z-matrix:
 Charge =  0 Multiplicity = 2

                         Standard orientation:
 ---------------------------------------------------------------------
 Center     Atomic      Atomic             Coordinates (Angstroms)
 Number     Number       Type             X           Y           Z
 ---------------------------------------------------------------------
      1         11           0       -0.288500    0.248096   -1.605149
      2         11           0        1.707618    2.281202   -0.071815
      3         11           0       -1.768356    2.185876    0.103468
      4         11           0       -2.750050   -0.914949    0.002873
      5         11           0       -0.089785   -2.718789    0.001655
      6         11           0        0.542713   -0.068056    2.044776
      7         11           0        2.646359   -1.013380   -0.475808
 ---------------------------------------------------------------------

 SCF Done:  E(UB3LYP) =  -1136.13667312     A.U. after   19 cycles

 The electronic state is 2-A.
 Alpha  occ. eigenvalues --  -38.43585 -38.43550 -38.43489 -38.43483 -38.43405
 Alpha  occ. eigenvalues --  -38.43152 -38.43114  -2.19515  -2.19451  -2.19407
 Alpha  occ. eigenvalues --   -2.19392  -2.19303  -2.19190  -2.19073  -1.13217
 Alpha  occ. eigenvalues --   -1.13199  -1.13155  -1.13151  -1.13134  -1.13113
 Alpha  occ. eigenvalues --   -1.13102  -1.13088  -1.13084  -1.13051  -1.13033
 Alpha  occ. eigenvalues --   -1.12999  -1.12984  -1.12960  -1.12917  -1.12845
 Alpha  occ. eigenvalues --   -1.12804  -1.12787  -1.12735  -1.12723  -1.12703
 Alpha  occ. eigenvalues --   -0.19422  -0.13127  -0.12831  -0.11073
 Alpha virt. eigenvalues --   -0.05121  -0.05016  -0.04674  -0.03279  -0.03063
 Alpha virt. eigenvalues --   -0.02634  -0.01160  -0.01002  -0.00044  -0.00002
 Alpha virt. eigenvalues --    0.00053   0.00374   0.00911   0.00954   0.00983

  Beta  occ. eigenvalues --  -38.43537 -38.43493 -38.43484 -38.43480 -38.43398
  Beta  occ. eigenvalues --  -38.43146 -38.43049  -2.19430  -2.19401  -2.19389
  Beta  occ. eigenvalues --   -2.19343  -2.19295  -2.19073  -2.19065  -1.13197
  Beta  occ. eigenvalues --   -1.13145  -1.13106  -1.13097  -1.13085  -1.13079
  Beta  occ. eigenvalues --   -1.13061  -1.13035  -1.13027  -1.13008  -1.12998
  Beta  occ. eigenvalues --   -1.12991  -1.12974  -1.12924  -1.12915  -1.12781
  Beta  occ. eigenvalues --   -1.12745  -1.12708  -1.12706  -1.12704  -1.12677
  Beta  occ. eigenvalues --   -0.18668  -0.12875  -0.12567
  Beta virt. eigenvalues --   -0.07086  -0.05118  -0.04980  -0.04652  -0.02470
  Beta virt. eigenvalues --   -0.02233  -0.01543  -0.01082  -0.00939  -0.00058
  Beta virt. eigenvalues --   -0.00023   0.00136   0.00398   0.00943   0.00960

 Mulliken charges and spin densities:
               1          2
     1  Na  -0.602584   0.320611
     2  Na   0.324763  -0.023621
     3  Na   0.328334   0.008253
     4  Na   0.173702  -0.008158
     5  Na   0.277528   0.018051
     6  Na  -0.766811   0.686971
     7  Na   0.265068  -0.002108
 Sum of Mulliken charges =  -0.00000   1.00000

 Dipole moment (field-independent basis, Debye):
    X=              0.1102    Y=              0.1034    Z=              0.2409  Tot=              0.2844
 Quadrupole moment (field-independent basis, Debye-Ang):
   XX=            -59.6147   YY=            -62.5423   ZZ=            -72.4307
   XY=              0.1618   XZ=             -1.7140   YZ=              0.6820

 Normal termination of Gaussian 16 at Fri Dec  8 17:53:03 2023.
