 Gaussian 16, Revision B.01,
 Gaussian 16:  ES64L-G16RevB.01 20-Dec-2017

 -------------------------
 #P B3LYP/6-311+g(d) force
 -------------------------

 -----
 DPGEN
 -----
 Symbolic Z-matrix:
 Charge =  0 Multiplicity = 2

                         Standard orientation:
 ---------------------------------------------------------------------
 Center     Atomic      Atomic             Coordinates (Angstroms)
 Number     Number       Type             X           Y           Z
 ---------------------------------------------------------------------
      1         11           0       -3.649778   -1.637411    0.779896
      2         11           0        2.227038    2.910596    0.560448
      3         11           0       -1.066310    3.127068   -0.390164
      4         11           0       -4.389299    1.087056   -0.494712
      5         11           0        4.390561    0.231580    0.081990
      6         11           0        3.218918   -2.417787   -0.441033
      7         11           0       -0.731130   -3.301102   -0.096425
 ---------------------------------------------------------------------

 SCF Done:  E(UB3LYP) =  -1136.10574598     A.U. after   23 cycles

 The electronic state is 2-A.
 Alpha  occ. eigenvalues --  -38.44999 -38.44874 -38.44874 -38.44538 -38.44294
 Alpha  occ. eigenvalues --  -38.44272 -38.44239  -2.20747  -2.20680  -2.20678
 Alpha  occ. eigenvalues --   -2.20384  -2.20098  -2.20080  -2.20023  -1.14445
 Alpha  occ. eigenvalues --   -1.14429  -1.14422  -1.14379  -1.14375  -1.14347
 Alpha  occ. eigenvalues --   -1.14337  -1.14334  -1.14314  -1.14024  -1.14017
 Alpha  occ. eigenvalues --   -1.14011  -1.13751  -1.13747  -1.13738  -1.13736
 Alpha  occ. eigenvalues --   -1.13718  -1.13716  -1.13675  -1.13668  -1.13642
 Alpha  occ. eigenvalues --   -0.15695  -0.14473  -0.13160  -0.10980
 Alpha virt. eigenvalues --   -0.07756  -0.04713  -0.04440  -0.03720  -0.03582
 Alpha virt. eigenvalues --   -0.02576  -0.02232  -0.01641  -0.01148  -0.00901
 Alpha virt. eigenvalues --   -0.00676  -0.00252   0.00177   0.00439   0.00598

  Beta  occ. eigenvalues --  -38.44985 -38.44867 -38.44861 -38.44506 -38.44271
  Beta  occ. eigenvalues --  -38.44207 -38.44159  -2.20725  -2.20675  -2.20661
  Beta  occ. eigenvalues --   -2.20327  -2.20039  -2.19978  -2.19874  -1.14418
  Beta  occ. eigenvalues --   -1.14410  -1.14410  -1.14364  -1.14350  -1.14336
  Beta  occ. eigenvalues --   -1.14327  -1.14296  -1.14295  -1.13986  -1.13983
  Beta  occ. eigenvalues --   -1.13964  -1.13721  -1.13712  -1.13677  -1.13672
  Beta  occ. eigenvalues --   -1.13655  -1.13639  -1.13574  -1.13568  -1.13542
  Beta  occ. eigenvalues --   -0.15171  -0.13813  -0.12307
  Beta virt. eigenvalues --   -0.07961  -0.07820  -0.04148  -0.03940  -0.03530
  Beta virt. eigenvalues --   -0.03335  -0.02348  -0.02111  -0.01458  -0.00962
  Beta virt. eigenvalues --   -0.00476  -0.00441  -0.00114   0.00293   0.00481

 Mulliken charges and spin densities:
               1          2
     1  Na  -0.245204  -0.025941
     2  Na   0.226280   0.026982
     3  Na  -0.380837   0.105492
     4  Na   0.321131   0.310955
     5  Na   0.077248   0.099627
     6  Na   0.298858   0.078349
     7  Na  -0.297477   0.404537
 Sum of Mulliken charges =  -0.00000   1.00000

 Dipole moment (field-independent basis, Debye):
    X=              0.1140    Y=              0.1633    Z=             -0.0729  Tot=              0.2121
 Quadrupole moment (field-independent basis, Debye-Ang):
   XX=            -60.9550   YY=            -68.6225   ZZ=            -71.7840
   XY=              0.1238   XZ=              0.7801   YZ=             -0.3576

 Normal termination of Gaussian 16 at Sun Dec  3 19:43:31 2023.
