 Gaussian 16, Revision B.01,
 Gaussian 16:  ES64L-G16RevB.01 20-Dec-2017

 -------------------------
 #P B3LYP/6-311+g(d) force
 -------------------------

 -----
 DPGEN
 -----
 Symbolic Z-matrix:
 Charge =  0 Multiplicity = 2

                         Standard orientation:
 ---------------------------------------------------------------------
 Center     Atomic      Atomic             Coordinates (Angstroms)
 Number     Number       Type             X           Y           Z
 ---------------------------------------------------------------------
      1         11           0       -1.993235    1.859822   -0.508101
      2         11           0        0.273542   -1.005603   -1.804363
      3         11           0        1.759596   -2.696728    0.517821
      4         11           0       -0.289418   -0.719246    1.772006
      5         11           0        0.638320    2.681418    0.826628
      6         11           0       -3.618981   -1.050356   -0.168178
      7         11           0        3.230175    0.930694   -0.635813
 ---------------------------------------------------------------------

 SCF Done:  E(UB3LYP) =  -1136.12577229     A.U. after   20 cycles

 The electronic state is 2-A.
 Alpha  occ. eigenvalues --  -38.44781 -38.44648 -38.44127 -38.43849 -38.43693
 Alpha  occ. eigenvalues --  -38.43601 -38.42888  -2.20558  -2.20423  -2.19980
 Alpha  occ. eigenvalues --   -2.19716  -2.19553  -2.19503  -2.18753  -1.14231
 Alpha  occ. eigenvalues --   -1.14211  -1.14188  -1.14092  -1.14089  -1.14060
 Alpha  occ. eigenvalues --   -1.13664  -1.13649  -1.13589  -1.13416  -1.13383
 Alpha  occ. eigenvalues --   -1.13349  -1.13306  -1.13208  -1.13177  -1.13157
 Alpha  occ. eigenvalues --   -1.13125  -1.13093  -1.12440  -1.12407  -1.12382
 Alpha  occ. eigenvalues --   -0.18004  -0.13182  -0.12237  -0.10773
 Alpha virt. eigenvalues --   -0.06580  -0.05242  -0.04164  -0.03468  -0.03082
 Alpha virt. eigenvalues --   -0.02515  -0.02153  -0.01147  -0.00531  -0.00242
 Alpha virt. eigenvalues --    0.00019   0.00285   0.00474   0.00683   0.00815

  Beta  occ. eigenvalues --  -38.44759 -38.44645 -38.44076 -38.43843 -38.43680
  Beta  occ. eigenvalues --  -38.43521 -38.42875  -2.20518  -2.20419  -2.19886
  Beta  occ. eigenvalues --   -2.19708  -2.19533  -2.19356  -2.18731  -1.14194
  Beta  occ. eigenvalues --   -1.14186  -1.14163  -1.14089  -1.14078  -1.14058
  Beta  occ. eigenvalues --   -1.13600  -1.13585  -1.13516  -1.13408  -1.13359
  Beta  occ. eigenvalues --   -1.13348  -1.13259  -1.13188  -1.13153  -1.13066
  Beta  occ. eigenvalues --   -1.13022  -1.12999  -1.12428  -1.12387  -1.12356
  Beta  occ. eigenvalues --   -0.17341  -0.12902  -0.12023
  Beta virt. eigenvalues --   -0.07077  -0.06396  -0.05107  -0.04053  -0.02780
  Beta virt. eigenvalues --   -0.02559  -0.01961  -0.01578  -0.01076  -0.00519
  Beta virt. eigenvalues --   -0.00104   0.00085   0.00333   0.00578   0.00740

 Mulliken charges and spin densities:
               1          2
     1  Na  -0.158500  -0.035069
     2  Na  -0.034584   0.460660
     3  Na   0.175624   0.038871
     4  Na  -0.145323   0.342340
     5  Na   0.176839   0.099161
     6  Na   0.136957   0.104894
     7  Na  -0.151013  -0.010857
 Sum of Mulliken charges =  -0.00000   1.00000

 Dipole moment (field-independent basis, Debye):
    X=             -0.0545    Y=             -0.6052    Z=             -0.2285  Tot=              0.6492
 Quadrupole moment (field-independent basis, Debye-Ang):
   XX=            -54.2068   YY=            -67.6719   ZZ=            -72.8745
   XY=              0.8589   XZ=              0.2188   YZ=             -0.5940

 Normal termination of Gaussian 16 at Mon Dec  4 01:03:04 2023.
