 Gaussian 16, Revision B.01,
 Gaussian 16:  ES64L-G16RevB.01 20-Dec-2017

 -------------------------
 #P B3LYP/6-311+g(d) force
 -------------------------

 -----
 DPGEN
 -----
 Symbolic Z-matrix:
 Charge =  0 Multiplicity = 2

                         Standard orientation:
 ---------------------------------------------------------------------
 Center     Atomic      Atomic             Coordinates (Angstroms)
 Number     Number       Type             X           Y           Z
 ---------------------------------------------------------------------
      1         11           0        0.811359   -1.332296   -1.783029
      2         11           0        2.258346   -0.291111    2.182121
      3         11           0       -2.732999    1.900036    0.573247
      4         11           0        0.292543    2.643043    0.256983
      5         11           0        3.300678    0.495155   -1.587953
      6         11           0       -3.396616   -0.943832   -1.202380
      7         11           0       -0.533312   -2.470995    1.561012
 ---------------------------------------------------------------------

 SCF Done:  E(UB3LYP) =  -1136.11645534     A.U. after   21 cycles

 The electronic state is 2-A.
 Alpha  occ. eigenvalues --  -38.45273 -38.44711 -38.44601 -38.44548 -38.44227
 Alpha  occ. eigenvalues --  -38.43381 -38.43361  -2.21056  -2.20469  -2.20424
 Alpha  occ. eigenvalues --   -2.20369  -2.19993  -2.19179  -2.19174  -1.14724
 Alpha  occ. eigenvalues --   -1.14692  -1.14672  -1.14184  -1.14144  -1.14126
 Alpha  occ. eigenvalues --   -1.14096  -1.14069  -1.14042  -1.14025  -1.14005
 Alpha  occ. eigenvalues --   -1.13957  -1.13672  -1.13655  -1.13617  -1.12945
 Alpha  occ. eigenvalues --   -1.12856  -1.12834  -1.12832  -1.12817  -1.12751
 Alpha  occ. eigenvalues --   -0.16970  -0.13219  -0.12073  -0.11535
 Alpha virt. eigenvalues --   -0.06399  -0.05329  -0.04803  -0.03460  -0.03186
 Alpha virt. eigenvalues --   -0.02981  -0.01877  -0.01242  -0.00704  -0.00287
 Alpha virt. eigenvalues --   -0.00167   0.00045   0.00266   0.00347   0.00634

  Beta  occ. eigenvalues --  -38.45197 -38.44694 -38.44558 -38.44500 -38.44200
  Beta  occ. eigenvalues --  -38.43372 -38.43366  -2.20917  -2.20437  -2.20347
  Beta  occ. eigenvalues --   -2.20282  -2.19946  -2.19187  -2.19161  -1.14624
  Beta  occ. eigenvalues --   -1.14599  -1.14570  -1.14120  -1.14113  -1.14106
  Beta  occ. eigenvalues --   -1.14077  -1.14018  -1.13985  -1.13971  -1.13949
  Beta  occ. eigenvalues --   -1.13886  -1.13637  -1.13629  -1.13568  -1.12943
  Beta  occ. eigenvalues --   -1.12851  -1.12831  -1.12823  -1.12819  -1.12749
  Beta  occ. eigenvalues --   -0.16289  -0.12906  -0.11437
  Beta virt. eigenvalues --   -0.08152  -0.06144  -0.04947  -0.04510  -0.03241
  Beta virt. eigenvalues --   -0.02601  -0.02372  -0.01716  -0.00881  -0.00574
  Beta virt. eigenvalues --   -0.00208  -0.00035   0.00211   0.00337   0.00426

 Mulliken charges and spin densities:
               1          2
     1  Na  -0.462264   0.258483
     2  Na   0.159181   0.219146
     3  Na   0.091678  -0.083422
     4  Na  -0.437314   0.177492
     5  Na   0.586268   0.139583
     6  Na   0.118928   0.035392
     7  Na  -0.056476   0.253325
 Sum of Mulliken charges =  -0.00000   1.00000

 Dipole moment (field-independent basis, Debye):
    X=              0.6934    Y=             -0.5842    Z=             -0.0350  Tot=              0.9074
 Quadrupole moment (field-independent basis, Debye-Ang):
   XX=            -56.1234   YY=            -76.3793   ZZ=            -65.7317
   XY=              4.3446   XZ=              1.7029   YZ=             -0.4651

 Normal termination of Gaussian 16 at Sun Dec  3 19:30:13 2023.
