 Gaussian 16, Revision B.01,
 Gaussian 16:  ES64L-G16RevB.01 20-Dec-2017

 -------------------------
 #P B3LYP/6-311+g(d) force
 -------------------------

 -----
 DPGEN
 -----
 Symbolic Z-matrix:
 Charge =  0 Multiplicity = 2

                         Standard orientation:
 ---------------------------------------------------------------------
 Center     Atomic      Atomic             Coordinates (Angstroms)
 Number     Number       Type             X           Y           Z
 ---------------------------------------------------------------------
      1         11           0       -1.407795   -2.017547   -0.216277
      2         11           0        0.696474   -0.121721    1.582573
      3         11           0        1.092284    3.275714   -0.205889
      4         11           0       -1.907453    1.787274   -0.802430
      5         11           0       -4.330885   -0.417639    0.314142
      6         11           0        3.763146    0.308693    0.033365
      7         11           0        2.094230   -2.814775   -0.705484
 ---------------------------------------------------------------------

 SCF Done:  E(UB3LYP) =  -1136.12454908     A.U. after   23 cycles

 The electronic state is 2-A.
 Alpha  occ. eigenvalues --  -38.45254 -38.44671 -38.44287 -38.43664 -38.43506
 Alpha  occ. eigenvalues --  -38.43454 -38.43347  -2.21086  -2.20449  -2.20101
 Alpha  occ. eigenvalues --   -2.19454  -2.19368  -2.19286  -2.19190  -1.14781
 Alpha  occ. eigenvalues --   -1.14758  -1.14691  -1.14141  -1.14102  -1.14089
 Alpha  occ. eigenvalues --   -1.13804  -1.13775  -1.13722  -1.13133  -1.13110
 Alpha  occ. eigenvalues --   -1.13094  -1.13071  -1.13057  -1.12978  -1.12953
 Alpha  occ. eigenvalues --   -1.12925  -1.12897  -1.12839  -1.12833  -1.12800
 Alpha  occ. eigenvalues --   -0.17303  -0.13848  -0.12605  -0.09886
 Alpha virt. eigenvalues --   -0.06997  -0.05538  -0.04697  -0.03099  -0.02977
 Alpha virt. eigenvalues --   -0.02520  -0.01865  -0.01171  -0.01045  -0.00889
 Alpha virt. eigenvalues --   -0.00150  -0.00077   0.00425   0.00520   0.00739

  Beta  occ. eigenvalues --  -38.45233 -38.44671 -38.44280 -38.43660 -38.43485
  Beta  occ. eigenvalues --  -38.43373 -38.43279  -2.21049  -2.20454  -2.20091
  Beta  occ. eigenvalues --   -2.19450  -2.19335  -2.19136  -2.19063  -1.14746
  Beta  occ. eigenvalues --   -1.14729  -1.14665  -1.14148  -1.14102  -1.14064
  Beta  occ. eigenvalues --   -1.13800  -1.13767  -1.13692  -1.13131  -1.13095
  Beta  occ. eigenvalues --   -1.13091  -1.13049  -1.13031  -1.12932  -1.12852
  Beta  occ. eigenvalues --   -1.12826  -1.12793  -1.12751  -1.12744  -1.12722
  Beta  occ. eigenvalues --   -0.16830  -0.13121  -0.12295
  Beta virt. eigenvalues --   -0.06886  -0.06471  -0.05440  -0.04396  -0.02784
  Beta virt. eigenvalues --   -0.02447  -0.02303  -0.01350  -0.01043  -0.00872
  Beta virt. eigenvalues --   -0.00806   0.00146   0.00210   0.00586   0.00658

 Mulliken charges and spin densities:
               1          2
     1  Na  -0.553788   0.028748
     2  Na   0.449944  -0.020253
     3  Na  -0.022569  -0.037236
     4  Na  -0.261329   0.050849
     5  Na   0.483580   0.434748
     6  Na  -0.096545   0.572078
     7  Na   0.000708  -0.028934
 Sum of Mulliken charges =  -0.00000   1.00000

 Dipole moment (field-independent basis, Debye):
    X=              0.2128    Y=             -0.3255    Z=              0.0012  Tot=              0.3889
 Quadrupole moment (field-independent basis, Debye-Ang):
   XX=            -76.2328   YY=            -63.6275   ZZ=            -64.9739
   XY=             -0.9657   XZ=             -1.9256   YZ=              1.1056

 Normal termination of Gaussian 16 at Tue Nov 28 23:11:05 2023.
