 Gaussian 16, Revision B.01,
 Gaussian 16:  ES64L-G16RevB.01 20-Dec-2017

 -------------------------
 #P B3LYP/6-311+g(d) force
 -------------------------

 -----
 DPGEN
 -----
 Symbolic Z-matrix:
 Charge =  0 Multiplicity = 2

                         Standard orientation:
 ---------------------------------------------------------------------
 Center     Atomic      Atomic             Coordinates (Angstroms)
 Number     Number       Type             X           Y           Z
 ---------------------------------------------------------------------
      1         11           0       -0.043466    1.757663   -0.746948
      2         11           0        2.789333    2.976444    0.442418
      3         11           0        3.201409   -0.509929    1.128672
      4         11           0        2.877864   -2.918754   -0.622790
      5         11           0       -0.333924   -1.441356   -0.356464
      6         11           0       -3.075665    0.880902   -1.011405
      7         11           0       -5.415551   -0.744971    1.166516
 ---------------------------------------------------------------------

 SCF Done:  E(UB3LYP) =  -1136.12036705     A.U. after   22 cycles

 The electronic state is 2-A.
 Alpha  occ. eigenvalues --  -38.45002 -38.44821 -38.44434 -38.44160 -38.43838
 Alpha  occ. eigenvalues --  -38.43431 -38.42947  -2.20796  -2.20652  -2.20284
 Alpha  occ. eigenvalues --   -2.19994  -2.19680  -2.19333  -2.18762  -1.14428
 Alpha  occ. eigenvalues --   -1.14427  -1.14401  -1.14368  -1.14347  -1.14218
 Alpha  occ. eigenvalues --   -1.13999  -1.13948  -1.13910  -1.13692  -1.13656
 Alpha  occ. eigenvalues --   -1.13647  -1.13356  -1.13325  -1.13302  -1.13031
 Alpha  occ. eigenvalues --   -1.13002  -1.12948  -1.12421  -1.12417  -1.12405
 Alpha  occ. eigenvalues --   -0.17052  -0.14278  -0.12203  -0.11390
 Alpha virt. eigenvalues --   -0.06136  -0.05414  -0.04482  -0.03892  -0.02864
 Alpha virt. eigenvalues --   -0.02592  -0.01878  -0.01627  -0.00873  -0.00556
 Alpha virt. eigenvalues --   -0.00249  -0.00041   0.00144   0.00243   0.00651

  Beta  occ. eigenvalues --  -38.44876 -38.44790 -38.44411 -38.44158 -38.43836
  Beta  occ. eigenvalues --  -38.43407 -38.42932  -2.20597  -2.20561  -2.20242
  Beta  occ. eigenvalues --   -2.20001  -2.19678  -2.19293  -2.18735  -1.14327
  Beta  occ. eigenvalues --   -1.14307  -1.14268  -1.14267  -1.14246  -1.14181
  Beta  occ. eigenvalues --   -1.13971  -1.13918  -1.13879  -1.13694  -1.13661
  Beta  occ. eigenvalues --   -1.13610  -1.13350  -1.13324  -1.13299  -1.13004
  Beta  occ. eigenvalues --   -1.12979  -1.12905  -1.12403  -1.12399  -1.12383
  Beta  occ. eigenvalues --   -0.16576  -0.13557  -0.11869
  Beta virt. eigenvalues --   -0.07805  -0.05876  -0.05168  -0.04081  -0.03673
  Beta virt. eigenvalues --   -0.02539  -0.02248  -0.01477  -0.01347  -0.00541
  Beta virt. eigenvalues --   -0.00349   0.00013   0.00075   0.00261   0.00398

 Mulliken charges and spin densities:
               1          2
     1  Na  -0.759037  -0.070375
     2  Na   1.332892   0.323089
     3  Na  -0.432504   0.182476
     4  Na   0.845651   0.035140
     5  Na  -1.140735  -0.029045
     6  Na  -0.111766  -0.095896
     7  Na   0.265500   0.654611
 Sum of Mulliken charges =  -0.00000   1.00000

 Dipole moment (field-independent basis, Debye):
    X=             -0.1005    Y=             -0.9118    Z=             -0.1064  Tot=              0.9235
 Quadrupole moment (field-independent basis, Debye-Ang):
   XX=            -63.7582   YY=            -67.6917   ZZ=            -68.2054
   XY=             -2.5761   XZ=             -0.0892   YZ=             -0.7914

 Normal termination of Gaussian 16 at Wed Nov 29 02:19:19 2023.
