 Gaussian 16, Revision B.01,
 Gaussian 16:  ES64L-G16RevB.01 20-Dec-2017

 -------------------------
 #P B3LYP/6-311+g(d) force
 -------------------------

 -----
 DPGEN
 -----
 Symbolic Z-matrix:
 Charge =  0 Multiplicity = 2

                         Standard orientation:
 ---------------------------------------------------------------------
 Center     Atomic      Atomic             Coordinates (Angstroms)
 Number     Number       Type             X           Y           Z
 ---------------------------------------------------------------------
      1         11           0       -3.154730   -1.813234   -0.670214
      2         11           0        3.034908    0.774669   -1.312954
      3         11           0       -2.748715    1.290585    0.161483
      4         11           0       -0.122404   -0.208944    2.097307
      5         11           0        0.595829   -1.226058   -1.607244
      6         11           0        2.560184   -1.329653    1.375428
      7         11           0       -0.165071    2.512635   -0.043807
 ---------------------------------------------------------------------

 SCF Done:  E(UB3LYP) =  -1136.11891296     A.U. after   24 cycles

 The electronic state is 2-A.
 Alpha  occ. eigenvalues --  -38.44873 -38.44865 -38.44736 -38.44354 -38.43832
 Alpha  occ. eigenvalues --  -38.43220 -38.42583  -2.20777  -2.20718  -2.20626
 Alpha  occ. eigenvalues --   -2.20197  -2.19747  -2.19017  -2.18476  -1.14558
 Alpha  occ. eigenvalues --   -1.14416  -1.14411  -1.14388  -1.14359  -1.14335
 Alpha  occ. eigenvalues --   -1.14260  -1.14249  -1.14215  -1.13876  -1.13871
 Alpha  occ. eigenvalues --   -1.13804  -1.13491  -1.13401  -1.13373  -1.12697
 Alpha  occ. eigenvalues --   -1.12678  -1.12651  -1.12173  -1.12119  -1.12099
 Alpha  occ. eigenvalues --   -0.18420  -0.13921  -0.12318  -0.11193
 Alpha virt. eigenvalues --   -0.06240  -0.05191  -0.04663  -0.03644  -0.03055
 Alpha virt. eigenvalues --   -0.02667  -0.02039  -0.01029  -0.00539  -0.00025
 Alpha virt. eigenvalues --    0.00174   0.00254   0.00417   0.00568   0.00657

  Beta  occ. eigenvalues --  -38.44817 -38.44783 -38.44680 -38.44320 -38.43832
  Beta  occ. eigenvalues --  -38.43222 -38.42581  -2.20631  -2.20616  -2.20527
  Beta  occ. eigenvalues --   -2.20136  -2.19748  -2.19020  -2.18472  -1.14438
  Beta  occ. eigenvalues --   -1.14342  -1.14307  -1.14294  -1.14281  -1.14275
  Beta  occ. eigenvalues --   -1.14190  -1.14172  -1.14125  -1.13837  -1.13815
  Beta  occ. eigenvalues --   -1.13757  -1.13496  -1.13397  -1.13374  -1.12698
  Beta  occ. eigenvalues --   -1.12678  -1.12653  -1.12173  -1.12117  -1.12086
  Beta  occ. eigenvalues --   -0.17673  -0.13717  -0.11076
  Beta virt. eigenvalues --   -0.08102  -0.06099  -0.04987  -0.04133  -0.03202
  Beta virt. eigenvalues --   -0.02394  -0.02094  -0.01873  -0.00769  -0.00359
  Beta virt. eigenvalues --    0.00028   0.00220   0.00315   0.00540   0.00736

 Mulliken charges and spin densities:
               1          2
     1  Na  -0.222961  -0.069946
     2  Na   0.857909   0.273729
     3  Na   0.708778   0.020078
     4  Na   0.087417   0.572026
     5  Na  -0.773644   0.378762
     6  Na   0.031911  -0.118172
     7  Na  -0.689412  -0.056477
 Sum of Mulliken charges =  -0.00000   1.00000

 Dipole moment (field-independent basis, Debye):
    X=              1.3780    Y=             -0.1173    Z=              0.1041  Tot=              1.3869
 Quadrupole moment (field-independent basis, Debye-Ang):
   XX=            -55.0591   YY=            -75.1663   ZZ=            -68.2929
   XY=             -0.3639   XZ=             -1.4419   YZ=             -3.6301

 Normal termination of Gaussian 16 at Sun Dec  3 21:44:33 2023.
