 Gaussian 16, Revision B.01,
 Gaussian 16:  ES64L-G16RevB.01 20-Dec-2017

 -------------------------
 #P B3LYP/6-311+g(d) force
 -------------------------

 -----
 DPGEN
 -----
 Symbolic Z-matrix:
 Charge =  0 Multiplicity = 2

                         Standard orientation:
 ---------------------------------------------------------------------
 Center     Atomic      Atomic             Coordinates (Angstroms)
 Number     Number       Type             X           Y           Z
 ---------------------------------------------------------------------
      1         11           0        2.936665    0.817688   -1.750357
      2         11           0        2.852359   -2.095254    0.365192
      3         11           0       -2.079071    2.327087   -0.202412
      4         11           0       -3.095380   -1.411686   -1.335251
      5         11           0       -0.249412   -0.070419   -0.432875
      6         11           0       -2.148683   -0.827660    1.665305
      7         11           0        1.783522    1.260245    1.690397
 ---------------------------------------------------------------------

 SCF Done:  E(UB3LYP) =  -1136.11099241     A.U. after   25 cycles

 The electronic state is 2-A.
 Alpha  occ. eigenvalues --  -38.44711 -38.44688 -38.44296 -38.44165 -38.43690
 Alpha  occ. eigenvalues --  -38.43660 -38.42940  -2.20588  -2.20527  -2.20073
 Alpha  occ. eigenvalues --   -2.19994  -2.19541  -2.19489  -2.19043  -1.14343
 Alpha  occ. eigenvalues --   -1.14216  -1.14198  -1.14183  -1.14163  -1.14139
 Alpha  occ. eigenvalues --   -1.13746  -1.13738  -1.13710  -1.13693  -1.13649
 Alpha  occ. eigenvalues --   -1.13595  -1.13232  -1.13219  -1.13192  -1.13171
 Alpha  occ. eigenvalues --   -1.13141  -1.13099  -1.12791  -1.12679  -1.12647
 Alpha  occ. eigenvalues --   -0.18104  -0.14302  -0.10680  -0.10485
 Alpha virt. eigenvalues --   -0.06131  -0.05650  -0.05604  -0.02894  -0.02329
 Alpha virt. eigenvalues --   -0.02160  -0.02015  -0.01228  -0.01076  -0.00268
 Alpha virt. eigenvalues --    0.00112   0.00170   0.00266   0.00335   0.00506

  Beta  occ. eigenvalues --  -38.44658 -38.44654 -38.44289 -38.44132 -38.43676
  Beta  occ. eigenvalues --  -38.43656 -38.42916  -2.20533  -2.20419  -2.20062
  Beta  occ. eigenvalues --   -2.19935  -2.19516  -2.19482  -2.19008  -1.14306
  Beta  occ. eigenvalues --   -1.14171  -1.14140  -1.14120  -1.14091  -1.14066
  Beta  occ. eigenvalues --   -1.13738  -1.13718  -1.13700  -1.13656  -1.13587
  Beta  occ. eigenvalues --   -1.13558  -1.13224  -1.13201  -1.13177  -1.13150
  Beta  occ. eigenvalues --   -1.13130  -1.13091  -1.12705  -1.12652  -1.12632
  Beta  occ. eigenvalues --   -0.17436  -0.14027  -0.10383
  Beta virt. eigenvalues --   -0.07111  -0.05875  -0.05389  -0.04928  -0.02721
  Beta virt. eigenvalues --   -0.02082  -0.01767  -0.01499  -0.01099  -0.00562
  Beta virt. eigenvalues --   -0.00116   0.00231   0.00309   0.00347   0.00377

 Mulliken charges and spin densities:
               1          2
     1  Na   0.385484  -0.001691
     2  Na   0.006644   0.003157
     3  Na   0.191339  -0.027665
     4  Na   0.372749  -0.015363
     5  Na  -2.151479   0.560572
     6  Na   0.516134   0.215358
     7  Na   0.679128   0.265631
 Sum of Mulliken charges =  -0.00000   1.00000

 Dipole moment (field-independent basis, Debye):
    X=              0.2765    Y=              0.2723    Z=              0.2917  Tot=              0.4855
 Quadrupole moment (field-independent basis, Debye-Ang):
   XX=            -54.0403   YY=            -73.4906   ZZ=            -65.2203
   XY=             -0.3866   XZ=              0.2811   YZ=             -1.9423

 Normal termination of Gaussian 16 at Fri Dec  8 18:26:19 2023.
