 Gaussian 16, Revision B.01,
 Gaussian 16:  ES64L-G16RevB.01 20-Dec-2017

 -------------------------
 #P B3LYP/6-311+g(d) force
 -------------------------

 -----
 DPGEN
 -----
 Symbolic Z-matrix:
 Charge =  0 Multiplicity = 2

                         Standard orientation:
 ---------------------------------------------------------------------
 Center     Atomic      Atomic             Coordinates (Angstroms)
 Number     Number       Type             X           Y           Z
 ---------------------------------------------------------------------
      1         11           0        0.764545    2.709132    0.600446
      2         11           0        0.353640   -1.486393    0.739429
      3         11           0       -2.047159    1.328589   -0.591028
      4         11           0       -5.329511   -0.702495   -1.184614
      5         11           0        6.367449   -0.548438   -0.239023
      6         11           0        3.211217   -0.519816   -0.686149
      7         11           0       -3.320181   -0.780579    1.360938
 ---------------------------------------------------------------------

 SCF Done:  E(UB3LYP) =  -1136.11354027     A.U. after   21 cycles

 The electronic state is 2-A.
 Alpha  occ. eigenvalues --  -38.45001 -38.44560 -38.44538 -38.44325 -38.44303
 Alpha  occ. eigenvalues --  -38.43712 -38.43308  -2.20861  -2.20399  -2.20353
 Alpha  occ. eigenvalues --   -2.20156  -2.20099  -2.19491  -2.19133  -1.14578
 Alpha  occ. eigenvalues --   -1.14523  -1.14475  -1.14111  -1.14074  -1.14021
 Alpha  occ. eigenvalues --   -1.14015  -1.13991  -1.13974  -1.13824  -1.13803
 Alpha  occ. eigenvalues --   -1.13758  -1.13757  -1.13744  -1.13712  -1.13158
 Alpha  occ. eigenvalues --   -1.13147  -1.13145  -1.12818  -1.12804  -1.12751
 Alpha  occ. eigenvalues --   -0.17046  -0.13959  -0.11826  -0.11029
 Alpha virt. eigenvalues --   -0.06943  -0.05776  -0.04175  -0.03755  -0.03069
 Alpha virt. eigenvalues --   -0.02282  -0.01926  -0.01747  -0.01342  -0.00590
 Alpha virt. eigenvalues --   -0.00434  -0.00141   0.00248   0.00361   0.00510

  Beta  occ. eigenvalues --  -38.44984 -38.44553 -38.44514 -38.44251 -38.44238
  Beta  occ. eigenvalues --  -38.43703 -38.43307  -2.20832  -2.20356  -2.20340
  Beta  occ. eigenvalues --   -2.20004  -2.19994  -2.19474  -2.19133  -1.14563
  Beta  occ. eigenvalues --   -1.14504  -1.14432  -1.14085  -1.14031  -1.14012
  Beta  occ. eigenvalues --   -1.14006  -1.13972  -1.13949  -1.13714  -1.13692
  Beta  occ. eigenvalues --   -1.13686  -1.13670  -1.13658  -1.13650  -1.13148
  Beta  occ. eigenvalues --   -1.13136  -1.13134  -1.12808  -1.12801  -1.12753
  Beta  occ. eigenvalues --   -0.16428  -0.13783  -0.11343
  Beta virt. eigenvalues --   -0.07508  -0.06613  -0.05463  -0.03860  -0.03420
  Beta virt. eigenvalues --   -0.02553  -0.02133  -0.01620  -0.01544  -0.01074
  Beta virt. eigenvalues --   -0.00388  -0.00241   0.00097   0.00363   0.00404

 Mulliken charges and spin densities:
               1          2
     1  Na   0.241138   0.076789
     2  Na  -0.081571   0.618359
     3  Na  -0.646994   0.476921
     4  Na   0.175540   0.036655
     5  Na   0.656857  -0.012980
     6  Na  -0.827990  -0.090372
     7  Na   0.483020  -0.105373
 Sum of Mulliken charges =  -0.00000   1.00000

 Dipole moment (field-independent basis, Debye):
    X=             -2.0631    Y=              0.1535    Z=              0.3152  Tot=              2.0926
 Quadrupole moment (field-independent basis, Debye-Ang):
   XX=            -59.9669   YY=            -72.2102   ZZ=            -65.9814
   XY=              5.6336   XZ=              5.0333   YZ=              1.2141

 Normal termination of Gaussian 16 at Sun Dec  3 18:49:57 2023.
