 Gaussian 16, Revision B.01,
 Gaussian 16:  ES64L-G16RevB.01 20-Dec-2017

 -------------------------
 #P B3LYP/6-311+g(d) force
 -------------------------

 -----
 DPGEN
 -----
 Symbolic Z-matrix:
 Charge =  0 Multiplicity = 2

                         Standard orientation:
 ---------------------------------------------------------------------
 Center     Atomic      Atomic             Coordinates (Angstroms)
 Number     Number       Type             X           Y           Z
 ---------------------------------------------------------------------
      1         11           0       -0.609395    1.614109    0.924445
      2         11           0        1.185489    3.614128   -0.598751
      3         11           0        3.342828    0.510749    0.020265
      4         11           0        0.616335   -1.674238    0.053004
      5         11           0       -2.819940   -0.943506    0.934916
      6         11           0        4.397728   -2.446752   -0.413376
      7         11           0       -6.113045   -0.674490   -0.920503
 ---------------------------------------------------------------------

 SCF Done:  E(UB3LYP) =  -1136.12225918     A.U. after   19 cycles

 The electronic state is 2-A.
 Alpha  occ. eigenvalues --  -38.44949 -38.44709 -38.44390 -38.44354 -38.43801
 Alpha  occ. eigenvalues --  -38.43319 -38.43263  -2.20733  -2.20526  -2.20197
 Alpha  occ. eigenvalues --   -2.20190  -2.19673  -2.19126  -2.19088  -1.14364
 Alpha  occ. eigenvalues --   -1.14364  -1.14335  -1.14232  -1.14220  -1.14095
 Alpha  occ. eigenvalues --   -1.13915  -1.13891  -1.13885  -1.13850  -1.13828
 Alpha  occ. eigenvalues --   -1.13732  -1.13369  -1.13350  -1.13316  -1.12824
 Alpha  occ. eigenvalues --   -1.12805  -1.12763  -1.12755  -1.12738  -1.12712
 Alpha  occ. eigenvalues --   -0.16772  -0.13815  -0.12548  -0.11323
 Alpha virt. eigenvalues --   -0.06033  -0.05343  -0.04801  -0.03822  -0.02608
 Alpha virt. eigenvalues --   -0.02263  -0.02078  -0.01639  -0.01501  -0.00752
 Alpha virt. eigenvalues --   -0.00482  -0.00027   0.00085   0.00350   0.00641

  Beta  occ. eigenvalues --  -38.44815 -38.44670 -38.44383 -38.44343 -38.43794
  Beta  occ. eigenvalues --  -38.43325 -38.43250  -2.20483  -2.20456  -2.20184
  Beta  occ. eigenvalues --   -2.20171  -2.19661  -2.19143  -2.19064  -1.14195
  Beta  occ. eigenvalues --   -1.14194  -1.14188  -1.14174  -1.14169  -1.14034
  Beta  occ. eigenvalues --   -1.13902  -1.13874  -1.13872  -1.13842  -1.13820
  Beta  occ. eigenvalues --   -1.13719  -1.13361  -1.13345  -1.13296  -1.12843
  Beta  occ. eigenvalues --   -1.12823  -1.12743  -1.12721  -1.12718  -1.12695
  Beta  occ. eigenvalues --   -0.16383  -0.13275  -0.12011
  Beta virt. eigenvalues --   -0.07698  -0.05825  -0.05115  -0.04381  -0.03680
  Beta virt. eigenvalues --   -0.02321  -0.02081  -0.01493  -0.01482  -0.01131
  Beta virt. eigenvalues --   -0.00334  -0.00258   0.00156   0.00223   0.00499

 Mulliken charges and spin densities:
               1          2
     1  Na  -0.787998   0.005011
     2  Na   0.629557   0.085552
     3  Na  -0.543811   0.143751
     4  Na  -0.734980   0.212167
     5  Na   0.115032  -0.188990
     6  Na   1.178437   0.052673
     7  Na   0.143763   0.689836
 Sum of Mulliken charges =  -0.00000   1.00000

 Dipole moment (field-independent basis, Debye):
    X=              1.2696    Y=             -0.6812    Z=             -0.4442  Tot=              1.5077
 Quadrupole moment (field-independent basis, Debye-Ang):
   XX=            -60.2974   YY=            -65.0308   ZZ=            -70.5067
   XY=             -6.1830   XZ=             -0.1129   YZ=              0.1915

 Normal termination of Gaussian 16 at Tue Nov 28 21:53:20 2023.
