 Gaussian 16, Revision B.01,
 Gaussian 16:  ES64L-G16RevB.01 20-Dec-2017

 -------------------------
 #P B3LYP/6-311+g(d) force
 -------------------------

 -----
 DPGEN
 -----
 Symbolic Z-matrix:
 Charge =  0 Multiplicity = 2

                         Standard orientation:
 ---------------------------------------------------------------------
 Center     Atomic      Atomic             Coordinates (Angstroms)
 Number     Number       Type             X           Y           Z
 ---------------------------------------------------------------------
      1         11           0        0.104275    0.156166    2.286482
      2         11           0        1.476972   -2.584808   -0.373613
      3         11           0        0.595452    3.156881   -0.241014
      4         11           0       -0.264465    0.073930   -1.366474
      5         11           0        3.042225    0.234705   -0.141414
      6         11           0       -2.872690    1.177575   -0.233140
      7         11           0       -2.081768   -2.214449    0.069174
 ---------------------------------------------------------------------

 SCF Done:  E(UB3LYP) =  -1136.13590664     A.U. after   19 cycles

 The electronic state is 2-A.
 Alpha  occ. eigenvalues --  -38.44053 -38.43836 -38.43829 -38.43793 -38.43671
 Alpha  occ. eigenvalues --  -38.43385 -38.42906  -2.19898  -2.19674  -2.19636
 Alpha  occ. eigenvalues --   -2.19624  -2.19518  -2.19247  -2.18944  -1.13627
 Alpha  occ. eigenvalues --   -1.13549  -1.13512  -1.13361  -1.13342  -1.13319
 Alpha  occ. eigenvalues --   -1.13306  -1.13290  -1.13280  -1.13259  -1.13258
 Alpha  occ. eigenvalues --   -1.13249  -1.13211  -1.13176  -1.13151  -1.12936
 Alpha  occ. eigenvalues --   -1.12897  -1.12882  -1.12629  -1.12592  -1.12564
 Alpha  occ. eigenvalues --   -0.18487  -0.12943  -0.12477  -0.10695
 Alpha virt. eigenvalues --   -0.05644  -0.05126  -0.04912  -0.03053  -0.02816
 Alpha virt. eigenvalues --   -0.02632  -0.01410  -0.01331  -0.00511  -0.00434
 Alpha virt. eigenvalues --   -0.00020   0.00337   0.00810   0.00834   0.00868

  Beta  occ. eigenvalues --  -38.44047 -38.43832 -38.43826 -38.43679 -38.43668
  Beta  occ. eigenvalues --  -38.43378 -38.42862  -2.19890  -2.19670  -2.19623
  Beta  occ. eigenvalues --   -2.19515  -2.19425  -2.19237  -2.18865  -1.13617
  Beta  occ. eigenvalues --   -1.13529  -1.13510  -1.13359  -1.13324  -1.13311
  Beta  occ. eigenvalues --   -1.13295  -1.13274  -1.13259  -1.13209  -1.13158
  Beta  occ. eigenvalues --   -1.13153  -1.13145  -1.13113  -1.13100  -1.12924
  Beta  occ. eigenvalues --   -1.12883  -1.12871  -1.12567  -1.12534  -1.12508
  Beta  occ. eigenvalues --   -0.17793  -0.12728  -0.12272
  Beta virt. eigenvalues --   -0.06696  -0.05648  -0.05081  -0.04865  -0.02275
  Beta virt. eigenvalues --   -0.02082  -0.01519  -0.01334  -0.01256  -0.00556
  Beta virt. eigenvalues --   -0.00473   0.00154   0.00382   0.00824   0.00873

 Mulliken charges and spin densities:
               1          2
     1  Na  -0.642390   0.779773
     2  Na   0.214997   0.054859
     3  Na   0.139056  -0.013921
     4  Na  -0.559413   0.035353
     5  Na   0.234776   0.030709
     6  Na   0.337594   0.020916
     7  Na   0.275380   0.092310
 Sum of Mulliken charges =  -0.00000   1.00000

 Dipole moment (field-independent basis, Debye):
    X=             -0.1527    Y=              0.2131    Z=              0.2081  Tot=              0.3347
 Quadrupole moment (field-independent basis, Debye-Ang):
   XX=            -58.0887   YY=            -59.6985   ZZ=            -75.3259
   XY=              0.4817   XZ=             -0.7043   YZ=             -0.2114

 Normal termination of Gaussian 16 at Sat Dec  9 06:55:07 2023.
