 Gaussian 16, Revision B.01,
 Gaussian 16:  ES64L-G16RevB.01 20-Dec-2017

 -------------------------
 #P B3LYP/6-311+g(d) force
 -------------------------

 -----
 DPGEN
 -----
 Symbolic Z-matrix:
 Charge =  0 Multiplicity = 2

                         Standard orientation:
 ---------------------------------------------------------------------
 Center     Atomic      Atomic             Coordinates (Angstroms)
 Number     Number       Type             X           Y           Z
 ---------------------------------------------------------------------
      1         11           0       -0.778687   -3.336537   -0.424131
      2         11           0        2.772419   -2.155139    0.251745
      3         11           0       -3.291155   -1.216674    0.584662
      4         11           0       -2.980088    2.232754   -0.454523
      5         11           0        0.179230    0.095747   -0.054117
      6         11           0        3.265480    0.970811   -0.217481
      7         11           0        0.832801    3.409037    0.313845
 ---------------------------------------------------------------------

 SCF Done:  E(UB3LYP) =  -1136.12811960     A.U. after   22 cycles

 The electronic state is 2-A.
 Alpha  occ. eigenvalues --  -38.44655 -38.44285 -38.43873 -38.43587 -38.43573
 Alpha  occ. eigenvalues --  -38.43514 -38.43435  -2.20451  -2.20168  -2.19790
 Alpha  occ. eigenvalues --   -2.19416  -2.19377  -2.19348  -2.19301  -1.14142
 Alpha  occ. eigenvalues --   -1.14115  -1.14086  -1.13876  -1.13840  -1.13800
 Alpha  occ. eigenvalues --   -1.13528  -1.13431  -1.13427  -1.13081  -1.13059
 Alpha  occ. eigenvalues --   -1.13050  -1.13041  -1.13012  -1.13010  -1.13005
 Alpha  occ. eigenvalues --   -1.12992  -1.12976  -1.12961  -1.12952  -1.12926
 Alpha  occ. eigenvalues --   -0.17289  -0.13917  -0.13219  -0.09679
 Alpha virt. eigenvalues --   -0.06462  -0.05609  -0.04683  -0.02801  -0.02455
 Alpha virt. eigenvalues --   -0.02241  -0.01983  -0.01914  -0.01763  -0.00120
 Alpha virt. eigenvalues --    0.00194   0.00375   0.00509   0.00576   0.00611

  Beta  occ. eigenvalues --  -38.44647 -38.44268 -38.43887 -38.43545 -38.43509
  Beta  occ. eigenvalues --  -38.43468 -38.43391  -2.20443  -2.20145  -2.19813
  Beta  occ. eigenvalues --   -2.19340  -2.19266  -2.19258  -2.19221  -1.14144
  Beta  occ. eigenvalues --   -1.14117  -1.14031  -1.13871  -1.13832  -1.13723
  Beta  occ. eigenvalues --   -1.13542  -1.13458  -1.13446  -1.13030  -1.13009
  Beta  occ. eigenvalues --   -1.12994  -1.12961  -1.12954  -1.12939  -1.12932
  Beta  occ. eigenvalues --   -1.12923  -1.12910  -1.12908  -1.12897  -1.12864
  Beta  occ. eigenvalues --   -0.17041  -0.13121  -0.12581
  Beta virt. eigenvalues --   -0.06533  -0.06462  -0.05280  -0.04515  -0.02312
  Beta virt. eigenvalues --   -0.02055  -0.01864  -0.01799  -0.01718  -0.01454
  Beta virt. eigenvalues --   -0.00025   0.00465   0.00523   0.00590   0.00624

 Mulliken charges and spin densities:
               1          2
     1  Na   0.935219   0.249756
     2  Na   0.950706   0.259808
     3  Na   0.949332   0.094560
     4  Na   0.752550   0.428579
     5  Na  -5.401347  -0.388200
     6  Na   0.696367   0.143486
     7  Na   1.117172   0.212012
 Sum of Mulliken charges =  -0.00000   1.00000

 Dipole moment (field-independent basis, Debye):
    X=              0.2775    Y=             -0.1661    Z=              0.1260  Tot=              0.3471
 Quadrupole moment (field-independent basis, Debye-Ang):
   XX=            -64.4790   YY=            -62.1531   ZZ=            -70.8011
   XY=              2.8677   XZ=             -1.9498   YZ=             -0.5375

 Normal termination of Gaussian 16 at Fri Dec  8 18:02:08 2023.
