 Gaussian 16, Revision B.01,
 Gaussian 16:  ES64L-G16RevB.01 20-Dec-2017

 -------------------------
 #P B3LYP/6-311+g(d) force
 -------------------------

 -----
 DPGEN
 -----
 Symbolic Z-matrix:
 Charge =  0 Multiplicity = 2

                         Standard orientation:
 ---------------------------------------------------------------------
 Center     Atomic      Atomic             Coordinates (Angstroms)
 Number     Number       Type             X           Y           Z
 ---------------------------------------------------------------------
      1         11           0       -1.776356   -2.411174   -0.293371
      2         11           0        2.039991   -2.282756    0.150815
      3         11           0        2.913960    0.988912    0.049610
      4         11           0       -0.428231   -0.271756    1.911591
      5         11           0       -0.088280   -0.080672   -1.868154
      6         11           0       -2.893105    1.143268    0.105966
      7         11           0        0.232020    2.914179   -0.056456
 ---------------------------------------------------------------------

 SCF Done:  E(UB3LYP) =  -1136.14016280     A.U. after   19 cycles

 The electronic state is 2-A.
 Alpha  occ. eigenvalues --  -38.43931 -38.43746 -38.43689 -38.43640 -38.43509
 Alpha  occ. eigenvalues --  -38.43415 -38.43322  -2.19766  -2.19600  -2.19513
 Alpha  occ. eigenvalues --   -2.19479  -2.19420  -2.19342  -2.19169  -1.13452
 Alpha  occ. eigenvalues --   -1.13429  -1.13401  -1.13300  -1.13280  -1.13219
 Alpha  occ. eigenvalues --   -1.13206  -1.13187  -1.13161  -1.13149  -1.13143
 Alpha  occ. eigenvalues --   -1.13105  -1.13086  -1.13048  -1.13037  -1.13011
 Alpha  occ. eigenvalues --   -1.12973  -1.12960  -1.12837  -1.12836  -1.12803
 Alpha  occ. eigenvalues --   -0.18587  -0.12936  -0.12546  -0.10783
 Alpha virt. eigenvalues --   -0.05566  -0.05217  -0.04773  -0.03167  -0.02979
 Alpha virt. eigenvalues --   -0.02615  -0.01404  -0.01179  -0.00414  -0.00334
 Alpha virt. eigenvalues --   -0.00019   0.00374   0.00841   0.00857   0.00910

  Beta  occ. eigenvalues --  -38.43926 -38.43736 -38.43686 -38.43639 -38.43430
  Beta  occ. eigenvalues --  -38.43333 -38.43319  -2.19759  -2.19585  -2.19510
  Beta  occ. eigenvalues --   -2.19480  -2.19274  -2.19192  -2.19167  -1.13439
  Beta  occ. eigenvalues --   -1.13407  -1.13400  -1.13285  -1.13239  -1.13214
  Beta  occ. eigenvalues --   -1.13207  -1.13166  -1.13159  -1.13150  -1.13127
  Beta  occ. eigenvalues --   -1.13106  -1.12991  -1.12947  -1.12929  -1.12914
  Beta  occ. eigenvalues --   -1.12873  -1.12854  -1.12830  -1.12812  -1.12800
  Beta  occ. eigenvalues --   -0.17852  -0.12710  -0.12309
  Beta virt. eigenvalues --   -0.06878  -0.05566  -0.05168  -0.04723  -0.02390
  Beta virt. eigenvalues --   -0.02199  -0.01562  -0.01317  -0.01102  -0.00479
  Beta virt. eigenvalues --   -0.00385   0.00119   0.00400   0.00853   0.00882

 Mulliken charges and spin densities:
               1          2
     1  Na   0.241933  -0.121970
     2  Na   0.088834  -0.085043
     3  Na  -0.063773  -0.077778
     4  Na  -0.315652   0.753490
     5  Na  -0.208987   0.706510
     6  Na   0.238599  -0.083849
     7  Na   0.019046  -0.091359
 Sum of Mulliken charges =  -0.00000   1.00000

 Dipole moment (field-independent basis, Debye):
    X=             -0.2321    Y=             -0.1654    Z=              0.0307  Tot=              0.2866
 Quadrupole moment (field-independent basis, Debye-Ang):
   XX=            -58.1279   YY=            -61.7861   ZZ=            -74.0997
   XY=             -0.3903   XZ=              0.6903   YZ=              0.3406

 Normal termination of Gaussian 16 at Wed Nov 29 16:41:10 2023.
