 Gaussian 16, Revision B.01,
 Gaussian 16:  ES64L-G16RevB.01 20-Dec-2017

 -------------------------
 #P B3LYP/6-311+g(d) force
 -------------------------

 -----
 DPGEN
 -----
 Symbolic Z-matrix:
 Charge =  0 Multiplicity = 2

                         Standard orientation:
 ---------------------------------------------------------------------
 Center     Atomic      Atomic             Coordinates (Angstroms)
 Number     Number       Type             X           Y           Z
 ---------------------------------------------------------------------
      1         11           0       -0.036761   -0.474916   -1.537085
      2         11           0       -1.102825   -0.774223    1.924145
      3         11           0       -2.310121    1.832348    0.386796
      4         11           0       -3.776095   -0.693131   -1.056161
      5         11           0        4.188889    0.353353   -0.552558
      6         11           0        1.610488   -2.111173    0.513992
      7         11           0        1.426424    1.867741    0.320871
 ---------------------------------------------------------------------

 SCF Done:  E(UB3LYP) =  -1136.11863725     A.U. after   33 cycles

 The electronic state is 2-A.
 Alpha  occ. eigenvalues --  -38.45229 -38.44865 -38.44844 -38.43625 -38.43562
 Alpha  occ. eigenvalues --  -38.43358 -38.42609  -2.21110  -2.20692  -2.20630
 Alpha  occ. eigenvalues --   -2.19525  -2.19442  -2.19222  -2.18495  -1.14824
 Alpha  occ. eigenvalues --   -1.14772  -1.14727  -1.14342  -1.14336  -1.14313
 Alpha  occ. eigenvalues --   -1.14308  -1.14291  -1.14266  -1.13223  -1.13186
 Alpha  occ. eigenvalues --   -1.13149  -1.13103  -1.13087  -1.13079  -1.12936
 Alpha  occ. eigenvalues --   -1.12879  -1.12832  -1.12198  -1.12162  -1.12108
 Alpha  occ. eigenvalues --   -0.18499  -0.14173  -0.11262  -0.10958
 Alpha virt. eigenvalues --   -0.07383  -0.05054  -0.04470  -0.03141  -0.03034
 Alpha virt. eigenvalues --   -0.02402  -0.02312  -0.01340  -0.00892  -0.00206
 Alpha virt. eigenvalues --   -0.00077   0.00183   0.00381   0.00702   0.00732

  Beta  occ. eigenvalues --  -38.45218 -38.44849 -38.44798 -38.43558 -38.43546
  Beta  occ. eigenvalues --  -38.43332 -38.42609  -2.21091  -2.20639  -2.20566
  Beta  occ. eigenvalues --   -2.19420  -2.19403  -2.19177  -2.18495  -1.14794
  Beta  occ. eigenvalues --   -1.14763  -1.14708  -1.14316  -1.14298  -1.14269
  Beta  occ. eigenvalues --   -1.14259  -1.14245  -1.14229  -1.13162  -1.13105
  Beta  occ. eigenvalues --   -1.13088  -1.13064  -1.13044  -1.13018  -1.12909
  Beta  occ. eigenvalues --   -1.12846  -1.12781  -1.12208  -1.12150  -1.12101
  Beta  occ. eigenvalues --   -0.17804  -0.13918  -0.10767
  Beta virt. eigenvalues --   -0.07533  -0.07030  -0.04849  -0.03985  -0.02894
  Beta virt. eigenvalues --   -0.02833  -0.01770  -0.01633  -0.01105  -0.00763
  Beta virt. eigenvalues --   -0.00118   0.00017   0.00258   0.00474   0.00769

 Mulliken charges and spin densities:
               1          2
     1  Na  -0.149020   0.210976
     2  Na   0.048640   0.384857
     3  Na   0.131067   0.028417
     4  Na   0.129635   0.275392
     5  Na   0.543824   0.049399
     6  Na  -0.108452   0.038786
     7  Na  -0.595693   0.012172
 Sum of Mulliken charges =  -0.00000   1.00000

 Dipole moment (field-independent basis, Debye):
    X=             -0.0711    Y=             -0.5682    Z=             -0.1427  Tot=              0.5902
 Quadrupole moment (field-independent basis, Debye-Ang):
   XX=            -50.5050   YY=            -77.3041   ZZ=            -68.5277
   XY=             -1.8146   XZ=             -1.4813   YZ=              2.0201

 Normal termination of Gaussian 16 at Tue Dec  5 22:52:31 2023.
