 Gaussian 16, Revision B.01,
 Gaussian 16:  ES64L-G16RevB.01 20-Dec-2017

 -------------------------
 #P B3LYP/6-311+g(d) force
 -------------------------

 -----
 DPGEN
 -----
 Symbolic Z-matrix:
 Charge =  0 Multiplicity = 2

                         Standard orientation:
 ---------------------------------------------------------------------
 Center     Atomic      Atomic             Coordinates (Angstroms)
 Number     Number       Type             X           Y           Z
 ---------------------------------------------------------------------
      1         11           0        0.799984   -0.022542   -1.933418
      2         11           0       -0.245737   -2.583354    0.066527
      3         11           0       -3.055798   -0.800510   -0.161440
      4         11           0       -1.481329    2.309724   -0.768341
      5         11           0        2.788906   -1.205727    0.110843
      6         11           0       -0.803768    0.313578    2.050026
      7         11           0        1.997742    1.988832    0.635803
 ---------------------------------------------------------------------

 SCF Done:  E(UB3LYP) =  -1136.13707707     A.U. after   19 cycles

 The electronic state is 2-A.
 Alpha  occ. eigenvalues --  -38.43992 -38.43919 -38.43770 -38.43727 -38.43518
 Alpha  occ. eigenvalues --  -38.43422 -38.42909  -2.19837  -2.19810  -2.19710
 Alpha  occ. eigenvalues --   -2.19618  -2.19375  -2.19270  -2.18795  -1.13536
 Alpha  occ. eigenvalues --   -1.13502  -1.13484  -1.13472  -1.13454  -1.13440
 Alpha  occ. eigenvalues --   -1.13417  -1.13370  -1.13335  -1.13272  -1.13259
 Alpha  occ. eigenvalues --   -1.13239  -1.13048  -1.13030  -1.13006  -1.12950
 Alpha  occ. eigenvalues --   -1.12923  -1.12897  -1.12481  -1.12471  -1.12418
 Alpha  occ. eigenvalues --   -0.18725  -0.13278  -0.12208  -0.11288
 Alpha virt. eigenvalues --   -0.05564  -0.05054  -0.04349  -0.03636  -0.03124
 Alpha virt. eigenvalues --   -0.02875  -0.01368  -0.00855  -0.00204  -0.00019
 Alpha virt. eigenvalues --    0.00031   0.00396   0.00765   0.00897   0.00926

  Beta  occ. eigenvalues --  -38.43991 -38.43846 -38.43724 -38.43701 -38.43501
  Beta  occ. eigenvalues --  -38.43401 -38.42904  -2.19837  -2.19675  -2.19617
  Beta  occ. eigenvalues --   -2.19582  -2.19348  -2.19233  -2.18789  -1.13519
  Beta  occ. eigenvalues --   -1.13498  -1.13475  -1.13402  -1.13386  -1.13350
  Beta  occ. eigenvalues --   -1.13324  -1.13289  -1.13269  -1.13255  -1.13236
  Beta  occ. eigenvalues --   -1.13186  -1.13026  -1.12994  -1.12989  -1.12918
  Beta  occ. eigenvalues --   -1.12885  -1.12873  -1.12479  -1.12450  -1.12410
  Beta  occ. eigenvalues --   -0.17985  -0.13088  -0.11957
  Beta virt. eigenvalues --   -0.07378  -0.05428  -0.05031  -0.04187  -0.03003
  Beta virt. eigenvalues --   -0.02365  -0.01855  -0.01286  -0.00778  -0.00122
  Beta virt. eigenvalues --   -0.00001   0.00077   0.00435   0.00895   0.00932

 Mulliken charges and spin densities:
               1          2
     1  Na  -0.325730   0.460985
     2  Na   0.025214  -0.075269
     3  Na   0.217324  -0.029289
     4  Na   0.087217   0.040786
     5  Na   0.348146   0.030224
     6  Na  -0.442068   0.511300
     7  Na   0.089897   0.061263
 Sum of Mulliken charges =  -0.00000   1.00000

 Dipole moment (field-independent basis, Debye):
    X=             -0.1257    Y=              0.1087    Z=              0.0800  Tot=              0.1844
 Quadrupole moment (field-independent basis, Debye-Ang):
   XX=            -57.6157   YY=            -68.2823   ZZ=            -69.8496
   XY=             -0.0321   XZ=              2.4498   YZ=             -0.4015

 Normal termination of Gaussian 16 at Tue Dec  5 13:06:43 2023.
