 Gaussian 16, Revision B.01,
 Gaussian 16:  ES64L-G16RevB.01 20-Dec-2017

 -------------------------
 #P B3LYP/6-311+g(d) force
 -------------------------

 -----
 DPGEN
 -----
 Symbolic Z-matrix:
 Charge =  0 Multiplicity = 2

                         Standard orientation:
 ---------------------------------------------------------------------
 Center     Atomic      Atomic             Coordinates (Angstroms)
 Number     Number       Type             X           Y           Z
 ---------------------------------------------------------------------
      1         11           0        0.177925   -0.276764   -0.732596
      2         11           0        1.471955   -0.016423    1.874076
      3         11           0        2.048961    2.575761   -0.764407
      4         11           0       -3.477401   -0.065673   -0.247370
      5         11           0        3.164735   -2.113678   -0.451990
      6         11           0       -1.879199   -2.958131    0.016300
      7         11           0       -1.506976    2.854908    0.305987
 ---------------------------------------------------------------------

 SCF Done:  E(UB3LYP) =  -1136.11885433     A.U. after   24 cycles

 The electronic state is 2-A.
 Alpha  occ. eigenvalues --  -38.45315 -38.44169 -38.44096 -38.43962 -38.43837
 Alpha  occ. eigenvalues --  -38.43514 -38.43372  -2.21071  -2.19983  -2.19901
 Alpha  occ. eigenvalues --   -2.19849  -2.19631  -2.19358  -2.19345  -1.14748
 Alpha  occ. eigenvalues --   -1.14730  -1.14709  -1.13664  -1.13655  -1.13636
 Alpha  occ. eigenvalues --   -1.13636  -1.13561  -1.13558  -1.13516  -1.13474
 Alpha  occ. eigenvalues --   -1.13420  -1.13307  -1.13294  -1.13265  -1.13096
 Alpha  occ. eigenvalues --   -1.13030  -1.12999  -1.12970  -1.12961  -1.12944
 Alpha  occ. eigenvalues --   -0.17672  -0.13369  -0.12447  -0.09427
 Alpha virt. eigenvalues --   -0.06933  -0.05575  -0.05066  -0.02818  -0.02535
 Alpha virt. eigenvalues --   -0.02320  -0.01854  -0.01477  -0.01160  -0.00829
 Alpha virt. eigenvalues --   -0.00057   0.00207   0.00452   0.00521   0.00721

  Beta  occ. eigenvalues --  -38.45326 -38.44165 -38.44082 -38.43892 -38.43823
  Beta  occ. eigenvalues --  -38.43454 -38.43356  -2.21093  -2.19978  -2.19875
  Beta  occ. eigenvalues --   -2.19719  -2.19607  -2.19332  -2.19233  -1.14755
  Beta  occ. eigenvalues --   -1.14744  -1.14720  -1.13664  -1.13651  -1.13616
  Beta  occ. eigenvalues --   -1.13552  -1.13541  -1.13537  -1.13501  -1.13380
  Beta  occ. eigenvalues --   -1.13329  -1.13292  -1.13271  -1.13239  -1.13039
  Beta  occ. eigenvalues --   -1.12980  -1.12958  -1.12917  -1.12899  -1.12886
  Beta  occ. eigenvalues --   -0.17172  -0.13089  -0.12145
  Beta virt. eigenvalues --   -0.06752  -0.05885  -0.05325  -0.04981  -0.02416
  Beta virt. eigenvalues --   -0.02211  -0.01968  -0.01596  -0.01107  -0.00939
  Beta virt. eigenvalues --   -0.00600   0.00156   0.00294   0.00561   0.00657

 Mulliken charges and spin densities:
               1          2
     1  Na  -0.478648   0.465448
     2  Na  -0.535436   0.226986
     3  Na   0.338640   0.266664
     4  Na   0.114378   0.025482
     5  Na   0.132075  -0.060039
     6  Na   0.278707   0.021674
     7  Na   0.150284   0.053784
 Sum of Mulliken charges =  -0.00000   1.00000

 Dipole moment (field-independent basis, Debye):
    X=              0.3624    Y=             -0.8716    Z=              0.1706  Tot=              0.9592
 Quadrupole moment (field-independent basis, Debye-Ang):
   XX=            -54.8967   YY=            -61.0878   ZZ=            -76.5685
   XY=             -5.2342   XZ=             -1.4383   YZ=              1.7890

 Normal termination of Gaussian 16 at Wed Nov 29 15:51:41 2023.
