 Gaussian 16, Revision B.01,
 Gaussian 16:  ES64L-G16RevB.01 20-Dec-2017

 -------------------------
 #P B3LYP/6-311+g(d) force
 -------------------------

 -----
 DPGEN
 -----
 Symbolic Z-matrix:
 Charge =  0 Multiplicity = 2

                         Standard orientation:
 ---------------------------------------------------------------------
 Center     Atomic      Atomic             Coordinates (Angstroms)
 Number     Number       Type             X           Y           Z
 ---------------------------------------------------------------------
      1         11           0        3.148942    1.389575   -0.199719
      2         11           0       -3.192372    2.327666    0.753499
      3         11           0       -6.567777   -3.158446    0.204650
      4         11           0       -5.461469   -0.670623   -0.661637
      5         11           0       -0.376564    3.131285   -0.369988
      6         11           0        7.802638   -1.946154   -0.203995
      7         11           0        4.646602   -1.073302    0.477191
 ---------------------------------------------------------------------

 SCF Done:  E(UB3LYP) =  -1136.10264698     A.U. after   18 cycles

 The electronic state is 2-A.
 Alpha  occ. eigenvalues --  -38.45374 -38.44677 -38.44506 -38.44390 -38.44330
 Alpha  occ. eigenvalues --  -38.44213 -38.44009  -2.21170  -2.20515  -2.20309
 Alpha  occ. eigenvalues --   -2.20217  -2.20105  -2.20049  -2.19832  -1.14804
 Alpha  occ. eigenvalues --   -1.14803  -1.14788  -1.14232  -1.14147  -1.14131
 Alpha  occ. eigenvalues --   -1.14000  -1.13992  -1.13959  -1.13951  -1.13848
 Alpha  occ. eigenvalues --   -1.13847  -1.13777  -1.13770  -1.13741  -1.13721
 Alpha  occ. eigenvalues --   -1.13704  -1.13694  -1.13478  -1.13475  -1.13453
 Alpha  occ. eigenvalues --   -0.15297  -0.14360  -0.13037  -0.11597
 Alpha virt. eigenvalues --   -0.07055  -0.05173  -0.03955  -0.03369  -0.03313
 Alpha virt. eigenvalues --   -0.02718  -0.02362  -0.02133  -0.01693  -0.01279
 Alpha virt. eigenvalues --   -0.00970  -0.00381  -0.00205   0.00340   0.00472

  Beta  occ. eigenvalues --  -38.45267 -38.44598 -38.44462 -38.44373 -38.44346
  Beta  occ. eigenvalues --  -38.44221 -38.44012  -2.20971  -2.20367  -2.20227
  Beta  occ. eigenvalues --   -2.20185  -2.20138  -2.20073  -2.19839  -1.14668
  Beta  occ. eigenvalues --   -1.14666  -1.14657  -1.14147  -1.14046  -1.14032
  Beta  occ. eigenvalues --   -1.13981  -1.13950  -1.13903  -1.13895  -1.13826
  Beta  occ. eigenvalues --   -1.13825  -1.13803  -1.13793  -1.13729  -1.13728
  Beta  occ. eigenvalues --   -1.13724  -1.13663  -1.13484  -1.13481  -1.13443
  Beta  occ. eigenvalues --   -0.14591  -0.13878  -0.12589
  Beta virt. eigenvalues --   -0.08342  -0.06525  -0.04767  -0.03708  -0.03160
  Beta virt. eigenvalues --   -0.03082  -0.02569  -0.02147  -0.01919  -0.01409
  Beta virt. eigenvalues --   -0.00871  -0.00480  -0.00202   0.00004   0.00419

 Mulliken charges and spin densities:
               1          2
     1  Na   0.077226   0.309582
     2  Na  -0.239551   0.170852
     3  Na   0.446273   0.065120
     4  Na  -0.355302   0.003666
     5  Na  -0.114639  -0.069191
     6  Na   0.427986   0.502893
     7  Na  -0.241994   0.017078
 Sum of Mulliken charges =  -0.00000   1.00000

 Dipole moment (field-independent basis, Debye):
    X=              1.0357    Y=             -0.6274    Z=              0.0517  Tot=              1.2121
 Quadrupole moment (field-independent basis, Debye-Ang):
   XX=            -53.2838   YY=            -63.3449   ZZ=            -72.2516
   XY=              1.6271   XZ=             -5.2280   YZ=             -2.9077

 Normal termination of Gaussian 16 at Sun Dec  3 20:35:37 2023.
