 Gaussian 16, Revision B.01,
 Gaussian 16:  ES64L-G16RevB.01 20-Dec-2017

 -------------------------
 #P B3LYP/6-311+g(d) force
 -------------------------

 -----
 DPGEN
 -----
 Symbolic Z-matrix:
 Charge =  0 Multiplicity = 2

                         Standard orientation:
 ---------------------------------------------------------------------
 Center     Atomic      Atomic             Coordinates (Angstroms)
 Number     Number       Type             X           Y           Z
 ---------------------------------------------------------------------
      1         11           0       -3.706601   -0.212236    1.119067
      2         11           0       -1.384470    1.832303   -0.747357
      3         11           0        3.676439   -0.200611    1.226728
      4         11           0       -1.616669   -1.316801   -1.275274
      5         11           0        1.600071   -1.825063   -1.195654
      6         11           0       -0.181280   -0.279646    1.645796
      7         11           0        1.612511    2.002054   -0.773306
 ---------------------------------------------------------------------

 SCF Done:  E(UB3LYP) =  -1136.12399233     A.U. after   25 cycles

 The electronic state is 2-A.
 Alpha  occ. eigenvalues --  -38.45057 -38.44821 -38.44808 -38.43786 -38.43605
 Alpha  occ. eigenvalues --  -38.42612 -38.42448  -2.20922  -2.20656  -2.20608
 Alpha  occ. eigenvalues --   -2.19727  -2.19461  -2.18488  -2.18397  -1.14640
 Alpha  occ. eigenvalues --   -1.14576  -1.14533  -1.14320  -1.14299  -1.14282
 Alpha  occ. eigenvalues --   -1.14274  -1.14253  -1.14230  -1.13427  -1.13383
 Alpha  occ. eigenvalues --   -1.13350  -1.13137  -1.13112  -1.13079  -1.12271
 Alpha  occ. eigenvalues --   -1.12152  -1.12124  -1.12073  -1.12049  -1.11967
 Alpha  occ. eigenvalues --   -0.18659  -0.14149  -0.11581  -0.11000
 Alpha virt. eigenvalues --   -0.06789  -0.05232  -0.04512  -0.03285  -0.02699
 Alpha virt. eigenvalues --   -0.02499  -0.02264  -0.01233  -0.00631  -0.00124
 Alpha virt. eigenvalues --    0.00090   0.00260   0.00485   0.00563   0.00760

  Beta  occ. eigenvalues --  -38.45029 -38.44785 -38.44772 -38.43736 -38.43564
  Beta  occ. eigenvalues --  -38.42610 -38.42436  -2.20871  -2.20590  -2.20540
  Beta  occ. eigenvalues --   -2.19640  -2.19390  -2.18488  -2.18379  -1.14594
  Beta  occ. eigenvalues --   -1.14545  -1.14490  -1.14271  -1.14254  -1.14239
  Beta  occ. eigenvalues --   -1.14225  -1.14206  -1.14188  -1.13365  -1.13321
  Beta  occ. eigenvalues --   -1.13266  -1.13085  -1.13065  -1.13010  -1.12264
  Beta  occ. eigenvalues --   -1.12143  -1.12124  -1.12058  -1.12027  -1.11953
  Beta  occ. eigenvalues --   -0.17990  -0.13831  -0.10797
  Beta virt. eigenvalues --   -0.07754  -0.06530  -0.04614  -0.04465  -0.02995
  Beta virt. eigenvalues --   -0.02422  -0.01949  -0.01585  -0.00853  -0.00569
  Beta virt. eigenvalues --   -0.00002   0.00144   0.00361   0.00500   0.00704

 Mulliken charges and spin densities:
               1          2
     1  Na   1.174385   0.168362
     2  Na  -0.297219   0.139772
     3  Na   0.965441   0.174018
     4  Na  -0.037411   0.176917
     5  Na  -0.167493   0.066951
     6  Na  -1.258757   0.266917
     7  Na  -0.378946   0.007064
 Sum of Mulliken charges =  -0.00000   1.00000

 Dipole moment (field-independent basis, Debye):
    X=             -0.2370    Y=             -0.3091    Z=              0.7852  Tot=              0.8765
 Quadrupole moment (field-independent basis, Debye-Ang):
   XX=            -46.7393   YY=            -80.7883   ZZ=            -66.8313
   XY=              0.0885   XZ=              0.1458   YZ=              2.2072

 Normal termination of Gaussian 16 at Thu Dec  7 09:13:31 2023.
