 Gaussian 16, Revision B.01,
 Gaussian 16:  ES64L-G16RevB.01 20-Dec-2017

 -------------------------
 #P B3LYP/6-311+g(d) force
 -------------------------

 -----
 DPGEN
 -----
 Symbolic Z-matrix:
 Charge =  0 Multiplicity = 2

                         Standard orientation:
 ---------------------------------------------------------------------
 Center     Atomic      Atomic             Coordinates (Angstroms)
 Number     Number       Type             X           Y           Z
 ---------------------------------------------------------------------
      1         11           0        0.201523   -0.149191   -0.979646
      2         11           0       -0.621432   -0.960674    1.822243
      3         11           0       -2.991669   -1.848340   -0.510927
      4         11           0        2.448198   -2.160204    0.160651
      5         11           0        3.409410    0.689693   -0.806080
      6         11           0       -3.039939    1.593254   -0.542099
      7         11           0        0.593909    2.835463    0.855856
 ---------------------------------------------------------------------

 SCF Done:  E(UB3LYP) =  -1136.12465167     A.U. after   20 cycles

 The electronic state is 2-A.
 Alpha  occ. eigenvalues --  -38.44531 -38.44112 -38.44106 -38.43884 -38.43783
 Alpha  occ. eigenvalues --  -38.43534 -38.42979  -2.20323  -2.19970  -2.19934
 Alpha  occ. eigenvalues --   -2.19778  -2.19746  -2.19441  -2.18772  -1.14008
 Alpha  occ. eigenvalues --   -1.13974  -1.13949  -1.13666  -1.13645  -1.13611
 Alpha  occ. eigenvalues --   -1.13591  -1.13590  -1.13572  -1.13570  -1.13468
 Alpha  occ. eigenvalues --   -1.13404  -1.13398  -1.13370  -1.13351  -1.13122
 Alpha  occ. eigenvalues --   -1.13052  -1.13030  -1.12438  -1.12430  -1.12410
 Alpha  occ. eigenvalues --   -0.18099  -0.14004  -0.11588  -0.10426
 Alpha virt. eigenvalues --   -0.05997  -0.05936  -0.04286  -0.03354  -0.02779
 Alpha virt. eigenvalues --   -0.02301  -0.01782  -0.01390  -0.00791  -0.00279
 Alpha virt. eigenvalues --   -0.00021   0.00223   0.00476   0.00654   0.00724

  Beta  occ. eigenvalues --  -38.44505 -38.44089 -38.44077 -38.43880 -38.43776
  Beta  occ. eigenvalues --  -38.43451 -38.42958  -2.20278  -2.19906  -2.19904
  Beta  occ. eigenvalues --   -2.19770  -2.19742  -2.19289  -2.18735  -1.13976
  Beta  occ. eigenvalues --   -1.13948  -1.13901  -1.13632  -1.13602  -1.13590
  Beta  occ. eigenvalues --   -1.13570  -1.13539  -1.13533  -1.13528  -1.13463
  Beta  occ. eigenvalues --   -1.13402  -1.13397  -1.13354  -1.13332  -1.13025
  Beta  occ. eigenvalues --   -1.12949  -1.12919  -1.12410  -1.12401  -1.12386
  Beta  occ. eigenvalues --   -0.17510  -0.13462  -0.11400
  Beta virt. eigenvalues --   -0.06880  -0.05896  -0.05686  -0.04030  -0.02832
  Beta virt. eigenvalues --   -0.02197  -0.02101  -0.01397  -0.01103  -0.00642
  Beta virt. eigenvalues --   -0.00113   0.00088   0.00316   0.00595   0.00716

 Mulliken charges and spin densities:
               1          2
     1  Na  -0.680853  -0.163264
     2  Na   0.170095   0.443181
     3  Na   0.219168   0.178528
     4  Na  -0.033575   0.125170
     5  Na   0.660188   0.182958
     6  Na   0.068570   0.185542
     7  Na  -0.403592   0.047886
 Sum of Mulliken charges =  -0.00000   1.00000

 Dipole moment (field-independent basis, Debye):
    X=             -0.1840    Y=             -0.3306    Z=              0.3186  Tot=              0.4947
 Quadrupole moment (field-independent basis, Debye-Ang):
   XX=            -56.3184   YY=            -66.5481   ZZ=            -71.4826
   XY=              0.3335   XZ=              0.6548   YZ=              0.4145

 Normal termination of Gaussian 16 at Tue Dec  5 15:21:26 2023.
