 Gaussian 16, Revision B.01,
 Gaussian 16:  ES64L-G16RevB.01 20-Dec-2017

 -------------------------
 #P B3LYP/6-311+g(d) force
 -------------------------

 -----
 DPGEN
 -----
 Symbolic Z-matrix:
 Charge =  0 Multiplicity = 2

                         Standard orientation:
 ---------------------------------------------------------------------
 Center     Atomic      Atomic             Coordinates (Angstroms)
 Number     Number       Type             X           Y           Z
 ---------------------------------------------------------------------
      1         11           0        1.213721    0.802595   -1.753550
      2         11           0        4.029099    0.098785   -1.148671
      3         11           0       -0.328676    2.668278    1.983288
      4         11           0       -2.241690    1.830053   -0.489585
      5         11           0       -1.055514   -1.941020    0.134235
      6         11           0       -4.165542   -1.544995   -0.477327
      7         11           0        2.548601   -1.913696    1.751610
 ---------------------------------------------------------------------

 SCF Done:  E(UB3LYP) =  -1136.11295810     A.U. after   21 cycles

 The electronic state is 2-A.
 Alpha  occ. eigenvalues --  -38.44724 -38.44612 -38.44559 -38.44253 -38.44032
 Alpha  occ. eigenvalues --  -38.43906 -38.43881  -2.20564  -2.20392  -2.20387
 Alpha  occ. eigenvalues --   -2.20049  -2.19820  -2.19707  -2.19697  -1.14338
 Alpha  occ. eigenvalues --   -1.14218  -1.14187  -1.14044  -1.14035  -1.14031
 Alpha  occ. eigenvalues --   -1.14013  -1.14004  -1.13983  -1.13746  -1.13721
 Alpha  occ. eigenvalues --   -1.13689  -1.13503  -1.13470  -1.13456  -1.13389
 Alpha  occ. eigenvalues --   -1.13366  -1.13365  -1.13361  -1.13339  -1.13295
 Alpha  occ. eigenvalues --   -0.16740  -0.13701  -0.12020  -0.11118
 Alpha virt. eigenvalues --   -0.06806  -0.05732  -0.04048  -0.03546  -0.03086
 Alpha virt. eigenvalues --   -0.02737  -0.02363  -0.01530  -0.00854  -0.00482
 Alpha virt. eigenvalues --   -0.00280  -0.00011   0.00246   0.00460   0.00520

  Beta  occ. eigenvalues --  -38.44675 -38.44531 -38.44527 -38.44248 -38.43994
  Beta  occ. eigenvalues --  -38.43901 -38.43887  -2.20476  -2.20342  -2.20232
  Beta  occ. eigenvalues --   -2.20041  -2.19749  -2.19711  -2.19697  -1.14275
  Beta  occ. eigenvalues --   -1.14160  -1.14120  -1.14003  -1.13966  -1.13950
  Beta  occ. eigenvalues --   -1.13936  -1.13922  -1.13895  -1.13744  -1.13720
  Beta  occ. eigenvalues --   -1.13663  -1.13466  -1.13421  -1.13414  -1.13395
  Beta  occ. eigenvalues --   -1.13366  -1.13360  -1.13357  -1.13331  -1.13291
  Beta  occ. eigenvalues --   -0.16287  -0.13292  -0.11582
  Beta virt. eigenvalues --   -0.07607  -0.06616  -0.05327  -0.03725  -0.03227
  Beta virt. eigenvalues --   -0.02689  -0.02509  -0.01979  -0.01278  -0.00633
  Beta virt. eigenvalues --   -0.00256  -0.00122   0.00114   0.00348   0.00573

 Mulliken charges and spin densities:
               1          2
     1  Na  -0.108093   0.391370
     2  Na   0.085989  -0.058354
     3  Na  -0.052903   0.218488
     4  Na   0.152924  -0.096673
     5  Na  -0.759937   0.025598
     6  Na   0.442130   0.164468
     7  Na   0.239891   0.355103
 Sum of Mulliken charges =  -0.00000   1.00000

 Dipole moment (field-independent basis, Debye):
    X=              0.3379    Y=              0.2945    Z=              0.1783  Tot=              0.4824
 Quadrupole moment (field-independent basis, Debye-Ang):
   XX=            -53.4822   YY=            -76.3847   ZZ=            -68.5395
   XY=             -1.1058   XZ=              4.1609   YZ=              0.1243

 Normal termination of Gaussian 16 at Sun Dec  3 12:23:01 2023.
