 Gaussian 16, Revision B.01,
 Gaussian 16:  ES64L-G16RevB.01 20-Dec-2017

 -------------------------
 #P B3LYP/6-311+g(d) force
 -------------------------

 -----
 DPGEN
 -----
 Symbolic Z-matrix:
 Charge =  0 Multiplicity = 2

                         Standard orientation:
 ---------------------------------------------------------------------
 Center     Atomic      Atomic             Coordinates (Angstroms)
 Number     Number       Type             X           Y           Z
 ---------------------------------------------------------------------
      1         11           0        2.722189   -1.720857   -0.283040
      2         11           0       -0.313071   -0.113146   -1.683230
      3         11           0       -1.241223   -2.545941   -0.018253
      4         11           0       -2.771608    0.062051    0.106247
      5         11           0        2.370627    1.539011    0.181025
      6         11           0       -0.065835   -0.061761    2.008840
      7         11           0       -0.701078    2.840644   -0.311590
 ---------------------------------------------------------------------

 SCF Done:  E(UB3LYP) =  -1136.13455909     A.U. after   19 cycles

 The electronic state is 2-A.
 Alpha  occ. eigenvalues --  -38.43778 -38.43672 -38.43663 -38.43575 -38.43506
 Alpha  occ. eigenvalues --  -38.43320 -38.43077  -2.19646  -2.19596  -2.19585
 Alpha  occ. eigenvalues --   -2.19449  -2.19434  -2.19349  -2.18954  -1.13437
 Alpha  occ. eigenvalues --   -1.13332  -1.13304  -1.13273  -1.13257  -1.13250
 Alpha  occ. eigenvalues --   -1.13228  -1.13226  -1.13203  -1.13163  -1.13118
 Alpha  occ. eigenvalues --   -1.13116  -1.13073  -1.13071  -1.13033  -1.13007
 Alpha  occ. eigenvalues --   -1.12955  -1.12949  -1.12630  -1.12602  -1.12597
 Alpha  occ. eigenvalues --   -0.19199  -0.13263  -0.12475  -0.11063
 Alpha virt. eigenvalues --   -0.05331  -0.05095  -0.04640  -0.03369  -0.02876
 Alpha virt. eigenvalues --   -0.02674  -0.01276  -0.01067  -0.00178  -0.00078
 Alpha virt. eigenvalues --    0.00023   0.00370   0.00890   0.00917   0.00919

  Beta  occ. eigenvalues --  -38.43777 -38.43661 -38.43570 -38.43568 -38.43498
  Beta  occ. eigenvalues --  -38.43249 -38.43072  -2.19630  -2.19585  -2.19444
  Beta  occ. eigenvalues --   -2.19424  -2.19420  -2.19220  -2.18947  -1.13423
  Beta  occ. eigenvalues --   -1.13295  -1.13272  -1.13265  -1.13238  -1.13230
  Beta  occ. eigenvalues --   -1.13159  -1.13143  -1.13123  -1.13099  -1.13091
  Beta  occ. eigenvalues --   -1.13075  -1.13067  -1.13032  -1.13028  -1.12927
  Beta  occ. eigenvalues --   -1.12872  -1.12857  -1.12617  -1.12597  -1.12577
  Beta  occ. eigenvalues --   -0.18432  -0.13010  -0.12221
  Beta virt. eigenvalues --   -0.07088  -0.05296  -0.05060  -0.04625  -0.02517
  Beta virt. eigenvalues --   -0.02125  -0.01608  -0.01195  -0.00997  -0.00218
  Beta virt. eigenvalues --   -0.00097   0.00128   0.00387   0.00906   0.00926

 Mulliken charges and spin densities:
               1          2
     1  Na  -0.066099  -0.100225
     2  Na  -0.433907   0.571655
     3  Na   0.194486  -0.086192
     4  Na   0.562702   0.088637
     5  Na   0.094046  -0.021041
     6  Na  -0.447275   0.597801
     7  Na   0.096046  -0.050636
 Sum of Mulliken charges =  -0.00000   1.00000

 Dipole moment (field-independent basis, Debye):
    X=              0.1320    Y=             -0.1519    Z=              0.1652  Tot=              0.2604
 Quadrupole moment (field-independent basis, Debye-Ang):
   XX=            -59.7119   YY=            -61.9804   ZZ=            -72.9177
   XY=             -0.4948   XZ=             -0.5348   YZ=              0.0863

 Normal termination of Gaussian 16 at Thu Dec  7 13:05:57 2023.
