 Gaussian 16, Revision B.01,
 Gaussian 16:  ES64L-G16RevB.01 20-Dec-2017

 -------------------------
 #P B3LYP/6-311+g(d) force
 -------------------------

 -----
 DPGEN
 -----
 Symbolic Z-matrix:
 Charge =  0 Multiplicity = 2

                         Standard orientation:
 ---------------------------------------------------------------------
 Center     Atomic      Atomic             Coordinates (Angstroms)
 Number     Number       Type             X           Y           Z
 ---------------------------------------------------------------------
      1         11           0        1.200644   -1.087947   -1.735542
      2         11           0       -3.248706   -0.270785    0.949350
      3         11           0        0.203819    0.570187    1.511233
      4         11           0       -1.435940    2.519994   -0.646408
      5         11           0        1.807984    2.395430   -0.553387
      6         11           0        2.783080   -1.419619    1.356771
      7         11           0       -1.310880   -2.707261   -0.882016
 ---------------------------------------------------------------------

 SCF Done:  E(UB3LYP) =  -1136.13000026     A.U. after   19 cycles

 The electronic state is 2-A.
 Alpha  occ. eigenvalues --  -38.44207 -38.43880 -38.43826 -38.43789 -38.43654
 Alpha  occ. eigenvalues --  -38.43612 -38.43561  -2.20035  -2.19722  -2.19657
 Alpha  occ. eigenvalues --   -2.19643  -2.19516  -2.19491  -2.19455  -1.13719
 Alpha  occ. eigenvalues --   -1.13664  -1.13662  -1.13443  -1.13390  -1.13386
 Alpha  occ. eigenvalues --   -1.13372  -1.13352  -1.13311  -1.13291  -1.13269
 Alpha  occ. eigenvalues --   -1.13254  -1.13190  -1.13157  -1.13152  -1.13145
 Alpha  occ. eigenvalues --   -1.13122  -1.13120  -1.13108  -1.13095  -1.13090
 Alpha  occ. eigenvalues --   -0.18025  -0.12845  -0.12667  -0.11136
 Alpha virt. eigenvalues --   -0.05444  -0.05181  -0.04936  -0.03514  -0.03070
 Alpha virt. eigenvalues --   -0.02495  -0.01500  -0.01128  -0.00579  -0.00103
 Alpha virt. eigenvalues --   -0.00017   0.00328   0.00534   0.00693   0.00812

  Beta  occ. eigenvalues --  -38.44156 -38.43875 -38.43802 -38.43772 -38.43641
  Beta  occ. eigenvalues --  -38.43563 -38.43514  -2.19944  -2.19714  -2.19627
  Beta  occ. eigenvalues --   -2.19602  -2.19433  -2.19429  -2.19403  -1.13644
  Beta  occ. eigenvalues --   -1.13606  -1.13599  -1.13434  -1.13380  -1.13357
  Beta  occ. eigenvalues --   -1.13341  -1.13327  -1.13283  -1.13263  -1.13240
  Beta  occ. eigenvalues --   -1.13234  -1.13134  -1.13116  -1.13097  -1.13093
  Beta  occ. eigenvalues --   -1.13087  -1.13076  -1.13058  -1.13055  -1.13039
  Beta  occ. eigenvalues --   -0.17423  -0.12532  -0.12312
  Beta virt. eigenvalues --   -0.07429  -0.05414  -0.04986  -0.04544  -0.03041
  Beta virt. eigenvalues --   -0.02567  -0.01674  -0.01290  -0.01042  -0.00380
  Beta virt. eigenvalues --   -0.00054   0.00088   0.00397   0.00661   0.00791

 Mulliken charges and spin densities:
               1          2
     1  Na   0.095100   0.326715
     2  Na   0.321276   0.003313
     3  Na  -0.188038   0.326943
     4  Na  -0.164770   0.018158
     5  Na   0.186518   0.185838
     6  Na   0.096057   0.062219
     7  Na  -0.346144   0.076813
 Sum of Mulliken charges =  -0.00000   1.00000

 Dipole moment (field-independent basis, Debye):
    X=              0.2607    Y=              0.1936    Z=             -0.0919  Tot=              0.3375
 Quadrupole moment (field-independent basis, Debye-Ang):
   XX=            -58.9944   YY=            -65.5753   ZZ=            -70.6873
   XY=             -0.3707   XZ=              0.3546   YZ=             -3.0868

 Normal termination of Gaussian 16 at Sun Dec  3 22:40:14 2023.
