 Gaussian 16, Revision B.01,
 Gaussian 16:  ES64L-G16RevB.01 20-Dec-2017

 -------------------------
 #P B3LYP/6-311+g(d) force
 -------------------------

 -----
 DPGEN
 -----
 Symbolic Z-matrix:
 Charge =  0 Multiplicity = 2

                         Standard orientation:
 ---------------------------------------------------------------------
 Center     Atomic      Atomic             Coordinates (Angstroms)
 Number     Number       Type             X           Y           Z
 ---------------------------------------------------------------------
      1         11           0        2.911403    1.000571    0.489607
      2         11           0       -3.702243    0.465008   -0.066780
      3         11           0        0.061015   -0.293135    2.127004
      4         11           0        2.152827   -2.090309   -0.440450
      5         11           0        0.510686    0.261799   -1.922611
      6         11           0       -0.239127    2.957543   -0.129781
      7         11           0       -1.694562   -2.301478   -0.056990
 ---------------------------------------------------------------------

 SCF Done:  E(UB3LYP) =  -1136.13108490     A.U. after   20 cycles

 The electronic state is 2-A.
 Alpha  occ. eigenvalues --  -38.44909 -38.44281 -38.44198 -38.43764 -38.43435
 Alpha  occ. eigenvalues --  -38.43385 -38.43132  -2.20654  -2.20134  -2.20052
 Alpha  occ. eigenvalues --   -2.19676  -2.19260  -2.19252  -2.18935  -1.14334
 Alpha  occ. eigenvalues --   -1.14311  -1.14294  -1.13815  -1.13806  -1.13764
 Alpha  occ. eigenvalues --   -1.13713  -1.13682  -1.13670  -1.13350  -1.13324
 Alpha  occ. eigenvalues --   -1.13301  -1.12947  -1.12936  -1.12932  -1.12907
 Alpha  occ. eigenvalues --   -1.12890  -1.12873  -1.12626  -1.12600  -1.12561
 Alpha  occ. eigenvalues --   -0.18202  -0.13052  -0.11897  -0.11089
 Alpha virt. eigenvalues --   -0.06406  -0.04973  -0.04356  -0.03428  -0.02939
 Alpha virt. eigenvalues --   -0.02844  -0.01900  -0.01053  -0.00485  -0.00286
 Alpha virt. eigenvalues --   -0.00095   0.00333   0.00530   0.00734   0.00853

  Beta  occ. eigenvalues --  -38.44914 -38.44266 -38.44109 -38.43689 -38.43432
  Beta  occ. eigenvalues --  -38.43371 -38.43131  -2.20665  -2.20112  -2.19887
  Beta  occ. eigenvalues --   -2.19539  -2.19256  -2.19233  -2.18934  -1.14337
  Beta  occ. eigenvalues --   -1.14318  -1.14302  -1.13801  -1.13761  -1.13751
  Beta  occ. eigenvalues --   -1.13605  -1.13564  -1.13552  -1.13262  -1.13220
  Beta  occ. eigenvalues --   -1.13205  -1.12941  -1.12918  -1.12914  -1.12890
  Beta  occ. eigenvalues --   -1.12874  -1.12859  -1.12619  -1.12589  -1.12562
  Beta  occ. eigenvalues --   -0.17427  -0.12911  -0.11669
  Beta virt. eigenvalues --   -0.07127  -0.06315  -0.04970  -0.04250  -0.02713
  Beta virt. eigenvalues --   -0.02159  -0.01883  -0.01808  -0.00977  -0.00493
  Beta virt. eigenvalues --   -0.00320   0.00051   0.00368   0.00746   0.00808

 Mulliken charges and spin densities:
               1          2
     1  Na   0.233851   0.069463
     2  Na  -0.084951  -0.108889
     3  Na  -0.221347   0.652069
     4  Na   0.255911   0.004548
     5  Na  -0.035494   0.618832
     6  Na  -0.153966  -0.150740
     7  Na   0.005997  -0.085283
 Sum of Mulliken charges =  -0.00000   1.00000

 Dipole moment (field-independent basis, Debye):
    X=             -0.2269    Y=              0.0823    Z=              0.1822  Tot=              0.3024
 Quadrupole moment (field-independent basis, Debye-Ang):
   XX=            -54.0963   YY=            -68.1916   ZZ=            -72.4102
   XY=             -1.2731   XZ=              1.0236   YZ=              1.5382

 Normal termination of Gaussian 16 at Sun Dec  3 23:53:57 2023.
