 Gaussian 16, Revision B.01,
 Gaussian 16:  ES64L-G16RevB.01 20-Dec-2017

 -------------------------
 #P B3LYP/6-311+g(d) force
 -------------------------

 -----
 DPGEN
 -----
 Symbolic Z-matrix:
 Charge =  0 Multiplicity = 2

                         Standard orientation:
 ---------------------------------------------------------------------
 Center     Atomic      Atomic             Coordinates (Angstroms)
 Number     Number       Type             X           Y           Z
 ---------------------------------------------------------------------
      1         11           0       -2.731202   -1.457334   -0.796034
      2         11           0       -0.264904    0.448300   -1.623978
      3         11           0        3.224571   -0.432810    0.278605
      4         11           0        1.075074   -2.760777   -0.293741
      5         11           0       -2.691974    1.569523    0.773987
      6         11           0        1.544545    3.021375   -0.496303
      7         11           0       -0.156110   -0.388279    2.157464
 ---------------------------------------------------------------------

 SCF Done:  E(UB3LYP) =  -1136.13172493     A.U. after   19 cycles

 The electronic state is 2-A.
 Alpha  occ. eigenvalues --  -38.44398 -38.44379 -38.44341 -38.43973 -38.43399
 Alpha  occ. eigenvalues --  -38.43307 -38.43153  -2.20219  -2.20201  -2.20167
 Alpha  occ. eigenvalues --   -2.19818  -2.19320  -2.19144  -2.18936  -1.13892
 Alpha  occ. eigenvalues --   -1.13890  -1.13872  -1.13861  -1.13850  -1.13826
 Alpha  occ. eigenvalues --   -1.13819  -1.13807  -1.13803  -1.13519  -1.13456
 Alpha  occ. eigenvalues --   -1.13446  -1.13002  -1.12965  -1.12955  -1.12823
 Alpha  occ. eigenvalues --   -1.12806  -1.12783  -1.12614  -1.12586  -1.12578
 Alpha  occ. eigenvalues --   -0.18060  -0.13209  -0.11825  -0.11152
 Alpha virt. eigenvalues --   -0.05895  -0.05251  -0.04627  -0.03491  -0.02852
 Alpha virt. eigenvalues --   -0.02738  -0.01681  -0.01186  -0.00585  -0.00325
 Alpha virt. eigenvalues --   -0.00060   0.00331   0.00692   0.00741   0.00819

  Beta  occ. eigenvalues --  -38.44398 -38.44318 -38.44291 -38.43949 -38.43345
  Beta  occ. eigenvalues --  -38.43306 -38.43151  -2.20202  -2.20126  -2.20056
  Beta  occ. eigenvalues --   -2.19777  -2.19223  -2.19143  -2.18933  -1.13889
  Beta  occ. eigenvalues --   -1.13864  -1.13826  -1.13816  -1.13787  -1.13775
  Beta  occ. eigenvalues --   -1.13766  -1.13751  -1.13697  -1.13478  -1.13427
  Beta  occ. eigenvalues --   -1.13413  -1.12936  -1.12897  -1.12879  -1.12822
  Beta  occ. eigenvalues --   -1.12803  -1.12769  -1.12602  -1.12585  -1.12577
  Beta  occ. eigenvalues --   -0.17341  -0.13019  -0.11585
  Beta virt. eigenvalues --   -0.07246  -0.05763  -0.05130  -0.04504  -0.02854
  Beta virt. eigenvalues --   -0.02169  -0.01866  -0.01551  -0.01023  -0.00532
  Beta virt. eigenvalues --   -0.00340   0.00072   0.00379   0.00785   0.00838

 Mulliken charges and spin densities:
               1          2
     1  Na   0.277897   0.026062
     2  Na  -0.067830   0.364490
     3  Na  -0.010423  -0.022459
     4  Na  -0.048771  -0.010015
     5  Na   0.074251   0.165132
     6  Na  -0.029626  -0.050263
     7  Na  -0.195498   0.527052
 Sum of Mulliken charges =  -0.00000   1.00000

 Dipole moment (field-independent basis, Debye):
    X=             -0.3059    Y=             -0.2247    Z=              0.4245  Tot=              0.5694
 Quadrupole moment (field-independent basis, Debye-Ang):
   XX=            -56.1998   YY=            -66.0830   ZZ=            -72.6563
   XY=             -0.8140   XZ=              0.7613   YZ=              2.8615

 Normal termination of Gaussian 16 at Sun Dec  3 15:13:55 2023.
