 Gaussian 16, Revision B.01,
 Gaussian 16:  ES64L-G16RevB.01 20-Dec-2017

 -------------------------
 #P B3LYP/6-311+g(d) force
 -------------------------

 -----
 DPGEN
 -----
 Symbolic Z-matrix:
 Charge =  0 Multiplicity = 2

                         Standard orientation:
 ---------------------------------------------------------------------
 Center     Atomic      Atomic             Coordinates (Angstroms)
 Number     Number       Type             X           Y           Z
 ---------------------------------------------------------------------
      1         11           0        0.391566   -0.173635   -1.872455
      2         11           0        0.268587   -2.970827   -0.090358
      3         11           0        3.053826   -0.424606    0.162308
      4         11           0       -0.045539   -0.254405    1.876330
      5         11           0        1.429230    2.802894    0.042115
      6         11           0       -2.329479    2.211416   -0.089878
      7         11           0       -2.768191   -1.190839   -0.028062
 ---------------------------------------------------------------------

 SCF Done:  E(UB3LYP) =  -1136.13957735     A.U. after   19 cycles

 The electronic state is 2-A.
 Alpha  occ. eigenvalues --  -38.43929 -38.43862 -38.43760 -38.43680 -38.43517
 Alpha  occ. eigenvalues --  -38.43414 -38.43412  -2.19767  -2.19656  -2.19552
 Alpha  occ. eigenvalues --   -2.19524  -2.19385  -2.19330  -2.19324  -1.13450
 Alpha  occ. eigenvalues --   -1.13440  -1.13399  -1.13333  -1.13319  -1.13292
 Alpha  occ. eigenvalues --   -1.13239  -1.13226  -1.13203  -1.13198  -1.13188
 Alpha  occ. eigenvalues --   -1.13148  -1.13092  -1.13070  -1.13010  -1.12997
 Alpha  occ. eigenvalues --   -1.12984  -1.12953  -1.12946  -1.12941  -1.12938
 Alpha  occ. eigenvalues --   -0.18459  -0.12863  -0.12524  -0.10630
 Alpha virt. eigenvalues --   -0.05543  -0.05252  -0.05027  -0.03121  -0.02904
 Alpha virt. eigenvalues --   -0.02518  -0.01368  -0.01248  -0.00583  -0.00474
 Alpha virt. eigenvalues --   -0.00010   0.00373   0.00837   0.00840   0.00879

  Beta  occ. eigenvalues --  -38.43922 -38.43861 -38.43760 -38.43676 -38.43509
  Beta  occ. eigenvalues --  -38.43334 -38.43330  -2.19759  -2.19656  -2.19555
  Beta  occ. eigenvalues --   -2.19521  -2.19375  -2.19183  -2.19174  -1.13443
  Beta  occ. eigenvalues --   -1.13408  -1.13398  -1.13321  -1.13315  -1.13295
  Beta  occ. eigenvalues --   -1.13241  -1.13214  -1.13203  -1.13195  -1.13167
  Beta  occ. eigenvalues --   -1.13150  -1.13075  -1.13023  -1.13008  -1.12907
  Beta  occ. eigenvalues --   -1.12886  -1.12849  -1.12839  -1.12837  -1.12836
  Beta  occ. eigenvalues --   -0.17719  -0.12644  -0.12310
  Beta virt. eigenvalues --   -0.06725  -0.05554  -0.05259  -0.04907  -0.02332
  Beta virt. eigenvalues --   -0.02157  -0.01477  -0.01284  -0.01168  -0.00635
  Beta virt. eigenvalues --   -0.00545   0.00131   0.00401   0.00838   0.00868

 Mulliken charges and spin densities:
               1          2
     1  Na  -0.226141   0.770969
     2  Na   0.362430  -0.082478
     3  Na   0.221361  -0.111066
     4  Na  -0.204579   0.754268
     5  Na  -0.104042  -0.131874
     6  Na  -0.126081  -0.119737
     7  Na   0.077053  -0.080083
 Sum of Mulliken charges =  -0.00000   1.00000

 Dipole moment (field-independent basis, Debye):
    X=              0.1808    Y=              0.0156    Z=              0.0140  Tot=              0.1820
 Quadrupole moment (field-independent basis, Debye-Ang):
   XX=            -58.6382   YY=            -59.9773   ZZ=            -74.9407
   XY=              0.0562   XZ=              0.9785   YZ=              0.1422

 Normal termination of Gaussian 16 at Thu Dec  7 08:49:01 2023.
