 Gaussian 16, Revision B.01,
 Gaussian 16:  ES64L-G16RevB.01 20-Dec-2017

 -------------------------
 #P B3LYP/6-311+g(d) force
 -------------------------

 -----
 DPGEN
 -----
 Symbolic Z-matrix:
 Charge =  0 Multiplicity = 2

                         Standard orientation:
 ---------------------------------------------------------------------
 Center     Atomic      Atomic             Coordinates (Angstroms)
 Number     Number       Type             X           Y           Z
 ---------------------------------------------------------------------
      1         11           0        0.365919    1.464962    0.391335
      2         11           0       -1.161956   -1.287675    2.075346
      3         11           0       -0.759630   -2.881515   -0.619916
      4         11           0        2.110276   -1.471249   -0.953835
      5         11           0        3.820746    1.065013    0.291273
      6         11           0       -2.630228   -0.274082   -0.712627
      7         11           0       -1.745127    3.384547   -0.471577
 ---------------------------------------------------------------------

 SCF Done:  E(UB3LYP) =  -1136.12411116     A.U. after   20 cycles

 The electronic state is 2-A.
 Alpha  occ. eigenvalues --  -38.44765 -38.44400 -38.43855 -38.43772 -38.43734
 Alpha  occ. eigenvalues --  -38.43554 -38.43188  -2.20625  -2.20201  -2.19710
 Alpha  occ. eigenvalues --   -2.19681  -2.19563  -2.19477  -2.19113  -1.14318
 Alpha  occ. eigenvalues --   -1.14313  -1.14236  -1.13867  -1.13859  -1.13846
 Alpha  occ. eigenvalues --   -1.13402  -1.13378  -1.13344  -1.13339  -1.13325
 Alpha  occ. eigenvalues --   -1.13308  -1.13302  -1.13205  -1.13182  -1.13138
 Alpha  occ. eigenvalues --   -1.13121  -1.13091  -1.12804  -1.12798  -1.12711
 Alpha  occ. eigenvalues --   -0.18134  -0.13313  -0.12958  -0.10419
 Alpha virt. eigenvalues --   -0.06552  -0.05327  -0.04848  -0.03007  -0.02875
 Alpha virt. eigenvalues --   -0.02181  -0.01835  -0.01426  -0.00792  -0.00336
 Alpha virt. eigenvalues --   -0.00176   0.00280   0.00359   0.00608   0.00841

  Beta  occ. eigenvalues --  -38.44754 -38.44400 -38.43824 -38.43725 -38.43679
  Beta  occ. eigenvalues --  -38.43526 -38.43177  -2.20607  -2.20201  -2.19655
  Beta  occ. eigenvalues --   -2.19547  -2.19508  -2.19430  -2.19095  -1.14310
  Beta  occ. eigenvalues --   -1.14271  -1.14228  -1.13866  -1.13857  -1.13845
  Beta  occ. eigenvalues --   -1.13366  -1.13343  -1.13296  -1.13282  -1.13242
  Beta  occ. eigenvalues --   -1.13204  -1.13191  -1.13188  -1.13168  -1.13108
  Beta  occ. eigenvalues --   -1.13087  -1.13020  -1.12798  -1.12756  -1.12702
  Beta  occ. eigenvalues --   -0.17517  -0.13210  -0.12608
  Beta virt. eigenvalues --   -0.06733  -0.06252  -0.05111  -0.04575  -0.02614
  Beta virt. eigenvalues --   -0.02366  -0.01913  -0.01445  -0.01104  -0.00686
  Beta virt. eigenvalues --   -0.00204   0.00117   0.00377   0.00549   0.00684

 Mulliken charges and spin densities:
               1          2
     1  Na  -1.961367   0.223563
     2  Na   0.310889   0.272527
     3  Na   0.021837   0.332879
     4  Na  -0.122898   0.050434
     5  Na   0.811668   0.051770
     6  Na   0.167869   0.128409
     7  Na   0.772001  -0.059582
 Sum of Mulliken charges =  -0.00000   1.00000

 Dipole moment (field-independent basis, Debye):
    X=              0.1561    Y=              0.2263    Z=              0.0865  Tot=              0.2882
 Quadrupole moment (field-independent basis, Debye-Ang):
   XX=            -56.5379   YY=            -63.5838   ZZ=            -73.8778
   XY=              2.5431   XZ=              2.8022   YZ=              0.0001

 Normal termination of Gaussian 16 at Tue Nov 28 19:27:55 2023.
