 Gaussian 16, Revision B.01,
 Gaussian 16:  ES64L-G16RevB.01 20-Dec-2017

 -------------------------
 #P B3LYP/6-311+g(d) force
 -------------------------

 -----
 DPGEN
 -----
 Symbolic Z-matrix:
 Charge =  0 Multiplicity = 2

                         Standard orientation:
 ---------------------------------------------------------------------
 Center     Atomic      Atomic             Coordinates (Angstroms)
 Number     Number       Type             X           Y           Z
 ---------------------------------------------------------------------
      1         11           0       -3.048822   -1.013626   -1.237621
      2         11           0       -1.942193    2.169471    0.126526
      3         11           0        0.217075   -0.579079   -1.590315
      4         11           0        1.549253    1.722361    0.292255
      5         11           0       -1.957489   -0.642444    1.677484
      6         11           0        1.395300   -1.503852    1.305499
      7         11           0        3.786875   -0.152832   -0.573828
 ---------------------------------------------------------------------

 SCF Done:  E(UB3LYP) =  -1136.11964760     A.U. after   27 cycles

 The electronic state is 2-A.
 Alpha  occ. eigenvalues --  -38.45501 -38.44424 -38.44356 -38.44066 -38.43603
 Alpha  occ. eigenvalues --  -38.43030 -38.42736  -2.21365  -2.20347  -2.20225
 Alpha  occ. eigenvalues --   -2.19979  -2.19521  -2.18960  -2.18599  -1.15055
 Alpha  occ. eigenvalues --   -1.15017  -1.14988  -1.14062  -1.13996  -1.13984
 Alpha  occ. eigenvalues --   -1.13920  -1.13864  -1.13848  -1.13644  -1.13630
 Alpha  occ. eigenvalues --   -1.13601  -1.13216  -1.13169  -1.13128  -1.12666
 Alpha  occ. eigenvalues --   -1.12629  -1.12583  -1.12291  -1.12253  -1.12224
 Alpha  occ. eigenvalues --   -0.18965  -0.14729  -0.11385  -0.10811
 Alpha virt. eigenvalues --   -0.06995  -0.05085  -0.04896  -0.03225  -0.02743
 Alpha virt. eigenvalues --   -0.02246  -0.02241  -0.01039  -0.00701  -0.00053
 Alpha virt. eigenvalues --    0.00119   0.00293   0.00349   0.00730   0.00812

  Beta  occ. eigenvalues --  -38.45495 -38.44368 -38.44329 -38.44021 -38.43549
  Beta  occ. eigenvalues --  -38.43033 -38.42727  -2.21354  -2.20246  -2.20177
  Beta  occ. eigenvalues --   -2.19900  -2.19425  -2.18966  -2.18584  -1.15047
  Beta  occ. eigenvalues --   -1.15002  -1.14982  -1.13982  -1.13924  -1.13919
  Beta  occ. eigenvalues --   -1.13887  -1.13816  -1.13807  -1.13588  -1.13559
  Beta  occ. eigenvalues --   -1.13543  -1.13154  -1.13095  -1.13049  -1.12673
  Beta  occ. eigenvalues --   -1.12609  -1.12594  -1.12272  -1.12239  -1.12219
  Beta  occ. eigenvalues --   -0.18295  -0.14507  -0.10628
  Beta virt. eigenvalues --   -0.07400  -0.06845  -0.04938  -0.04292  -0.02890
  Beta virt. eigenvalues --   -0.02588  -0.01660  -0.01512  -0.00810  -0.00447
  Beta virt. eigenvalues --   -0.00009   0.00165   0.00362   0.00422   0.00770

 Mulliken charges and spin densities:
               1          2
     1  Na   0.272515   0.033095
     2  Na  -0.460568   0.176656
     3  Na  -0.659381   0.355340
     4  Na  -0.858527   0.102228
     5  Na   0.279845   0.146025
     6  Na  -0.510281   0.166039
     7  Na   1.936396   0.020616
 Sum of Mulliken charges =  -0.00000   1.00000

 Dipole moment (field-independent basis, Debye):
    X=              1.0291    Y=             -0.4453    Z=             -0.3591  Tot=              1.1774
 Quadrupole moment (field-independent basis, Debye-Ang):
   XX=            -44.3164   YY=            -80.2263   ZZ=            -69.0778
   XY=             -0.4449   XZ=             -1.3457   YZ=             -0.0916

 Normal termination of Gaussian 16 at Tue Dec  5 23:22:44 2023.
