 Gaussian 16, Revision B.01,
 Gaussian 16:  ES64L-G16RevB.01 20-Dec-2017

 -------------------------
 #P B3LYP/6-311+g(d) force
 -------------------------

 -----
 DPGEN
 -----
 Symbolic Z-matrix:
 Charge =  0 Multiplicity = 2

                         Standard orientation:
 ---------------------------------------------------------------------
 Center     Atomic      Atomic             Coordinates (Angstroms)
 Number     Number       Type             X           Y           Z
 ---------------------------------------------------------------------
      1         11           0        0.028170    0.044048   -1.670938
      2         11           0        2.240125   -2.247400    0.001936
      3         11           0        0.140889   -0.656690    1.795450
      4         11           0        2.885422    1.495061   -0.040756
      5         11           0       -0.272454    2.791411    0.044615
      6         11           0       -1.900975   -2.360067   -0.399265
      7         11           0       -3.121177    0.933636    0.268958
 ---------------------------------------------------------------------

 SCF Done:  E(UB3LYP) =  -1136.13675852     A.U. after   19 cycles

 The electronic state is 2-A.
 Alpha  occ. eigenvalues --  -38.44128 -38.44058 -38.44033 -38.43858 -38.43264
 Alpha  occ. eigenvalues --  -38.43167 -38.43059  -2.19938  -2.19873  -2.19861
 Alpha  occ. eigenvalues --   -2.19698  -2.19183  -2.19036  -2.19021  -1.13613
 Alpha  occ. eigenvalues --   -1.13601  -1.13580  -1.13559  -1.13539  -1.13537
 Alpha  occ. eigenvalues --   -1.13520  -1.13520  -1.13485  -1.13384  -1.13365
 Alpha  occ. eigenvalues --   -1.13319  -1.12867  -1.12813  -1.12802  -1.12775
 Alpha  occ. eigenvalues --   -1.12701  -1.12689  -1.12666  -1.12633  -1.12630
 Alpha  occ. eigenvalues --   -0.18521  -0.13009  -0.12559  -0.10338
 Alpha virt. eigenvalues --   -0.05777  -0.05619  -0.04588  -0.03045  -0.02846
 Alpha virt. eigenvalues --   -0.02178  -0.01671  -0.01414  -0.00589  -0.00329
 Alpha virt. eigenvalues --    0.00008   0.00338   0.00751   0.00801   0.00883

  Beta  occ. eigenvalues --  -38.44126 -38.44053 -38.44028 -38.43844 -38.43191
  Beta  occ. eigenvalues --  -38.43162 -38.42986  -2.19938  -2.19866  -2.19855
  Beta  occ. eigenvalues --   -2.19676  -2.19050  -2.19030  -2.18888  -1.13606
  Beta  occ. eigenvalues --   -1.13596  -1.13578  -1.13547  -1.13535  -1.13519
  Beta  occ. eigenvalues --   -1.13513  -1.13501  -1.13484  -1.13365  -1.13327
  Beta  occ. eigenvalues --   -1.13308  -1.12778  -1.12748  -1.12716  -1.12705
  Beta  occ. eigenvalues --   -1.12680  -1.12657  -1.12607  -1.12549  -1.12533
  Beta  occ. eigenvalues --   -0.17827  -0.12781  -0.12303
  Beta virt. eigenvalues --   -0.06510  -0.05745  -0.05565  -0.04546  -0.02312
  Beta virt. eigenvalues --   -0.02094  -0.01577  -0.01342  -0.01172  -0.00636
  Beta virt. eigenvalues --   -0.00358   0.00151   0.00374   0.00778   0.00830

 Mulliken charges and spin densities:
               1          2
     1  Na  -0.160205   0.586955
     2  Na   0.240232  -0.132643
     3  Na  -0.374573   0.711992
     4  Na   0.050089  -0.081607
     5  Na   0.016685  -0.043573
     6  Na   0.196697  -0.057802
     7  Na   0.031076   0.016678
 Sum of Mulliken charges =  -0.00000   1.00000

 Dipole moment (field-independent basis, Debye):
    X=              0.1572    Y=             -0.2508    Z=              0.0364  Tot=              0.2982
 Quadrupole moment (field-independent basis, Debye-Ang):
   XX=            -53.6013   YY=            -62.1827   ZZ=            -76.3523
   XY=              0.1264   XZ=             -0.6055   YZ=              1.6509

 Normal termination of Gaussian 16 at Tue Dec  5 13:05:39 2023.
