 Gaussian 16, Revision B.01,
 Gaussian 16:  ES64L-G16RevB.01 20-Dec-2017

 -------------------------
 #P B3LYP/6-311+g(d) force
 -------------------------

 -----
 DPGEN
 -----
 Symbolic Z-matrix:
 Charge =  0 Multiplicity = 2

                         Standard orientation:
 ---------------------------------------------------------------------
 Center     Atomic      Atomic             Coordinates (Angstroms)
 Number     Number       Type             X           Y           Z
 ---------------------------------------------------------------------
      1         11           0        3.190089    1.454372    0.916672
      2         11           0       -3.955555   -0.263393    0.823546
      3         11           0        0.719915   -3.408848    0.276241
      4         11           0        4.159946   -1.582876   -0.666871
      5         11           0       -2.505151   -2.966984   -0.484948
      6         11           0       -2.436211    2.964019   -0.738162
      7         11           0        0.826968    3.803710   -0.126478
 ---------------------------------------------------------------------

 SCF Done:  E(UB3LYP) =  -1136.10704080     A.U. after   26 cycles

 The electronic state is 2-A.
 Alpha  occ. eigenvalues --  -38.45396 -38.45347 -38.45078 -38.44385 -38.44153
 Alpha  occ. eigenvalues --  -38.44113 -38.43622  -2.21149  -2.21083  -2.20850
 Alpha  occ. eigenvalues --   -2.20173  -2.19959  -2.19893  -2.19426  -1.14837
 Alpha  occ. eigenvalues --   -1.14825  -1.14778  -1.14774  -1.14760  -1.14719
 Alpha  occ. eigenvalues --   -1.14523  -1.14515  -1.14466  -1.13840  -1.13829
 Alpha  occ. eigenvalues --   -1.13804  -1.13628  -1.13623  -1.13599  -1.13551
 Alpha  occ. eigenvalues --   -1.13538  -1.13524  -1.13083  -1.13079  -1.13064
 Alpha  occ. eigenvalues --   -0.15433  -0.13823  -0.13383  -0.10554
 Alpha virt. eigenvalues --   -0.07852  -0.05038  -0.04446  -0.03490  -0.03165
 Alpha virt. eigenvalues --   -0.02508  -0.02491  -0.01797  -0.01538  -0.00708
 Alpha virt. eigenvalues --   -0.00521  -0.00013   0.00058   0.00316   0.00546

  Beta  occ. eigenvalues --  -38.45385 -38.45357 -38.45027 -38.44336 -38.44141
  Beta  occ. eigenvalues --  -38.44061 -38.43579  -2.21134  -2.21104  -2.20760
  Beta  occ. eigenvalues --   -2.20081  -2.19943  -2.19796  -2.19346  -1.14832
  Beta  occ. eigenvalues --   -1.14819  -1.14792  -1.14778  -1.14731  -1.14710
  Beta  occ. eigenvalues --   -1.14464  -1.14457  -1.14380  -1.13785  -1.13767
  Beta  occ. eigenvalues --   -1.13737  -1.13621  -1.13614  -1.13555  -1.13485
  Beta  occ. eigenvalues --   -1.13470  -1.13459  -1.13028  -1.13024  -1.13016
  Beta  occ. eigenvalues --   -0.14921  -0.13169  -0.12737
  Beta virt. eigenvalues --   -0.07963  -0.07359  -0.04640  -0.03998  -0.03330
  Beta virt. eigenvalues --   -0.02745  -0.02319  -0.02156  -0.01650  -0.01397
  Beta virt. eigenvalues --   -0.00466  -0.00293   0.00040   0.00284   0.00365

 Mulliken charges and spin densities:
               1          2
     1  Na  -0.164488   0.050487
     2  Na  -0.004945   0.270021
     3  Na  -0.067292   0.227542
     4  Na   0.194061   0.249472
     5  Na  -0.059532   0.006636
     6  Na  -0.021262  -0.015965
     7  Na   0.123458   0.211807
 Sum of Mulliken charges =  -0.00000   1.00000

 Dipole moment (field-independent basis, Debye):
    X=              0.0298    Y=             -0.0994    Z=             -0.0006  Tot=              0.1038
 Quadrupole moment (field-independent basis, Debye-Ang):
   XX=            -65.5653   YY=            -67.0299   ZZ=            -69.0381
   XY=             -1.3888   XZ=              1.3983   YZ=              0.3781

 Normal termination of Gaussian 16 at Mon Dec  4 04:16:57 2023.
