 Gaussian 16, Revision B.01,
 Gaussian 16:  ES64L-G16RevB.01 20-Dec-2017

 -------------------------
 #P B3LYP/6-311+g(d) force
 -------------------------

 -----
 DPGEN
 -----
 Symbolic Z-matrix:
 Charge =  0 Multiplicity = 2

                         Standard orientation:
 ---------------------------------------------------------------------
 Center     Atomic      Atomic             Coordinates (Angstroms)
 Number     Number       Type             X           Y           Z
 ---------------------------------------------------------------------
      1         11           0        1.677198    1.768013    0.431234
      2         11           0        4.228457   -0.033490   -0.344385
      3         11           0       -1.802597    3.350559   -0.317169
      4         11           0       -2.408745    0.582868   -0.844032
      5         11           0        0.977784   -2.025162   -0.862944
      6         11           0       -2.062571   -3.014215   -0.105139
      7         11           0       -0.609526   -0.628573    2.042434
 ---------------------------------------------------------------------

 SCF Done:  E(UB3LYP) =  -1136.12580586     A.U. after   19 cycles

 The electronic state is 2-A.
 Alpha  occ. eigenvalues --  -38.44591 -38.44186 -38.44094 -38.44019 -38.43906
 Alpha  occ. eigenvalues --  -38.43729 -38.43686  -2.20407  -2.20024  -2.19892
 Alpha  occ. eigenvalues --   -2.19837  -2.19788  -2.19605  -2.19526  -1.14103
 Alpha  occ. eigenvalues --   -1.14095  -1.14016  -1.13689  -1.13681  -1.13660
 Alpha  occ. eigenvalues --   -1.13595  -1.13568  -1.13551  -1.13535  -1.13518
 Alpha  occ. eigenvalues --   -1.13514  -1.13456  -1.13436  -1.13423  -1.13263
 Alpha  occ. eigenvalues --   -1.13246  -1.13202  -1.13162  -1.13152  -1.13131
 Alpha  occ. eigenvalues --   -0.17710  -0.13281  -0.12963  -0.10295
 Alpha virt. eigenvalues --   -0.06194  -0.05597  -0.05265  -0.03031  -0.02917
 Alpha virt. eigenvalues --   -0.02143  -0.01968  -0.01577  -0.01134  -0.00638
 Alpha virt. eigenvalues --   -0.00070   0.00202   0.00516   0.00667   0.00732

  Beta  occ. eigenvalues --  -38.44572 -38.44178 -38.44084 -38.44008 -38.43882
  Beta  occ. eigenvalues --  -38.43677 -38.43627  -2.20372  -2.20011  -2.19873
  Beta  occ. eigenvalues --   -2.19819  -2.19746  -2.19512  -2.19415  -1.14081
  Beta  occ. eigenvalues --   -1.14056  -1.13992  -1.13680  -1.13659  -1.13648
  Beta  occ. eigenvalues --   -1.13585  -1.13542  -1.13535  -1.13523  -1.13504
  Beta  occ. eigenvalues --   -1.13484  -1.13425  -1.13415  -1.13392  -1.13154
  Beta  occ. eigenvalues --   -1.13134  -1.13129  -1.13121  -1.13119  -1.13066
  Beta  occ. eigenvalues --   -0.17091  -0.13116  -0.12655
  Beta virt. eigenvalues --   -0.06673  -0.06012  -0.05412  -0.04932  -0.02562
  Beta virt. eigenvalues --   -0.02371  -0.02011  -0.01508  -0.01302  -0.01009
  Beta virt. eigenvalues --   -0.00417   0.00165   0.00300   0.00625   0.00753

 Mulliken charges and spin densities:
               1          2
     1  Na  -0.629616   0.048231
     2  Na   0.509044   0.016160
     3  Na   0.423476  -0.121420
     4  Na  -0.641036   0.215945
     5  Na  -0.552815   0.077828
     6  Na   1.029432   0.347781
     7  Na  -0.138485   0.415473
 Sum of Mulliken charges =  -0.00000   1.00000

 Dipole moment (field-independent basis, Debye):
    X=              0.1971    Y=             -0.6275    Z=              0.2399  Tot=              0.7001
 Quadrupole moment (field-independent basis, Debye-Ang):
   XX=            -60.2125   YY=            -60.3297   ZZ=            -75.4288
   XY=              4.3332   XZ=             -1.3242   YZ=              1.0812

 Normal termination of Gaussian 16 at Mon Dec  4 05:28:59 2023.
