 Gaussian 16, Revision B.01,
 Gaussian 16:  ES64L-G16RevB.01 20-Dec-2017

 -------------------------
 #P B3LYP/6-311+g(d) force
 -------------------------

 -----
 DPGEN
 -----
 Symbolic Z-matrix:
 Charge =  0 Multiplicity = 2

                         Standard orientation:
 ---------------------------------------------------------------------
 Center     Atomic      Atomic             Coordinates (Angstroms)
 Number     Number       Type             X           Y           Z
 ---------------------------------------------------------------------
      1         11           0       -2.283780    0.939456   -0.731415
      2         11           0        1.891654    1.570375   -1.153218
      3         11           0       -0.722962    3.152355    0.803261
      4         11           0        0.164206   -1.602424   -1.461853
      5         11           0        0.281938   -0.639334    1.745407
      6         11           0       -2.562849   -2.235070    0.300038
      7         11           0        3.231794   -1.185357    0.497781
 ---------------------------------------------------------------------

 SCF Done:  E(UB3LYP) =  -1136.13518380     A.U. after   19 cycles

 The electronic state is 2-A.
 Alpha  occ. eigenvalues --  -38.44020 -38.43946 -38.43752 -38.43737 -38.43551
 Alpha  occ. eigenvalues --  -38.43541 -38.43194  -2.19846  -2.19784  -2.19617
 Alpha  occ. eigenvalues --   -2.19602  -2.19463  -2.19451  -2.19027  -1.13530
 Alpha  occ. eigenvalues --   -1.13515  -1.13474  -1.13472  -1.13437  -1.13406
 Alpha  occ. eigenvalues --   -1.13312  -1.13308  -1.13297  -1.13274  -1.13260
 Alpha  occ. eigenvalues --   -1.13211  -1.13182  -1.13134  -1.13098  -1.13074
 Alpha  occ. eigenvalues --   -1.13067  -1.13048  -1.12702  -1.12673  -1.12662
 Alpha  occ. eigenvalues --   -0.18361  -0.13172  -0.12465  -0.10704
 Alpha virt. eigenvalues --   -0.05518  -0.05412  -0.04688  -0.03396  -0.03068
 Alpha virt. eigenvalues --   -0.02426  -0.01600  -0.01178  -0.00458  -0.00175
 Alpha virt. eigenvalues --    0.00210   0.00341   0.00704   0.00751   0.00809

  Beta  occ. eigenvalues --  -38.43989 -38.43939 -38.43751 -38.43729 -38.43503
  Beta  occ. eigenvalues --  -38.43467 -38.43186  -2.19791  -2.19773  -2.19604
  Beta  occ. eigenvalues --   -2.19603  -2.19378  -2.19315  -2.19013  -1.13490
  Beta  occ. eigenvalues --   -1.13474  -1.13449  -1.13441  -1.13425  -1.13385
  Beta  occ. eigenvalues --   -1.13310  -1.13297  -1.13276  -1.13264  -1.13241
  Beta  occ. eigenvalues --   -1.13209  -1.13122  -1.13056  -1.13011  -1.12990
  Beta  occ. eigenvalues --   -1.12977  -1.12971  -1.12694  -1.12659  -1.12649
  Beta  occ. eigenvalues --   -0.17652  -0.12938  -0.12302
  Beta virt. eigenvalues --   -0.06872  -0.05414  -0.05283  -0.04551  -0.02702
  Beta virt. eigenvalues --   -0.02509  -0.01536  -0.01488  -0.01090  -0.00279
  Beta virt. eigenvalues --   -0.00104   0.00274   0.00392   0.00772   0.00831

 Mulliken charges and spin densities:
               1          2
     1  Na  -0.340034   0.073439
     2  Na  -0.274792   0.111601
     3  Na   0.315582  -0.095558
     4  Na  -0.150433   0.412422
     5  Na  -0.597644   0.624399
     6  Na   0.619627  -0.062555
     7  Na   0.427695  -0.063749
 Sum of Mulliken charges =  -0.00000   1.00000

 Dipole moment (field-independent basis, Debye):
    X=              0.2273    Y=             -0.4053    Z=             -0.0274  Tot=              0.4655
 Quadrupole moment (field-independent basis, Debye-Ang):
   XX=            -57.2504   YY=            -64.5094   ZZ=            -72.1982
   XY=              1.8266   XZ=             -0.6448   YZ=              0.0846

 Normal termination of Gaussian 16 at Tue Dec  5 19:32:30 2023.
