 Gaussian 16, Revision B.01,
 Gaussian 16:  ES64L-G16RevB.01 20-Dec-2017

 -------------------------
 #P B3LYP/6-311+g(d) force
 -------------------------

 -----
 DPGEN
 -----
 Symbolic Z-matrix:
 Charge =  0 Multiplicity = 2

                         Standard orientation:
 ---------------------------------------------------------------------
 Center     Atomic      Atomic             Coordinates (Angstroms)
 Number     Number       Type             X           Y           Z
 ---------------------------------------------------------------------
      1         11           0        4.041791   -1.189462   -0.914215
      2         11           0       -2.493280    2.583765   -0.494691
      3         11           0        0.411288    3.995903    0.156490
      4         11           0       -4.757745   -0.291538   -0.253190
      5         11           0       -2.252799   -3.019422    0.843041
      6         11           0        1.208149   -3.570628   -0.207223
      7         11           0        3.842596    1.491382    0.869789
 ---------------------------------------------------------------------

 SCF Done:  E(UB3LYP) =  -1136.10495221     A.U. after   23 cycles

 The electronic state is 2-A.
 Alpha  occ. eigenvalues --  -38.45297 -38.45188 -38.44751 -38.44600 -38.44523
 Alpha  occ. eigenvalues --  -38.44269 -38.44023  -2.21067  -2.20910  -2.20534
 Alpha  occ. eigenvalues --   -2.20367  -2.20288  -2.20054  -2.19811  -1.14734
 Alpha  occ. eigenvalues --   -1.14727  -1.14704  -1.14604  -1.14590  -1.14541
 Alpha  occ. eigenvalues --   -1.14201  -1.14194  -1.14178  -1.14053  -1.14047
 Alpha  occ. eigenvalues --   -1.14012  -1.13956  -1.13944  -1.13904  -1.13707
 Alpha  occ. eigenvalues --   -1.13691  -1.13678  -1.13464  -1.13459  -1.13442
 Alpha  occ. eigenvalues --   -0.15187  -0.13899  -0.13236  -0.11048
 Alpha virt. eigenvalues --   -0.07717  -0.04858  -0.04785  -0.03513  -0.03440
 Alpha virt. eigenvalues --   -0.02383  -0.02240  -0.01646  -0.01541  -0.01136
 Alpha virt. eigenvalues --   -0.00919  -0.00429   0.00214   0.00246   0.00468

  Beta  occ. eigenvalues --  -38.45264 -38.45194 -38.44741 -38.44592 -38.44469
  Beta  occ. eigenvalues --  -38.44194 -38.43971  -2.21010  -2.20926  -2.20520
  Beta  occ. eigenvalues --   -2.20358  -2.20189  -2.19914  -2.19717  -1.14692
  Beta  occ. eigenvalues --   -1.14690  -1.14656  -1.14619  -1.14604  -1.14521
  Beta  occ. eigenvalues --   -1.14194  -1.14186  -1.14151  -1.14053  -1.14045
  Beta  occ. eigenvalues --   -1.13962  -1.13889  -1.13878  -1.13835  -1.13611
  Beta  occ. eigenvalues --   -1.13597  -1.13587  -1.13401  -1.13396  -1.13374
  Beta  occ. eigenvalues --   -0.14657  -0.13160  -0.12410
  Beta virt. eigenvalues --   -0.08018  -0.07877  -0.04470  -0.04216  -0.03331
  Beta virt. eigenvalues --   -0.03192  -0.02144  -0.01996  -0.01480  -0.01325
  Beta virt. eigenvalues --   -0.00805  -0.00713  -0.00206   0.00264   0.00290

 Mulliken charges and spin densities:
               1          2
     1  Na  -0.014848   0.041373
     2  Na  -0.256122   0.093790
     3  Na   0.186124   0.184187
     4  Na   0.265796   0.343003
     5  Na  -0.009437  -0.050581
     6  Na  -0.027596   0.250055
     7  Na  -0.143917   0.138173
 Sum of Mulliken charges =  -0.00000   1.00000

 Dipole moment (field-independent basis, Debye):
    X=              0.8601    Y=             -0.2396    Z=              0.1511  Tot=              0.9056
 Quadrupole moment (field-independent basis, Debye-Ang):
   XX=            -61.0760   YY=            -68.5480   ZZ=            -70.3857
   XY=              2.5649   XZ=             -0.2095   YZ=              1.9491

 Normal termination of Gaussian 16 at Sun Dec  3 12:35:40 2023.
