 Gaussian 16, Revision B.01,
 Gaussian 16:  ES64L-G16RevB.01 20-Dec-2017

 -------------------------
 #P B3LYP/6-311+g(d) force
 -------------------------

 -----
 DPGEN
 -----
 Symbolic Z-matrix:
 Charge =  0 Multiplicity = 2

                         Standard orientation:
 ---------------------------------------------------------------------
 Center     Atomic      Atomic             Coordinates (Angstroms)
 Number     Number       Type             X           Y           Z
 ---------------------------------------------------------------------
      1         11           0        1.658284   -2.163350   -0.788070
      2         11           0        3.627477    0.250800    0.976941
      3         11           0       -0.118281   -0.385766    1.465295
      4         11           0        1.281882    1.632020   -0.860327
      5         11           0       -3.464867   -0.369008    1.217455
      6         11           0       -1.753776   -1.023968   -1.495341
      7         11           0       -1.230719    2.059272   -0.515953
 ---------------------------------------------------------------------

 SCF Done:  E(UB3LYP) =  -1136.11694161     A.U. after   24 cycles

 The electronic state is 2-A.
 Alpha  occ. eigenvalues --  -38.44956 -38.44400 -38.44285 -38.44011 -38.43512
 Alpha  occ. eigenvalues --  -38.43000 -38.42929  -2.20777  -2.20257  -2.20232
 Alpha  occ. eigenvalues --   -2.19924  -2.19356  -2.19044  -2.18910  -1.14450
 Alpha  occ. eigenvalues --   -1.14428  -1.14392  -1.13959  -1.13939  -1.13916
 Alpha  occ. eigenvalues --   -1.13896  -1.13883  -1.13819  -1.13602  -1.13564
 Alpha  occ. eigenvalues --   -1.13552  -1.13241  -1.13039  -1.13022  -1.12970
 Alpha  occ. eigenvalues --   -1.12655  -1.12640  -1.12511  -1.12504  -1.12316
 Alpha  occ. eigenvalues --   -0.19026  -0.14184  -0.11433  -0.11226
 Alpha virt. eigenvalues --   -0.06709  -0.04919  -0.04487  -0.03316  -0.02628
 Alpha virt. eigenvalues --   -0.02432  -0.02268  -0.01048  -0.00600   0.00025
 Alpha virt. eigenvalues --    0.00140   0.00352   0.00378   0.00727   0.00833

  Beta  occ. eigenvalues --  -38.44927 -38.44360 -38.44256 -38.43965 -38.43482
  Beta  occ. eigenvalues --  -38.42992 -38.42920  -2.20722  -2.20182  -2.20181
  Beta  occ. eigenvalues --   -2.19844  -2.19303  -2.19033  -2.18897  -1.14413
  Beta  occ. eigenvalues --   -1.14386  -1.14358  -1.13915  -1.13880  -1.13869
  Beta  occ. eigenvalues --   -1.13854  -1.13834  -1.13777  -1.13549  -1.13501
  Beta  occ. eigenvalues --   -1.13480  -1.13232  -1.13005  -1.12982  -1.12918
  Beta  occ. eigenvalues --   -1.12646  -1.12611  -1.12504  -1.12475  -1.12305
  Beta  occ. eigenvalues --   -0.18347  -0.13878  -0.11142
  Beta virt. eigenvalues --   -0.07489  -0.06459  -0.04539  -0.04195  -0.03131
  Beta virt. eigenvalues --   -0.02336  -0.01912  -0.01498  -0.00605  -0.00550
  Beta virt. eigenvalues --    0.00092   0.00195   0.00414   0.00458   0.00827

 Mulliken charges and spin densities:
               1          2
     1  Na  -0.091103   0.119787
     2  Na   0.806224   0.042116
     3  Na  -0.921088   0.264129
     4  Na  -0.561919   0.103425
     5  Na   0.941234   0.164179
     6  Na  -0.230755   0.193077
     7  Na   0.057407   0.113287
 Sum of Mulliken charges =  -0.00000   1.00000

 Dipole moment (field-independent basis, Debye):
    X=              0.1754    Y=             -0.4211    Z=              0.3361  Tot=              0.5666
 Quadrupole moment (field-independent basis, Debye-Ang):
   XX=            -48.0506   YY=            -77.7609   ZZ=            -68.1648
   XY=             -0.1137   XZ=              1.5721   YZ=              3.0075

 Normal termination of Gaussian 16 at Thu Dec  7 19:45:47 2023.
