 Gaussian 16, Revision B.01,
 Gaussian 16:  ES64L-G16RevB.01 20-Dec-2017

 -------------------------
 #P B3LYP/6-311+g(d) force
 -------------------------

 -----
 DPGEN
 -----
 Symbolic Z-matrix:
 Charge =  0 Multiplicity = 2

                         Standard orientation:
 ---------------------------------------------------------------------
 Center     Atomic      Atomic             Coordinates (Angstroms)
 Number     Number       Type             X           Y           Z
 ---------------------------------------------------------------------
      1         11           0        2.355827    2.280326    0.072187
      2         11           0       -3.165517   -0.862187    0.043312
      3         11           0       -0.018137    0.002844    1.923774
      4         11           0       -0.036254    0.118161   -1.792228
      5         11           0        2.880177   -1.398880   -0.084312
      6         11           0       -1.819660    2.523075   -0.091070
      7         11           0       -0.196436   -2.663338   -0.071663
 ---------------------------------------------------------------------

 SCF Done:  E(UB3LYP) =  -1136.13732931     A.U. after   19 cycles

 The electronic state is 2-A.
 Alpha  occ. eigenvalues --  -38.44205 -38.44050 -38.44029 -38.43871 -38.43467
 Alpha  occ. eigenvalues --  -38.43329 -38.42901  -2.20017  -2.19852  -2.19826
 Alpha  occ. eigenvalues --   -2.19676  -2.19365  -2.19254  -2.18812  -1.13687
 Alpha  occ. eigenvalues --   -1.13676  -1.13663  -1.13521  -1.13519  -1.13505
 Alpha  occ. eigenvalues --   -1.13504  -1.13477  -1.13463  -1.13360  -1.13343
 Alpha  occ. eigenvalues --   -1.13304  -1.13052  -1.12997  -1.12975  -1.12944
 Alpha  occ. eigenvalues --   -1.12893  -1.12865  -1.12501  -1.12476  -1.12434
 Alpha  occ. eigenvalues --   -0.18451  -0.12968  -0.12278  -0.10563
 Alpha virt. eigenvalues --   -0.05823  -0.05600  -0.04458  -0.03110  -0.02808
 Alpha virt. eigenvalues --   -0.02474  -0.01718  -0.01320  -0.00617  -0.00284
 Alpha virt. eigenvalues --   -0.00022   0.00344   0.00724   0.00813   0.00896

  Beta  occ. eigenvalues --  -38.44203 -38.44050 -38.44027 -38.43867 -38.43381
  Beta  occ. eigenvalues --  -38.43254 -38.42891  -2.20016  -2.19850  -2.19828
  Beta  occ. eigenvalues --   -2.19671  -2.19207  -2.19116  -2.18799  -1.13679
  Beta  occ. eigenvalues --   -1.13667  -1.13662  -1.13521  -1.13509  -1.13497
  Beta  occ. eigenvalues --   -1.13487  -1.13479  -1.13467  -1.13349  -1.13327
  Beta  occ. eigenvalues --   -1.13305  -1.12947  -1.12884  -1.12861  -1.12851
  Beta  occ. eigenvalues --   -1.12791  -1.12766  -1.12494  -1.12435  -1.12424
  Beta  occ. eigenvalues --   -0.17705  -0.12766  -0.12039
  Beta virt. eigenvalues --   -0.06663  -0.05826  -0.05551  -0.04439  -0.02353
  Beta virt. eigenvalues --   -0.02028  -0.01622  -0.01433  -0.01238  -0.00683
  Beta virt. eigenvalues --   -0.00331   0.00118   0.00365   0.00767   0.00822

 Mulliken charges and spin densities:
               1          2
     1  Na  -0.021749  -0.157529
     2  Na   0.185108  -0.049223
     3  Na  -0.353690   0.795237
     4  Na  -0.207357   0.680870
     5  Na   0.123459  -0.070143
     6  Na   0.021413  -0.171110
     7  Na   0.252817  -0.028102
 Sum of Mulliken charges =  -0.00000   1.00000

 Dipole moment (field-independent basis, Debye):
    X=             -0.0290    Y=              0.2633    Z=              0.0472  Tot=              0.2690
 Quadrupole moment (field-independent basis, Debye-Ang):
   XX=            -53.6069   YY=            -63.3691   ZZ=            -75.4381
   XY=              0.0963   XZ=             -0.1365   YZ=              0.2911

 Normal termination of Gaussian 16 at Fri Dec  8 01:15:42 2023.
