 Gaussian 16, Revision B.01,
 Gaussian 16:  ES64L-G16RevB.01 20-Dec-2017

 -------------------------
 #P B3LYP/6-311+g(d) force
 -------------------------

 -----
 DPGEN
 -----
 Symbolic Z-matrix:
 Charge =  0 Multiplicity = 2

                         Standard orientation:
 ---------------------------------------------------------------------
 Center     Atomic      Atomic             Coordinates (Angstroms)
 Number     Number       Type             X           Y           Z
 ---------------------------------------------------------------------
      1         11           0       -3.255568   -0.370680    0.053006
      2         11           0       -0.304307   -2.696743   -0.365301
      3         11           0        2.190545    2.144568    0.400399
      4         11           0       -0.501214   -0.305145    1.921485
      5         11           0        2.712773   -1.191761    0.133921
      6         11           0        0.563457   -0.123772   -1.639806
      7         11           0       -1.405686    2.543533   -0.503704
 ---------------------------------------------------------------------

 SCF Done:  E(UB3LYP) =  -1136.13453377     A.U. after   21 cycles

 The electronic state is 2-A.
 Alpha  occ. eigenvalues --  -38.44209 -38.43882 -38.43568 -38.43546 -38.43521
 Alpha  occ. eigenvalues --  -38.43246 -38.43213  -2.20028  -2.19791  -2.19458
 Alpha  occ. eigenvalues --   -2.19402  -2.19344  -2.19273  -2.19133  -1.13712
 Alpha  occ. eigenvalues --   -1.13681  -1.13671  -1.13547  -1.13439  -1.13414
 Alpha  occ. eigenvalues --   -1.13142  -1.13094  -1.13079  -1.13076  -1.13061
 Alpha  occ. eigenvalues --   -1.13048  -1.13033  -1.13027  -1.13002  -1.12970
 Alpha  occ. eigenvalues --   -1.12909  -1.12888  -1.12785  -1.12762  -1.12726
 Alpha  occ. eigenvalues --   -0.18833  -0.13218  -0.12453  -0.10746
 Alpha virt. eigenvalues --   -0.05715  -0.05146  -0.04568  -0.03348  -0.02903
 Alpha virt. eigenvalues --   -0.02407  -0.01562  -0.01017  -0.00354  -0.00188
 Alpha virt. eigenvalues --    0.00001   0.00360   0.00810   0.00888   0.00900

  Beta  occ. eigenvalues --  -38.44208 -38.43874 -38.43561 -38.43508 -38.43467
  Beta  occ. eigenvalues --  -38.43199 -38.43178  -2.20029  -2.19782  -2.19390
  Beta  occ. eigenvalues --   -2.19325  -2.19311  -2.19152  -2.19111  -1.13702
  Beta  occ. eigenvalues --   -1.13676  -1.13673  -1.13533  -1.13420  -1.13399
  Beta  occ. eigenvalues --   -1.13068  -1.13052  -1.13046  -1.13032  -1.13009
  Beta  occ. eigenvalues --   -1.12993  -1.12976  -1.12967  -1.12965  -1.12960
  Beta  occ. eigenvalues --   -1.12825  -1.12803  -1.12755  -1.12729  -1.12689
  Beta  occ. eigenvalues --   -0.18117  -0.12981  -0.12185
  Beta virt. eigenvalues --   -0.06878  -0.05635  -0.05113  -0.04511  -0.02578
  Beta virt. eigenvalues --   -0.02161  -0.01509  -0.01366  -0.00955  -0.00354
  Beta virt. eigenvalues --   -0.00230   0.00137   0.00393   0.00856   0.00888

 Mulliken charges and spin densities:
               1          2
     1  Na   0.113384  -0.078644
     2  Na   0.292042  -0.122673
     3  Na  -0.101021   0.031310
     4  Na  -0.432829   0.714647
     5  Na   0.296929   0.040133
     6  Na  -0.118079   0.460142
     7  Na  -0.050426  -0.044914
 Sum of Mulliken charges =  -0.00000   1.00000

 Dipole moment (field-independent basis, Debye):
    X=             -0.2009    Y=             -0.0118    Z=              0.2062  Tot=              0.2881
 Quadrupole moment (field-independent basis, Debye-Ang):
   XX=            -55.6752   YY=            -64.0020   ZZ=            -73.9722
   XY=              0.3814   XZ=              2.2061   YZ=              0.3800

 Normal termination of Gaussian 16 at Thu Dec  7 08:19:18 2023.
