 Gaussian 16, Revision B.01,
 Gaussian 16:  ES64L-G16RevB.01 20-Dec-2017

 -------------------------
 #P B3LYP/6-311+g(d) force
 -------------------------

 -----
 DPGEN
 -----
 Symbolic Z-matrix:
 Charge =  0 Multiplicity = 2

                         Standard orientation:
 ---------------------------------------------------------------------
 Center     Atomic      Atomic             Coordinates (Angstroms)
 Number     Number       Type             X           Y           Z
 ---------------------------------------------------------------------
      1         11           0       -1.027163   -1.113367    2.386914
      2         11           0        1.972142    0.518793   -2.223778
      3         11           0        0.531181    2.904565    0.354740
      4         11           0       -2.701413    2.173249   -0.524310
      5         11           0       -2.716342   -2.000043   -0.673153
      6         11           0        1.270770   -2.400357   -1.134939
      7         11           0        2.670825   -0.082839    1.814526
 ---------------------------------------------------------------------

 SCF Done:  E(UB3LYP) =  -1136.11823099     A.U. after   20 cycles

 The electronic state is 2-A.
 Alpha  occ. eigenvalues --  -38.45171 -38.45031 -38.44636 -38.44060 -38.44039
 Alpha  occ. eigenvalues --  -38.43995 -38.43313  -2.20928  -2.20805  -2.20441
 Alpha  occ. eigenvalues --   -2.19861  -2.19791  -2.19745  -2.19093  -1.14593
 Alpha  occ. eigenvalues --   -1.14582  -1.14551  -1.14467  -1.14454  -1.14423
 Alpha  occ. eigenvalues --   -1.14129  -1.14078  -1.14064  -1.13555  -1.13506
 Alpha  occ. eigenvalues --   -1.13482  -1.13465  -1.13443  -1.13438  -1.13425
 Alpha  occ. eigenvalues --   -1.13406  -1.13379  -1.12773  -1.12766  -1.12728
 Alpha  occ. eigenvalues --   -0.16790  -0.12445  -0.11963  -0.11884
 Alpha virt. eigenvalues --   -0.05788  -0.05683  -0.04974  -0.03547  -0.03363
 Alpha virt. eigenvalues --   -0.03266  -0.01254  -0.00850  -0.00685  -0.00613
 Alpha virt. eigenvalues --   -0.00372   0.00125   0.00220   0.00398   0.00548

  Beta  occ. eigenvalues --  -38.45122 -38.44966 -38.44588 -38.44037 -38.44033
  Beta  occ. eigenvalues --  -38.43990 -38.43313  -2.20838  -2.20687  -2.20353
  Beta  occ. eigenvalues --   -2.19815  -2.19786  -2.19735  -2.19095  -1.14532
  Beta  occ. eigenvalues --   -1.14524  -1.14475  -1.14380  -1.14374  -1.14337
  Beta  occ. eigenvalues --   -1.14063  -1.14021  -1.14001  -1.13512  -1.13473
  Beta  occ. eigenvalues --   -1.13459  -1.13450  -1.13440  -1.13434  -1.13417
  Beta  occ. eigenvalues --   -1.13400  -1.13373  -1.12769  -1.12765  -1.12728
  Beta  occ. eigenvalues --   -0.16051  -0.12243  -0.11778
  Beta virt. eigenvalues --   -0.08104  -0.05634  -0.05117  -0.04739  -0.03354
  Beta virt. eigenvalues --   -0.02795  -0.02526  -0.01071  -0.00802  -0.00513
  Beta virt. eigenvalues --   -0.00352  -0.00280   0.00228   0.00398   0.00517

 Mulliken charges and spin densities:
               1          2
     1  Na  -0.065557   0.251031
     2  Na   0.237699   0.147572
     3  Na  -0.216409   0.111115
     4  Na   0.041068  -0.050016
     5  Na  -0.038150   0.031175
     6  Na  -0.008455   0.166008
     7  Na   0.049804   0.343116
 Sum of Mulliken charges =  -0.00000   1.00000

 Dipole moment (field-independent basis, Debye):
    X=              0.3717    Y=             -0.4710    Z=              0.1174  Tot=              0.6114
 Quadrupole moment (field-independent basis, Debye-Ang):
   XX=            -63.7529   YY=            -72.2526   ZZ=            -63.7894
   XY=              1.4198   XZ=              3.1287   YZ=              0.0276

 Normal termination of Gaussian 16 at Sun Dec  3 21:57:07 2023.
