 Gaussian 16, Revision B.01,
 Gaussian 16:  ES64L-G16RevB.01 20-Dec-2017

 -------------------------
 #P B3LYP/6-311+g(d) force
 -------------------------

 -----
 DPGEN
 -----
 Symbolic Z-matrix:
 Charge =  0 Multiplicity = 2

                         Standard orientation:
 ---------------------------------------------------------------------
 Center     Atomic      Atomic             Coordinates (Angstroms)
 Number     Number       Type             X           Y           Z
 ---------------------------------------------------------------------
      1         11           0        0.211343   -0.259031   -0.099058
      2         11           0       -3.497883   -1.278458   -1.496903
      3         11           0       -1.818961   -1.395252    2.327731
      4         11           0        3.144874   -2.398528   -0.560515
      5         11           0        0.890505    2.812036    0.202673
      6         11           0        3.648205    0.735377   -0.058262
      7         11           0       -2.578082    1.783856   -0.315666
 ---------------------------------------------------------------------

 SCF Done:  E(UB3LYP) =  -1136.12100443     A.U. after   22 cycles

 The electronic state is 2-A.
 Alpha  occ. eigenvalues --  -38.44557 -38.44526 -38.44393 -38.44328 -38.43809
 Alpha  occ. eigenvalues --  -38.43666 -38.42564  -2.20382  -2.20365  -2.20194
 Alpha  occ. eigenvalues --   -2.20142  -2.19613  -2.19603  -2.18417  -1.14077
 Alpha  occ. eigenvalues --   -1.14047  -1.14042  -1.14029  -1.14006  -1.14000
 Alpha  occ. eigenvalues --   -1.13854  -1.13839  -1.13803  -1.13802  -1.13775
 Alpha  occ. eigenvalues --   -1.13740  -1.13324  -1.13286  -1.13275  -1.13268
 Alpha  occ. eigenvalues --   -1.13261  -1.13214  -1.12112  -1.12074  -1.12049
 Alpha  occ. eigenvalues --   -0.17352  -0.14144  -0.11620  -0.10795
 Alpha virt. eigenvalues --   -0.06523  -0.05832  -0.04134  -0.03415  -0.02769
 Alpha virt. eigenvalues --   -0.02362  -0.01969  -0.01351  -0.01215  -0.00506
 Alpha virt. eigenvalues --   -0.00342   0.00186   0.00424   0.00519   0.00620

  Beta  occ. eigenvalues --  -38.44534 -38.44523 -38.44330 -38.44224 -38.43809
  Beta  occ. eigenvalues --  -38.43653 -38.42567  -2.20360  -2.20344  -2.20078
  Beta  occ. eigenvalues --   -2.19949  -2.19613  -2.19583  -2.18423  -1.14051
  Beta  occ. eigenvalues --   -1.14038  -1.14026  -1.14017  -1.13998  -1.13957
  Beta  occ. eigenvalues --   -1.13776  -1.13749  -1.13727  -1.13665  -1.13643
  Beta  occ. eigenvalues --   -1.13614  -1.13288  -1.13277  -1.13271  -1.13263
  Beta  occ. eigenvalues --   -1.13256  -1.13211  -1.12114  -1.12075  -1.12055
  Beta  occ. eigenvalues --   -0.16912  -0.13704  -0.11383
  Beta virt. eigenvalues --   -0.06907  -0.06414  -0.05551  -0.04032  -0.03082
  Beta virt. eigenvalues --   -0.02372  -0.01944  -0.01527  -0.01110  -0.01048
  Beta virt. eigenvalues --   -0.00284  -0.00066   0.00257   0.00558   0.00663

 Mulliken charges and spin densities:
               1          2
     1  Na  -2.916890   0.259524
     2  Na   0.304234   0.288908
     3  Na   0.299201   0.310268
     4  Na   0.404445  -0.036587
     5  Na   0.624561  -0.063595
     6  Na   0.106529  -0.020762
     7  Na   1.177920   0.262245
 Sum of Mulliken charges =  -0.00000   1.00000

 Dipole moment (field-independent basis, Debye):
    X=             -0.0177    Y=             -0.1400    Z=              0.2516  Tot=              0.2884
 Quadrupole moment (field-independent basis, Debye-Ang):
   XX=            -57.8566   YY=            -65.6697   ZZ=            -71.7269
   XY=              1.6769   XZ=             -1.1856   YZ=              2.8476

 Normal termination of Gaussian 16 at Tue Dec  5 19:41:57 2023.
