 Gaussian 16, Revision B.01,
 Gaussian 16:  ES64L-G16RevB.01 20-Dec-2017

 -------------------------
 #P B3LYP/6-311+g(d) force
 -------------------------

 -----
 DPGEN
 -----
 Symbolic Z-matrix:
 Charge =  0 Multiplicity = 2

                         Standard orientation:
 ---------------------------------------------------------------------
 Center     Atomic      Atomic             Coordinates (Angstroms)
 Number     Number       Type             X           Y           Z
 ---------------------------------------------------------------------
      1         11           0        2.210373   -2.007189    0.738622
      2         11           0        1.680001    0.849147   -0.915420
      3         11           0       -2.628664    1.951303   -0.848333
      4         11           0       -1.436017   -1.689293    0.452298
      5         11           0       -4.383409   -1.199282   -0.626298
      6         11           0       -0.125403    1.945716    2.087169
      7         11           0        4.683118    0.149599   -0.888037
 ---------------------------------------------------------------------

 SCF Done:  E(UB3LYP) =  -1136.11861831     A.U. after   25 cycles

 The electronic state is 2-A.
 Alpha  occ. eigenvalues --  -38.44951 -38.44543 -38.44358 -38.44342 -38.43736
 Alpha  occ. eigenvalues --  -38.43508 -38.43125  -2.20717  -2.20369  -2.20217
 Alpha  occ. eigenvalues --   -2.20203  -2.19570  -2.19280  -2.18948  -1.14417
 Alpha  occ. eigenvalues --   -1.14371  -1.14319  -1.14065  -1.14037  -1.13991
 Alpha  occ. eigenvalues --   -1.13974  -1.13892  -1.13883  -1.13839  -1.13817
 Alpha  occ. eigenvalues --   -1.13744  -1.13269  -1.13222  -1.13216  -1.12956
 Alpha  occ. eigenvalues --   -1.12942  -1.12904  -1.12612  -1.12603  -1.12589
 Alpha  occ. eigenvalues --   -0.17155  -0.14235  -0.11481  -0.11020
 Alpha virt. eigenvalues --   -0.06189  -0.05937  -0.04498  -0.03156  -0.02974
 Alpha virt. eigenvalues --   -0.02591  -0.02075  -0.01331  -0.01182  -0.00781
 Alpha virt. eigenvalues --   -0.00126   0.00115   0.00309   0.00514   0.00627

  Beta  occ. eigenvalues --  -38.44923 -38.44500 -38.44328 -38.44297 -38.43704
  Beta  occ. eigenvalues --  -38.43498 -38.43117  -2.20665  -2.20293  -2.20193
  Beta  occ. eigenvalues --   -2.20092  -2.19515  -2.19261  -2.18933  -1.14382
  Beta  occ. eigenvalues --   -1.14340  -1.14274  -1.14019  -1.13989  -1.13936
  Beta  occ. eigenvalues --   -1.13900  -1.13859  -1.13854  -1.13764  -1.13744
  Beta  occ. eigenvalues --   -1.13698  -1.13237  -1.13189  -1.13147  -1.12943
  Beta  occ. eigenvalues --   -1.12923  -1.12893  -1.12607  -1.12593  -1.12570
  Beta  occ. eigenvalues --   -0.16457  -0.13812  -0.10986
  Beta virt. eigenvalues --   -0.07690  -0.05878  -0.05643  -0.04044  -0.02896
  Beta virt. eigenvalues --   -0.02683  -0.02193  -0.01753  -0.01167  -0.00813
  Beta virt. eigenvalues --   -0.00487  -0.00011   0.00184   0.00398   0.00622

 Mulliken charges and spin densities:
               1          2
     1  Na   0.092783  -0.032220
     2  Na  -1.307128   0.185410
     3  Na   0.044903   0.184115
     4  Na  -0.990364  -0.003479
     5  Na   0.893297   0.429820
     6  Na   0.073892   0.143682
     7  Na   1.192617   0.092672
 Sum of Mulliken charges =  -0.00000   1.00000

 Dipole moment (field-independent basis, Debye):
    X=              1.0473    Y=              0.4851    Z=              0.1076  Tot=              1.1592
 Quadrupole moment (field-independent basis, Debye-Ang):
   XX=            -58.1959   YY=            -73.6246   ZZ=            -65.8737
   XY=             -4.8957   XZ=              2.6649   YZ=             -3.9599

 Normal termination of Gaussian 16 at Tue Nov 28 20:50:00 2023.
