 Gaussian 16, Revision B.01,
 Gaussian 16:  ES64L-G16RevB.01 20-Dec-2017

 -------------------------
 #P B3LYP/6-311+g(d) force
 -------------------------

 -----
 DPGEN
 -----
 Symbolic Z-matrix:
 Charge =  0 Multiplicity = 2

                         Standard orientation:
 ---------------------------------------------------------------------
 Center     Atomic      Atomic             Coordinates (Angstroms)
 Number     Number       Type             X           Y           Z
 ---------------------------------------------------------------------
      1         11           0       -2.160769   -1.201024    1.732700
      2         11           0       -2.998214   -1.112514   -1.312459
      3         11           0       -1.761882    2.403750   -0.016759
      4         11           0        1.613047    1.860041   -0.456349
      5         11           0        3.991657   -1.136790   -0.517536
      6         11           0        0.057640   -0.720747   -1.551760
      7         11           0        1.258521   -0.092716    2.122163
 ---------------------------------------------------------------------

 SCF Done:  E(UB3LYP) =  -1136.12052223     A.U. after   26 cycles

 The electronic state is 2-A.
 Alpha  occ. eigenvalues --  -38.44982 -38.44593 -38.44485 -38.44400 -38.43805
 Alpha  occ. eigenvalues --  -38.43192 -38.43126  -2.20819  -2.20484  -2.20330
 Alpha  occ. eigenvalues --   -2.20151  -2.19684  -2.19095  -2.18927  -1.14496
 Alpha  occ. eigenvalues --   -1.14479  -1.14416  -1.14170  -1.14155  -1.14113
 Alpha  occ. eigenvalues --   -1.13996  -1.13980  -1.13967  -1.13830  -1.13824
 Alpha  occ. eigenvalues --   -1.13775  -1.13369  -1.13325  -1.13303  -1.12815
 Alpha  occ. eigenvalues --   -1.12790  -1.12670  -1.12602  -1.12582  -1.12559
 Alpha  occ. eigenvalues --   -0.18225  -0.13732  -0.11986  -0.10892
 Alpha virt. eigenvalues --   -0.06487  -0.05296  -0.04861  -0.03518  -0.02710
 Alpha virt. eigenvalues --   -0.02492  -0.02289  -0.01089  -0.00880  -0.00223
 Alpha virt. eigenvalues --    0.00165   0.00210   0.00309   0.00527   0.00624

  Beta  occ. eigenvalues --  -38.44910 -38.44542 -38.44433 -38.44405 -38.43789
  Beta  occ. eigenvalues --  -38.43183 -38.43120  -2.20686  -2.20392  -2.20234
  Beta  occ. eigenvalues --   -2.20162  -2.19657  -2.19081  -2.18918  -1.14408
  Beta  occ. eigenvalues --   -1.14382  -1.14315  -1.14100  -1.14089  -1.14043
  Beta  occ. eigenvalues --   -1.13924  -1.13919  -1.13892  -1.13837  -1.13829
  Beta  occ. eigenvalues --   -1.13783  -1.13337  -1.13310  -1.13284  -1.12800
  Beta  occ. eigenvalues --   -1.12770  -1.12662  -1.12583  -1.12577  -1.12555
  Beta  occ. eigenvalues --   -0.17458  -0.13642  -0.10756
  Beta virt. eigenvalues --   -0.07883  -0.06290  -0.04858  -0.04498  -0.02965
  Beta virt. eigenvalues --   -0.02307  -0.02098  -0.01931  -0.01011  -0.00440
  Beta virt. eigenvalues --   -0.00115   0.00191   0.00347   0.00391   0.00641

 Mulliken charges and spin densities:
               1          2
     1  Na  -0.064052   0.189859
     2  Na   0.682927   0.063230
     3  Na  -0.322506   0.075303
     4  Na   0.453933   0.061332
     5  Na   0.490998  -0.093585
     6  Na  -0.995455   0.419750
     7  Na  -0.245844   0.284111
 Sum of Mulliken charges =  -0.00000   1.00000

 Dipole moment (field-independent basis, Debye):
    X=              0.1539    Y=             -0.0980    Z=              0.2707  Tot=              0.3264
 Quadrupole moment (field-independent basis, Debye-Ang):
   XX=            -53.6691   YY=            -77.2759   ZZ=            -66.2098
   XY=             -1.1738   XZ=             -0.1490   YZ=             -0.6199

 Normal termination of Gaussian 16 at Wed Dec  6 00:49:27 2023.
