 Gaussian 16, Revision B.01,
 Gaussian 16:  ES64L-G16RevB.01 20-Dec-2017

 -------------------------
 #P B3LYP/6-311+g(d) force
 -------------------------

 -----
 DPGEN
 -----
 Symbolic Z-matrix:
 Charge =  0 Multiplicity = 2

                         Standard orientation:
 ---------------------------------------------------------------------
 Center     Atomic      Atomic             Coordinates (Angstroms)
 Number     Number       Type             X           Y           Z
 ---------------------------------------------------------------------
      1         11           0        2.085938    2.373075    0.742408
      2         11           0        1.633972   -2.395747   -0.279671
      3         11           0       -1.547648    2.914806    0.467581
      4         11           0       -0.754731   -0.046211   -1.537922
      5         11           0        3.701016   -0.158817   -0.359124
      6         11           0       -1.448148   -2.625381    1.506891
      7         11           0       -3.670398   -0.061726   -0.540163
 ---------------------------------------------------------------------

 SCF Done:  E(UB3LYP) =  -1136.11806708     A.U. after   23 cycles

 The electronic state is 2-A.
 Alpha  occ. eigenvalues --  -38.44946 -38.44753 -38.44387 -38.44383 -38.43945
 Alpha  occ. eigenvalues --  -38.43762 -38.43558  -2.20772  -2.20606  -2.20239
 Alpha  occ. eigenvalues --   -2.20163  -2.19794  -2.19565  -2.19369  -1.14507
 Alpha  occ. eigenvalues --   -1.14418  -1.14394  -1.14277  -1.14244  -1.14221
 Alpha  occ. eigenvalues --   -1.13950  -1.13899  -1.13878  -1.13847  -1.13836
 Alpha  occ. eigenvalues --   -1.13784  -1.13469  -1.13458  -1.13432  -1.13234
 Alpha  occ. eigenvalues --   -1.13225  -1.13202  -1.13020  -1.13006  -1.12983
 Alpha  occ. eigenvalues --   -0.17247  -0.13970  -0.12718  -0.10074
 Alpha virt. eigenvalues --   -0.06899  -0.06139  -0.03957  -0.03676  -0.03256
 Alpha virt. eigenvalues --   -0.02415  -0.01733  -0.01492  -0.01067  -0.00586
 Alpha virt. eigenvalues --   -0.00202   0.00117   0.00333   0.00585   0.00738

  Beta  occ. eigenvalues --  -38.44918 -38.44725 -38.44377 -38.44369 -38.43940
  Beta  occ. eigenvalues --  -38.43743 -38.43470  -2.20724  -2.20556  -2.20215
  Beta  occ. eigenvalues --   -2.20147  -2.19789  -2.19530  -2.19204  -1.14467
  Beta  occ. eigenvalues --   -1.14383  -1.14356  -1.14234  -1.14219  -1.14183
  Beta  occ. eigenvalues --   -1.13931  -1.13884  -1.13859  -1.13838  -1.13827
  Beta  occ. eigenvalues --   -1.13752  -1.13471  -1.13460  -1.13388  -1.13210
  Beta  occ. eigenvalues --   -1.13202  -1.13172  -1.12906  -1.12893  -1.12875
  Beta  occ. eigenvalues --   -0.16859  -0.13660  -0.12036
  Beta virt. eigenvalues --   -0.06865  -0.06700  -0.06007  -0.03689  -0.03118
  Beta virt. eigenvalues --   -0.02681  -0.02243  -0.01553  -0.01205  -0.00925
  Beta virt. eigenvalues --   -0.00415   0.00105   0.00238   0.00506   0.00658

 Mulliken charges and spin densities:
               1          2
     1  Na  -0.264201   0.116924
     2  Na  -0.058849   0.132134
     3  Na  -0.199812   0.084140
     4  Na  -0.117296   0.000050
     5  Na   0.383896   0.036115
     6  Na  -0.258937   0.456629
     7  Na   0.515200   0.174008
 Sum of Mulliken charges =  -0.00000   1.00000

 Dipole moment (field-independent basis, Debye):
    X=             -0.7137    Y=              0.3263    Z=             -0.2163  Tot=              0.8140
 Quadrupole moment (field-independent basis, Debye-Ang):
   XX=            -52.0300   YY=            -73.4988   ZZ=            -73.6681
   XY=             -2.4643   XZ=             -1.8639   YZ=              1.6061

 Normal termination of Gaussian 16 at Sun Dec  3 21:44:10 2023.
