 Gaussian 16, Revision B.01,
 Gaussian 16:  ES64L-G16RevB.01 20-Dec-2017

 -------------------------
 #P B3LYP/6-311+g(d) force
 -------------------------

 -----
 DPGEN
 -----
 Symbolic Z-matrix:
 Charge =  0 Multiplicity = 2

                         Standard orientation:
 ---------------------------------------------------------------------
 Center     Atomic      Atomic             Coordinates (Angstroms)
 Number     Number       Type             X           Y           Z
 ---------------------------------------------------------------------
      1         11           0        3.133444   -0.356566   -0.143022
      2         11           0       -2.933360   -1.338439   -0.260182
      3         11           0       -0.313798   -0.170569   -1.564629
      4         11           0        1.154037    2.626466   -0.505657
      5         11           0        0.188996    0.094708    2.091048
      6         11           0       -2.015510    1.869807    0.327787
      7         11           0        0.786191   -2.725407    0.054655
 ---------------------------------------------------------------------

 SCF Done:  E(UB3LYP) =  -1136.13767964     A.U. after   19 cycles

 The electronic state is 2-A.
 Alpha  occ. eigenvalues --  -38.44056 -38.43854 -38.43695 -38.43400 -38.43396
 Alpha  occ. eigenvalues --  -38.43133 -38.43107  -2.19887  -2.19697  -2.19596
 Alpha  occ. eigenvalues --   -2.19310  -2.19267  -2.19132  -2.19000  -1.13557
 Alpha  occ. eigenvalues --   -1.13548  -1.13534  -1.13403  -1.13351  -1.13331
 Alpha  occ. eigenvalues --   -1.13269  -1.13228  -1.13213  -1.13014  -1.12986
 Alpha  occ. eigenvalues --   -1.12975  -1.12933  -1.12932  -1.12883  -1.12805
 Alpha  occ. eigenvalues --   -1.12775  -1.12749  -1.12664  -1.12647  -1.12635
 Alpha  occ. eigenvalues --   -0.18891  -0.13122  -0.12441  -0.10937
 Alpha virt. eigenvalues --   -0.05642  -0.04979  -0.04557  -0.03271  -0.02911
 Alpha virt. eigenvalues --   -0.02622  -0.01563  -0.01013  -0.00244  -0.00170
 Alpha virt. eigenvalues --    0.00012   0.00350   0.00821   0.00897   0.00929

  Beta  occ. eigenvalues --  -38.44053 -38.43850 -38.43595 -38.43394 -38.43385
  Beta  occ. eigenvalues --  -38.43122 -38.43049  -2.19885  -2.19693  -2.19413
  Beta  occ. eigenvalues --   -2.19294  -2.19260  -2.19026  -2.18982  -1.13551
  Beta  occ. eigenvalues --   -1.13543  -1.13526  -1.13393  -1.13339  -1.13327
  Beta  occ. eigenvalues --   -1.13151  -1.13097  -1.13087  -1.12999  -1.12974
  Beta  occ. eigenvalues --   -1.12932  -1.12924  -1.12905  -1.12882  -1.12739
  Beta  occ. eigenvalues --   -1.12708  -1.12678  -1.12630  -1.12629  -1.12613
  Beta  occ. eigenvalues --   -0.18158  -0.12891  -0.12181
  Beta virt. eigenvalues --   -0.06985  -0.05608  -0.04945  -0.04525  -0.02469
  Beta virt. eigenvalues --   -0.02150  -0.01562  -0.01478  -0.00941  -0.00280
  Beta virt. eigenvalues --   -0.00172   0.00129   0.00378   0.00871   0.00904

 Mulliken charges and spin densities:
               1          2
     1  Na   0.064789  -0.039629
     2  Na   0.208686  -0.055100
     3  Na  -0.389330   0.396296
     4  Na   0.090578   0.004218
     5  Na  -0.451643   0.624359
     6  Na   0.344685   0.121884
     7  Na   0.132236  -0.052028
 Sum of Mulliken charges =  -0.00000   1.00000

 Dipole moment (field-independent basis, Debye):
    X=              0.0974    Y=             -0.1936    Z=              0.2039  Tot=              0.2975
 Quadrupole moment (field-independent basis, Debye-Ang):
   XX=            -56.0850   YY=            -63.9875   ZZ=            -73.5092
   XY=              0.7405   XZ=             -0.9956   YZ=             -0.5217

 Normal termination of Gaussian 16 at Thu Dec  7 06:49:07 2023.
