 Gaussian 16, Revision B.01,
 Gaussian 16:  ES64L-G16RevB.01 20-Dec-2017

 -------------------------
 #P B3LYP/6-311+g(d) force
 -------------------------

 -----
 DPGEN
 -----
 Symbolic Z-matrix:
 Charge =  0 Multiplicity = 2

                         Standard orientation:
 ---------------------------------------------------------------------
 Center     Atomic      Atomic             Coordinates (Angstroms)
 Number     Number       Type             X           Y           Z
 ---------------------------------------------------------------------
      1         11           0        1.278433   -2.467683   -0.600767
      2         11           0        2.542007    2.740750    0.029454
      3         11           0        4.108422   -0.748282   -0.664675
      4         11           0       -1.537973    2.743340   -0.005171
      5         11           0        0.670611   -0.505626    1.619669
      6         11           0       -4.405101    0.492723   -0.757325
      7         11           0       -2.656400   -2.255222    0.378814
 ---------------------------------------------------------------------

 SCF Done:  E(UB3LYP) =  -1136.11523697     A.U. after   20 cycles

 The electronic state is 2-A.
 Alpha  occ. eigenvalues --  -38.44796 -38.44735 -38.44627 -38.44622 -38.44202
 Alpha  occ. eigenvalues --  -38.44088 -38.43843  -2.20553  -2.20465  -2.20456
 Alpha  occ. eigenvalues --   -2.20359  -2.20050  -2.19912  -2.19644  -1.14248
 Alpha  occ. eigenvalues --   -1.14221  -1.14201  -1.14183  -1.14157  -1.14137
 Alpha  occ. eigenvalues --   -1.14114  -1.14075  -1.14062  -1.14048  -1.14016
 Alpha  occ. eigenvalues --   -1.13996  -1.13738  -1.13714  -1.13685  -1.13567
 Alpha  occ. eigenvalues --   -1.13537  -1.13526  -1.13299  -1.13286  -1.13273
 Alpha  occ. eigenvalues --   -0.16707  -0.13846  -0.12195  -0.10587
 Alpha virt. eigenvalues --   -0.06979  -0.05730  -0.04448  -0.03718  -0.03103
 Alpha virt. eigenvalues --   -0.02312  -0.01954  -0.01632  -0.01399  -0.00634
 Alpha virt. eigenvalues --   -0.00474   0.00171   0.00337   0.00488   0.00528

  Beta  occ. eigenvalues --  -38.44794 -38.44735 -38.44626 -38.44569 -38.44196
  Beta  occ. eigenvalues --  -38.44008 -38.43786  -2.20554  -2.20461  -2.20367
  Beta  occ. eigenvalues --   -2.20359  -2.20046  -2.19764  -2.19535  -1.14251
  Beta  occ. eigenvalues --   -1.14226  -1.14162  -1.14155  -1.14141  -1.14139
  Beta  occ. eigenvalues --   -1.14062  -1.14050  -1.14047  -1.14021  -1.13986
  Beta  occ. eigenvalues --   -1.13980  -1.13733  -1.13716  -1.13635  -1.13465
  Beta  occ. eigenvalues --   -1.13441  -1.13429  -1.13225  -1.13213  -1.13203
  Beta  occ. eigenvalues --   -0.16122  -0.13153  -0.11940
  Beta virt. eigenvalues --   -0.07259  -0.06995  -0.05460  -0.03762  -0.03502
  Beta virt. eigenvalues --   -0.02501  -0.02121  -0.01911  -0.01341  -0.01086
  Beta virt. eigenvalues --   -0.00577  -0.00135   0.00351   0.00414   0.00561

 Mulliken charges and spin densities:
               1          2
     1  Na  -0.084862   0.108544
     2  Na   0.012089   0.001368
     3  Na   0.061381   0.412643
     4  Na  -0.281436  -0.005453
     5  Na   0.230662   0.141451
     6  Na   0.202883   0.338146
     7  Na  -0.140717   0.003302
 Sum of Mulliken charges =  -0.00000   1.00000

 Dipole moment (field-independent basis, Debye):
    X=              0.1807    Y=             -0.2575    Z=              0.1220  Tot=              0.3374
 Quadrupole moment (field-independent basis, Debye-Ang):
   XX=            -65.2586   YY=            -65.9169   ZZ=            -70.3764
   XY=              4.0482   XZ=              0.5455   YZ=              0.0461

 Normal termination of Gaussian 16 at Mon Dec  4 01:16:49 2023.
