 Gaussian 16, Revision B.01,
 Gaussian 16:  ES64L-G16RevB.01 20-Dec-2017

 -------------------------
 #P B3LYP/6-311+g(d) force
 -------------------------

 -----
 DPGEN
 -----
 Symbolic Z-matrix:
 Charge =  0 Multiplicity = 2

                         Standard orientation:
 ---------------------------------------------------------------------
 Center     Atomic      Atomic             Coordinates (Angstroms)
 Number     Number       Type             X           Y           Z
 ---------------------------------------------------------------------
      1         11           0       -0.422036   -2.983711    0.116090
      2         11           0        2.165137    2.088438   -0.139380
      3         11           0        0.163454    0.075582   -1.632363
      4         11           0       -3.224709   -0.769463   -0.508505
      5         11           0       -1.707319    2.804037    0.129403
      6         11           0        3.117260   -1.121441   -0.191489
      7         11           0       -0.091787   -0.093443    2.226244
 ---------------------------------------------------------------------

 SCF Done:  E(UB3LYP) =  -1136.13502347     A.U. after   19 cycles

 The electronic state is 2-A.
 Alpha  occ. eigenvalues --  -38.44317 -38.44073 -38.43872 -38.43778 -38.43728
 Alpha  occ. eigenvalues --  -38.43520 -38.43448  -2.20098  -2.19885  -2.19708
 Alpha  occ. eigenvalues --   -2.19625  -2.19499  -2.19443  -2.19261  -1.13777
 Alpha  occ. eigenvalues --   -1.13748  -1.13734  -1.13559  -1.13556  -1.13525
 Alpha  occ. eigenvalues --   -1.13366  -1.13346  -1.13338  -1.13324  -1.13286
 Alpha  occ. eigenvalues --   -1.13238  -1.13176  -1.13158  -1.13145  -1.13130
 Alpha  occ. eigenvalues --   -1.13082  -1.13056  -1.12935  -1.12931  -1.12892
 Alpha  occ. eigenvalues --   -0.18017  -0.12921  -0.12124  -0.10712
 Alpha virt. eigenvalues --   -0.05755  -0.05416  -0.04835  -0.03162  -0.02846
 Alpha virt. eigenvalues --   -0.02681  -0.01692  -0.01264  -0.00600  -0.00573
 Alpha virt. eigenvalues --   -0.00058   0.00324   0.00713   0.00816   0.00842

  Beta  occ. eigenvalues --  -38.44304 -38.44071 -38.43774 -38.43765 -38.43728
  Beta  occ. eigenvalues --  -38.43470 -38.43445  -2.20077  -2.19883  -2.19620
  Beta  occ. eigenvalues --   -2.19511  -2.19501  -2.19351  -2.19257  -1.13748
  Beta  occ. eigenvalues --   -1.13736  -1.13722  -1.13558  -1.13547  -1.13519
  Beta  occ. eigenvalues --   -1.13334  -1.13273  -1.13235  -1.13230  -1.13201
  Beta  occ. eigenvalues --   -1.13183  -1.13164  -1.13158  -1.13146  -1.13066
  Beta  occ. eigenvalues --   -1.13021  -1.12987  -1.12930  -1.12912  -1.12889
  Beta  occ. eigenvalues --   -0.17318  -0.12681  -0.11945
  Beta virt. eigenvalues --   -0.06816  -0.05672  -0.05427  -0.04730  -0.02441
  Beta virt. eigenvalues --   -0.02118  -0.01650  -0.01576  -0.01193  -0.00632
  Beta virt. eigenvalues --   -0.00615   0.00102   0.00366   0.00790   0.00819

 Mulliken charges and spin densities:
               1          2
     1  Na   0.089257  -0.026547
     2  Na   0.202668  -0.020727
     3  Na  -0.034699   0.333327
     4  Na   0.060610   0.006291
     5  Na  -0.023689  -0.045041
     6  Na   0.153574  -0.031292
     7  Na  -0.447722   0.783988
 Sum of Mulliken charges =  -0.00000   1.00000

 Dipole moment (field-independent basis, Debye):
    X=              0.0270    Y=             -0.0454    Z=              0.0385  Tot=              0.0654
 Quadrupole moment (field-independent basis, Debye-Ang):
   XX=            -56.0306   YY=            -62.8164   ZZ=            -74.7727
   XY=             -0.7504   XZ=              0.7088   YZ=              0.5639

 Normal termination of Gaussian 16 at Wed Nov 29 15:40:59 2023.
