 Gaussian 16, Revision B.01,
 Gaussian 16:  ES64L-G16RevB.01 20-Dec-2017

 -------------------------
 #P B3LYP/6-311+g(d) force
 -------------------------

 -----
 DPGEN
 -----
 Symbolic Z-matrix:
 Charge =  0 Multiplicity = 2

                         Standard orientation:
 ---------------------------------------------------------------------
 Center     Atomic      Atomic             Coordinates (Angstroms)
 Number     Number       Type             X           Y           Z
 ---------------------------------------------------------------------
      1         11           0        0.017311    0.202967    2.172020
      2         11           0       -1.900292   -2.461926   -0.248282
      3         11           0        1.655253   -2.441007    0.204420
      4         11           0        3.192820    0.525809   -0.386931
      5         11           0       -3.165069    1.019331   -0.080576
      6         11           0        0.293622    3.102417   -0.059177
      7         11           0       -0.093646    0.052410   -1.601474
 ---------------------------------------------------------------------

 SCF Done:  E(UB3LYP) =  -1136.13753353     A.U. after   18 cycles

 The electronic state is 2-A.
 Alpha  occ. eigenvalues --  -38.44379 -38.44033 -38.43743 -38.43717 -38.43629
 Alpha  occ. eigenvalues --  -38.43390 -38.43241  -2.20158  -2.19844  -2.19566
 Alpha  occ. eigenvalues --   -2.19543  -2.19448  -2.19236  -2.19183  -1.13839
 Alpha  occ. eigenvalues --   -1.13816  -1.13794  -1.13520  -1.13506  -1.13482
 Alpha  occ. eigenvalues --   -1.13233  -1.13227  -1.13214  -1.13189  -1.13178
 Alpha  occ. eigenvalues --   -1.13171  -1.13140  -1.13108  -1.13082  -1.12917
 Alpha  occ. eigenvalues --   -1.12903  -1.12873  -1.12869  -1.12816  -1.12803
 Alpha  occ. eigenvalues --   -0.18181  -0.12780  -0.12371  -0.10636
 Alpha virt. eigenvalues --   -0.05891  -0.05121  -0.04915  -0.03046  -0.02897
 Alpha virt. eigenvalues --   -0.02604  -0.01665  -0.01235  -0.00643  -0.00480
 Alpha virt. eigenvalues --   -0.00032   0.00338   0.00758   0.00814   0.00866

  Beta  occ. eigenvalues --  -38.44378 -38.44025 -38.43740 -38.43625 -38.43612
  Beta  occ. eigenvalues --  -38.43385 -38.43187  -2.20159  -2.19832  -2.19541
  Beta  occ. eigenvalues --   -2.19444  -2.19373  -2.19229  -2.19084  -1.13825
  Beta  occ. eigenvalues --   -1.13817  -1.13795  -1.13507  -1.13487  -1.13476
  Beta  occ. eigenvalues --   -1.13222  -1.13199  -1.13172  -1.13132  -1.13100
  Beta  occ. eigenvalues --   -1.13092  -1.13080  -1.13056  -1.13044  -1.12910
  Beta  occ. eigenvalues --   -1.12876  -1.12870  -1.12801  -1.12748  -1.12730
  Beta  occ. eigenvalues --   -0.17471  -0.12570  -0.12161
  Beta virt. eigenvalues --   -0.06716  -0.05890  -0.05096  -0.04825  -0.02320
  Beta virt. eigenvalues --   -0.02139  -0.01590  -0.01521  -0.01159  -0.00697
  Beta virt. eigenvalues --   -0.00517   0.00121   0.00374   0.00780   0.00852

 Mulliken charges and spin densities:
               1          2
     1  Na  -0.454509   0.784683
     2  Na   0.111682  -0.033409
     3  Na   0.161188   0.043091
     4  Na   0.140555  -0.008709
     5  Na   0.080106  -0.083429
     6  Na   0.057002  -0.093934
     7  Na  -0.096024   0.391707
 Sum of Mulliken charges =  -0.00000   1.00000

 Dipole moment (field-independent basis, Debye):
    X=             -0.2095    Y=              0.2612    Z=              0.0696  Tot=              0.3420
 Quadrupole moment (field-independent basis, Debye-Ang):
   XX=            -56.1153   YY=            -61.5882   ZZ=            -75.2579
   XY=             -0.0565   XZ=             -0.4476   YZ=             -0.3876

 Normal termination of Gaussian 16 at Thu Dec  7 20:25:59 2023.
