 Gaussian 16, Revision B.01,
 Gaussian 16:  ES64L-G16RevB.01 20-Dec-2017

 -------------------------
 #P B3LYP/6-311+g(d) force
 -------------------------

 -----
 DPGEN
 -----
 Symbolic Z-matrix:
 Charge =  0 Multiplicity = 2

                         Standard orientation:
 ---------------------------------------------------------------------
 Center     Atomic      Atomic             Coordinates (Angstroms)
 Number     Number       Type             X           Y           Z
 ---------------------------------------------------------------------
      1         11           0       -0.144267    1.215444   -0.361879
      2         11           0        2.676915    3.247033   -0.167289
      3         11           0        3.599589    0.477280    0.686158
      4         11           0        3.241530   -2.786350   -0.555274
      5         11           0        0.009908   -1.967663    0.172108
      6         11           0       -3.460497   -0.927183    0.431904
      7         11           0       -5.923177    0.741439   -0.205728
 ---------------------------------------------------------------------

 SCF Done:  E(UB3LYP) =  -1136.12152320     A.U. after   21 cycles

 The electronic state is 2-A.
 Alpha  occ. eigenvalues --  -38.44999 -38.44562 -38.44552 -38.43813 -38.43640
 Alpha  occ. eigenvalues --  -38.43590 -38.43473  -2.20827  -2.20414  -2.20384
 Alpha  occ. eigenvalues --   -2.19643  -2.19498  -2.19402  -2.19320  -1.14526
 Alpha  occ. eigenvalues --   -1.14511  -1.14401  -1.14100  -1.14072  -1.14057
 Alpha  occ. eigenvalues --   -1.14050  -1.14006  -1.14004  -1.13329  -1.13317
 Alpha  occ. eigenvalues --   -1.13286  -1.13205  -1.13174  -1.13111  -1.13060
 Alpha  occ. eigenvalues --   -1.13056  -1.13016  -1.13003  -1.12966  -1.12953
 Alpha  occ. eigenvalues --   -0.16945  -0.14309  -0.12307  -0.11505
 Alpha virt. eigenvalues --   -0.06061  -0.05196  -0.04514  -0.03904  -0.03032
 Alpha virt. eigenvalues --   -0.02438  -0.01824  -0.01491  -0.01043  -0.00839
 Alpha virt. eigenvalues --   -0.00555  -0.00003   0.00349   0.00549   0.00717

  Beta  occ. eigenvalues --  -38.44948 -38.44527 -38.44463 -38.43812 -38.43612
  Beta  occ. eigenvalues --  -38.43560 -38.43472  -2.20735  -2.20351  -2.20219
  Beta  occ. eigenvalues --   -2.19652  -2.19450  -2.19347  -2.19318  -1.14462
  Beta  occ. eigenvalues --   -1.14452  -1.14331  -1.14059  -1.14026  -1.14001
  Beta  occ. eigenvalues --   -1.13949  -1.13893  -1.13891  -1.13332  -1.13330
  Beta  occ. eigenvalues --   -1.13237  -1.13169  -1.13146  -1.13069  -1.13023
  Beta  occ. eigenvalues --   -1.13009  -1.12997  -1.12983  -1.12966  -1.12949
  Beta  occ. eigenvalues --   -0.16306  -0.13502  -0.12056
  Beta virt. eigenvalues --   -0.08099  -0.05640  -0.05038  -0.04003  -0.03663
  Beta virt. eigenvalues --   -0.02748  -0.02140  -0.01677  -0.01185  -0.00817
  Beta virt. eigenvalues --   -0.00505  -0.00249   0.00130   0.00495   0.00653

 Mulliken charges and spin densities:
               1          2
     1  Na  -0.738351   0.118459
     2  Na   0.897442   0.003199
     3  Na  -0.438849   0.305899
     4  Na   1.731299   0.447981
     5  Na  -1.129111  -0.060538
     6  Na  -0.543980  -0.208040
     7  Na   0.221549   0.393041
 Sum of Mulliken charges =  -0.00000   1.00000

 Dipole moment (field-independent basis, Debye):
    X=              0.1079    Y=              0.6734    Z=             -0.2684  Tot=              0.7329
 Quadrupole moment (field-independent basis, Debye-Ang):
   XX=            -62.0081   YY=            -64.7935   ZZ=            -71.0388
   XY=             -1.9420   XZ=              1.2378   YZ=             -1.2937

 Normal termination of Gaussian 16 at Tue Nov 28 20:48:55 2023.
