 Gaussian 16, Revision B.01,
 Gaussian 16:  ES64L-G16RevB.01 20-Dec-2017

 -------------------------
 #P B3LYP/6-311+g(d) force
 -------------------------

 -----
 DPGEN
 -----
 Symbolic Z-matrix:
 Charge =  0 Multiplicity = 2

                         Standard orientation:
 ---------------------------------------------------------------------
 Center     Atomic      Atomic             Coordinates (Angstroms)
 Number     Number       Type             X           Y           Z
 ---------------------------------------------------------------------
      1         11           0        6.242527   -0.844286   -0.483025
      2         11           0       -6.586247    0.051756   -0.766323
      3         11           0       -0.489162    2.035608    0.171877
      4         11           0        3.220875    0.766443    0.731632
      5         11           0       -3.072270    0.089479   -0.625654
      6         11           0       -8.757995   -1.331448    0.846119
      7         11           0        9.442272   -0.767552    0.125374
 ---------------------------------------------------------------------

 SCF Done:  E(UB3LYP) =  -1136.10540238     A.U. after   19 cycles

 The electronic state is 2-A.
 Alpha  occ. eigenvalues --  -38.44987 -38.44980 -38.44931 -38.44551 -38.44543
 Alpha  occ. eigenvalues --  -38.44130 -38.44070  -2.20772  -2.20761  -2.20737
 Alpha  occ. eigenvalues --   -2.20347  -2.20297  -2.19944  -2.19846  -1.14416
 Alpha  occ. eigenvalues --   -1.14414  -1.14413  -1.14412  -1.14411  -1.14402
 Alpha  occ. eigenvalues --   -1.14375  -1.14373  -1.14360  -1.14022  -1.14004
 Alpha  occ. eigenvalues --   -1.14001  -1.13982  -1.13963  -1.13916  -1.13613
 Alpha  occ. eigenvalues --   -1.13605  -1.13602  -1.13526  -1.13521  -1.13504
 Alpha  occ. eigenvalues --   -0.15022  -0.14381  -0.13014  -0.11525
 Alpha virt. eigenvalues --   -0.07419  -0.05251  -0.04087  -0.03317  -0.03029
 Alpha virt. eigenvalues --   -0.02892  -0.02595  -0.02060  -0.01744  -0.01469
 Alpha virt. eigenvalues --   -0.00715  -0.00462  -0.00425   0.00214   0.00349

  Beta  occ. eigenvalues --  -38.44907 -38.44894 -38.44886 -38.44580 -38.44487
  Beta  occ. eigenvalues --  -38.44137 -38.44083  -2.20652  -2.20634  -2.20588
  Beta  occ. eigenvalues --   -2.20355  -2.20243  -2.19963  -2.19878  -1.14358
  Beta  occ. eigenvalues --   -1.14318  -1.14317  -1.14317  -1.14315  -1.14313
  Beta  occ. eigenvalues --   -1.14298  -1.14295  -1.14251  -1.14028  -1.14026
  Beta  occ. eigenvalues --   -1.13982  -1.13930  -1.13928  -1.13885  -1.13622
  Beta  occ. eigenvalues --   -1.13622  -1.13587  -1.13554  -1.13549  -1.13480
  Beta  occ. eigenvalues --   -0.14518  -0.13642  -0.12538
  Beta virt. eigenvalues --   -0.08465  -0.06860  -0.04783  -0.03910  -0.03166
  Beta virt. eigenvalues --   -0.02793  -0.02688  -0.02421  -0.01895  -0.01430
  Beta virt. eigenvalues --   -0.01068  -0.00326  -0.00290  -0.00162   0.00311

 Mulliken charges and spin densities:
               1          2
     1  Na  -0.227587  -0.024851
     2  Na  -0.200770  -0.025554
     3  Na   0.221053  -0.101302
     4  Na  -0.105158   0.461796
     5  Na  -0.273328   0.205992
     6  Na   0.326339   0.201594
     7  Na   0.259452   0.282325
 Sum of Mulliken charges =  -0.00000   1.00000

 Dipole moment (field-independent basis, Debye):
    X=             -0.1833    Y=             -0.2901    Z=              0.5156  Tot=              0.6194
 Quadrupole moment (field-independent basis, Debye-Ang):
   XX=            -39.6880   YY=            -69.6463   ZZ=            -71.6952
   XY=              4.7717   XZ=             -2.2684   YZ=             -0.6488

 Normal termination of Gaussian 16 at Mon Dec  4 00:33:59 2023.
