 Gaussian 16, Revision B.01,
 Gaussian 16:  ES64L-G16RevB.01 20-Dec-2017

 -------------------------
 #P B3LYP/6-311+g(d) force
 -------------------------

 -----
 DPGEN
 -----
 Symbolic Z-matrix:
 Charge =  0 Multiplicity = 2

                         Standard orientation:
 ---------------------------------------------------------------------
 Center     Atomic      Atomic             Coordinates (Angstroms)
 Number     Number       Type             X           Y           Z
 ---------------------------------------------------------------------
      1         11           0        0.290777    2.571244   -0.543521
      2         11           0       -6.000035   -0.111534   -0.295078
      3         11           0       -2.632021    1.020181    1.133105
      4         11           0       -2.826585   -2.006484   -0.171938
      5         11           0        0.485166   -0.779875    0.088216
      6         11           0        3.844382   -0.239729   -0.762386
      7         11           0        6.838316   -0.453803    0.551602
 ---------------------------------------------------------------------

 SCF Done:  E(UB3LYP) =  -1136.11600838     A.U. after   22 cycles

 The electronic state is 2-A.
 Alpha  occ. eigenvalues --  -38.45190 -38.44571 -38.44338 -38.44336 -38.44125
 Alpha  occ. eigenvalues --  -38.43801 -38.43652  -2.21006  -2.20339  -2.20184
 Alpha  occ. eigenvalues --   -2.20141  -2.19880  -2.19664  -2.19452  -1.14712
 Alpha  occ. eigenvalues --   -1.14699  -1.14594  -1.14007  -1.14003  -1.13951
 Alpha  occ. eigenvalues --   -1.13868  -1.13854  -1.13803  -1.13781  -1.13775
 Alpha  occ. eigenvalues --   -1.13773  -1.13548  -1.13547  -1.13536  -1.13349
 Alpha  occ. eigenvalues --   -1.13327  -1.13293  -1.13135  -1.13122  -1.13061
 Alpha  occ. eigenvalues --   -0.16980  -0.13772  -0.11858  -0.11056
 Alpha virt. eigenvalues --   -0.07270  -0.05621  -0.04068  -0.03843  -0.02999
 Alpha virt. eigenvalues --   -0.02447  -0.01967  -0.01849  -0.01324  -0.00725
 Alpha virt. eigenvalues --   -0.00361  -0.00088  -0.00077   0.00279   0.00542

  Beta  occ. eigenvalues --  -38.45169 -38.44539 -38.44288 -38.44280 -38.44143
  Beta  occ. eigenvalues --  -38.43765 -38.43647  -2.20970  -2.20278  -2.20083
  Beta  occ. eigenvalues --   -2.20048  -2.19912  -2.19601  -2.19440  -1.14679
  Beta  occ. eigenvalues --   -1.14661  -1.14564  -1.13965  -1.13957  -1.13914
  Beta  occ. eigenvalues --   -1.13804  -1.13790  -1.13739  -1.13718  -1.13708
  Beta  occ. eigenvalues --   -1.13675  -1.13570  -1.13569  -1.13557  -1.13311
  Beta  occ. eigenvalues --   -1.13280  -1.13222  -1.13122  -1.13112  -1.13064
  Beta  occ. eigenvalues --   -0.16238  -0.13701  -0.11645
  Beta virt. eigenvalues --   -0.07303  -0.07049  -0.05102  -0.03854  -0.03589
  Beta virt. eigenvalues --   -0.02425  -0.02242  -0.01846  -0.01572  -0.00965
  Beta virt. eigenvalues --   -0.00618  -0.00244   0.00107   0.00233   0.00387

 Mulliken charges and spin densities:
               1          2
     1  Na   0.181033   0.256019
     2  Na   0.185060   0.187128
     3  Na  -0.024106   0.205390
     4  Na   0.094735   0.027390
     5  Na  -0.622682   0.423399
     6  Na  -0.025522  -0.012312
     7  Na   0.211481  -0.087014
 Sum of Mulliken charges =  -0.00000   1.00000

 Dipole moment (field-independent basis, Debye):
    X=             -1.4667    Y=              0.4490    Z=              0.0066  Tot=              1.5339
 Quadrupole moment (field-independent basis, Debye-Ang):
   XX=            -56.8817   YY=            -69.6093   ZZ=            -68.9565
   XY=              1.7871   XZ=              4.4758   YZ=             -0.0770

 Normal termination of Gaussian 16 at Wed Nov 29 02:51:48 2023.
