 Gaussian 16, Revision B.01,
 Gaussian 16:  ES64L-G16RevB.01 20-Dec-2017

 -------------------------
 #P B3LYP/6-311+g(d) force
 -------------------------

 -----
 DPGEN
 -----
 Symbolic Z-matrix:
 Charge =  0 Multiplicity = 2

                         Standard orientation:
 ---------------------------------------------------------------------
 Center     Atomic      Atomic             Coordinates (Angstroms)
 Number     Number       Type             X           Y           Z
 ---------------------------------------------------------------------
      1         11           0        3.176918    0.192212    0.938099
      2         11           0        2.042251    3.773767   -0.144167
      3         11           0       -4.236501    1.014139   -0.355149
      4         11           0        4.072383   -2.671293   -0.297354
      5         11           0       -5.772748   -1.456588    0.463145
      6         11           0       -0.040845    1.131806   -0.191055
      7         11           0        0.758542   -1.984044   -0.413519
 ---------------------------------------------------------------------

 SCF Done:  E(UB3LYP) =  -1136.11643144     A.U. after   19 cycles

 The electronic state is 2-A.
 Alpha  occ. eigenvalues --  -38.44601 -38.44210 -38.44209 -38.44071 -38.44009
 Alpha  occ. eigenvalues --  -38.43836 -38.43383  -2.20456  -2.20087  -2.20013
 Alpha  occ. eigenvalues --   -2.19863  -2.19843  -2.19628  -2.19265  -1.14159
 Alpha  occ. eigenvalues --   -1.14139  -1.14054  -1.13776  -1.13749  -1.13749
 Alpha  occ. eigenvalues --   -1.13689  -1.13657  -1.13655  -1.13522  -1.13507
 Alpha  occ. eigenvalues --   -1.13507  -1.13496  -1.13473  -1.13465  -1.13291
 Alpha  occ. eigenvalues --   -1.13288  -1.13256  -1.12957  -1.12939  -1.12867
 Alpha  occ. eigenvalues --   -0.16951  -0.13550  -0.12431  -0.10863
 Alpha virt. eigenvalues --   -0.06184  -0.05856  -0.03976  -0.03723  -0.03172
 Alpha virt. eigenvalues --   -0.02333  -0.02082  -0.01227  -0.01106  -0.01085
 Alpha virt. eigenvalues --   -0.00293   0.00015   0.00120   0.00487   0.00583

  Beta  occ. eigenvalues --  -38.44568 -38.44182 -38.44147 -38.44077 -38.43986
  Beta  occ. eigenvalues --  -38.43809 -38.43340  -2.20397  -2.19974  -2.19962
  Beta  occ. eigenvalues --   -2.19878  -2.19801  -2.19576  -2.19191  -1.14114
  Beta  occ. eigenvalues --   -1.14091  -1.14008  -1.13725  -1.13691  -1.13676
  Beta  occ. eigenvalues --   -1.13623  -1.13620  -1.13602  -1.13534  -1.13514
  Beta  occ. eigenvalues --   -1.13470  -1.13463  -1.13462  -1.13438  -1.13256
  Beta  occ. eigenvalues --   -1.13251  -1.13220  -1.12905  -1.12893  -1.12785
  Beta  occ. eigenvalues --   -0.16203  -0.13267  -0.12165
  Beta virt. eigenvalues --   -0.07273  -0.05959  -0.05444  -0.03722  -0.03412
  Beta virt. eigenvalues --   -0.02678  -0.02228  -0.01921  -0.01058  -0.00953
  Beta virt. eigenvalues --   -0.00604   0.00000   0.00123   0.00349   0.00572

 Mulliken charges and spin densities:
               1          2
     1  Na  -0.297990   0.302007
     2  Na   0.951458   0.306907
     3  Na  -0.240013  -0.001856
     4  Na   0.809275   0.238227
     5  Na  -0.034604   0.091237
     6  Na  -0.924773   0.112417
     7  Na  -0.263353  -0.048938
 Sum of Mulliken charges =  -0.00000   1.00000

 Dipole moment (field-independent basis, Debye):
    X=              0.6094    Y=             -0.8506    Z=             -0.1579  Tot=              1.0582
 Quadrupole moment (field-independent basis, Debye-Ang):
   XX=            -67.1726   YY=            -57.3602   ZZ=            -71.6241
   XY=              1.9875   XZ=             -1.7718   YZ=             -1.3142

 Normal termination of Gaussian 16 at Wed Nov 29 00:41:58 2023.
