 Gaussian 16, Revision B.01,
 Gaussian 16:  ES64L-G16RevB.01 20-Dec-2017

 -------------------------
 #P B3LYP/6-311+g(d) force
 -------------------------

 -----
 DPGEN
 -----
 Symbolic Z-matrix:
 Charge =  0 Multiplicity = 2

                         Standard orientation:
 ---------------------------------------------------------------------
 Center     Atomic      Atomic             Coordinates (Angstroms)
 Number     Number       Type             X           Y           Z
 ---------------------------------------------------------------------
      1         11           0       -1.338178    2.521402    0.137756
      2         11           0        2.389256    1.941423   -0.159642
      3         11           0        2.432058   -1.691065    0.138991
      4         11           0        0.451710   -0.161635   -1.561528
      5         11           0       -1.045742   -2.581685    0.059265
      6         11           0        0.069380    0.045377    1.682055
      7         11           0       -2.958484   -0.073817   -0.296897
 ---------------------------------------------------------------------

 SCF Done:  E(UB3LYP) =  -1136.13425072     A.U. after   20 cycles

 The electronic state is 2-A.
 Alpha  occ. eigenvalues --  -38.43914 -38.43881 -38.43712 -38.43447 -38.43257
 Alpha  occ. eigenvalues --  -38.42935 -38.42863  -2.19817  -2.19736  -2.19618
 Alpha  occ. eigenvalues --   -2.19337  -2.19176  -2.18996  -2.18897  -1.13547
 Alpha  occ. eigenvalues --   -1.13486  -1.13439  -1.13421  -1.13393  -1.13357
 Alpha  occ. eigenvalues --   -1.13332  -1.13293  -1.13261  -1.13026  -1.12990
 Alpha  occ. eigenvalues --   -1.12957  -1.12882  -1.12842  -1.12802  -1.12703
 Alpha  occ. eigenvalues --   -1.12621  -1.12601  -1.12562  -1.12515  -1.12503
 Alpha  occ. eigenvalues --   -0.19395  -0.13404  -0.12695  -0.10504
 Alpha virt. eigenvalues --   -0.05506  -0.05361  -0.04547  -0.03142  -0.02736
 Alpha virt. eigenvalues --   -0.02058  -0.01475  -0.01225  -0.00221  -0.00145
 Alpha virt. eigenvalues --    0.00055   0.00357   0.00853   0.00879   0.00948

  Beta  occ. eigenvalues --  -38.43905 -38.43874 -38.43705 -38.43441 -38.43249
  Beta  occ. eigenvalues --  -38.42868 -38.42780  -2.19805  -2.19727  -2.19608
  Beta  occ. eigenvalues --   -2.19330  -2.19166  -2.18874  -2.18747  -1.13537
  Beta  occ. eigenvalues --   -1.13448  -1.13429  -1.13411  -1.13371  -1.13354
  Beta  occ. eigenvalues --   -1.13330  -1.13289  -1.13229  -1.13015  -1.12966
  Beta  occ. eigenvalues --   -1.12954  -1.12874  -1.12809  -1.12788  -1.12618
  Beta  occ. eigenvalues --   -1.12535  -1.12512  -1.12463  -1.12403  -1.12397
  Beta  occ. eigenvalues --   -0.18676  -0.13126  -0.12416
  Beta virt. eigenvalues --   -0.06584  -0.05500  -0.05313  -0.04550  -0.02324
  Beta virt. eigenvalues --   -0.01949  -0.01391  -0.01177  -0.01034  -0.00256
  Beta virt. eigenvalues --   -0.00199   0.00177   0.00390   0.00879   0.00895

 Mulliken charges and spin densities:
               1          2
     1  Na   0.209788  -0.040343
     2  Na   0.108009  -0.121540
     3  Na   0.339543  -0.093621
     4  Na  -0.542402   0.599377
     5  Na   0.331032   0.007387
     6  Na  -0.432114   0.638107
     7  Na  -0.013856   0.010634
 Sum of Mulliken charges =  -0.00000   1.00000

 Dipole moment (field-independent basis, Debye):
    X=              0.3410    Y=              0.0734    Z=              0.0497  Tot=              0.3524
 Quadrupole moment (field-independent basis, Debye-Ang):
   XX=            -55.6362   YY=            -60.8126   ZZ=            -75.8726
   XY=              0.2470   XZ=              0.9801   YZ=             -0.4880

 Normal termination of Gaussian 16 at Wed Nov 29 03:07:28 2023.
