 Gaussian 16, Revision B.01,
 Gaussian 16:  ES64L-G16RevB.01 20-Dec-2017

 -------------------------
 #P B3LYP/6-311+g(d) force
 -------------------------

 -----
 DPGEN
 -----
 Symbolic Z-matrix:
 Charge =  0 Multiplicity = 2

                         Standard orientation:
 ---------------------------------------------------------------------
 Center     Atomic      Atomic             Coordinates (Angstroms)
 Number     Number       Type             X           Y           Z
 ---------------------------------------------------------------------
      1         11           0       -2.453253   -3.089814   -0.485505
      2         11           0       -3.093578    0.429496    0.767879
      3         11           0        0.333988    0.890058    0.224789
      4         11           0        3.137786    1.102048   -1.267200
      5         11           0        1.027670   -2.205259   -0.710104
      6         11           0        2.849478   -0.550812    1.819737
      7         11           0       -1.802092    3.424283   -0.349595
 ---------------------------------------------------------------------

 SCF Done:  E(UB3LYP) =  -1136.12156894     A.U. after   21 cycles

 The electronic state is 2-A.
 Alpha  occ. eigenvalues --  -38.44710 -38.44646 -38.44283 -38.44128 -38.43622
 Alpha  occ. eigenvalues --  -38.43583 -38.43566  -2.20505  -2.20463  -2.20079
 Alpha  occ. eigenvalues --   -2.19986  -2.19533  -2.19506  -2.19349  -1.14202
 Alpha  occ. eigenvalues --   -1.14186  -1.14181  -1.14144  -1.14106  -1.14053
 Alpha  occ. eigenvalues --   -1.13753  -1.13744  -1.13709  -1.13670  -1.13630
 Alpha  occ. eigenvalues --   -1.13596  -1.13249  -1.13228  -1.13186  -1.13149
 Alpha  occ. eigenvalues --   -1.13133  -1.13085  -1.13022  -1.13010  -1.12989
 Alpha  occ. eigenvalues --   -0.17650  -0.13844  -0.12273  -0.10003
 Alpha virt. eigenvalues --   -0.06543  -0.05646  -0.05378  -0.03154  -0.02503
 Alpha virt. eigenvalues --   -0.02385  -0.01603  -0.01509  -0.00978  -0.00871
 Alpha virt. eigenvalues --   -0.00309   0.00107   0.00237   0.00571   0.00660

  Beta  occ. eigenvalues --  -38.44706 -38.44635 -38.44289 -38.44062 -38.43581
  Beta  occ. eigenvalues --  -38.43552 -38.43538  -2.20498  -2.20445  -2.20091
  Beta  occ. eigenvalues --   -2.19864  -2.19514  -2.19350  -2.19346  -1.14195
  Beta  occ. eigenvalues --   -1.14178  -1.14176  -1.14104  -1.14103  -1.14044
  Beta  occ. eigenvalues --   -1.13760  -1.13751  -1.13714  -1.13587  -1.13538
  Beta  occ. eigenvalues --   -1.13513  -1.13223  -1.13176  -1.13148  -1.13044
  Beta  occ. eigenvalues --   -1.13034  -1.13019  -1.13007  -1.12999  -1.12987
  Beta  occ. eigenvalues --   -0.17103  -0.13639  -0.12093
  Beta virt. eigenvalues --   -0.06468  -0.06164  -0.05402  -0.05046  -0.02904
  Beta virt. eigenvalues --   -0.02248  -0.02036  -0.01392  -0.01053  -0.00828
  Beta virt. eigenvalues --   -0.00517   0.00024   0.00340   0.00374   0.00648

 Mulliken charges and spin densities:
               1          2
     1  Na  -0.143199  -0.000584
     2  Na   0.170794  -0.066549
     3  Na  -2.121287   0.456848
     4  Na   0.636004   0.371718
     5  Na   0.584439   0.150193
     6  Na   0.784699   0.180385
     7  Na   0.088550  -0.092011
 Sum of Mulliken charges =  -0.00000   1.00000

 Dipole moment (field-independent basis, Debye):
    X=             -0.3745    Y=              0.6706    Z=             -0.1191  Tot=              0.7773
 Quadrupole moment (field-independent basis, Debye-Ang):
   XX=            -55.5524   YY=            -62.9524   ZZ=            -75.5894
   XY=             -1.7556   XZ=             -1.9457   YZ=             -0.0101

 Normal termination of Gaussian 16 at Wed Dec  6 00:39:49 2023.
