 Gaussian 16, Revision B.01,
 Gaussian 16:  ES64L-G16RevB.01 20-Dec-2017

 -------------------------
 #P B3LYP/6-311+g(d) force
 -------------------------

 -----
 DPGEN
 -----
 Symbolic Z-matrix:
 Charge =  0 Multiplicity = 2

                         Standard orientation:
 ---------------------------------------------------------------------
 Center     Atomic      Atomic             Coordinates (Angstroms)
 Number     Number       Type             X           Y           Z
 ---------------------------------------------------------------------
      1         11           0        0.669913   -0.195436   -1.670977
      2         11           0        0.842133   -2.792987    0.093947
      3         11           0        3.013681   -0.076172    0.275921
      4         11           0       -0.055906   -0.122926    1.688374
      5         11           0       -2.313741    1.897767    0.205233
      6         11           0        0.862155    2.832036   -0.260360
      7         11           0       -3.018236   -1.542281   -0.332138
 ---------------------------------------------------------------------

 SCF Done:  E(UB3LYP) =  -1136.13417281     A.U. after   21 cycles

 The electronic state is 2-A.
 Alpha  occ. eigenvalues --  -38.44195 -38.44091 -38.43715 -38.43706 -38.43285
 Alpha  occ. eigenvalues --  -38.43177 -38.43040  -2.19994  -2.19966  -2.19593
 Alpha  occ. eigenvalues --   -2.19557  -2.19176  -2.19149  -2.19019  -1.13713
 Alpha  occ. eigenvalues --   -1.13659  -1.13641  -1.13623  -1.13608  -1.13607
 Alpha  occ. eigenvalues --   -1.13309  -1.13275  -1.13248  -1.13222  -1.13197
 Alpha  occ. eigenvalues --   -1.13192  -1.12879  -1.12843  -1.12805  -1.12800
 Alpha  occ. eigenvalues --   -1.12791  -1.12761  -1.12700  -1.12648  -1.12630
 Alpha  occ. eigenvalues --   -0.18853  -0.13163  -0.12556  -0.10411
 Alpha virt. eigenvalues --   -0.05816  -0.05210  -0.04861  -0.03088  -0.02781
 Alpha virt. eigenvalues --   -0.02119  -0.01588  -0.01188  -0.00508  -0.00374
 Alpha virt. eigenvalues --    0.00030   0.00344   0.00821   0.00844   0.00885

  Beta  occ. eigenvalues --  -38.44192 -38.44080 -38.43712 -38.43696 -38.43279
  Beta  occ. eigenvalues --  -38.43106 -38.42963  -2.19977  -2.19962  -2.19580
  Beta  occ. eigenvalues --   -2.19554  -2.19142  -2.19047  -2.18878  -1.13700
  Beta  occ. eigenvalues --   -1.13632  -1.13620  -1.13619  -1.13605  -1.13594
  Beta  occ. eigenvalues --   -1.13302  -1.13239  -1.13233  -1.13209  -1.13193
  Beta  occ. eigenvalues --   -1.13188  -1.12841  -1.12793  -1.12777  -1.12765
  Beta  occ. eigenvalues --   -1.12708  -1.12682  -1.12606  -1.12545  -1.12527
  Beta  occ. eigenvalues --   -0.18134  -0.12932  -0.12300
  Beta virt. eigenvalues --   -0.06537  -0.05749  -0.05169  -0.04824  -0.02346
  Beta virt. eigenvalues --   -0.02047  -0.01517  -0.01133  -0.01087  -0.00548
  Beta virt. eigenvalues --   -0.00411   0.00166   0.00383   0.00831   0.00869

 Mulliken charges and spin densities:
               1          2
     1  Na  -0.304940   0.759512
     2  Na   0.132615  -0.056622
     3  Na   0.443732  -0.023832
     4  Na  -0.084931   0.536523
     5  Na  -0.000482  -0.065584
     6  Na  -0.007687  -0.091270
     7  Na  -0.178306  -0.058728
 Sum of Mulliken charges =  -0.00000   1.00000

 Dipole moment (field-independent basis, Debye):
    X=             -0.0003    Y=             -0.2051    Z=              0.0340  Tot=              0.2079
 Quadrupole moment (field-independent basis, Debye-Ang):
   XX=            -55.8205   YY=            -60.4709   ZZ=            -76.1260
   XY=              0.4076   XZ=              1.7168   YZ=              0.0568

 Normal termination of Gaussian 16 at Sun Dec  3 18:59:37 2023.
