 Gaussian 16, Revision B.01,
 Gaussian 16:  ES64L-G16RevB.01 20-Dec-2017

 -------------------------
 #P B3LYP/6-311+g(d) force
 -------------------------

 -----
 DPGEN
 -----
 Symbolic Z-matrix:
 Charge =  0 Multiplicity = 2

                         Standard orientation:
 ---------------------------------------------------------------------
 Center     Atomic      Atomic             Coordinates (Angstroms)
 Number     Number       Type             X           Y           Z
 ---------------------------------------------------------------------
      1         11           0       -1.677337    2.355221   -0.548345
      2         11           0        1.441821    2.400185    0.266247
      3         11           0       -2.897542   -1.187482    0.310366
      4         11           0       -0.154454   -0.212217   -1.498619
      5         11           0       -0.226331   -0.014032    1.751379
      6         11           0        2.949261   -0.461371   -0.033865
      7         11           0        0.564582   -2.880304   -0.247163
 ---------------------------------------------------------------------

 SCF Done:  E(UB3LYP) =  -1136.13589055     A.U. after   19 cycles

 The electronic state is 2-A.
 Alpha  occ. eigenvalues --  -38.43890 -38.43677 -38.43566 -38.43540 -38.43238
 Alpha  occ. eigenvalues --  -38.43112 -38.42876  -2.19733  -2.19561  -2.19444
 Alpha  occ. eigenvalues --   -2.19435  -2.19159  -2.19108  -2.18953  -1.13424
 Alpha  occ. eigenvalues --   -1.13394  -1.13360  -1.13302  -1.13220  -1.13177
 Alpha  occ. eigenvalues --   -1.13155  -1.13134  -1.13103  -1.13096  -1.13077
 Alpha  occ. eigenvalues --   -1.13058  -1.12869  -1.12815  -1.12802  -1.12788
 Alpha  occ. eigenvalues --   -1.12716  -1.12711  -1.12621  -1.12588  -1.12549
 Alpha  occ. eigenvalues --   -0.19241  -0.12985  -0.12939  -0.10629
 Alpha virt. eigenvalues --   -0.05460  -0.05026  -0.04767  -0.02982  -0.02955
 Alpha virt. eigenvalues --   -0.02172  -0.01451  -0.01246  -0.00227  -0.00135
 Alpha virt. eigenvalues --    0.00070   0.00350   0.00857   0.00913   0.00931

  Beta  occ. eigenvalues --  -38.43880 -38.43668 -38.43564 -38.43521 -38.43230
  Beta  occ. eigenvalues --  -38.43031 -38.42812  -2.19718  -2.19547  -2.19442
  Beta  occ. eigenvalues --   -2.19404  -2.19147  -2.18961  -2.18837  -1.13405
  Beta  occ. eigenvalues --   -1.13370  -1.13353  -1.13285  -1.13201  -1.13163
  Beta  occ. eigenvalues --   -1.13136  -1.13128  -1.13087  -1.13070  -1.13063
  Beta  occ. eigenvalues --   -1.13029  -1.12841  -1.12797  -1.12764  -1.12718
  Beta  occ. eigenvalues --   -1.12619  -1.12605  -1.12534  -1.12500  -1.12471
  Beta  occ. eigenvalues --   -0.18546  -0.12687  -0.12651
  Beta virt. eigenvalues --   -0.06733  -0.05431  -0.04975  -0.04753  -0.02216
  Beta virt. eigenvalues --   -0.02186  -0.01356  -0.01184  -0.01118  -0.00250
  Beta virt. eigenvalues --   -0.00160   0.00172   0.00385   0.00871   0.00921

 Mulliken charges and spin densities:
               1          2
     1  Na   0.211524   0.040311
     2  Na   0.244868   0.047404
     3  Na   0.056158  -0.047483
     4  Na  -0.429064   0.384554
     5  Na  -0.327208   0.656937
     6  Na   0.016078  -0.028486
     7  Na   0.227644  -0.053236
 Sum of Mulliken charges =  -0.00000   1.00000

 Dipole moment (field-independent basis, Debye):
    X=             -0.2214    Y=             -0.2464    Z=              0.1187  Tot=              0.3519
 Quadrupole moment (field-independent basis, Debye-Ang):
   XX=            -57.2029   YY=            -59.8373   ZZ=            -75.2535
   XY=              0.1539   XZ=              0.2994   YZ=             -0.4391

 Normal termination of Gaussian 16 at Thu Dec  7 05:51:06 2023.
