 Gaussian 16, Revision B.01,
 Gaussian 16:  ES64L-G16RevB.01 20-Dec-2017

 -------------------------
 #P B3LYP/6-311+g(d) force
 -------------------------

 -----
 DPGEN
 -----
 Symbolic Z-matrix:
 Charge =  0 Multiplicity = 2

                         Standard orientation:
 ---------------------------------------------------------------------
 Center     Atomic      Atomic             Coordinates (Angstroms)
 Number     Number       Type             X           Y           Z
 ---------------------------------------------------------------------
      1         11           0        3.162031    1.314630   -0.455220
      2         11           0        1.953954   -2.194484   -0.894882
      3         11           0        0.089677    0.432023   -0.744407
      4         11           0       -0.857265    2.991713    0.341209
      5         11           0       -3.483251    0.253120   -0.677176
      6         11           0        0.883436   -0.513727    2.066230
      7         11           0       -1.748582   -2.283275    0.364246
 ---------------------------------------------------------------------

 SCF Done:  E(UB3LYP) =  -1136.12582934     A.U. after   21 cycles

 The electronic state is 2-A.
 Alpha  occ. eigenvalues --  -38.44650 -38.44053 -38.43936 -38.43831 -38.43528
 Alpha  occ. eigenvalues --  -38.43385 -38.42741  -2.20459  -2.19869  -2.19781
 Alpha  occ. eigenvalues --   -2.19651  -2.19439  -2.19235  -2.18858  -1.14147
 Alpha  occ. eigenvalues --   -1.14113  -1.14080  -1.13542  -1.13535  -1.13493
 Alpha  occ. eigenvalues --   -1.13488  -1.13434  -1.13409  -1.13390  -1.13297
 Alpha  occ. eigenvalues --   -1.13251  -1.13159  -1.13054  -1.13029  -1.12916
 Alpha  occ. eigenvalues --   -1.12901  -1.12867  -1.12571  -1.12517  -1.12460
 Alpha  occ. eigenvalues --   -0.18377  -0.13306  -0.12117  -0.10383
 Alpha virt. eigenvalues --   -0.06234  -0.05188  -0.04592  -0.02989  -0.02676
 Alpha virt. eigenvalues --   -0.02080  -0.01950  -0.01204  -0.00795  -0.00229
 Alpha virt. eigenvalues --   -0.00074   0.00291   0.00676   0.00756   0.00786

  Beta  occ. eigenvalues --  -38.44634 -38.44035 -38.43911 -38.43828 -38.43431
  Beta  occ. eigenvalues --  -38.43379 -38.42722  -2.20431  -2.19835  -2.19737
  Beta  occ. eigenvalues --   -2.19647  -2.19260  -2.19229  -2.18831  -1.14125
  Beta  occ. eigenvalues --   -1.14092  -1.14051  -1.13521  -1.13507  -1.13470
  Beta  occ. eigenvalues --   -1.13458  -1.13408  -1.13399  -1.13348  -1.13286
  Beta  occ. eigenvalues --   -1.13248  -1.13042  -1.12932  -1.12916  -1.12898
  Beta  occ. eigenvalues --   -1.12887  -1.12845  -1.12510  -1.12495  -1.12447
  Beta  occ. eigenvalues --   -0.17715  -0.12952  -0.11954
  Beta virt. eigenvalues --   -0.06672  -0.06013  -0.04999  -0.04507  -0.02476
  Beta virt. eigenvalues --   -0.02072  -0.01787  -0.01326  -0.01034  -0.00637
  Beta virt. eigenvalues --   -0.00218   0.00124   0.00371   0.00730   0.00819

 Mulliken charges and spin densities:
               1          2
     1  Na   0.207623   0.034832
     2  Na   0.138279   0.149076
     3  Na  -0.348140   0.205980
     4  Na  -0.184457  -0.001789
     5  Na   0.398920   0.072513
     6  Na  -0.304962   0.454355
     7  Na   0.092738   0.085032
 Sum of Mulliken charges =  -0.00000   1.00000

 Dipole moment (field-independent basis, Debye):
    X=              0.4683    Y=              0.1475    Z=              0.2944  Tot=              0.5725
 Quadrupole moment (field-independent basis, Debye-Ang):
   XX=            -54.3129   YY=            -62.8259   ZZ=            -73.7659
   XY=              0.3979   XZ=              0.1059   YZ=              1.5216

 Normal termination of Gaussian 16 at Tue Dec  5 23:21:58 2023.
