 Gaussian 16, Revision B.01,
 Gaussian 16:  ES64L-G16RevB.01 20-Dec-2017

 -------------------------
 #P B3LYP/6-311+g(d) force
 -------------------------

 -----
 DPGEN
 -----
 Symbolic Z-matrix:
 Charge =  0 Multiplicity = 2

                         Standard orientation:
 ---------------------------------------------------------------------
 Center     Atomic      Atomic             Coordinates (Angstroms)
 Number     Number       Type             X           Y           Z
 ---------------------------------------------------------------------
      1         11           0       -0.703559    1.730379    0.880206
      2         11           0        2.389202    0.522152    0.084039
      3         11           0        0.257911   -1.714930   -0.879519
      4         11           0       -2.925423   -0.879322    1.588881
      5         11           0       -3.988680   -1.152718   -1.252614
      6         11           0        4.068200   -2.560614    0.213872
      7         11           0        0.902349    4.055053   -0.634866
 ---------------------------------------------------------------------

 SCF Done:  E(UB3LYP) =  -1136.11641957     A.U. after   26 cycles

 The electronic state is 2-A.
 Alpha  occ. eigenvalues --  -38.46134 -38.45070 -38.44296 -38.44216 -38.43351
 Alpha  occ. eigenvalues --  -38.43263 -38.43078  -2.21898  -2.20827  -2.20152
 Alpha  occ. eigenvalues --   -2.20066  -2.19200  -2.19085  -2.18973  -1.15623
 Alpha  occ. eigenvalues --   -1.15585  -1.15469  -1.14504  -1.14497  -1.14439
 Alpha  occ. eigenvalues --   -1.13895  -1.13853  -1.13766  -1.13735  -1.13709
 Alpha  occ. eigenvalues --   -1.13700  -1.12859  -1.12830  -1.12814  -1.12775
 Alpha  occ. eigenvalues --   -1.12736  -1.12712  -1.12663  -1.12647  -1.12561
 Alpha  occ. eigenvalues --   -0.17126  -0.13859  -0.12689  -0.09617
 Alpha virt. eigenvalues --   -0.07262  -0.05500  -0.04676  -0.03644  -0.02951
 Alpha virt. eigenvalues --   -0.02376  -0.02051  -0.01508  -0.01169  -0.00785
 Alpha virt. eigenvalues --   -0.00271   0.00107   0.00325   0.00455   0.00571

  Beta  occ. eigenvalues --  -38.46129 -38.45066 -38.44295 -38.44199 -38.43272
  Beta  occ. eigenvalues --  -38.43222 -38.43046  -2.21892  -2.20818  -2.20153
  Beta  occ. eigenvalues --   -2.20042  -2.19051  -2.19006  -2.18920  -1.15620
  Beta  occ. eigenvalues --   -1.15564  -1.15471  -1.14498  -1.14490  -1.14433
  Beta  occ. eigenvalues --   -1.13891  -1.13840  -1.13742  -1.13717  -1.13710
  Beta  occ. eigenvalues --   -1.13656  -1.12760  -1.12727  -1.12721  -1.12715
  Beta  occ. eigenvalues --   -1.12682  -1.12661  -1.12625  -1.12616  -1.12494
  Beta  occ. eigenvalues --   -0.16655  -0.13433  -0.12417
  Beta virt. eigenvalues --   -0.07118  -0.06123  -0.05269  -0.04315  -0.03457
  Beta virt. eigenvalues --   -0.02698  -0.02174  -0.01882  -0.01077  -0.00968
  Beta virt. eigenvalues --   -0.00367  -0.00123   0.00218   0.00550   0.00588

 Mulliken charges and spin densities:
               1          2
     1  Na  -0.957886   0.095195
     2  Na  -0.841861   0.024024
     3  Na  -0.562572  -0.069559
     4  Na   0.486557   0.044554
     5  Na  -0.042721   0.547371
     6  Na   0.916035   0.051090
     7  Na   1.002449   0.307325
 Sum of Mulliken charges =  -0.00000   1.00000

 Dipole moment (field-independent basis, Debye):
    X=              1.7461    Y=             -1.2756    Z=              0.5846  Tot=              2.2400
 Quadrupole moment (field-independent basis, Debye-Ang):
   XX=            -65.6147   YY=            -66.8242   ZZ=            -68.9300
   XY=             -8.3289   XZ=             -2.5483   YZ=             -2.1401

 Normal termination of Gaussian 16 at Wed Nov 29 01:13:07 2023.
