 Gaussian 16, Revision B.01,
 Gaussian 16:  ES64L-G16RevB.01 20-Dec-2017

 -------------------------
 #P B3LYP/6-311+g(d) force
 -------------------------

 -----
 DPGEN
 -----
 Symbolic Z-matrix:
 Charge =  0 Multiplicity = 2

                         Standard orientation:
 ---------------------------------------------------------------------
 Center     Atomic      Atomic             Coordinates (Angstroms)
 Number     Number       Type             X           Y           Z
 ---------------------------------------------------------------------
      1         11           0       -3.271155   -1.462629   -0.383600
      2         11           0        0.844929   -2.556898    0.733014
      3         11           0        0.060016   -0.227558   -1.699226
      4         11           0        1.922224    1.893336    1.070791
      5         11           0       -1.522557    0.401279    1.815492
      6         11           0        3.241456   -0.697386   -0.669820
      7         11           0       -1.274912    2.649856   -0.866652
 ---------------------------------------------------------------------

 SCF Done:  E(UB3LYP) =  -1136.13101765     A.U. after   20 cycles

 The electronic state is 2-A.
 Alpha  occ. eigenvalues --  -38.44524 -38.44058 -38.43924 -38.43800 -38.43643
 Alpha  occ. eigenvalues --  -38.43581 -38.43416  -2.20294  -2.19866  -2.19776
 Alpha  occ. eigenvalues --   -2.19609  -2.19504  -2.19408  -2.19341  -1.13977
 Alpha  occ. eigenvalues --   -1.13947  -1.13935  -1.13560  -1.13538  -1.13505
 Alpha  occ. eigenvalues --   -1.13451  -1.13441  -1.13397  -1.13281  -1.13264
 Alpha  occ. eigenvalues --   -1.13237  -1.13179  -1.13165  -1.13124  -1.13119
 Alpha  occ. eigenvalues --   -1.13053  -1.13028  -1.13013  -1.12965  -1.12962
 Alpha  occ. eigenvalues --   -0.18035  -0.13186  -0.11881  -0.10843
 Alpha virt. eigenvalues --   -0.06232  -0.05088  -0.04604  -0.03348  -0.03034
 Alpha virt. eigenvalues --   -0.02571  -0.01831  -0.01048  -0.00725  -0.00019
 Alpha virt. eigenvalues --    0.00014   0.00323   0.00483   0.00700   0.00769

  Beta  occ. eigenvalues --  -38.44526 -38.44049 -38.43919 -38.43775 -38.43589
  Beta  occ. eigenvalues --  -38.43561 -38.43346  -2.20301  -2.19851  -2.19770
  Beta  occ. eigenvalues --   -2.19563  -2.19404  -2.19374  -2.19214  -1.13974
  Beta  occ. eigenvalues --   -1.13947  -1.13940  -1.13552  -1.13511  -1.13497
  Beta  occ. eigenvalues --   -1.13443  -1.13425  -1.13394  -1.13243  -1.13228
  Beta  occ. eigenvalues --   -1.13208  -1.13114  -1.13098  -1.13075  -1.13049
  Beta  occ. eigenvalues --   -1.13021  -1.12998  -1.12925  -1.12879  -1.12870
  Beta  occ. eigenvalues --   -0.17337  -0.13004  -0.11664
  Beta virt. eigenvalues --   -0.07030  -0.06157  -0.04960  -0.04307  -0.02892
  Beta virt. eigenvalues --   -0.02390  -0.01827  -0.01557  -0.00961  -0.00513
  Beta virt. eigenvalues --   -0.00019   0.00110   0.00366   0.00576   0.00777

 Mulliken charges and spin densities:
               1          2
     1  Na   0.164474  -0.086541
     2  Na  -0.191487   0.046595
     3  Na  -0.279246   0.364161
     4  Na  -0.314236   0.167658
     5  Na  -0.084158   0.480243
     6  Na   0.521224   0.009485
     7  Na   0.183430   0.018399
 Sum of Mulliken charges =  -0.00000   1.00000

 Dipole moment (field-independent basis, Debye):
    X=             -0.1206    Y=             -0.2915    Z=             -0.0075  Tot=              0.3155
 Quadrupole moment (field-independent basis, Debye-Ang):
   XX=            -54.8388   YY=            -67.3189   ZZ=            -71.5236
   XY=              0.4187   XZ=              1.4793   YZ=             -0.6273

 Normal termination of Gaussian 16 at Tue Dec  5 19:39:23 2023.
