 Gaussian 16, Revision B.01,
 Gaussian 16:  ES64L-G16RevB.01 20-Dec-2017

 -------------------------
 #P B3LYP/6-311+g(d) force
 -------------------------

 -----
 DPGEN
 -----
 Symbolic Z-matrix:
 Charge =  0 Multiplicity = 2

                         Standard orientation:
 ---------------------------------------------------------------------
 Center     Atomic      Atomic             Coordinates (Angstroms)
 Number     Number       Type             X           Y           Z
 ---------------------------------------------------------------------
      1         11           0        1.756233    2.470519   -0.210735
      2         11           0        3.312700   -0.686407   -0.035225
      3         11           0       -3.040821   -0.941352   -0.264704
      4         11           0        0.018515   -0.054087    2.049185
      5         11           0       -2.172447    2.280527    0.051891
      6         11           0       -0.021904   -2.837340    0.049507
      7         11           0        0.147723   -0.231860   -1.639920
 ---------------------------------------------------------------------

 SCF Done:  E(UB3LYP) =  -1136.13666958     A.U. after   19 cycles

 The electronic state is 2-A.
 Alpha  occ. eigenvalues --  -38.44604 -38.44114 -38.43651 -38.43589 -38.43516
 Alpha  occ. eigenvalues --  -38.43307 -38.43124  -2.20396  -2.19947  -2.19467
 Alpha  occ. eigenvalues --   -2.19399  -2.19394  -2.19262  -2.18999  -1.14071
 Alpha  occ. eigenvalues --   -1.14049  -1.14038  -1.13622  -1.13609  -1.13588
 Alpha  occ. eigenvalues --   -1.13157  -1.13135  -1.13096  -1.13074  -1.13068
 Alpha  occ. eigenvalues --   -1.13062  -1.13041  -1.13020  -1.13007  -1.12978
 Alpha  occ. eigenvalues --   -1.12918  -1.12871  -1.12674  -1.12661  -1.12610
 Alpha  occ. eigenvalues --   -0.18410  -0.13134  -0.12187  -0.10579
 Alpha virt. eigenvalues --   -0.06032  -0.05291  -0.04542  -0.03164  -0.02751
 Alpha virt. eigenvalues --   -0.02502  -0.01873  -0.01130  -0.00512  -0.00441
 Alpha virt. eigenvalues --   -0.00027   0.00334   0.00742   0.00842   0.00862

  Beta  occ. eigenvalues --  -38.44602 -38.44108 -38.43647 -38.43588 -38.43417
  Beta  occ. eigenvalues --  -38.43247 -38.43116  -2.20396  -2.19939  -2.19461
  Beta  occ. eigenvalues --   -2.19399  -2.19212  -2.19153  -2.18989  -1.14055
  Beta  occ. eigenvalues --   -1.14051  -1.14038  -1.13613  -1.13589  -1.13586
  Beta  occ. eigenvalues --   -1.13147  -1.13118  -1.13094  -1.13066  -1.13050
  Beta  occ. eigenvalues --   -1.13042  -1.12953  -1.12905  -1.12891  -1.12879
  Beta  occ. eigenvalues --   -1.12841  -1.12790  -1.12661  -1.12622  -1.12604
  Beta  occ. eigenvalues --   -0.17686  -0.12924  -0.11956
  Beta virt. eigenvalues --   -0.06665  -0.05987  -0.05301  -0.04496  -0.02421
  Beta virt. eigenvalues --   -0.01976  -0.01779  -0.01436  -0.01064  -0.00561
  Beta virt. eigenvalues --   -0.00488   0.00122   0.00365   0.00801   0.00847

 Mulliken charges and spin densities:
               1          2
     1  Na  -0.011737  -0.090166
     2  Na   0.178576  -0.074462
     3  Na   0.196552  -0.015397
     4  Na  -0.429525   0.822673
     5  Na  -0.008564  -0.073336
     6  Na   0.236860  -0.079911
     7  Na  -0.162161   0.510599
 Sum of Mulliken charges =  -0.00000   1.00000

 Dipole moment (field-independent basis, Debye):
    X=              0.3151    Y=             -0.0789    Z=              0.0717  Tot=              0.3327
 Quadrupole moment (field-independent basis, Debye-Ang):
   XX=            -53.3633   YY=            -63.9350   ZZ=            -75.4551
   XY=             -0.3310   XZ=              0.4656   YZ=             -0.2973

 Normal termination of Gaussian 16 at Thu Dec  7 06:25:16 2023.
