 Gaussian 16, Revision B.01,
 Gaussian 16:  ES64L-G16RevB.01 20-Dec-2017

 -------------------------
 #P B3LYP/6-311+g(d) force
 -------------------------

 -----
 DPGEN
 -----
 Symbolic Z-matrix:
 Charge =  0 Multiplicity = 2

                         Standard orientation:
 ---------------------------------------------------------------------
 Center     Atomic      Atomic             Coordinates (Angstroms)
 Number     Number       Type             X           Y           Z
 ---------------------------------------------------------------------
      1         11           0        1.302087   -2.583854    0.634210
      2         11           0        0.442773   -0.761396   -1.710395
      3         11           0       -2.387673    1.497058    0.128145
      4         11           0        3.001058    0.677618   -0.417299
      5         11           0        0.214206    2.746267   -0.165753
      6         11           0       -2.768769   -1.673985   -0.413058
      7         11           0        0.196318    0.098292    1.944150
 ---------------------------------------------------------------------

 SCF Done:  E(UB3LYP) =  -1136.13138144     A.U. after   19 cycles

 The electronic state is 2-A.
 Alpha  occ. eigenvalues --  -38.44075 -38.43886 -38.43862 -38.43658 -38.43514
 Alpha  occ. eigenvalues --  -38.43507 -38.43242  -2.19930  -2.19741  -2.19698
 Alpha  occ. eigenvalues --   -2.19599  -2.19463  -2.19424  -2.19154  -1.13631
 Alpha  occ. eigenvalues --   -1.13582  -1.13557  -1.13470  -1.13442  -1.13386
 Alpha  occ. eigenvalues --   -1.13365  -1.13343  -1.13330  -1.13271  -1.13229
 Alpha  occ. eigenvalues --   -1.13219  -1.13202  -1.13125  -1.13100  -1.13073
 Alpha  occ. eigenvalues --   -1.13071  -1.13047  -1.12800  -1.12798  -1.12764
 Alpha  occ. eigenvalues --   -0.18857  -0.13211  -0.12531  -0.11077
 Alpha virt. eigenvalues --   -0.05740  -0.05039  -0.04526  -0.03389  -0.03003
 Alpha virt. eigenvalues --   -0.02662  -0.01542  -0.01033  -0.00326  -0.00020
 Alpha virt. eigenvalues --   -0.00016   0.00346   0.00825   0.00888   0.00923

  Beta  occ. eigenvalues --  -38.44059 -38.43879 -38.43840 -38.43567 -38.43504
  Beta  occ. eigenvalues --  -38.43458 -38.43239  -2.19905  -2.19704  -2.19686
  Beta  occ. eigenvalues --   -2.19434  -2.19422  -2.19359  -2.19151  -1.13602
  Beta  occ. eigenvalues --   -1.13558  -1.13538  -1.13442  -1.13381  -1.13378
  Beta  occ. eigenvalues --   -1.13344  -1.13327  -1.13320  -1.13227  -1.13154
  Beta  occ. eigenvalues --   -1.13114  -1.13103  -1.13058  -1.13052  -1.13033
  Beta  occ. eigenvalues --   -1.13027  -1.12991  -1.12800  -1.12787  -1.12748
  Beta  occ. eigenvalues --   -0.18149  -0.12951  -0.12265
  Beta virt. eigenvalues --   -0.07164  -0.05693  -0.04947  -0.04464  -0.02632
  Beta virt. eigenvalues --   -0.02323  -0.01636  -0.01396  -0.00937  -0.00332
  Beta virt. eigenvalues --   -0.00043   0.00111   0.00398   0.00852   0.00930

 Mulliken charges and spin densities:
               1          2
     1  Na   0.111380  -0.050734
     2  Na  -0.341895   0.513164
     3  Na   0.035808  -0.002377
     4  Na   0.342717   0.068393
     5  Na  -0.029051  -0.004952
     6  Na   0.015364  -0.020667
     7  Na  -0.134322   0.497174
 Sum of Mulliken charges =  -0.00000   1.00000

 Dipole moment (field-independent basis, Debye):
    X=              0.3488    Y=             -0.3573    Z=              0.0232  Tot=              0.4999
 Quadrupole moment (field-independent basis, Debye-Ang):
   XX=            -58.6535   YY=            -63.9704   ZZ=            -72.6951
   XY=              0.8425   XZ=              0.1679   YZ=             -1.2498

 Normal termination of Gaussian 16 at Wed Nov 29 16:27:04 2023.
