 Gaussian 16, Revision B.01,
 Gaussian 16:  ES64L-G16RevB.01 20-Dec-2017

 -------------------------
 #P B3LYP/6-311+g(d) force
 -------------------------

 -----
 DPGEN
 -----
 Symbolic Z-matrix:
 Charge =  0 Multiplicity = 2

                         Standard orientation:
 ---------------------------------------------------------------------
 Center     Atomic      Atomic             Coordinates (Angstroms)
 Number     Number       Type             X           Y           Z
 ---------------------------------------------------------------------
      1         11           0       -0.107004   -0.259934   -1.671418
      2         11           0        2.606509    1.143962    0.466113
      3         11           0       -0.115033    2.809534   -0.621577
      4         11           0        2.203244   -1.823536   -0.137205
      5         11           0       -2.913420    0.860649    0.413686
      6         11           0       -1.511324   -2.516948   -0.218733
      7         11           0       -0.162971   -0.213726    1.769135
 ---------------------------------------------------------------------

 SCF Done:  E(UB3LYP) =  -1136.13535359     A.U. after   19 cycles

 The electronic state is 2-A.
 Alpha  occ. eigenvalues --  -38.43917 -38.43580 -38.43568 -38.43468 -38.43316
 Alpha  occ. eigenvalues --  -38.43203 -38.43144  -2.19766  -2.19497  -2.19457
 Alpha  occ. eigenvalues --   -2.19379  -2.19311  -2.19186  -2.19073  -1.13467
 Alpha  occ. eigenvalues --   -1.13419  -1.13393  -1.13258  -1.13219  -1.13176
 Alpha  occ. eigenvalues --   -1.13148  -1.13128  -1.13064  -1.13058  -1.13020
 Alpha  occ. eigenvalues --   -1.12988  -1.12982  -1.12927  -1.12918  -1.12860
 Alpha  occ. eigenvalues --   -1.12831  -1.12794  -1.12724  -1.12716  -1.12698
 Alpha  occ. eigenvalues --   -0.19264  -0.13179  -0.12626  -0.10989
 Alpha virt. eigenvalues --   -0.05405  -0.04997  -0.04520  -0.03287  -0.02994
 Alpha virt. eigenvalues --   -0.02485  -0.01382  -0.01096  -0.00161  -0.00001
 Alpha virt. eigenvalues --    0.00118   0.00366   0.00879   0.00903   0.00963

  Beta  occ. eigenvalues --  -38.43907 -38.43573 -38.43559 -38.43459 -38.43239
  Beta  occ. eigenvalues --  -38.43188 -38.43067  -2.19750  -2.19489  -2.19447
  Beta  occ. eigenvalues --   -2.19365  -2.19170  -2.19050  -2.19045  -1.13444
  Beta  occ. eigenvalues --   -1.13400  -1.13383  -1.13254  -1.13198  -1.13147
  Beta  occ. eigenvalues --   -1.13129  -1.13103  -1.13050  -1.13043  -1.12990
  Beta  occ. eigenvalues --   -1.12979  -1.12897  -1.12832  -1.12818  -1.12787
  Beta  occ. eigenvalues --   -1.12744  -1.12705  -1.12696  -1.12681  -1.12656
  Beta  occ. eigenvalues --   -0.18547  -0.12885  -0.12336
  Beta virt. eigenvalues --   -0.07066  -0.05375  -0.04967  -0.04487  -0.02478
  Beta virt. eigenvalues --   -0.02229  -0.01435  -0.01287  -0.01033  -0.00100
  Beta virt. eigenvalues --   -0.00046   0.00167   0.00393   0.00889   0.00925

 Mulliken charges and spin densities:
               1          2
     1  Na  -0.173186   0.524970
     2  Na   0.073913   0.067915
     3  Na   0.050375   0.020497
     4  Na   0.192277  -0.039777
     5  Na   0.012993  -0.013412
     6  Na   0.054562  -0.101156
     7  Na  -0.210933   0.540962
 Sum of Mulliken charges =  -0.00000   1.00000

 Dipole moment (field-independent basis, Debye):
    X=             -0.2762    Y=             -0.1386    Z=              0.1228  Tot=              0.3325
 Quadrupole moment (field-independent basis, Debye-Ang):
   XX=            -58.0098   YY=            -62.1453   ZZ=            -73.4260
   XY=             -0.0546   XZ=             -0.0120   YZ=              0.0738

 Normal termination of Gaussian 16 at Sun Dec  3 12:10:32 2023.
