 Gaussian 16, Revision B.01,
 Gaussian 16:  ES64L-G16RevB.01 20-Dec-2017

 -------------------------
 #P B3LYP/6-311+g(d) force
 -------------------------

 -----
 DPGEN
 -----
 Symbolic Z-matrix:
 Charge =  0 Multiplicity = 2

                         Standard orientation:
 ---------------------------------------------------------------------
 Center     Atomic      Atomic             Coordinates (Angstroms)
 Number     Number       Type             X           Y           Z
 ---------------------------------------------------------------------
      1         11           0        1.964333   -2.335030    0.013748
      2         11           0       -3.166937    1.365622    0.229519
      3         11           0        0.452966    3.056765   -0.547310
      4         11           0        2.915868    0.924011    0.315363
      5         11           0       -0.295762   -0.107747    1.987945
      6         11           0       -1.842445   -2.601091   -0.308724
      7         11           0       -0.028022   -0.302530   -1.690541
 ---------------------------------------------------------------------

 SCF Done:  E(UB3LYP) =  -1136.13517323     A.U. after   19 cycles

 The electronic state is 2-A.
 Alpha  occ. eigenvalues --  -38.44362 -38.44092 -38.43731 -38.43712 -38.43655
 Alpha  occ. eigenvalues --  -38.43546 -38.43339  -2.20115  -2.19905  -2.19576
 Alpha  occ. eigenvalues --   -2.19571  -2.19464  -2.19389  -2.19273  -1.13794
 Alpha  occ. eigenvalues --   -1.13764  -1.13761  -1.13605  -1.13565  -1.13526
 Alpha  occ. eigenvalues --   -1.13276  -1.13253  -1.13236  -1.13212  -1.13205
 Alpha  occ. eigenvalues --   -1.13181  -1.13148  -1.13138  -1.13100  -1.13054
 Alpha  occ. eigenvalues --   -1.13043  -1.13019  -1.12953  -1.12904  -1.12894
 Alpha  occ. eigenvalues --   -0.18183  -0.12708  -0.12462  -0.10616
 Alpha virt. eigenvalues --   -0.05907  -0.05246  -0.04844  -0.03080  -0.02957
 Alpha virt. eigenvalues --   -0.02486  -0.01586  -0.01406  -0.00573  -0.00486
 Alpha virt. eigenvalues --   -0.00023   0.00342   0.00754   0.00800   0.00878

  Beta  occ. eigenvalues --  -38.44360 -38.44082 -38.43726 -38.43643 -38.43627
  Beta  occ. eigenvalues --  -38.43541 -38.43274  -2.20113  -2.19892  -2.19570
  Beta  occ. eigenvalues --   -2.19442  -2.19416  -2.19383  -2.19154  -1.13779
  Beta  occ. eigenvalues --   -1.13764  -1.13762  -1.13585  -1.13547  -1.13516
  Beta  occ. eigenvalues --   -1.13270  -1.13222  -1.13200  -1.13145  -1.13133
  Beta  occ. eigenvalues --   -1.13112  -1.13102  -1.13084  -1.13067  -1.13042
  Beta  occ. eigenvalues --   -1.13037  -1.13005  -1.12871  -1.12824  -1.12802
  Beta  occ. eigenvalues --   -0.17479  -0.12459  -0.12221
  Beta virt. eigenvalues --   -0.06818  -0.05861  -0.05130  -0.04796  -0.02353
  Beta virt. eigenvalues --   -0.02256  -0.01570  -0.01401  -0.01311  -0.00592
  Beta virt. eigenvalues --   -0.00529   0.00112   0.00376   0.00762   0.00843

 Mulliken charges and spin densities:
               1          2
     1  Na   0.169383  -0.036534
     2  Na  -0.076282  -0.085561
     3  Na   0.021523   0.015635
     4  Na   0.036077   0.034467
     5  Na  -0.272166   0.704300
     6  Na   0.116502  -0.123228
     7  Na   0.004963   0.490920
 Sum of Mulliken charges =  -0.00000   1.00000

 Dipole moment (field-independent basis, Debye):
    X=             -0.3931    Y=             -0.2226    Z=              0.0991  Tot=              0.4625
 Quadrupole moment (field-independent basis, Debye-Ang):
   XX=            -57.8373   YY=            -60.2166   ZZ=            -75.0776
   XY=             -0.3380   XZ=              0.8333   YZ=             -0.5654

 Normal termination of Gaussian 16 at Thu Dec  7 12:31:06 2023.
