 Gaussian 16, Revision B.01,
 Gaussian 16:  ES64L-G16RevB.01 20-Dec-2017

 -------------------------
 #P B3LYP/6-311+g(d) force
 -------------------------

 -----
 DPGEN
 -----
 Symbolic Z-matrix:
 Charge =  0 Multiplicity = 2

                         Standard orientation:
 ---------------------------------------------------------------------
 Center     Atomic      Atomic             Coordinates (Angstroms)
 Number     Number       Type             X           Y           Z
 ---------------------------------------------------------------------
      1         11           0       -1.214617    2.533730   -0.783045
      2         11           0        3.687122   -0.792585    1.474499
      3         11           0       -3.380766    0.342828    1.278015
      4         11           0       -2.579849   -2.113951   -0.848792
      5         11           0        2.179354    1.745761   -0.670279
      6         11           0        1.501029   -1.434661   -1.702394
      7         11           0       -0.192273   -0.281122    1.251996
 ---------------------------------------------------------------------

 SCF Done:  E(UB3LYP) =  -1136.12487394     A.U. after   24 cycles

 The electronic state is 2-A.
 Alpha  occ. eigenvalues --  -38.44500 -38.44406 -38.44365 -38.44250 -38.44131
 Alpha  occ. eigenvalues --  -38.43752 -38.42819  -2.20379  -2.20259  -2.20168
 Alpha  occ. eigenvalues --   -2.20067  -2.19922  -2.19604  -2.18623  -1.14097
 Alpha  occ. eigenvalues --   -1.14053  -1.14022  -1.13930  -1.13893  -1.13871
 Alpha  occ. eigenvalues --   -1.13825  -1.13821  -1.13773  -1.13744  -1.13724
 Alpha  occ. eigenvalues --   -1.13679  -1.13596  -1.13575  -1.13561  -1.13293
 Alpha  occ. eigenvalues --   -1.13277  -1.13212  -1.12300  -1.12292  -1.12265
 Alpha  occ. eigenvalues --   -0.17757  -0.14115  -0.11273  -0.10846
 Alpha virt. eigenvalues --   -0.06319  -0.05602  -0.05239  -0.03215  -0.02625
 Alpha virt. eigenvalues --   -0.02514  -0.02117  -0.01085  -0.00958  -0.00362
 Alpha virt. eigenvalues --   -0.00011   0.00141   0.00240   0.00276   0.00650

  Beta  occ. eigenvalues --  -38.44483 -38.44384 -38.44298 -38.44197 -38.44120
  Beta  occ. eigenvalues --  -38.43738 -38.42825  -2.20349  -2.20217  -2.20041
  Beta  occ. eigenvalues --   -2.19971  -2.19904  -2.19580  -2.18635  -1.14054
  Beta  occ. eigenvalues --   -1.14027  -1.14007  -1.13899  -1.13869  -1.13848
  Beta  occ. eigenvalues --   -1.13738  -1.13729  -1.13695  -1.13678  -1.13652
  Beta  occ. eigenvalues --   -1.13606  -1.13585  -1.13562  -1.13537  -1.13266
  Beta  occ. eigenvalues --   -1.13258  -1.13193  -1.12307  -1.12302  -1.12263
  Beta  occ. eigenvalues --   -0.17220  -0.13795  -0.11003
  Beta virt. eigenvalues --   -0.07321  -0.06089  -0.05298  -0.04733  -0.03038
  Beta virt. eigenvalues --   -0.02317  -0.02100  -0.01471  -0.00933  -0.00588
  Beta virt. eigenvalues --   -0.00232   0.00153   0.00241   0.00342   0.00403

 Mulliken charges and spin densities:
               1          2
     1  Na  -0.144725  -0.022537
     2  Na   0.460724   0.374318
     3  Na   1.628951  -0.110564
     4  Na  -0.013061   0.106650
     5  Na   0.274791   0.153894
     6  Na  -0.083768   0.317674
     7  Na  -2.122912   0.180566
 Sum of Mulliken charges =  -0.00000   1.00000

 Dipole moment (field-independent basis, Debye):
    X=             -0.2508    Y=             -0.2574    Z=             -0.0743  Tot=              0.3670
 Quadrupole moment (field-independent basis, Debye-Ang):
   XX=            -51.9211   YY=            -75.4797   ZZ=            -68.5826
   XY=             -0.2393   XZ=             -0.9447   YZ=              0.9654

 Normal termination of Gaussian 16 at Tue Dec  5 10:45:13 2023.
