 Gaussian 16, Revision B.01,
 Gaussian 16:  ES64L-G16RevB.01 20-Dec-2017

 -------------------------
 #P B3LYP/6-311+g(d) force
 -------------------------

 -----
 DPGEN
 -----
 Symbolic Z-matrix:
 Charge =  0 Multiplicity = 2

                         Standard orientation:
 ---------------------------------------------------------------------
 Center     Atomic      Atomic             Coordinates (Angstroms)
 Number     Number       Type             X           Y           Z
 ---------------------------------------------------------------------
      1         11           0        0.132616    0.219500   -1.807561
      2         11           0        2.239511    1.865505    0.088522
      3         11           0       -0.928637   -2.456670    0.581601
      4         11           0        2.807288   -1.523292   -0.650630
      5         11           0        0.569276   -0.017903    2.038611
      6         11           0       -3.315482   -0.373440   -0.480739
      7         11           0       -1.504572    2.286300    0.230196
 ---------------------------------------------------------------------

 SCF Done:  E(UB3LYP) =  -1136.13449422     A.U. after   20 cycles

 The electronic state is 2-A.
 Alpha  occ. eigenvalues --  -38.44170 -38.44104 -38.43828 -38.43793 -38.43631
 Alpha  occ. eigenvalues --  -38.43153 -38.42993  -2.20003  -2.19928  -2.19766
 Alpha  occ. eigenvalues --   -2.19728  -2.19521  -2.19020  -2.18850  -1.13673
 Alpha  occ. eigenvalues --   -1.13659  -1.13655  -1.13616  -1.13582  -1.13559
 Alpha  occ. eigenvalues --   -1.13460  -1.13411  -1.13408  -1.13392  -1.13387
 Alpha  occ. eigenvalues --   -1.13333  -1.13191  -1.13180  -1.13126  -1.12703
 Alpha  occ. eigenvalues --   -1.12693  -1.12643  -1.12551  -1.12507  -1.12470
 Alpha  occ. eigenvalues --   -0.18754  -0.13406  -0.11902  -0.11330
 Alpha virt. eigenvalues --   -0.05843  -0.05233  -0.04017  -0.03436  -0.02976
 Alpha virt. eigenvalues --   -0.02894  -0.01718  -0.01026  -0.00272  -0.00027
 Alpha virt. eigenvalues --    0.00083   0.00343   0.00718   0.00839   0.00901

  Beta  occ. eigenvalues --  -38.44167 -38.44085 -38.43764 -38.43697 -38.43622
  Beta  occ. eigenvalues --  -38.43150 -38.42981  -2.19999  -2.19897  -2.19651
  Beta  occ. eigenvalues --   -2.19554  -2.19509  -2.19016  -2.18830  -1.13670
  Beta  occ. eigenvalues --   -1.13656  -1.13646  -1.13579  -1.13563  -1.13532
  Beta  occ. eigenvalues --   -1.13387  -1.13332  -1.13304  -1.13296  -1.13277
  Beta  occ. eigenvalues --   -1.13211  -1.13163  -1.13147  -1.13110  -1.12702
  Beta  occ. eigenvalues --   -1.12675  -1.12635  -1.12527  -1.12479  -1.12462
  Beta  occ. eigenvalues --   -0.18013  -0.13151  -0.11638
  Beta virt. eigenvalues --   -0.07401  -0.05716  -0.05221  -0.03889  -0.02823
  Beta virt. eigenvalues --   -0.02180  -0.01869  -0.01590  -0.00979  -0.00194
  Beta virt. eigenvalues --    0.00005   0.00102   0.00381   0.00827   0.00874

 Mulliken charges and spin densities:
               1          2
     1  Na  -0.308278   0.540777
     2  Na   0.325256  -0.037704
     3  Na  -0.000949  -0.015492
     4  Na   0.044794   0.022585
     5  Na  -0.125320   0.550688
     6  Na   0.031069  -0.017386
     7  Na   0.033428  -0.043468
 Sum of Mulliken charges =  -0.00000   1.00000

 Dipole moment (field-independent basis, Debye):
    X=              0.1983    Y=              0.0220    Z=             -0.1823  Tot=              0.2702
 Quadrupole moment (field-independent basis, Debye-Ang):
   XX=            -54.3899   YY=            -69.0486   ZZ=            -71.1350
   XY=             -0.3237   XZ=              0.0032   YZ=              1.4197

 Normal termination of Gaussian 16 at Tue Dec  5 21:46:12 2023.
