 Gaussian 16, Revision B.01,
 Gaussian 16:  ES64L-G16RevB.01 20-Dec-2017

 -------------------------
 #P B3LYP/6-311+g(d) force
 -------------------------

 -----
 DPGEN
 -----
 Symbolic Z-matrix:
 Charge =  0 Multiplicity = 2

                         Standard orientation:
 ---------------------------------------------------------------------
 Center     Atomic      Atomic             Coordinates (Angstroms)
 Number     Number       Type             X           Y           Z
 ---------------------------------------------------------------------
      1         11           0       -2.525319    1.907852   -0.344141
      2         11           0        2.695871   -2.661685   -0.344991
      3         11           0        0.955655    3.240980   -1.012077
      4         11           0        0.058542    0.366927    1.389555
      5         11           0       -0.724406   -2.190340   -1.354907
      6         11           0        3.410148    0.648169    0.881207
      7         11           0       -3.870491   -1.311902    0.785356
 ---------------------------------------------------------------------

 SCF Done:  E(UB3LYP) =  -1136.12126226     A.U. after   21 cycles

 The electronic state is 2-A.
 Alpha  occ. eigenvalues --  -38.45018 -38.44612 -38.44293 -38.44140 -38.43997
 Alpha  occ. eigenvalues --  -38.43944 -38.43794  -2.20830  -2.20405  -2.20074
 Alpha  occ. eigenvalues --   -2.19909  -2.19784  -2.19712  -2.19613  -1.14536
 Alpha  occ. eigenvalues --   -1.14483  -1.14460  -1.14102  -1.14085  -1.14008
 Alpha  occ. eigenvalues --   -1.13740  -1.13729  -1.13691  -1.13593  -1.13566
 Alpha  occ. eigenvalues --   -1.13557  -1.13461  -1.13453  -1.13389  -1.13382
 Alpha  occ. eigenvalues --   -1.13356  -1.13348  -1.13283  -1.13257  -1.13232
 Alpha  occ. eigenvalues --   -0.16900  -0.13447  -0.12465  -0.10001
 Alpha virt. eigenvalues --   -0.06440  -0.06196  -0.04685  -0.03370  -0.02991
 Alpha virt. eigenvalues --   -0.02453  -0.01807  -0.01435  -0.01233  -0.00562
 Alpha virt. eigenvalues --   -0.00249   0.00091   0.00205   0.00452   0.00647

  Beta  occ. eigenvalues --  -38.45007 -38.44599 -38.44255 -38.44137 -38.43949
  Beta  occ. eigenvalues --  -38.43918 -38.43747  -2.20809  -2.20385  -2.20001
  Beta  occ. eigenvalues --   -2.19907  -2.19697  -2.19667  -2.19526  -1.14512
  Beta  occ. eigenvalues --   -1.14472  -1.14445  -1.14091  -1.14072  -1.13968
  Beta  occ. eigenvalues --   -1.13690  -1.13676  -1.13644  -1.13596  -1.13563
  Beta  occ. eigenvalues --   -1.13532  -1.13404  -1.13395  -1.13358  -1.13321
  Beta  occ. eigenvalues --   -1.13311  -1.13311  -1.13217  -1.13200  -1.13180
  Beta  occ. eigenvalues --   -0.16508  -0.13022  -0.11842
  Beta virt. eigenvalues --   -0.06838  -0.06249  -0.06155  -0.04227  -0.02965
  Beta virt. eigenvalues --   -0.02493  -0.02220  -0.01693  -0.01152  -0.00938
  Beta virt. eigenvalues --   -0.00447  -0.00018   0.00216   0.00372   0.00522

 Mulliken charges and spin densities:
               1          2
     1  Na   0.012335   0.144455
     2  Na  -0.195865   0.003475
     3  Na  -0.202099   0.137124
     4  Na  -0.306820   0.035650
     5  Na  -0.229986   0.259037
     6  Na   0.517366   0.237684
     7  Na   0.405068   0.182576
 Sum of Mulliken charges =  -0.00000   1.00000

 Dipole moment (field-independent basis, Debye):
    X=             -0.2738    Y=              0.1788    Z=             -0.1520  Tot=              0.3606
 Quadrupole moment (field-independent basis, Debye-Ang):
   XX=            -55.9026   YY=            -69.2661   ZZ=            -72.2883
   XY=              0.7278   XZ=             -1.3110   YZ=             -2.7112

 Normal termination of Gaussian 16 at Sun Dec  3 11:56:31 2023.
