 Gaussian 16, Revision B.01,
 Gaussian 16:  ES64L-G16RevB.01 20-Dec-2017

 -------------------------
 #P B3LYP/6-311+g(d) force
 -------------------------

 -----
 DPGEN
 -----
 Symbolic Z-matrix:
 Charge =  0 Multiplicity = 2

                         Standard orientation:
 ---------------------------------------------------------------------
 Center     Atomic      Atomic             Coordinates (Angstroms)
 Number     Number       Type             X           Y           Z
 ---------------------------------------------------------------------
      1         11           0        0.329749   -0.361088    1.919225
      2         11           0       -1.814568    2.373424    0.445470
      3         11           0       -2.847602   -0.815713   -0.071390
      4         11           0        1.570932    2.427720   -0.452930
      5         11           0        2.931723   -0.557787    0.113936
      6         11           0       -0.202058   -0.094332   -1.761020
      7         11           0        0.031823   -2.972224   -0.193291
 ---------------------------------------------------------------------

 SCF Done:  E(UB3LYP) =  -1136.13975147     A.U. after   18 cycles

 The electronic state is 2-A.
 Alpha  occ. eigenvalues --  -38.43689 -38.43684 -38.43549 -38.43517 -38.43473
 Alpha  occ. eigenvalues --  -38.43400 -38.43279  -2.19556  -2.19554  -2.19449
 Alpha  occ. eigenvalues --   -2.19412  -2.19312  -2.19264  -2.19256  -1.13289
 Alpha  occ. eigenvalues --   -1.13266  -1.13220  -1.13216  -1.13193  -1.13189
 Alpha  occ. eigenvalues --   -1.13128  -1.13108  -1.13092  -1.13061  -1.13041
 Alpha  occ. eigenvalues --   -1.13026  -1.12990  -1.12977  -1.12962  -1.12961
 Alpha  occ. eigenvalues --   -1.12920  -1.12908  -1.12890  -1.12874  -1.12858
 Alpha  occ. eigenvalues --   -0.18868  -0.12955  -0.12670  -0.10910
 Alpha virt. eigenvalues --   -0.05347  -0.04946  -0.04895  -0.03225  -0.03089
 Alpha virt. eigenvalues --   -0.02580  -0.01249  -0.01160  -0.00249  -0.00191
 Alpha virt. eigenvalues --    0.00019   0.00377   0.00893   0.00896   0.00934

  Beta  occ. eigenvalues --  -38.43685 -38.43678 -38.43542 -38.43465 -38.43435
  Beta  occ. eigenvalues --  -38.43390 -38.43204  -2.19550  -2.19548  -2.19403
  Beta  occ. eigenvalues --   -2.19301  -2.19296  -2.19249  -2.19120  -1.13267
  Beta  occ. eigenvalues --   -1.13257  -1.13199  -1.13192  -1.13189  -1.13184
  Beta  occ. eigenvalues --   -1.13103  -1.13067  -1.13026  -1.13007  -1.12979
  Beta  occ. eigenvalues --   -1.12962  -1.12956  -1.12953  -1.12939  -1.12933
  Beta  occ. eigenvalues --   -1.12892  -1.12881  -1.12830  -1.12783  -1.12767
  Beta  occ. eigenvalues --   -0.18138  -0.12689  -0.12416
  Beta virt. eigenvalues --   -0.07017  -0.05352  -0.04895  -0.04824  -0.02422
  Beta virt. eigenvalues --   -0.02315  -0.01545  -0.01172  -0.01086  -0.00264
  Beta virt. eigenvalues --   -0.00238   0.00130   0.00399   0.00883   0.00914

 Mulliken charges and spin densities:
               1          2
     1  Na  -0.350759   0.718459
     2  Na  -0.057103   0.018711
     3  Na   0.117307  -0.065158
     4  Na   0.057880  -0.002426
     5  Na   0.224549  -0.077039
     6  Na  -0.129572   0.552318
     7  Na   0.137697  -0.144864
 Sum of Mulliken charges =  -0.00000   1.00000

 Dipole moment (field-independent basis, Debye):
    X=             -0.0054    Y=             -0.1898    Z=              0.0828  Tot=              0.2072
 Quadrupole moment (field-independent basis, Debye-Ang):
   XX=            -59.7413   YY=            -60.9842   ZZ=            -73.3465
   XY=             -0.0695   XZ=             -1.1968   YZ=              0.6337

 Normal termination of Gaussian 16 at Thu Dec  7 22:30:08 2023.
