 Gaussian 16, Revision B.01,
 Gaussian 16:  ES64L-G16RevB.01 20-Dec-2017

 -------------------------
 #P B3LYP/6-311+g(d) force
 -------------------------

 -----
 DPGEN
 -----
 Symbolic Z-matrix:
 Charge =  0 Multiplicity = 2

                         Standard orientation:
 ---------------------------------------------------------------------
 Center     Atomic      Atomic             Coordinates (Angstroms)
 Number     Number       Type             X           Y           Z
 ---------------------------------------------------------------------
      1         11           0        3.554778   -1.112911   -0.082839
      2         11           0       -1.624134    2.489485    0.465047
      3         11           0       -0.330941   -2.923886    0.039829
      4         11           0       -3.392000   -0.902034   -0.168177
      5         11           0        0.485270   -0.118968    1.653315
      6         11           0        1.553100    2.591080   -0.433037
      7         11           0       -0.246072   -0.022765   -1.474139
 ---------------------------------------------------------------------

 SCF Done:  E(UB3LYP) =  -1136.13039474     A.U. after   21 cycles

 The electronic state is 2-A.
 Alpha  occ. eigenvalues --  -38.44850 -38.44426 -38.43968 -38.43679 -38.43454
 Alpha  occ. eigenvalues --  -38.43009 -38.42908  -2.20588  -2.20209  -2.19805
 Alpha  occ. eigenvalues --   -2.19532  -2.19311  -2.18991  -2.18853  -1.14269
 Alpha  occ. eigenvalues --   -1.14246  -1.14222  -1.13884  -1.13864  -1.13849
 Alpha  occ. eigenvalues --   -1.13512  -1.13488  -1.13403  -1.13224  -1.13195
 Alpha  occ. eigenvalues --   -1.13169  -1.12983  -1.12971  -1.12943  -1.12738
 Alpha  occ. eigenvalues --   -1.12625  -1.12595  -1.12541  -1.12482  -1.12445
 Alpha  occ. eigenvalues --   -0.18342  -0.12819  -0.12543  -0.09881
 Alpha virt. eigenvalues --   -0.06390  -0.05224  -0.04916  -0.02809  -0.02722
 Alpha virt. eigenvalues --   -0.02159  -0.01773  -0.01419  -0.00701  -0.00512
 Alpha virt. eigenvalues --   -0.00012   0.00258   0.00707   0.00760   0.00806

  Beta  occ. eigenvalues --  -38.44852 -38.44424 -38.43960 -38.43664 -38.43440
  Beta  occ. eigenvalues --  -38.42952 -38.42833  -2.20595  -2.20206  -2.19795
  Beta  occ. eigenvalues --   -2.19509  -2.19288  -2.18888  -2.18717  -1.14267
  Beta  occ. eigenvalues --   -1.14246  -1.14228  -1.13875  -1.13855  -1.13850
  Beta  occ. eigenvalues --   -1.13507  -1.13455  -1.13397  -1.13208  -1.13159
  Beta  occ. eigenvalues --   -1.13153  -1.12969  -1.12932  -1.12927  -1.12655
  Beta  occ. eigenvalues --   -1.12553  -1.12515  -1.12448  -1.12386  -1.12342
  Beta  occ. eigenvalues --   -0.17655  -0.12559  -0.12343
  Beta virt. eigenvalues --   -0.06372  -0.06082  -0.05147  -0.04868  -0.02164
  Beta virt. eigenvalues --   -0.02078  -0.01996  -0.01348  -0.00862  -0.00695
  Beta virt. eigenvalues --   -0.00509   0.00133   0.00306   0.00730   0.00791

 Mulliken charges and spin densities:
               1          2
     1  Na  -0.072256  -0.103876
     2  Na   0.079752   0.068099
     3  Na   0.027422  -0.160974
     4  Na   0.093832  -0.026120
     5  Na  -0.031974   0.601252
     6  Na   0.032999   0.040633
     7  Na  -0.129776   0.580985
 Sum of Mulliken charges =   0.00000   1.00000

 Dipole moment (field-independent basis, Debye):
    X=              0.1366    Y=             -0.3277    Z=              0.0319  Tot=              0.3565
 Quadrupole moment (field-independent basis, Debye-Ang):
   XX=            -50.3224   YY=            -60.2933   ZZ=            -78.7136
   XY=             -0.3681   XZ=             -1.6665   YZ=              0.3277

 Normal termination of Gaussian 16 at Thu Dec  7 20:51:23 2023.
