 Gaussian 16, Revision B.01,
 Gaussian 16:  ES64L-G16RevB.01 20-Dec-2017

 -------------------------
 #P B3LYP/6-311+g(d) force
 -------------------------

 -----
 DPGEN
 -----
 Symbolic Z-matrix:
 Charge =  0 Multiplicity = 2

                         Standard orientation:
 ---------------------------------------------------------------------
 Center     Atomic      Atomic             Coordinates (Angstroms)
 Number     Number       Type             X           Y           Z
 ---------------------------------------------------------------------
      1         11           0        0.254512    0.142294    2.014390
      2         11           0        1.623970   -2.289685    0.015603
      3         11           0       -1.868254   -2.082579    0.125306
      4         11           0        0.134047    2.937830    0.259409
      5         11           0        3.000794    0.446292   -0.454074
      6         11           0       -3.072666    0.626752   -0.293951
      7         11           0       -0.072403    0.219097   -1.666682
 ---------------------------------------------------------------------

 SCF Done:  E(UB3LYP) =  -1136.13562222     A.U. after   20 cycles

 The electronic state is 2-A.
 Alpha  occ. eigenvalues --  -38.44150 -38.44122 -38.43573 -38.43318 -38.43293
 Alpha  occ. eigenvalues --  -38.43176 -38.43141  -2.20018  -2.20001  -2.19498
 Alpha  occ. eigenvalues --   -2.19311  -2.19200  -2.19048  -2.19022  -1.13736
 Alpha  occ. eigenvalues --   -1.13697  -1.13682  -1.13666  -1.13636  -1.13623
 Alpha  occ. eigenvalues --   -1.13168  -1.13132  -1.13121  -1.12999  -1.12959
 Alpha  occ. eigenvalues --   -1.12947  -1.12869  -1.12851  -1.12841  -1.12721
 Alpha  occ. eigenvalues --   -1.12703  -1.12700  -1.12688  -1.12685  -1.12645
 Alpha  occ. eigenvalues --   -0.19035  -0.13393  -0.12326  -0.11030
 Alpha virt. eigenvalues --   -0.05772  -0.04750  -0.04564  -0.03357  -0.02918
 Alpha virt. eigenvalues --   -0.02676  -0.01616  -0.00935  -0.00258  -0.00035
 Alpha virt. eigenvalues --   -0.00001   0.00364   0.00854   0.00897   0.00963

  Beta  occ. eigenvalues --  -38.44144 -38.44108 -38.43477 -38.43288 -38.43256
  Beta  occ. eigenvalues --  -38.43169 -38.43135  -2.20010  -2.19978  -2.19322
  Beta  occ. eigenvalues --   -2.19198  -2.19194  -2.19042  -2.19013  -1.13733
  Beta  occ. eigenvalues --   -1.13683  -1.13663  -1.13636  -1.13628  -1.13602
  Beta  occ. eigenvalues --   -1.13056  -1.13004  -1.12998  -1.12927  -1.12893
  Beta  occ. eigenvalues --   -1.12871  -1.12857  -1.12835  -1.12808  -1.12719
  Beta  occ. eigenvalues --   -1.12692  -1.12686  -1.12660  -1.12656  -1.12643
  Beta  occ. eigenvalues --   -0.18300  -0.13122  -0.12062
  Beta virt. eigenvalues --   -0.07098  -0.05719  -0.04743  -0.04528  -0.02585
  Beta virt. eigenvalues --   -0.02123  -0.01624  -0.01485  -0.00868  -0.00272
  Beta virt. eigenvalues --   -0.00081   0.00119   0.00395   0.00895   0.00902

 Mulliken charges and spin densities:
               1          2
     1  Na  -0.493445   0.674180
     2  Na   0.145814   0.023123
     3  Na   0.095153   0.010650
     4  Na   0.054196  -0.086579
     5  Na   0.344016   0.015057
     6  Na   0.249917  -0.033448
     7  Na  -0.395650   0.397018
 Sum of Mulliken charges =  -0.00000   1.00000

 Dipole moment (field-independent basis, Debye):
    X=              0.0118    Y=              0.2557    Z=              0.0683  Tot=              0.2650
 Quadrupole moment (field-independent basis, Debye-Ang):
   XX=            -56.5788   YY=            -64.8711   ZZ=            -73.0068
   XY=             -0.3413   XZ=             -0.6425   YZ=             -0.2556

 Normal termination of Gaussian 16 at Thu Dec  7 23:52:14 2023.
