 Gaussian 16, Revision B.01,
 Gaussian 16:  ES64L-G16RevB.01 20-Dec-2017

 -------------------------
 #P B3LYP/6-311+g(d) force
 -------------------------

 -----
 DPGEN
 -----
 Symbolic Z-matrix:
 Charge =  0 Multiplicity = 2

                         Standard orientation:
 ---------------------------------------------------------------------
 Center     Atomic      Atomic             Coordinates (Angstroms)
 Number     Number       Type             X           Y           Z
 ---------------------------------------------------------------------
      1         11           0        1.236417   -0.367372   -1.648970
      2         11           0        3.989219   -0.190183   -0.257601
      3         11           0        0.677197   -1.751789    1.424219
      4         11           0       -1.867386    1.720937   -1.379131
      5         11           0       -2.556981    0.146045    1.670594
      6         11           0        1.040185    1.995162    1.202375
      7         11           0       -2.518651   -1.552800   -1.011486
 ---------------------------------------------------------------------

 SCF Done:  E(UB3LYP) =  -1136.12169653     A.U. after   31 cycles

 The electronic state is 2-A.
 Alpha  occ. eigenvalues --  -38.45471 -38.44696 -38.44241 -38.44066 -38.43889
 Alpha  occ. eigenvalues --  -38.43307 -38.42728  -2.21272  -2.20541  -2.20133
 Alpha  occ. eigenvalues --   -2.19923  -2.19697  -2.19123  -2.18572  -1.14980
 Alpha  occ. eigenvalues --   -1.14907  -1.14898  -1.14231  -1.14198  -1.14157
 Alpha  occ. eigenvalues --   -1.13822  -1.13785  -1.13748  -1.13598  -1.13584
 Alpha  occ. eigenvalues --   -1.13536  -1.13380  -1.13340  -1.13312  -1.12830
 Alpha  occ. eigenvalues --   -1.12803  -1.12718  -1.12254  -1.12237  -1.12206
 Alpha  occ. eigenvalues --   -0.18177  -0.14000  -0.11597  -0.10584
 Alpha virt. eigenvalues --   -0.06856  -0.05273  -0.04551  -0.03193  -0.02823
 Alpha virt. eigenvalues --   -0.02525  -0.02457  -0.01063  -0.00525  -0.00332
 Alpha virt. eigenvalues --    0.00102   0.00219   0.00273   0.00635   0.00750

  Beta  occ. eigenvalues --  -38.45467 -38.44668 -38.44200 -38.44039 -38.43834
  Beta  occ. eigenvalues --  -38.43288 -38.42718  -2.21265  -2.20490  -2.20058
  Beta  occ. eigenvalues --   -2.19873  -2.19595  -2.19090  -2.18556  -1.14967
  Beta  occ. eigenvalues --   -1.14903  -1.14894  -1.14194  -1.14152  -1.14124
  Beta  occ. eigenvalues --   -1.13771  -1.13725  -1.13697  -1.13568  -1.13542
  Beta  occ. eigenvalues --   -1.13495  -1.13308  -1.13262  -1.13243  -1.12812
  Beta  occ. eigenvalues --   -1.12756  -1.12698  -1.12240  -1.12225  -1.12184
  Beta  occ. eigenvalues --   -0.17436  -0.13819  -0.10403
  Beta virt. eigenvalues --   -0.07740  -0.06662  -0.04654  -0.04370  -0.02855
  Beta virt. eigenvalues --   -0.02433  -0.02261  -0.01784  -0.00563  -0.00480
  Beta virt. eigenvalues --   -0.00221   0.00198   0.00220   0.00324   0.00725

 Mulliken charges and spin densities:
               1          2
     1  Na  -0.293966   0.170179
     2  Na   0.515395   0.012819
     3  Na  -0.293332   0.141284
     4  Na  -0.126704   0.041727
     5  Na   0.144052   0.269158
     6  Na  -0.263490   0.313742
     7  Na   0.318047   0.051091
 Sum of Mulliken charges =  -0.00000   1.00000

 Dipole moment (field-independent basis, Debye):
    X=              1.1438    Y=             -0.0972    Z=              0.1780  Tot=              1.1616
 Quadrupole moment (field-independent basis, Debye-Ang):
   XX=            -47.2700   YY=            -79.2246   ZZ=            -67.2168
   XY=              0.3624   XZ=              0.1606   YZ=              5.3328

 Normal termination of Gaussian 16 at Thu Dec  7 14:22:27 2023.
