 Gaussian 16, Revision B.01,
 Gaussian 16:  ES64L-G16RevB.01 20-Dec-2017

 -------------------------
 #P B3LYP/6-311+g(d) force
 -------------------------

 -----
 DPGEN
 -----
 Symbolic Z-matrix:
 Charge =  0 Multiplicity = 2

                         Standard orientation:
 ---------------------------------------------------------------------
 Center     Atomic      Atomic             Coordinates (Angstroms)
 Number     Number       Type             X           Y           Z
 ---------------------------------------------------------------------
      1         11           0        0.140265    2.001754   -0.275312
      2         11           0        2.387968   -0.230169    2.157681
      3         11           0        3.711807    0.627242   -1.298869
      4         11           0       -0.345098   -1.947916    1.206622
      5         11           0        0.517758   -1.424939   -1.633343
      6         11           0       -3.572849   -1.053626   -0.715067
      7         11           0       -2.839851    2.027654    0.558287
 ---------------------------------------------------------------------

 SCF Done:  E(UB3LYP) =  -1136.11721673     A.U. after   24 cycles

 The electronic state is 2-A.
 Alpha  occ. eigenvalues --  -38.45348 -38.44951 -38.44683 -38.44196 -38.43809
 Alpha  occ. eigenvalues --  -38.43186 -38.43173  -2.21108  -2.20722  -2.20505
 Alpha  occ. eigenvalues --   -2.20050  -2.19631  -2.19046  -2.19021  -1.14796
 Alpha  occ. eigenvalues --   -1.14761  -1.14732  -1.14388  -1.14379  -1.14344
 Alpha  occ. eigenvalues --   -1.14171  -1.14143  -1.14112  -1.13768  -1.13725
 Alpha  occ. eigenvalues --   -1.13632  -1.13324  -1.13322  -1.13264  -1.12753
 Alpha  occ. eigenvalues --   -1.12703  -1.12696  -1.12670  -1.12658  -1.12657
 Alpha  occ. eigenvalues --   -0.17612  -0.13578  -0.11608  -0.11167
 Alpha virt. eigenvalues --   -0.07170  -0.05030  -0.04567  -0.03288  -0.02944
 Alpha virt. eigenvalues --   -0.02590  -0.02544  -0.01284  -0.00987  -0.00058
 Alpha virt. eigenvalues --    0.00058   0.00103   0.00294   0.00523   0.00715

  Beta  occ. eigenvalues --  -38.45343 -38.44916 -38.44601 -38.44156 -38.43800
  Beta  occ. eigenvalues --  -38.43183 -38.43155  -2.21099  -2.20659  -2.20355
  Beta  occ. eigenvalues --   -2.19975  -2.19616  -2.19018  -2.19016  -1.14787
  Beta  occ. eigenvalues --   -1.14756  -1.14727  -1.14342  -1.14327  -1.14305
  Beta  occ. eigenvalues --   -1.14061  -1.14042  -1.14008  -1.13720  -1.13672
  Beta  occ. eigenvalues --   -1.13574  -1.13316  -1.13290  -1.13258  -1.12740
  Beta  occ. eigenvalues --   -1.12690  -1.12680  -1.12667  -1.12655  -1.12608
  Beta  occ. eigenvalues --   -0.17003  -0.13315  -0.11218
  Beta virt. eigenvalues --   -0.07538  -0.06982  -0.04735  -0.04143  -0.03137
  Beta virt. eigenvalues --   -0.02501  -0.02204  -0.01896  -0.01006  -0.00715
  Beta virt. eigenvalues --   -0.00005   0.00067   0.00172   0.00389   0.00713

 Mulliken charges and spin densities:
               1          2
     1  Na  -0.613071   0.439621
     2  Na  -0.062605  -0.000101
     3  Na   0.497155   0.344630
     4  Na   0.287901   0.523619
     5  Na  -0.393134  -0.062245
     6  Na   0.104356   0.042086
     7  Na   0.179397  -0.287609
 Sum of Mulliken charges =  -0.00000   1.00000

 Dipole moment (field-independent basis, Debye):
    X=              0.3080    Y=             -0.5159    Z=             -0.2616  Tot=              0.6554
 Quadrupole moment (field-independent basis, Debye-Ang):
   XX=            -47.8126   YY=            -78.9147   ZZ=            -68.0527
   XY=              4.1573   XZ=              0.7808   YZ=              1.1633

 Normal termination of Gaussian 16 at Mon Dec  4 00:41:14 2023.
