 Gaussian 16, Revision B.01,
 Gaussian 16:  ES64L-G16RevB.01 20-Dec-2017

 -------------------------
 #P B3LYP/6-311+g(d) force
 -------------------------

 -----
 DPGEN
 -----
 Symbolic Z-matrix:
 Charge =  0 Multiplicity = 2

                         Standard orientation:
 ---------------------------------------------------------------------
 Center     Atomic      Atomic             Coordinates (Angstroms)
 Number     Number       Type             X           Y           Z
 ---------------------------------------------------------------------
      1         11           0       -1.137001   -0.507748    1.653470
      2         11           0        2.124980   -0.873690    1.759525
      3         11           0        2.611358    1.565257   -1.152288
      4         11           0       -0.211826    2.636129    0.200312
      5         11           0       -3.356963    0.750072   -0.293783
      6         11           0        2.077371   -1.733962   -1.042237
      7         11           0       -2.107920   -1.836058   -1.124998
 ---------------------------------------------------------------------

 SCF Done:  E(UB3LYP) =  -1136.12100149     A.U. after   22 cycles

 The electronic state is 2-A.
 Alpha  occ. eigenvalues --  -38.44693 -38.44346 -38.44229 -38.44023 -38.43960
 Alpha  occ. eigenvalues --  -38.43888 -38.42804  -2.20580  -2.20244  -2.20100
 Alpha  occ. eigenvalues --   -2.19904  -2.19891  -2.19726  -2.18619  -1.14306
 Alpha  occ. eigenvalues --   -1.14254  -1.14197  -1.13996  -1.13917  -1.13849
 Alpha  occ. eigenvalues --   -1.13776  -1.13751  -1.13718  -1.13570  -1.13553
 Alpha  occ. eigenvalues --   -1.13543  -1.13538  -1.13528  -1.13509  -1.13394
 Alpha  occ. eigenvalues --   -1.13375  -1.13349  -1.12300  -1.12292  -1.12257
 Alpha  occ. eigenvalues --   -0.18164  -0.14342  -0.11642  -0.11308
 Alpha virt. eigenvalues --   -0.05983  -0.05500  -0.04906  -0.03569  -0.02840
 Alpha virt. eigenvalues --   -0.02688  -0.01680  -0.00699  -0.00419  -0.00324
 Alpha virt. eigenvalues --   -0.00120   0.00352   0.00393   0.00604   0.00693

  Beta  occ. eigenvalues --  -38.44685 -38.44299 -38.44199 -38.44005 -38.43898
  Beta  occ. eigenvalues --  -38.43855 -38.42804  -2.20566  -2.20161  -2.20045
  Beta  occ. eigenvalues --   -2.19860  -2.19794  -2.19664  -2.18621  -1.14292
  Beta  occ. eigenvalues --   -1.14236  -1.14185  -1.13948  -1.13835  -1.13790
  Beta  occ. eigenvalues --   -1.13739  -1.13707  -1.13679  -1.13523  -1.13513
  Beta  occ. eigenvalues --   -1.13502  -1.13480  -1.13452  -1.13439  -1.13350
  Beta  occ. eigenvalues --   -1.13334  -1.13307  -1.12303  -1.12281  -1.12258
  Beta  occ. eigenvalues --   -0.17523  -0.14028  -0.11477
  Beta virt. eigenvalues --   -0.07475  -0.05876  -0.05237  -0.04270  -0.03462
  Beta virt. eigenvalues --   -0.02309  -0.01794  -0.01609  -0.00619  -0.00265
  Beta virt. eigenvalues --   -0.00067  -0.00025   0.00415   0.00568   0.00683

 Mulliken charges and spin densities:
               1          2
     1  Na  -0.503912   0.269460
     2  Na   0.324792   0.049729
     3  Na   0.086480   0.033781
     4  Na  -0.482725  -0.001005
     5  Na   0.913500   0.127822
     6  Na  -0.290743   0.443065
     7  Na  -0.047393   0.077147
 Sum of Mulliken charges =  -0.00000   1.00000

 Dipole moment (field-independent basis, Debye):
    X=             -0.5130    Y=             -0.3085    Z=             -0.2947  Tot=              0.6672
 Quadrupole moment (field-independent basis, Debye-Ang):
   XX=            -56.3331   YY=            -73.7632   ZZ=            -68.1776
   XY=             -2.1469   XZ=              1.2738   YZ=              1.2814

 Normal termination of Gaussian 16 at Tue Nov 28 21:28:49 2023.
