 Gaussian 16, Revision B.01,
 Gaussian 16:  ES64L-G16RevB.01 20-Dec-2017

 -------------------------
 #P B3LYP/6-311+g(d) force
 -------------------------

 -----
 DPGEN
 -----
 Symbolic Z-matrix:
 Charge =  0 Multiplicity = 2

                         Standard orientation:
 ---------------------------------------------------------------------
 Center     Atomic      Atomic             Coordinates (Angstroms)
 Number     Number       Type             X           Y           Z
 ---------------------------------------------------------------------
      1         11           0        3.345139   -1.469846    0.035876
      2         11           0        2.051637    2.067652    0.295246
      3         11           0        0.696744   -0.189783   -1.758295
      4         11           0       -1.053923    2.088190   -0.490787
      5         11           0       -1.806737   -1.962385   -0.711135
      6         11           0        0.302702   -0.631823    2.082343
      7         11           0       -3.535561    0.097995    0.546753
 ---------------------------------------------------------------------

 SCF Done:  E(UB3LYP) =  -1136.12361819     A.U. after   22 cycles

 The electronic state is 2-A.
 Alpha  occ. eigenvalues --  -38.44987 -38.44586 -38.44467 -38.43807 -38.43530
 Alpha  occ. eigenvalues --  -38.43497 -38.42471  -2.20838  -2.20408  -2.20248
 Alpha  occ. eigenvalues --   -2.19697  -2.19473  -2.19406  -2.18390  -1.14547
 Alpha  occ. eigenvalues --   -1.14485  -1.14471  -1.14080  -1.14055  -1.14016
 Alpha  occ. eigenvalues --   -1.13929  -1.13909  -1.13888  -1.13397  -1.13351
 Alpha  occ. eigenvalues --   -1.13326  -1.13167  -1.13138  -1.13086  -1.13082
 Alpha  occ. eigenvalues --   -1.13045  -1.13026  -1.12095  -1.12046  -1.12014
 Alpha  occ. eigenvalues --   -0.18658  -0.13821  -0.11444  -0.11196
 Alpha virt. eigenvalues --   -0.06776  -0.05303  -0.04031  -0.03294  -0.02956
 Alpha virt. eigenvalues --   -0.02646  -0.02218  -0.01084  -0.00471  -0.00109
 Alpha virt. eigenvalues --    0.00161   0.00189   0.00405   0.00683   0.00791

  Beta  occ. eigenvalues --  -38.44982 -38.44510 -38.44476 -38.43784 -38.43523
  Beta  occ. eigenvalues --  -38.43416 -38.42462  -2.20828  -2.20270  -2.20264
  Beta  occ. eigenvalues --   -2.19660  -2.19396  -2.19328  -2.18378  -1.14542
  Beta  occ. eigenvalues --   -1.14480  -1.14454  -1.13987  -1.13952  -1.13933
  Beta  occ. eigenvalues --   -1.13922  -1.13920  -1.13891  -1.13355  -1.13327
  Beta  occ. eigenvalues --   -1.13287  -1.13108  -1.13062  -1.13060  -1.13021
  Beta  occ. eigenvalues --   -1.12982  -1.12967  -1.12080  -1.12016  -1.12010
  Beta  occ. eigenvalues --   -0.17890  -0.13686  -0.11225
  Beta virt. eigenvalues --   -0.07269  -0.06555  -0.05269  -0.03549  -0.03059
  Beta virt. eigenvalues --   -0.02278  -0.01995  -0.01707  -0.00970  -0.00324
  Beta virt. eigenvalues --   -0.00048   0.00174   0.00228   0.00590   0.00745

 Mulliken charges and spin densities:
               1          2
     1  Na   0.049604  -0.065670
     2  Na   0.092463   0.102551
     3  Na   0.261658   0.143683
     4  Na  -0.230381   0.134401
     5  Na   0.098396   0.114966
     6  Na  -0.436386   0.504582
     7  Na   0.164647   0.065486
 Sum of Mulliken charges =  -0.00000   1.00000

 Dipole moment (field-independent basis, Debye):
    X=              0.0521    Y=             -0.1993    Z=              0.5604  Tot=              0.5971
 Quadrupole moment (field-independent basis, Debye-Ang):
   XX=            -49.5783   YY=            -73.5013   ZZ=            -71.4497
   XY=             -0.4939   XZ=             -0.9847   YZ=              1.7578

 Normal termination of Gaussian 16 at Thu Dec  7 19:32:03 2023.
