 Gaussian 16, Revision B.01,
 Gaussian 16:  ES64L-G16RevB.01 20-Dec-2017

 -------------------------
 #P B3LYP/6-311+g(d) force
 -------------------------

 -----
 DPGEN
 -----
 Symbolic Z-matrix:
 Charge =  0 Multiplicity = 2

                         Standard orientation:
 ---------------------------------------------------------------------
 Center     Atomic      Atomic             Coordinates (Angstroms)
 Number     Number       Type             X           Y           Z
 ---------------------------------------------------------------------
      1         11           0        0.048323    1.523866   -0.347416
      2         11           0        2.167109    3.832627    0.567445
      3         11           0        3.049309    0.176962   -0.613143
      4         11           0        2.857836   -3.164520    0.037602
      5         11           0        0.040732   -1.793294    0.154638
      6         11           0       -2.917935   -1.212362    0.686005
      7         11           0       -5.245375    0.636721   -0.485131
 ---------------------------------------------------------------------

 SCF Done:  E(UB3LYP) =  -1136.12060482     A.U. after   21 cycles

 The electronic state is 2-A.
 Alpha  occ. eigenvalues --  -38.44773 -38.44670 -38.44385 -38.43822 -38.43819
 Alpha  occ. eigenvalues --  -38.43273 -38.43191  -2.20557  -2.20512  -2.20255
 Alpha  occ. eigenvalues --   -2.19664  -2.19647  -2.19158  -2.19139  -1.14239
 Alpha  occ. eigenvalues --   -1.14236  -1.14222  -1.14203  -1.14185  -1.14087
 Alpha  occ. eigenvalues --   -1.13962  -1.13937  -1.13825  -1.13353  -1.13312
 Alpha  occ. eigenvalues --   -1.13295  -1.13293  -1.13274  -1.13270  -1.12927
 Alpha  occ. eigenvalues --   -1.12839  -1.12818  -1.12789  -1.12781  -1.12698
 Alpha  occ. eigenvalues --   -0.17335  -0.13843  -0.12955  -0.10548
 Alpha virt. eigenvalues --   -0.06616  -0.05341  -0.04195  -0.03886  -0.02789
 Alpha virt. eigenvalues --   -0.02255  -0.02025  -0.01422  -0.01192  -0.00755
 Alpha virt. eigenvalues --   -0.00210   0.00083   0.00418   0.00487   0.00587

  Beta  occ. eigenvalues --  -38.44772 -38.44649 -38.44366 -38.43798 -38.43715
  Beta  occ. eigenvalues --  -38.43266 -38.43145  -2.20555  -2.20474  -2.20222
  Beta  occ. eigenvalues --   -2.19625  -2.19447  -2.19139  -2.19077  -1.14233
  Beta  occ. eigenvalues --   -1.14221  -1.14207  -1.14185  -1.14177  -1.14056
  Beta  occ. eigenvalues --   -1.13939  -1.13913  -1.13794  -1.13328  -1.13286
  Beta  occ. eigenvalues --   -1.13261  -1.13166  -1.13138  -1.13134  -1.12858
  Beta  occ. eigenvalues --   -1.12803  -1.12797  -1.12770  -1.12753  -1.12629
  Beta  occ. eigenvalues --   -0.16859  -0.13166  -0.12632
  Beta virt. eigenvalues --   -0.07013  -0.06470  -0.05066  -0.04038  -0.03298
  Beta virt. eigenvalues --   -0.02623  -0.02036  -0.01755  -0.01246  -0.00831
  Beta virt. eigenvalues --   -0.00397  -0.00025   0.00393   0.00523   0.00613

 Mulliken charges and spin densities:
               1          2
     1  Na  -1.365709  -0.039725
     2  Na   0.847218   0.047096
     3  Na   0.433067   0.250260
     4  Na   1.874840   0.223308
     5  Na  -2.220389  -0.192888
     6  Na   0.543897   0.228392
     7  Na  -0.112923   0.483557
 Sum of Mulliken charges =  -0.00000   1.00000

 Dipole moment (field-independent basis, Debye):
    X=              2.0294    Y=              1.0375    Z=              0.2233  Tot=              2.2902
 Quadrupole moment (field-independent basis, Debye-Ang):
   XX=            -72.0925   YY=            -56.0093   ZZ=            -70.5753
   XY=              2.0335   XZ=              1.6265   YZ=              0.0234

 Normal termination of Gaussian 16 at Wed Nov 29 01:45:50 2023.
