 Gaussian 16, Revision B.01,
 Gaussian 16:  ES64L-G16RevB.01 20-Dec-2017

 -------------------------
 #P B3LYP/6-311+g(d) force
 -------------------------

 -----
 DPGEN
 -----
 Symbolic Z-matrix:
 Charge =  0 Multiplicity = 2

                         Standard orientation:
 ---------------------------------------------------------------------
 Center     Atomic      Atomic             Coordinates (Angstroms)
 Number     Number       Type             X           Y           Z
 ---------------------------------------------------------------------
      1         11           0        1.191013   -2.353278   -0.143976
      2         11           0        0.310175    0.104750    1.892249
      3         11           0       -2.218739   -2.027616    0.245355
      4         11           0        3.187710    0.264806   -0.071281
      5         11           0        0.186466    2.874673   -0.090312
      6         11           0       -0.193997   -0.136392   -1.824285
      7         11           0       -2.462628    1.273058   -0.007750
 ---------------------------------------------------------------------

 SCF Done:  E(UB3LYP) =  -1136.13788356     A.U. after   19 cycles

 The electronic state is 2-A.
 Alpha  occ. eigenvalues --  -38.43978 -38.43457 -38.43428 -38.43384 -38.43353
 Alpha  occ. eigenvalues --  -38.43306 -38.43303  -2.19807  -2.19389  -2.19377
 Alpha  occ. eigenvalues --   -2.19371  -2.19237  -2.19224  -2.19187  -1.13480
 Alpha  occ. eigenvalues --   -1.13472  -1.13451  -1.13147  -1.13115  -1.13081
 Alpha  occ. eigenvalues --   -1.13058  -1.13052  -1.13019  -1.12998  -1.12986
 Alpha  occ. eigenvalues --   -1.12973  -1.12899  -1.12885  -1.12879  -1.12877
 Alpha  occ. eigenvalues --   -1.12875  -1.12841  -1.12839  -1.12821  -1.12806
 Alpha  occ. eigenvalues --   -0.19181  -0.13134  -0.12613  -0.10981
 Alpha virt. eigenvalues --   -0.05476  -0.04796  -0.04725  -0.03277  -0.03002
 Alpha virt. eigenvalues --   -0.02600  -0.01434  -0.00988  -0.00116  -0.00041
 Alpha virt. eigenvalues --    0.00022   0.00371   0.00850   0.00939   0.00956

  Beta  occ. eigenvalues --  -38.43977 -38.43449 -38.43347 -38.43345 -38.43303
  Beta  occ. eigenvalues --  -38.43302 -38.43292  -2.19808  -2.19380  -2.19229
  Beta  occ. eigenvalues --   -2.19226  -2.19218  -2.19216  -2.19183  -1.13482
  Beta  occ. eigenvalues --   -1.13455  -1.13451  -1.13123  -1.13074  -1.13044
  Beta  occ. eigenvalues --   -1.13012  -1.12961  -1.12932  -1.12912  -1.12905
  Beta  occ. eigenvalues --   -1.12881  -1.12880  -1.12863  -1.12850  -1.12840
  Beta  occ. eigenvalues --   -1.12827  -1.12823  -1.12817  -1.12809  -1.12800
  Beta  occ. eigenvalues --   -0.18416  -0.12874  -0.12366
  Beta virt. eigenvalues --   -0.07030  -0.05446  -0.04801  -0.04694  -0.02438
  Beta virt. eigenvalues --   -0.02199  -0.01551  -0.01350  -0.00921  -0.00170
  Beta virt. eigenvalues --   -0.00057   0.00118   0.00380   0.00886   0.00923

 Mulliken charges and spin densities:
               1          2
     1  Na   0.321227  -0.025629
     2  Na  -0.513736   0.717608
     3  Na   0.136325  -0.024431
     4  Na   0.075108  -0.134705
     5  Na   0.092122  -0.128857
     6  Na  -0.371374   0.593472
     7  Na   0.260327   0.002543
 Sum of Mulliken charges =  -0.00000   1.00000

 Dipole moment (field-independent basis, Debye):
    X=              0.2809    Y=              0.0650    Z=              0.0580  Tot=              0.2941
 Quadrupole moment (field-independent basis, Debye-Ang):
   XX=            -57.7181   YY=            -63.4019   ZZ=            -73.0022
   XY=              1.4882   XZ=             -1.1626   YZ=             -0.6757

 Normal termination of Gaussian 16 at Thu Dec  7 09:58:33 2023.
