 Gaussian 16, Revision B.01,
 Gaussian 16:  ES64L-G16RevB.01 20-Dec-2017

 -------------------------
 #P B3LYP/6-311+g(d) force
 -------------------------

 -----
 DPGEN
 -----
 Symbolic Z-matrix:
 Charge =  0 Multiplicity = 2

                         Standard orientation:
 ---------------------------------------------------------------------
 Center     Atomic      Atomic             Coordinates (Angstroms)
 Number     Number       Type             X           Y           Z
 ---------------------------------------------------------------------
      1         11           0       -1.003465    2.853594    0.125834
      2         11           0        2.593112   -1.947749   -0.352604
      3         11           0       -3.123268   -0.543000   -0.486203
      4         11           0       -0.679970   -2.714699    0.519745
      5         11           0        2.406700    1.831212    0.158442
      6         11           0       -0.236579    0.205112    1.811652
      7         11           0        0.043471    0.315529   -1.776864
 ---------------------------------------------------------------------

 SCF Done:  E(UB3LYP) =  -1136.13821520     A.U. after   20 cycles

 The electronic state is 2-A.
 Alpha  occ. eigenvalues --  -38.43932 -38.43790 -38.43771 -38.43631 -38.43391
 Alpha  occ. eigenvalues --  -38.43359 -38.43350  -2.19767  -2.19653  -2.19593
 Alpha  occ. eigenvalues --   -2.19429  -2.19312  -2.19286  -2.19261  -1.13451
 Alpha  occ. eigenvalues --   -1.13449  -1.13393  -1.13353  -1.13330  -1.13270
 Alpha  occ. eigenvalues --   -1.13265  -1.13249  -1.13235  -1.13106  -1.13092
 Alpha  occ. eigenvalues --   -1.13075  -1.13033  -1.12985  -1.12952  -1.12927
 Alpha  occ. eigenvalues --   -1.12922  -1.12908  -1.12900  -1.12891  -1.12874
 Alpha  occ. eigenvalues --   -0.18605  -0.12907  -0.12505  -0.10747
 Alpha virt. eigenvalues --   -0.05526  -0.05138  -0.04867  -0.03174  -0.02936
 Alpha virt. eigenvalues --   -0.02479  -0.01421  -0.01311  -0.00350  -0.00312
 Alpha virt. eigenvalues --    0.00021   0.00361   0.00804   0.00873   0.00901

  Beta  occ. eigenvalues --  -38.43927 -38.43782 -38.43761 -38.43630 -38.43379
  Beta  occ. eigenvalues --  -38.43278 -38.43277  -2.19762  -2.19643  -2.19576
  Beta  occ. eigenvalues --   -2.19429  -2.19242  -2.19165  -2.19152  -1.13448
  Beta  occ. eigenvalues --   -1.13426  -1.13387  -1.13342  -1.13301  -1.13257
  Beta  occ. eigenvalues --   -1.13254  -1.13227  -1.13223  -1.13102  -1.13083
  Beta  occ. eigenvalues --   -1.13075  -1.12977  -1.12899  -1.12884  -1.12871
  Beta  occ. eigenvalues --   -1.12857  -1.12829  -1.12825  -1.12804  -1.12797
  Beta  occ. eigenvalues --   -0.17885  -0.12652  -0.12262
  Beta virt. eigenvalues --   -0.06874  -0.05534  -0.05032  -0.04814  -0.02393
  Beta virt. eigenvalues --   -0.02234  -0.01461  -0.01319  -0.01238  -0.00374
  Beta virt. eigenvalues --   -0.00328   0.00132   0.00388   0.00810   0.00897

 Mulliken charges and spin densities:
               1          2
     1  Na   0.199112  -0.097320
     2  Na  -0.135575  -0.070330
     3  Na  -0.023700  -0.030494
     4  Na   0.115139   0.016798
     5  Na   0.037662  -0.074491
     6  Na   0.030924   0.520565
     7  Na  -0.223562   0.735271
 Sum of Mulliken charges =  -0.00000   1.00000

 Dipole moment (field-independent basis, Debye):
    X=              0.0006    Y=              0.3592    Z=             -0.0495  Tot=              0.3626
 Quadrupole moment (field-independent basis, Debye-Ang):
   XX=            -58.3336   YY=            -60.3460   ZZ=            -74.4237
   XY=             -0.0163   XZ=              0.7440   YZ=              0.3639

 Normal termination of Gaussian 16 at Tue Dec  5 11:26:02 2023.
