 Gaussian 16, Revision B.01,
 Gaussian 16:  ES64L-G16RevB.01 20-Dec-2017

 -------------------------
 #P B3LYP/6-311+g(d) force
 -------------------------

 -----
 DPGEN
 -----
 Symbolic Z-matrix:
 Charge =  0 Multiplicity = 2

                         Standard orientation:
 ---------------------------------------------------------------------
 Center     Atomic      Atomic             Coordinates (Angstroms)
 Number     Number       Type             X           Y           Z
 ---------------------------------------------------------------------
      1         11           0       -2.087318    2.169588    0.078515
      2         11           0        1.800686    2.746095   -0.133286
      3         11           0       -0.056543    0.193096   -1.410285
      4         11           0        0.458525   -0.121984    2.063203
      5         11           0        3.164965   -1.123411   -0.370561
      6         11           0       -0.211585   -3.027326   -0.051614
      7         11           0       -3.068729   -0.836058   -0.175972
 ---------------------------------------------------------------------

 SCF Done:  E(UB3LYP) =  -1136.13460012     A.U. after   19 cycles

 The electronic state is 2-A.
 Alpha  occ. eigenvalues --  -38.44584 -38.44055 -38.43787 -38.43769 -38.43650
 Alpha  occ. eigenvalues --  -38.43289 -38.42995  -2.20358  -2.19843  -2.19641
 Alpha  occ. eigenvalues --   -2.19629  -2.19465  -2.19157  -2.18981  -1.14037
 Alpha  occ. eigenvalues --   -1.14008  -1.13995  -1.13525  -1.13500  -1.13479
 Alpha  occ. eigenvalues --   -1.13395  -1.13317  -1.13300  -1.13288  -1.13271
 Alpha  occ. eigenvalues --   -1.13216  -1.13145  -1.13136  -1.13094  -1.12833
 Alpha  occ. eigenvalues --   -1.12778  -1.12769  -1.12680  -1.12619  -1.12604
 Alpha  occ. eigenvalues --   -0.18298  -0.12985  -0.12400  -0.10239
 Alpha virt. eigenvalues --   -0.06041  -0.05361  -0.04843  -0.03021  -0.02689
 Alpha virt. eigenvalues --   -0.02224  -0.01751  -0.01430  -0.00668  -0.00586
 Alpha virt. eigenvalues --   -0.00005   0.00319   0.00723   0.00777   0.00854

  Beta  occ. eigenvalues --  -38.44575 -38.44053 -38.43784 -38.43765 -38.43646
  Beta  occ. eigenvalues --  -38.43188 -38.42949  -2.20343  -2.19841  -2.19638
  Beta  occ. eigenvalues --   -2.19625  -2.19461  -2.18971  -2.18898  -1.14010
  Beta  occ. eigenvalues --   -1.14000  -1.13986  -1.13515  -1.13492  -1.13480
  Beta  occ. eigenvalues --   -1.13395  -1.13309  -1.13292  -1.13275  -1.13253
  Beta  occ. eigenvalues --   -1.13216  -1.13142  -1.13112  -1.13095  -1.12711
  Beta  occ. eigenvalues --   -1.12648  -1.12636  -1.12608  -1.12560  -1.12542
  Beta  occ. eigenvalues --   -0.17615  -0.12755  -0.12200
  Beta virt. eigenvalues --   -0.06365  -0.06013  -0.05313  -0.04806  -0.02290
  Beta virt. eigenvalues --   -0.01972  -0.01647  -0.01378  -0.01180  -0.00704
  Beta virt. eigenvalues --   -0.00622   0.00158   0.00370   0.00750   0.00814

 Mulliken charges and spin densities:
               1          2
     1  Na   0.324348   0.026330
     2  Na   0.134899  -0.050814
     3  Na  -0.437891   0.301747
     4  Na  -0.478457   0.759645
     5  Na   0.067110  -0.040336
     6  Na   0.204574  -0.012525
     7  Na   0.185416   0.015952
 Sum of Mulliken charges =  -0.00000   1.00000

 Dipole moment (field-independent basis, Debye):
    X=              0.3947    Y=              0.0264    Z=              0.0614  Tot=              0.4003
 Quadrupole moment (field-independent basis, Debye-Ang):
   XX=            -54.7297   YY=            -59.7069   ZZ=            -77.2313
   XY=              0.2648   XZ=             -1.0461   YZ=              0.8178

 Normal termination of Gaussian 16 at Thu Dec  7 05:56:42 2023.
