 Gaussian 16, Revision B.01,
 Gaussian 16:  ES64L-G16RevB.01 20-Dec-2017

 -------------------------
 #P B3LYP/6-311+g(d) force
 -------------------------

 -----
 DPGEN
 -----
 Symbolic Z-matrix:
 Charge =  0 Multiplicity = 2

                         Standard orientation:
 ---------------------------------------------------------------------
 Center     Atomic      Atomic             Coordinates (Angstroms)
 Number     Number       Type             X           Y           Z
 ---------------------------------------------------------------------
      1         11           0       -3.175281   -0.739486    0.542168
      2         11           0        2.239757    2.027361    0.061766
      3         11           0       -1.560265    2.540250   -0.224146
      4         11           0        0.325099   -0.012038    1.794160
      5         11           0        2.814029   -1.445704    0.037188
      6         11           0       -0.458520   -2.589203   -0.500099
      7         11           0       -0.184819    0.218819   -1.711036
 ---------------------------------------------------------------------

 SCF Done:  E(UB3LYP) =  -1136.13659356     A.U. after   18 cycles

 The electronic state is 2-A.
 Alpha  occ. eigenvalues --  -38.44131 -38.43875 -38.43770 -38.43563 -38.43450
 Alpha  occ. eigenvalues --  -38.43148 -38.43028  -2.19941  -2.19718  -2.19620
 Alpha  occ. eigenvalues --   -2.19411  -2.19392  -2.19149  -2.18933  -1.13608
 Alpha  occ. eigenvalues --   -1.13596  -1.13581  -1.13403  -1.13382  -1.13363
 Alpha  occ. eigenvalues --   -1.13316  -1.13292  -1.13235  -1.13156  -1.13082
 Alpha  occ. eigenvalues --   -1.13062  -1.13024  -1.13020  -1.13001  -1.12868
 Alpha  occ. eigenvalues --   -1.12793  -1.12750  -1.12601  -1.12582  -1.12540
 Alpha  occ. eigenvalues --   -0.18815  -0.13103  -0.12424  -0.10709
 Alpha virt. eigenvalues --   -0.05652  -0.05375  -0.04358  -0.03250  -0.02853
 Alpha virt. eigenvalues --   -0.02383  -0.01668  -0.01182  -0.00335  -0.00160
 Alpha virt. eigenvalues --    0.00030   0.00341   0.00790   0.00851   0.00916

  Beta  occ. eigenvalues --  -38.44116 -38.43873 -38.43766 -38.43556 -38.43380
  Beta  occ. eigenvalues --  -38.43070 -38.43012  -2.19916  -2.19718  -2.19615
  Beta  occ. eigenvalues --   -2.19402  -2.19263  -2.19006  -2.18908  -1.13583
  Beta  occ. eigenvalues --   -1.13574  -1.13567  -1.13396  -1.13382  -1.13350
  Beta  occ. eigenvalues --   -1.13305  -1.13276  -1.13230  -1.13135  -1.13046
  Beta  occ. eigenvalues --   -1.13019  -1.12991  -1.12935  -1.12905  -1.12781
  Beta  occ. eigenvalues --   -1.12696  -1.12654  -1.12568  -1.12539  -1.12520
  Beta  occ. eigenvalues --   -0.18107  -0.12843  -0.12144
  Beta virt. eigenvalues --   -0.06855  -0.05541  -0.05377  -0.04337  -0.02508
  Beta virt. eigenvalues --   -0.02086  -0.01543  -0.01359  -0.01130  -0.00369
  Beta virt. eigenvalues --   -0.00163   0.00132   0.00369   0.00836   0.00862

 Mulliken charges and spin densities:
               1          2
     1  Na  -0.087444   0.081287
     2  Na   0.064317  -0.137377
     3  Na   0.063579  -0.087277
     4  Na  -0.325853   0.707662
     5  Na   0.097604  -0.081559
     6  Na   0.225319   0.014615
     7  Na  -0.037522   0.502649
 Sum of Mulliken charges =  -0.00000   1.00000

 Dipole moment (field-independent basis, Debye):
    X=              0.0806    Y=              0.1535    Z=              0.1917  Tot=              0.2585
 Quadrupole moment (field-independent basis, Debye-Ang):
   XX=            -54.2222   YY=            -63.8435   ZZ=            -74.5124
   XY=             -0.2877   XZ=             -1.5762   YZ=              0.3138

 Normal termination of Gaussian 16 at Sat Dec  9 07:20:28 2023.
