 Gaussian 16, Revision B.01,
 Gaussian 16:  ES64L-G16RevB.01 20-Dec-2017

 -------------------------
 #P B3LYP/6-311+g(d) force
 -------------------------

 -----
 DPGEN
 -----
 Symbolic Z-matrix:
 Charge =  0 Multiplicity = 2

                         Standard orientation:
 ---------------------------------------------------------------------
 Center     Atomic      Atomic             Coordinates (Angstroms)
 Number     Number       Type             X           Y           Z
 ---------------------------------------------------------------------
      1         11           0       -1.171029    2.225647    1.012779
      2         11           0        3.626387   -1.223472   -0.840863
      3         11           0       -2.061472   -1.461536    1.144592
      4         11           0       -3.653258   -0.192273   -1.332105
      5         11           0        1.974952    2.217888   -0.592282
      6         11           0       -0.232082   -0.756468   -1.130167
      7         11           0        1.516502   -0.809787    1.738045
 ---------------------------------------------------------------------

 SCF Done:  E(UB3LYP) =  -1136.12552799     A.U. after   23 cycles

 The electronic state is 2-A.
 Alpha  occ. eigenvalues --  -38.44537 -38.44429 -38.44043 -38.44029 -38.43961
 Alpha  occ. eigenvalues --  -38.43365 -38.42746  -2.20380  -2.20352  -2.19920
 Alpha  occ. eigenvalues --   -2.19880  -2.19835  -2.19176  -2.18556  -1.14140
 Alpha  occ. eigenvalues --   -1.14048  -1.14037  -1.14007  -1.13993  -1.13948
 Alpha  occ. eigenvalues --   -1.13615  -1.13579  -1.13568  -1.13546  -1.13510
 Alpha  occ. eigenvalues --   -1.13500  -1.13490  -1.13483  -1.13452  -1.12867
 Alpha  occ. eigenvalues --   -1.12836  -1.12792  -1.12230  -1.12223  -1.12189
 Alpha  occ. eigenvalues --   -0.18298  -0.14057  -0.11200  -0.10946
 Alpha virt. eigenvalues --   -0.06404  -0.05113  -0.05012  -0.03137  -0.02656
 Alpha virt. eigenvalues --   -0.02369  -0.02209  -0.01145  -0.00850  -0.00227
 Alpha virt. eigenvalues --    0.00134   0.00291   0.00441   0.00524   0.00655

  Beta  occ. eigenvalues --  -38.44490 -38.44413 -38.44013 -38.43991 -38.43930
  Beta  occ. eigenvalues --  -38.43352 -38.42737  -2.20328  -2.20291  -2.19830
  Beta  occ. eigenvalues --   -2.19826  -2.19806  -2.19153  -2.18541  -1.14095
  Beta  occ. eigenvalues --   -1.13991  -1.13986  -1.13981  -1.13944  -1.13917
  Beta  occ. eigenvalues --   -1.13555  -1.13542  -1.13513  -1.13484  -1.13478
  Beta  occ. eigenvalues --   -1.13470  -1.13453  -1.13421  -1.13407  -1.12849
  Beta  occ. eigenvalues --   -1.12823  -1.12770  -1.12216  -1.12201  -1.12184
  Beta  occ. eigenvalues --   -0.17569  -0.13733  -0.10866
  Beta virt. eigenvalues --   -0.07377  -0.06169  -0.04939  -0.04413  -0.03016
  Beta virt. eigenvalues --   -0.02316  -0.01916  -0.01604  -0.00863  -0.00608
  Beta virt. eigenvalues --   -0.00093   0.00185   0.00419   0.00483   0.00672

 Mulliken charges and spin densities:
               1          2
     1  Na  -0.412215   0.068219
     2  Na   0.671895   0.131152
     3  Na   0.383638   0.198765
     4  Na   0.703431   0.116135
     5  Na  -0.136265   0.074809
     6  Na  -1.249682   0.196145
     7  Na   0.039200   0.214775
 Sum of Mulliken charges =  -0.00000   1.00000

 Dipole moment (field-independent basis, Debye):
    X=             -0.3232    Y=             -0.2380    Z=             -0.0995  Tot=              0.4136
 Quadrupole moment (field-independent basis, Debye-Ang):
   XX=            -51.1281   YY=            -77.6771   ZZ=            -65.8148
   XY=             -0.9043   XZ=             -1.0624   YZ=             -1.6499

 Normal termination of Gaussian 16 at Fri Dec  8 00:57:08 2023.
