 Gaussian 16, Revision B.01,
 Gaussian 16:  ES64L-G16RevB.01 20-Dec-2017

 -------------------------
 #P B3LYP/6-311+g(d) force
 -------------------------

 -----
 DPGEN
 -----
 Symbolic Z-matrix:
 Charge =  0 Multiplicity = 2

                         Standard orientation:
 ---------------------------------------------------------------------
 Center     Atomic      Atomic             Coordinates (Angstroms)
 Number     Number       Type             X           Y           Z
 ---------------------------------------------------------------------
      1         11           0       -3.199191   -2.152395    1.000935
      2         11           0        2.960568   -2.475398   -0.697780
      3         11           0       -0.858991   -3.501693   -0.597703
      4         11           0        4.231639    0.223642    0.748223
      5         11           0       -3.882982    1.335990    0.035777
      6         11           0       -1.281641    3.521709   -0.821552
      7         11           0        2.030599    3.048145    0.332099
 ---------------------------------------------------------------------

 SCF Done:  E(UB3LYP) =  -1136.10670165     A.U. after   24 cycles

 The electronic state is 2-A.
 Alpha  occ. eigenvalues --  -38.44990 -38.44803 -38.44786 -38.44639 -38.44601
 Alpha  occ. eigenvalues --  -38.44191 -38.43953  -2.20763  -2.20599  -2.20540
 Alpha  occ. eigenvalues --   -2.20432  -2.20384  -2.19982  -2.19745  -1.14440
 Alpha  occ. eigenvalues --   -1.14434  -1.14418  -1.14308  -1.14263  -1.14245
 Alpha  occ. eigenvalues --   -1.14227  -1.14217  -1.14188  -1.14088  -1.14080
 Alpha  occ. eigenvalues --   -1.14055  -1.14043  -1.14031  -1.14013  -1.13639
 Alpha  occ. eigenvalues --   -1.13624  -1.13608  -1.13402  -1.13392  -1.13368
 Alpha  occ. eigenvalues --   -0.15480  -0.13962  -0.13479  -0.10656
 Alpha virt. eigenvalues --   -0.08021  -0.04719  -0.04637  -0.03642  -0.03514
 Alpha virt. eigenvalues --   -0.02281  -0.02022  -0.01740  -0.01340  -0.01073
 Alpha virt. eigenvalues --   -0.01054  -0.00016   0.00160   0.00218   0.00763

  Beta  occ. eigenvalues --  -38.44988 -38.44793 -38.44788 -38.44608 -38.44553
  Beta  occ. eigenvalues --  -38.44123 -38.43883  -2.20766  -2.20578  -2.20560
  Beta  occ. eigenvalues --   -2.20378  -2.20297  -2.19857  -2.19616  -1.14446
  Beta  occ. eigenvalues --   -1.14437  -1.14386  -1.14277  -1.14251  -1.14246
  Beta  occ. eigenvalues --   -1.14236  -1.14219  -1.14160  -1.14053  -1.14046
  Beta  occ. eigenvalues --   -1.14006  -1.13984  -1.13975  -1.13949  -1.13553
  Beta  occ. eigenvalues --   -1.13541  -1.13524  -1.13314  -1.13305  -1.13285
  Beta  occ. eigenvalues --   -0.14950  -0.13256  -0.12742
  Beta virt. eigenvalues --   -0.08160  -0.07562  -0.04224  -0.04127  -0.03474
  Beta virt. eigenvalues --   -0.03273  -0.01992  -0.01836  -0.01575  -0.01244
  Beta virt. eigenvalues --   -0.00866  -0.00606   0.00078   0.00134   0.00381

 Mulliken charges and spin densities:
               1          2
     1  Na  -0.006095   0.049931
     2  Na  -0.069747   0.236586
     3  Na  -0.176727   0.137092
     4  Na   0.213349   0.003363
     5  Na  -0.000683   0.316460
     6  Na   0.220207  -0.057816
     7  Na  -0.180303   0.314382
 Sum of Mulliken charges =  -0.00000   1.00000

 Dipole moment (field-independent basis, Debye):
    X=              0.1169    Y=             -0.6257    Z=              0.0595  Tot=              0.6393
 Quadrupole moment (field-independent basis, Debye-Ang):
   XX=            -63.4041   YY=            -69.1862   ZZ=            -69.0282
   XY=              1.1378   XZ=             -0.2627   YZ=              0.7231

 Normal termination of Gaussian 16 at Sun Dec  3 20:42:53 2023.
