 Gaussian 16, Revision B.01,
 Gaussian 16:  ES64L-G16RevB.01 20-Dec-2017

 -------------------------
 #P B3LYP/6-311+g(d) force
 -------------------------

 -----
 DPGEN
 -----
 Symbolic Z-matrix:
 Charge =  0 Multiplicity = 2

                         Standard orientation:
 ---------------------------------------------------------------------
 Center     Atomic      Atomic             Coordinates (Angstroms)
 Number     Number       Type             X           Y           Z
 ---------------------------------------------------------------------
      1         11           0        1.424040   -2.064256   -0.123387
      2         11           0        1.961565    1.432573   -0.353591
      3         11           0       -1.913814    2.349619   -0.481169
      4         11           0       -1.554684   -1.246949   -1.348956
      5         11           0       -4.035602   -0.482773    0.119044
      6         11           0       -0.882422   -0.115648    2.143452
      7         11           0        5.000918    0.127435    0.044607
 ---------------------------------------------------------------------

 SCF Done:  E(UB3LYP) =  -1136.11252843     A.U. after   26 cycles

 The electronic state is 2-A.
 Alpha  occ. eigenvalues --  -38.45740 -38.44760 -38.44531 -38.43958 -38.43720
 Alpha  occ. eigenvalues --  -38.43429 -38.42952  -2.21551  -2.20637  -2.20324
 Alpha  occ. eigenvalues --   -2.19867  -2.19523  -2.19238  -2.18783  -1.15220
 Alpha  occ. eigenvalues --   -1.15194  -1.15160  -1.14359  -1.14278  -1.14229
 Alpha  occ. eigenvalues --   -1.13974  -1.13971  -1.13944  -1.13566  -1.13514
 Alpha  occ. eigenvalues --   -1.13483  -1.13230  -1.13200  -1.13152  -1.12938
 Alpha  occ. eigenvalues --   -1.12893  -1.12865  -1.12490  -1.12454  -1.12393
 Alpha  occ. eigenvalues --   -0.17910  -0.14168  -0.11020  -0.10919
 Alpha virt. eigenvalues --   -0.07799  -0.05010  -0.04404  -0.03377  -0.03112
 Alpha virt. eigenvalues --   -0.02365  -0.02072  -0.01599  -0.01115  -0.00801
 Alpha virt. eigenvalues --   -0.00435   0.00089   0.00227   0.00577   0.00738

  Beta  occ. eigenvalues --  -38.45676 -38.44701 -38.44467 -38.43939 -38.43725
  Beta  occ. eigenvalues --  -38.43418 -38.42955  -2.21435  -2.20531  -2.20205
  Beta  occ. eigenvalues --   -2.19836  -2.19538  -2.19220  -2.18790  -1.15136
  Beta  occ. eigenvalues --   -1.15117  -1.15072  -1.14279  -1.14202  -1.14157
  Beta  occ. eigenvalues --   -1.13894  -1.13890  -1.13867  -1.13534  -1.13497
  Beta  occ. eigenvalues --   -1.13446  -1.13246  -1.13208  -1.13130  -1.12929
  Beta  occ. eigenvalues --   -1.12879  -1.12837  -1.12499  -1.12449  -1.12398
  Beta  occ. eigenvalues --   -0.17330  -0.13545  -0.10730
  Beta virt. eigenvalues --   -0.07601  -0.07376  -0.04858  -0.03898  -0.03007
  Beta virt. eigenvalues --   -0.02965  -0.01950  -0.01741  -0.01206  -0.00803
  Beta virt. eigenvalues --   -0.00408  -0.00345   0.00180   0.00312   0.00644

 Mulliken charges and spin densities:
               1          2
     1  Na   0.028918   0.006808
     2  Na  -0.980415   0.060921
     3  Na  -0.292272  -0.034613
     4  Na  -0.254126   0.158722
     5  Na   0.711655   0.268109
     6  Na  -0.056665   0.277453
     7  Na   0.842903   0.262600
 Sum of Mulliken charges =  -0.00000   1.00000

 Dipole moment (field-independent basis, Debye):
    X=             -0.5057    Y=             -0.4790    Z=              1.3448  Tot=              1.5145
 Quadrupole moment (field-independent basis, Debye-Ang):
   XX=            -57.7850   YY=            -79.6004   ZZ=            -62.7164
   XY=             -2.6847   XZ=             -2.7640   YZ=             -2.8207

 Normal termination of Gaussian 16 at Thu Dec  7 03:14:53 2023.
