 Gaussian 16, Revision B.01,
 Gaussian 16:  ES64L-G16RevB.01 20-Dec-2017

 -------------------------
 #P B3LYP/6-311+g(d) force
 -------------------------

 -----
 DPGEN
 -----
 Symbolic Z-matrix:
 Charge =  0 Multiplicity = 2

                         Standard orientation:
 ---------------------------------------------------------------------
 Center     Atomic      Atomic             Coordinates (Angstroms)
 Number     Number       Type             X           Y           Z
 ---------------------------------------------------------------------
      1         11           0        2.814714    1.494064    0.068903
      2         11           0        0.347450    0.720170   -1.720014
      3         11           0       -0.761047    2.656469    0.463689
      4         11           0        0.000701   -1.004933    2.205773
      5         11           0        1.991782   -2.028937   -0.201698
      6         11           0       -1.299896   -2.271480   -0.763584
      7         11           0       -3.093705    0.434647   -0.053069
 ---------------------------------------------------------------------

 SCF Done:  E(UB3LYP) =  -1136.13605570     A.U. after   19 cycles

 The electronic state is 2-A.
 Alpha  occ. eigenvalues --  -38.43996 -38.43897 -38.43733 -38.43559 -38.43517
 Alpha  occ. eigenvalues --  -38.43448 -38.43304  -2.19854  -2.19726  -2.19574
 Alpha  occ. eigenvalues --   -2.19426  -2.19410  -2.19393  -2.19194  -1.13516
 Alpha  occ. eigenvalues --   -1.13484  -1.13481  -1.13439  -1.13381  -1.13358
 Alpha  occ. eigenvalues --   -1.13265  -1.13247  -1.13226  -1.13188  -1.13099
 Alpha  occ. eigenvalues --   -1.13079  -1.13068  -1.13052  -1.13042  -1.13027
 Alpha  occ. eigenvalues --   -1.13017  -1.12999  -1.12863  -1.12848  -1.12822
 Alpha  occ. eigenvalues --   -0.18598  -0.12886  -0.12654  -0.11073
 Alpha virt. eigenvalues --   -0.05485  -0.05150  -0.04509  -0.03490  -0.03221
 Alpha virt. eigenvalues --   -0.02755  -0.01337  -0.00943  -0.00180  -0.00139
 Alpha virt. eigenvalues --   -0.00080   0.00376   0.00802   0.00902   0.00941

  Beta  occ. eigenvalues --  -38.43908 -38.43896 -38.43731 -38.43550 -38.43511
  Beta  occ. eigenvalues --  -38.43394 -38.43282  -2.19727  -2.19690  -2.19574
  Beta  occ. eigenvalues --   -2.19409  -2.19386  -2.19313  -2.19158  -1.13431
  Beta  occ. eigenvalues --   -1.13410  -1.13372  -1.13367  -1.13364  -1.13361
  Beta  occ. eigenvalues --   -1.13263  -1.13244  -1.13213  -1.13159  -1.13079
  Beta  occ. eigenvalues --   -1.13056  -1.13033  -1.13029  -1.13022  -1.12999
  Beta  occ. eigenvalues --   -1.12954  -1.12943  -1.12838  -1.12810  -1.12790
  Beta  occ. eigenvalues --   -0.17870  -0.12680  -0.12455
  Beta virt. eigenvalues --   -0.07154  -0.05455  -0.05098  -0.04330  -0.02764
  Beta virt. eigenvalues --   -0.02496  -0.01730  -0.01275  -0.00883  -0.00195
  Beta virt. eigenvalues --   -0.00139   0.00093   0.00413   0.00890   0.00907

 Mulliken charges and spin densities:
               1          2
     1  Na   0.195983  -0.034846
     2  Na  -0.105991   0.243961
     3  Na   0.038366   0.089283
     4  Na  -0.717525   0.584753
     5  Na   0.343743   0.046226
     6  Na   0.224021   0.110245
     7  Na   0.021403  -0.039621
 Sum of Mulliken charges =  -0.00000   1.00000

 Dipole moment (field-independent basis, Debye):
    X=              0.1854    Y=              0.0944    Z=              0.2585  Tot=              0.3318
 Quadrupole moment (field-independent basis, Debye-Ang):
   XX=            -58.9410   YY=            -65.7689   ZZ=            -70.9161
   XY=              0.3774   XZ=              0.6172   YZ=              2.6474

 Normal termination of Gaussian 16 at Tue Dec  5 21:22:30 2023.
