 Gaussian 16, Revision B.01,
 Gaussian 16:  ES64L-G16RevB.01 20-Dec-2017

 -------------------------
 #P B3LYP/6-311+g(d) force
 -------------------------

 -----
 DPGEN
 -----
 Symbolic Z-matrix:
 Charge =  0 Multiplicity = 2

                         Standard orientation:
 ---------------------------------------------------------------------
 Center     Atomic      Atomic             Coordinates (Angstroms)
 Number     Number       Type             X           Y           Z
 ---------------------------------------------------------------------
      1         11           0       -0.286678    0.741135    0.884294
      2         11           0        6.615376    0.186269    0.842436
      3         11           0        4.042864    0.171739   -0.795287
      4         11           0        1.002363   -2.150289   -0.456515
      5         11           0       -2.810220   -0.981289   -0.721433
      6         11           0       -2.493972    2.802196   -0.609062
      7         11           0       -6.069734   -0.769760    0.855566
 ---------------------------------------------------------------------

 SCF Done:  E(UB3LYP) =  -1136.10880037     A.U. after   22 cycles

 The electronic state is 2-A.
 Alpha  occ. eigenvalues --  -38.45345 -38.44925 -38.44781 -38.44647 -38.43918
 Alpha  occ. eigenvalues --  -38.43406 -38.43380  -2.21155  -2.20765  -2.20586
 Alpha  occ. eigenvalues --   -2.20409  -2.19721  -2.19220  -2.19170  -1.14809
 Alpha  occ. eigenvalues --   -1.14801  -1.14758  -1.14452  -1.14440  -1.14383
 Alpha  occ. eigenvalues --   -1.14295  -1.14263  -1.14182  -1.14063  -1.14058
 Alpha  occ. eigenvalues --   -1.14021  -1.13392  -1.13369  -1.13352  -1.12975
 Alpha  occ. eigenvalues --   -1.12896  -1.12873  -1.12822  -1.12820  -1.12744
 Alpha  occ. eigenvalues --   -0.16711  -0.13502  -0.12058  -0.11406
 Alpha virt. eigenvalues --   -0.06494  -0.05900  -0.04547  -0.03365  -0.02932
 Alpha virt. eigenvalues --   -0.02737  -0.02103  -0.01690  -0.01232  -0.00845
 Alpha virt. eigenvalues --   -0.00728  -0.00486  -0.00004   0.00405   0.00478

  Beta  occ. eigenvalues --  -38.45253 -38.44909 -38.44768 -38.44580 -38.43894
  Beta  occ. eigenvalues --  -38.43404 -38.43389  -2.20985  -2.20740  -2.20562
  Beta  occ. eigenvalues --   -2.20286  -2.19675  -2.19216  -2.19187  -1.14689
  Beta  occ. eigenvalues --   -1.14681  -1.14647  -1.14439  -1.14426  -1.14333
  Beta  occ. eigenvalues --   -1.14281  -1.14236  -1.14156  -1.13980  -1.13971
  Beta  occ. eigenvalues --   -1.13940  -1.13361  -1.13341  -1.13317  -1.12980
  Beta  occ. eigenvalues --   -1.12892  -1.12872  -1.12833  -1.12831  -1.12751
  Beta  occ. eigenvalues --   -0.16069  -0.13291  -0.11042
  Beta virt. eigenvalues --   -0.08275  -0.06127  -0.05639  -0.04268  -0.03081
  Beta virt. eigenvalues --   -0.02624  -0.02362  -0.01730  -0.01275  -0.01131
  Beta virt. eigenvalues --   -0.00686  -0.00502  -0.00360   0.00205   0.00432

 Mulliken charges and spin densities:
               1          2
     1  Na  -0.415795   0.260306
     2  Na   0.197042  -0.038648
     3  Na  -0.390414  -0.047513
     4  Na   0.232447   0.139632
     5  Na  -0.176847   0.241232
     6  Na   0.304716   0.256287
     7  Na   0.248852   0.188704
 Sum of Mulliken charges =  -0.00000   1.00000

 Dipole moment (field-independent basis, Debye):
    X=             -1.7769    Y=              0.5009    Z=              0.1886  Tot=              1.8557
 Quadrupole moment (field-independent basis, Debye-Ang):
   XX=            -73.0180   YY=            -66.1356   ZZ=            -66.7557
   XY=             -4.2733   XZ=              2.2629   YZ=              0.4715

 Normal termination of Gaussian 16 at Tue Nov 28 23:29:14 2023.
