 Gaussian 16, Revision B.01,
 Gaussian 16:  ES64L-G16RevB.01 20-Dec-2017

 -------------------------
 #P B3LYP/6-311+g(d) force
 -------------------------

 -----
 DPGEN
 -----
 Symbolic Z-matrix:
 Charge =  0 Multiplicity = 2

                         Standard orientation:
 ---------------------------------------------------------------------
 Center     Atomic      Atomic             Coordinates (Angstroms)
 Number     Number       Type             X           Y           Z
 ---------------------------------------------------------------------
      1         11           0        2.720270    1.913310   -0.601022
      2         11           0       -0.062209    3.402261   -0.426247
      3         11           0       -3.429770    2.161919    0.373639
      4         11           0        4.941911   -0.862075    1.224403
      5         11           0       -1.634397   -3.355983   -0.668339
      6         11           0       -4.084636   -1.108628    0.781830
      7         11           0        1.548831   -2.150803   -0.684264
 ---------------------------------------------------------------------

 SCF Done:  E(UB3LYP) =  -1136.11177176     A.U. after   20 cycles

 The electronic state is 2-A.
 Alpha  occ. eigenvalues --  -38.45066 -38.44876 -38.44819 -38.44763 -38.44565
 Alpha  occ. eigenvalues --  -38.43988 -38.43835  -2.20814  -2.20650  -2.20607
 Alpha  occ. eigenvalues --   -2.20540  -2.20338  -2.19777  -2.19641  -1.14507
 Alpha  occ. eigenvalues --   -1.14499  -1.14427  -1.14298  -1.14297  -1.14294
 Alpha  occ. eigenvalues --   -1.14286  -1.14251  -1.14231  -1.14214  -1.14212
 Alpha  occ. eigenvalues --   -1.14177  -1.14014  -1.14002  -1.13966  -1.13442
 Alpha  occ. eigenvalues --   -1.13437  -1.13412  -1.13309  -1.13300  -1.13275
 Alpha  occ. eigenvalues --   -0.15640  -0.13896  -0.13161  -0.11288
 Alpha virt. eigenvalues --   -0.07119  -0.05773  -0.03889  -0.03481  -0.03354
 Alpha virt. eigenvalues --   -0.02459  -0.02200  -0.01740  -0.01375  -0.01175
 Alpha virt. eigenvalues --   -0.00521  -0.00362  -0.00047   0.00542   0.00596

  Beta  occ. eigenvalues --  -38.45047 -38.44797 -38.44778 -38.44744 -38.44551
  Beta  occ. eigenvalues --  -38.43959 -38.43807  -2.20783  -2.20573  -2.20507
  Beta  occ. eigenvalues --   -2.20466  -2.20313  -2.19727  -2.19592  -1.14490
  Beta  occ. eigenvalues --   -1.14481  -1.14377  -1.14272  -1.14264  -1.14193
  Beta  occ. eigenvalues --   -1.14186  -1.14184  -1.14173  -1.14167  -1.14146
  Beta  occ. eigenvalues --   -1.14129  -1.13998  -1.13987  -1.13938  -1.13410
  Beta  occ. eigenvalues --   -1.13401  -1.13373  -1.13272  -1.13267  -1.13239
  Beta  occ. eigenvalues --   -0.15155  -0.13185  -0.12543
  Beta virt. eigenvalues --   -0.07921  -0.07250  -0.05229  -0.03653  -0.03164
  Beta virt. eigenvalues --   -0.03082  -0.02127  -0.01947  -0.01592  -0.01151
  Beta virt. eigenvalues --   -0.00832  -0.00330  -0.00013   0.00196   0.00552

 Mulliken charges and spin densities:
               1          2
     1  Na  -0.210766   0.047113
     2  Na   0.253535   0.084550
     3  Na  -0.227309   0.118391
     4  Na   0.642836   0.524314
     5  Na  -0.239516   0.026555
     6  Na   0.055324   0.073038
     7  Na  -0.274105   0.126039
 Sum of Mulliken charges =  -0.00000   1.00000

 Dipole moment (field-independent basis, Debye):
    X=              0.1271    Y=             -0.2437    Z=              0.2461  Tot=              0.3689
 Quadrupole moment (field-independent basis, Debye-Ang):
   XX=            -59.4187   YY=            -67.0730   ZZ=            -71.7978
   XY=              1.6019   XZ=              0.1776   YZ=             -0.7453

 Normal termination of Gaussian 16 at Sun Dec  3 12:20:16 2023.
