 Gaussian 16, Revision B.01,
 Gaussian 16:  ES64L-G16RevB.01 20-Dec-2017

 -------------------------
 #P B3LYP/6-311+g(d) force
 -------------------------

 -----
 DPGEN
 -----
 Symbolic Z-matrix:
 Charge =  0 Multiplicity = 2

                         Standard orientation:
 ---------------------------------------------------------------------
 Center     Atomic      Atomic             Coordinates (Angstroms)
 Number     Number       Type             X           Y           Z
 ---------------------------------------------------------------------
      1         11           0        3.179954   -0.197859   -0.039981
      2         11           0       -2.752712   -1.677339   -0.439747
      3         11           0       -0.009587    0.070133    2.054231
      4         11           0        1.103287    2.623728   -0.453507
      5         11           0       -2.378727    1.730569    0.426248
      6         11           0        1.050692   -2.619266    0.122335
      7         11           0       -0.192907    0.070035   -1.669578
 ---------------------------------------------------------------------

 SCF Done:  E(UB3LYP) =  -1136.13773933     A.U. after   19 cycles

 The electronic state is 2-A.
 Alpha  occ. eigenvalues --  -38.44068 -38.43842 -38.43800 -38.43769 -38.43290
 Alpha  occ. eigenvalues --  -38.43238 -38.43100  -2.19908  -2.19699  -2.19660
 Alpha  occ. eigenvalues --   -2.19631  -2.19276  -2.19101  -2.18971  -1.13584
 Alpha  occ. eigenvalues --   -1.13572  -1.13553  -1.13391  -1.13351  -1.13349
 Alpha  occ. eigenvalues --   -1.13324  -1.13316  -1.13300  -1.13290  -1.13274
 Alpha  occ. eigenvalues --   -1.13243  -1.12975  -1.12939  -1.12896  -1.12777
 Alpha  occ. eigenvalues --   -1.12770  -1.12726  -1.12653  -1.12619  -1.12587
 Alpha  occ. eigenvalues --   -0.18723  -0.13161  -0.12262  -0.11011
 Alpha virt. eigenvalues --   -0.05641  -0.05198  -0.04374  -0.03354  -0.02875
 Alpha virt. eigenvalues --   -0.02715  -0.01593  -0.01091  -0.00250  -0.00204
 Alpha virt. eigenvalues --   -0.00004   0.00349   0.00786   0.00890   0.00912

  Beta  occ. eigenvalues --  -38.44067 -38.43833 -38.43757 -38.43706 -38.43234
  Beta  occ. eigenvalues --  -38.43225 -38.43089  -2.19909  -2.19645  -2.19611
  Beta  occ. eigenvalues --   -2.19525  -2.19158  -2.19096  -2.18955  -1.13588
  Beta  occ. eigenvalues --   -1.13565  -1.13545  -1.13339  -1.13319  -1.13298
  Beta  occ. eigenvalues --   -1.13291  -1.13264  -1.13241  -1.13236  -1.13201
  Beta  occ. eigenvalues --   -1.13179  -1.12897  -1.12859  -1.12815  -1.12770
  Beta  occ. eigenvalues --   -1.12749  -1.12718  -1.12626  -1.12600  -1.12573
  Beta  occ. eigenvalues --   -0.17998  -0.12922  -0.11984
  Beta virt. eigenvalues --   -0.07091  -0.05591  -0.05156  -0.04352  -0.02571
  Beta virt. eigenvalues --   -0.02129  -0.01654  -0.01499  -0.01002  -0.00260
  Beta virt. eigenvalues --   -0.00245   0.00111   0.00375   0.00860   0.00890

 Mulliken charges and spin densities:
               1          2
     1  Na   0.026969  -0.057099
     2  Na   0.052633  -0.055489
     3  Na  -0.337687   0.621972
     4  Na   0.220555  -0.023282
     5  Na   0.210316   0.054233
     6  Na   0.088962  -0.044014
     7  Na  -0.261747   0.503680
 Sum of Mulliken charges =  -0.00000   1.00000

 Dipole moment (field-independent basis, Debye):
    X=             -0.0625    Y=             -0.0301    Z=              0.1866  Tot=              0.1991
 Quadrupole moment (field-independent basis, Debye-Ang):
   XX=            -55.6540   YY=            -64.9166   ZZ=            -73.2721
   XY=              0.3832   XZ=             -0.2529   YZ=              0.3610

 Normal termination of Gaussian 16 at Thu Dec  7 09:15:27 2023.
