 Gaussian 16, Revision B.01,
 Gaussian 16:  ES64L-G16RevB.01 20-Dec-2017

 -------------------------
 #P B3LYP/6-311+g(d) force
 -------------------------

 -----
 DPGEN
 -----
 Symbolic Z-matrix:
 Charge =  0 Multiplicity = 2

                         Standard orientation:
 ---------------------------------------------------------------------
 Center     Atomic      Atomic             Coordinates (Angstroms)
 Number     Number       Type             X           Y           Z
 ---------------------------------------------------------------------
      1         11           0       -3.780615   -0.039033   -0.771586
      2         11           0        1.803482    3.018855   -0.103373
      3         11           0        0.140707    0.178878    2.982221
      4         11           0        3.082235   -0.184141   -0.412039
      5         11           0        1.560187   -2.518291   -1.728088
      6         11           0       -1.806038    1.956214   -1.052927
      7         11           0       -0.999958   -2.412481    1.085793
 ---------------------------------------------------------------------

 SCF Done:  E(UB3LYP) =  -1136.11054412     A.U. after   20 cycles

 The electronic state is 2-A.
 Alpha  occ. eigenvalues --  -38.46026 -38.44376 -38.44352 -38.44219 -38.44140
 Alpha  occ. eigenvalues --  -38.43998 -38.43533  -2.21813  -2.20170  -2.20145
 Alpha  occ. eigenvalues --   -2.20038  -2.19982  -2.19826  -2.19305  -1.15451
 Alpha  occ. eigenvalues --   -1.15449  -1.15413  -1.13911  -1.13862  -1.13840
 Alpha  occ. eigenvalues --   -1.13814  -1.13807  -1.13788  -1.13769  -1.13706
 Alpha  occ. eigenvalues --   -1.13686  -1.13649  -1.13616  -1.13588  -1.13476
 Alpha  occ. eigenvalues --   -1.13454  -1.13384  -1.12975  -1.12960  -1.12958
 Alpha  occ. eigenvalues --   -0.16669  -0.13244  -0.12320  -0.11929
 Alpha virt. eigenvalues --   -0.06075  -0.05665  -0.04220  -0.03732  -0.03585
 Alpha virt. eigenvalues --   -0.03007  -0.01462  -0.01116  -0.00827  -0.00719
 Alpha virt. eigenvalues --   -0.00279   0.00138   0.00213   0.00453   0.00638

  Beta  occ. eigenvalues --  -38.45903 -38.44367 -38.44302 -38.44205 -38.44121
  Beta  occ. eigenvalues --  -38.43988 -38.43531  -2.21585  -2.20133  -2.20077
  Beta  occ. eigenvalues --   -2.20015  -2.19949  -2.19808  -2.19302  -1.15298
  Beta  occ. eigenvalues --   -1.15296  -1.15248  -1.13850  -1.13837  -1.13821
  Beta  occ. eigenvalues --   -1.13786  -1.13777  -1.13751  -1.13721  -1.13686
  Beta  occ. eigenvalues --   -1.13671  -1.13613  -1.13593  -1.13567  -1.13464
  Beta  occ. eigenvalues --   -1.13444  -1.13363  -1.12970  -1.12958  -1.12956
  Beta  occ. eigenvalues --   -0.15979  -0.12737  -0.11929
  Beta virt. eigenvalues --   -0.08331  -0.05813  -0.05445  -0.03750  -0.03349
  Beta virt. eigenvalues --   -0.03068  -0.02521  -0.01383  -0.01029  -0.00711
  Beta virt. eigenvalues --   -0.00434  -0.00096   0.00317   0.00471   0.00590

 Mulliken charges and spin densities:
               1          2
     1  Na   0.417442   0.017525
     2  Na   0.223786   0.045080
     3  Na   0.027621   0.588046
     4  Na  -0.335571   0.101251
     5  Na   0.264598   0.152016
     6  Na  -0.504594   0.064619
     7  Na  -0.093282   0.031462
 Sum of Mulliken charges =  -0.00000   1.00000

 Dipole moment (field-independent basis, Debye):
    X=             -0.1532    Y=             -0.4941    Z=              0.5779  Tot=              0.7757
 Quadrupole moment (field-independent basis, Debye-Ang):
   XX=            -66.6109   YY=            -68.8371   ZZ=            -65.8460
   XY=              3.5390   XZ=              0.2348   YZ=              3.4405

 Normal termination of Gaussian 16 at Mon Dec  4 01:17:09 2023.
