 Gaussian 16, Revision B.01,
 Gaussian 16:  ES64L-G16RevB.01 20-Dec-2017

 -------------------------
 #P B3LYP/6-311+g(d) force
 -------------------------

 -----
 DPGEN
 -----
 Symbolic Z-matrix:
 Charge =  0 Multiplicity = 2

                         Standard orientation:
 ---------------------------------------------------------------------
 Center     Atomic      Atomic             Coordinates (Angstroms)
 Number     Number       Type             X           Y           Z
 ---------------------------------------------------------------------
      1         11           0       -1.758553   -0.852697    1.588070
      2         11           0       -1.531176    2.308957    0.128373
      3         11           0        3.844770   -0.662052   -0.988028
      4         11           0        1.851726   -0.977931    1.682529
      5         11           0        1.942738    1.893692   -0.070573
      6         11           0       -0.292511   -1.122087   -1.510259
      7         11           0       -4.056994   -0.587882   -0.830112
 ---------------------------------------------------------------------

 SCF Done:  E(UB3LYP) =  -1136.11952840     A.U. after   33 cycles

 The electronic state is 2-A.
 Alpha  occ. eigenvalues --  -38.45831 -38.44898 -38.44472 -38.44301 -38.44205
 Alpha  occ. eigenvalues --  -38.42984 -38.42341  -2.21600  -2.20697  -2.20308
 Alpha  occ. eigenvalues --   -2.20177  -2.20094  -2.18851  -2.18164  -1.15314
 Alpha  occ. eigenvalues --   -1.15274  -1.15199  -1.14377  -1.14341  -1.14321
 Alpha  occ. eigenvalues --   -1.13977  -1.13971  -1.13941  -1.13850  -1.13833
 Alpha  occ. eigenvalues --   -1.13794  -1.13777  -1.13734  -1.13712  -1.12544
 Alpha  occ. eigenvalues --   -1.12530  -1.12464  -1.11849  -1.11839  -1.11788
 Alpha  occ. eigenvalues --   -0.18136  -0.14479  -0.11241  -0.10554
 Alpha virt. eigenvalues --   -0.07282  -0.05349  -0.04976  -0.03162  -0.03028
 Alpha virt. eigenvalues --   -0.02376  -0.02031  -0.01517  -0.00890  -0.00338
 Alpha virt. eigenvalues --   -0.00025   0.00180   0.00305   0.00424   0.00640

  Beta  occ. eigenvalues --  -38.45821 -38.44873 -38.44446 -38.44241 -38.44155
  Beta  occ. eigenvalues --  -38.42975 -38.42339  -2.21582  -2.20650  -2.20259
  Beta  occ. eigenvalues --   -2.20070  -2.20005  -2.18836  -2.18162  -1.15286
  Beta  occ. eigenvalues --   -1.15260  -1.15188  -1.14344  -1.14307  -1.14290
  Beta  occ. eigenvalues --   -1.13945  -1.13930  -1.13909  -1.13776  -1.13759
  Beta  occ. eigenvalues --   -1.13726  -1.13692  -1.13672  -1.13622  -1.12525
  Beta  occ. eigenvalues --   -1.12523  -1.12449  -1.11842  -1.11838  -1.11786
  Beta  occ. eigenvalues --   -0.17479  -0.14228  -0.10462
  Beta virt. eigenvalues --   -0.07317  -0.07082  -0.05028  -0.04552  -0.02897
  Beta virt. eigenvalues --   -0.02852  -0.01677  -0.01572  -0.01208  -0.00614
  Beta virt. eigenvalues --   -0.00241   0.00039   0.00263   0.00390   0.00574

 Mulliken charges and spin densities:
               1          2
     1  Na  -0.138056   0.171435
     2  Na  -0.428130   0.018359
     3  Na   1.004791   0.229501
     4  Na  -0.114611   0.112025
     5  Na  -0.575346   0.140024
     6  Na  -0.748287   0.144745
     7  Na   0.999640   0.183912
 Sum of Mulliken charges =  -0.00000   1.00000

 Dipole moment (field-independent basis, Debye):
    X=             -0.2355    Y=             -0.7586    Z=             -0.4011  Tot=              0.8898
 Quadrupole moment (field-independent basis, Debye-Ang):
   XX=            -47.6685   YY=            -81.8554   ZZ=            -66.7171
   XY=             -1.2357   XZ=             -0.4585   YZ=             -0.9998

 Normal termination of Gaussian 16 at Wed Dec  6 01:06:36 2023.
