 Gaussian 16, Revision B.01,
 Gaussian 16:  ES64L-G16RevB.01 20-Dec-2017

 -------------------------
 #P B3LYP/6-311+g(d) force
 -------------------------

 -----
 DPGEN
 -----
 Symbolic Z-matrix:
 Charge =  0 Multiplicity = 2

                         Standard orientation:
 ---------------------------------------------------------------------
 Center     Atomic      Atomic             Coordinates (Angstroms)
 Number     Number       Type             X           Y           Z
 ---------------------------------------------------------------------
      1         11           0        0.023357    3.030302   -0.842332
      2         11           0        2.489742   -1.928857   -0.925172
      3         11           0       -1.092245    1.227213    1.053502
      4         11           0       -0.470745   -1.742787    1.389682
      5         11           0        2.491213    0.822207    1.136174
      6         11           0       -3.227647   -0.962989   -0.302053
      7         11           0       -0.213677   -0.445091   -1.509802
 ---------------------------------------------------------------------

 SCF Done:  E(UB3LYP) =  -1136.12767773     A.U. after   19 cycles

 The electronic state is 2-A.
 Alpha  occ. eigenvalues --  -38.44217 -38.44044 -38.43609 -38.43423 -38.43236
 Alpha  occ. eigenvalues --  -38.43175 -38.43004  -2.20039  -2.19910  -2.19565
 Alpha  occ. eigenvalues --   -2.19277  -2.19210  -2.19123  -2.19066  -1.13720
 Alpha  occ. eigenvalues --   -1.13697  -1.13659  -1.13586  -1.13568  -1.13556
 Alpha  occ. eigenvalues --   -1.13331  -1.13228  -1.13135  -1.13027  -1.13011
 Alpha  occ. eigenvalues --   -1.12928  -1.12919  -1.12901  -1.12831  -1.12804
 Alpha  occ. eigenvalues --   -1.12757  -1.12740  -1.12717  -1.12666  -1.12582
 Alpha  occ. eigenvalues --   -0.19062  -0.13072  -0.12357  -0.11131
 Alpha virt. eigenvalues --   -0.05658  -0.04814  -0.04289  -0.03245  -0.03062
 Alpha virt. eigenvalues --   -0.02456  -0.01708  -0.00898  -0.00467   0.00244
 Alpha virt. eigenvalues --    0.00354   0.00403   0.00694   0.00781   0.00910

  Beta  occ. eigenvalues --  -38.44192 -38.44041 -38.43563 -38.43405 -38.43225
  Beta  occ. eigenvalues --  -38.43110 -38.42974  -2.19995  -2.19907  -2.19483
  Beta  occ. eigenvalues --   -2.19246  -2.19102  -2.19093  -2.19019  -1.13675
  Beta  occ. eigenvalues --   -1.13664  -1.13635  -1.13579  -1.13564  -1.13545
  Beta  occ. eigenvalues --   -1.13276  -1.13147  -1.13081  -1.12992  -1.12971
  Beta  occ. eigenvalues --   -1.12901  -1.12880  -1.12852  -1.12765  -1.12731
  Beta  occ. eigenvalues --   -1.12717  -1.12707  -1.12689  -1.12604  -1.12552
  Beta  occ. eigenvalues --   -0.18292  -0.12854  -0.12143
  Beta virt. eigenvalues --   -0.07158  -0.05535  -0.04608  -0.04208  -0.02667
  Beta virt. eigenvalues --   -0.02481  -0.01660  -0.01444  -0.00819  -0.00141
  Beta virt. eigenvalues --    0.00226   0.00391   0.00457   0.00793   0.00814

 Mulliken charges and spin densities:
               1          2
     1  Na   0.057421  -0.204117
     2  Na   0.472974  -0.035203
     3  Na   0.184693   0.466125
     4  Na  -0.278609   0.288373
     5  Na  -0.359128   0.078784
     6  Na   0.448514  -0.086769
     7  Na  -0.525866   0.492807
 Sum of Mulliken charges =  -0.00000   1.00000

 Dipole moment (field-independent basis, Debye):
    X=             -0.0542    Y=             -0.2640    Z=              0.0571  Tot=              0.2755
 Quadrupole moment (field-independent basis, Debye-Ang):
   XX=            -55.8597   YY=            -66.5312   ZZ=            -69.9331
   XY=              1.8702   XZ=              1.7113   YZ=             -1.0366

 Normal termination of Gaussian 16 at Thu Dec  7 22:10:55 2023.
