 Gaussian 16, Revision B.01,
 Gaussian 16:  ES64L-G16RevB.01 20-Dec-2017

 -------------------------
 #P B3LYP/6-311+g(d) force
 -------------------------

 -----
 DPGEN
 -----
 Symbolic Z-matrix:
 Charge =  0 Multiplicity = 2

                         Standard orientation:
 ---------------------------------------------------------------------
 Center     Atomic      Atomic             Coordinates (Angstroms)
 Number     Number       Type             X           Y           Z
 ---------------------------------------------------------------------
      1         11           0       -1.701892    1.854083   -0.514315
      2         11           0        1.769307    2.122908    0.105335
      3         11           0       -3.338361   -0.486270    0.203790
      4         11           0       -0.722431   -2.117172   -0.527944
      5         11           0        1.417499   -0.228314   -1.815794
      6         11           0        2.667077   -1.281340    0.740894
      7         11           0       -0.091199    0.136104    1.808035
 ---------------------------------------------------------------------

 SCF Done:  E(UB3LYP) =  -1136.12670278     A.U. after   21 cycles

 The electronic state is 2-A.
 Alpha  occ. eigenvalues --  -38.44473 -38.44188 -38.43696 -38.43653 -38.43463
 Alpha  occ. eigenvalues --  -38.43067 -38.42954  -2.20367  -2.20096  -2.19696
 Alpha  occ. eigenvalues --   -2.19650  -2.19372  -2.18993  -2.18882  -1.14089
 Alpha  occ. eigenvalues --   -1.14019  -1.13999  -1.13816  -1.13776  -1.13704
 Alpha  occ. eigenvalues --   -1.13373  -1.13359  -1.13336  -1.13297  -1.13288
 Alpha  occ. eigenvalues --   -1.13278  -1.13044  -1.13018  -1.13011  -1.12677
 Alpha  occ. eigenvalues --   -1.12661  -1.12600  -1.12581  -1.12555  -1.12488
 Alpha  occ. eigenvalues --   -0.19440  -0.14049  -0.11859  -0.11322
 Alpha virt. eigenvalues --   -0.06129  -0.05069  -0.04026  -0.03492  -0.02761
 Alpha virt. eigenvalues --   -0.02679  -0.01785  -0.00828  -0.00240   0.00109
 Alpha virt. eigenvalues --    0.00240   0.00357   0.00717   0.00877   0.00918

  Beta  occ. eigenvalues --  -38.44475 -38.44167 -38.43624 -38.43575 -38.43455
  Beta  occ. eigenvalues --  -38.43057 -38.42939  -2.20372  -2.20062  -2.19564
  Beta  occ. eigenvalues --   -2.19510  -2.19360  -2.18980  -2.18859  -1.14094
  Beta  occ. eigenvalues --   -1.14025  -1.13991  -1.13790  -1.13725  -1.13681
  Beta  occ. eigenvalues --   -1.13279  -1.13273  -1.13247  -1.13203  -1.13190
  Beta  occ. eigenvalues --   -1.13171  -1.13032  -1.13007  -1.12989  -1.12667
  Beta  occ. eigenvalues --   -1.12624  -1.12588  -1.12568  -1.12507  -1.12476
  Beta  occ. eigenvalues --   -0.18693  -0.13841  -0.11602
  Beta virt. eigenvalues --   -0.07292  -0.06007  -0.05048  -0.03642  -0.03130
  Beta virt. eigenvalues --   -0.01987  -0.01734  -0.01578  -0.00776  -0.00050
  Beta virt. eigenvalues --    0.00134   0.00231   0.00391   0.00867   0.00921

 Mulliken charges and spin densities:
               1          2
     1  Na  -0.400031  -0.004775
     2  Na   0.201660   0.009043
     3  Na   0.571427  -0.036772
     4  Na  -0.400870   0.046871
     5  Na   0.103271   0.484519
     6  Na   0.283440  -0.052797
     7  Na  -0.358897   0.553911
 Sum of Mulliken charges =  -0.00000   1.00000

 Dipole moment (field-independent basis, Debye):
    X=             -0.2005    Y=             -0.1163    Z=              0.1740  Tot=              0.2898
 Quadrupole moment (field-independent basis, Debye-Ang):
   XX=            -52.2561   YY=            -72.1217   ZZ=            -70.5397
   XY=             -0.1122   XZ=              1.0556   YZ=             -1.5697

 Normal termination of Gaussian 16 at Sat Dec  9 07:19:08 2023.
