 Gaussian 16, Revision B.01,
 Gaussian 16:  ES64L-G16RevB.01 20-Dec-2017

 -------------------------
 #P B3LYP/6-311+g(d) force
 -------------------------

 -----
 DPGEN
 -----
 Symbolic Z-matrix:
 Charge =  0 Multiplicity = 2

                         Standard orientation:
 ---------------------------------------------------------------------
 Center     Atomic      Atomic             Coordinates (Angstroms)
 Number     Number       Type             X           Y           Z
 ---------------------------------------------------------------------
      1         11           0        2.899880   -1.257137   -0.421865
      2         11           0        1.920879    2.646855    0.414721
      3         11           0        0.186896    0.220225    2.103705
      4         11           0       -2.438370    1.737013   -0.850041
      5         11           0        0.320669    0.347347   -1.573569
      6         11           0       -3.078814   -1.022717    0.488522
      7         11           0        0.188861   -2.671586   -0.161473
 ---------------------------------------------------------------------

 SCF Done:  E(UB3LYP) =  -1136.13095794     A.U. after   20 cycles

 The electronic state is 2-A.
 Alpha  occ. eigenvalues --  -38.44172 -38.44056 -38.44007 -38.43980 -38.43497
 Alpha  occ. eigenvalues --  -38.43392 -38.43045  -2.20044  -2.19920  -2.19840
 Alpha  occ. eigenvalues --   -2.19832  -2.19371  -2.19305  -2.18937  -1.13742
 Alpha  occ. eigenvalues --   -1.13711  -1.13664  -1.13592  -1.13585  -1.13556
 Alpha  occ. eigenvalues --   -1.13540  -1.13537  -1.13495  -1.13475  -1.13458
 Alpha  occ. eigenvalues --   -1.13409  -1.13051  -1.13021  -1.13015  -1.12976
 Alpha  occ. eigenvalues --   -1.12949  -1.12939  -1.12621  -1.12599  -1.12567
 Alpha  occ. eigenvalues --   -0.18489  -0.13290  -0.12133  -0.11121
 Alpha virt. eigenvalues --   -0.05727  -0.05338  -0.04375  -0.03322  -0.02962
 Alpha virt. eigenvalues --   -0.02778  -0.01676  -0.01214  -0.00367  -0.00088
 Alpha virt. eigenvalues --   -0.00008   0.00321   0.00739   0.00833   0.00875

  Beta  occ. eigenvalues --  -38.44162 -38.44003 -38.43964 -38.43953 -38.43492
  Beta  occ. eigenvalues --  -38.43335 -38.43041  -2.20027  -2.19829  -2.19791
  Beta  occ. eigenvalues --   -2.19751  -2.19300  -2.19269  -2.18933  -1.13728
  Beta  occ. eigenvalues --   -1.13692  -1.13648  -1.13577  -1.13501  -1.13482
  Beta  occ. eigenvalues --   -1.13476  -1.13465  -1.13442  -1.13424  -1.13404
  Beta  occ. eigenvalues --   -1.13389  -1.12986  -1.12977  -1.12955  -1.12947
  Beta  occ. eigenvalues --   -1.12936  -1.12903  -1.12619  -1.12594  -1.12543
  Beta  occ. eigenvalues --   -0.17786  -0.13052  -0.11853
  Beta virt. eigenvalues --   -0.07265  -0.05639  -0.05185  -0.04261  -0.02725
  Beta virt. eigenvalues --   -0.02252  -0.01789  -0.01570  -0.01074  -0.00306
  Beta virt. eigenvalues --   -0.00100   0.00095   0.00364   0.00837   0.00842

 Mulliken charges and spin densities:
               1          2
     1  Na   0.439656   0.025446
     2  Na  -0.071773   0.019929
     3  Na  -0.386117   0.590427
     4  Na   0.232129   0.080783
     5  Na  -0.082923   0.076874
     6  Na  -0.047014   0.075266
     7  Na  -0.083959   0.131275
 Sum of Mulliken charges =  -0.00000   1.00000

 Dipole moment (field-independent basis, Debye):
    X=              0.1491    Y=              0.0837    Z=              0.2484  Tot=              0.3016
 Quadrupole moment (field-independent basis, Debye-Ang):
   XX=            -55.8418   YY=            -66.2457   ZZ=            -72.6719
   XY=              0.5769   XZ=             -0.6090   YZ=             -0.8614

 Normal termination of Gaussian 16 at Fri Dec  8 02:08:04 2023.
