 Gaussian 16, Revision B.01,
 Gaussian 16:  ES64L-G16RevB.01 20-Dec-2017

 -------------------------
 #P B3LYP/6-311+g(d) force
 -------------------------

 -----
 DPGEN
 -----
 Symbolic Z-matrix:
 Charge =  0 Multiplicity = 2

                         Standard orientation:
 ---------------------------------------------------------------------
 Center     Atomic      Atomic             Coordinates (Angstroms)
 Number     Number       Type             X           Y           Z
 ---------------------------------------------------------------------
      1         11           0       -2.545529    1.106189    0.679108
      2         11           0        1.464277    1.147592   -0.289971
      3         11           0        2.459846   -2.699647   -0.016823
      4         11           0       -0.875761   -1.524146   -0.276770
      5         11           0       -3.801821   -2.262206   -0.078178
      6         11           0        4.388296    0.447469    0.298698
      7         11           0       -1.089309    3.784748   -0.316063
 ---------------------------------------------------------------------

 SCF Done:  E(UB3LYP) =  -1136.12309170     A.U. after   25 cycles

 The electronic state is 2-A.
 Alpha  occ. eigenvalues --  -38.44451 -38.44423 -38.44287 -38.43833 -38.43652
 Alpha  occ. eigenvalues --  -38.43565 -38.43406  -2.20284  -2.20254  -2.20146
 Alpha  occ. eigenvalues --   -2.19643  -2.19513  -2.19418  -2.19334  -1.14001
 Alpha  occ. eigenvalues --   -1.13976  -1.13924  -1.13909  -1.13883  -1.13877
 Alpha  occ. eigenvalues --   -1.13867  -1.13843  -1.13748  -1.13317  -1.13302
 Alpha  occ. eigenvalues --   -1.13272  -1.13178  -1.13176  -1.13143  -1.13108
 Alpha  occ. eigenvalues --   -1.13061  -1.13045  -1.13021  -1.13000  -1.12894
 Alpha  occ. eigenvalues --   -0.17214  -0.14171  -0.12811  -0.10302
 Alpha virt. eigenvalues --   -0.06544  -0.05602  -0.04119  -0.03484  -0.02586
 Alpha virt. eigenvalues --   -0.02391  -0.01976  -0.01721  -0.01109  -0.00624
 Alpha virt. eigenvalues --    0.00014   0.00115   0.00434   0.00485   0.00648

  Beta  occ. eigenvalues --  -38.44418 -38.44401 -38.44272 -38.43836 -38.43569
  Beta  occ. eigenvalues --  -38.43528 -38.43383  -2.20277  -2.20165  -2.20123
  Beta  occ. eigenvalues --   -2.19649  -2.19359  -2.19348  -2.19299  -1.14001
  Beta  occ. eigenvalues --   -1.13973  -1.13866  -1.13864  -1.13839  -1.13829
  Beta  occ. eigenvalues --   -1.13809  -1.13806  -1.13739  -1.13321  -1.13305
  Beta  occ. eigenvalues --   -1.13275  -1.13135  -1.13069  -1.13039  -1.13017
  Beta  occ. eigenvalues --   -1.13009  -1.13003  -1.12986  -1.12977  -1.12832
  Beta  occ. eigenvalues --   -0.16799  -0.13539  -0.12442
  Beta virt. eigenvalues --   -0.06667  -0.06354  -0.05496  -0.03981  -0.02910
  Beta virt. eigenvalues --   -0.02330  -0.02163  -0.01862  -0.01149  -0.00979
  Beta virt. eigenvalues --   -0.00299   0.00244   0.00390   0.00518   0.00630

 Mulliken charges and spin densities:
               1          2
     1  Na  -0.197158   0.024385
     2  Na  -1.793495   0.168027
     3  Na   0.395463  -0.023235
     4  Na  -1.491657   0.311183
     5  Na   1.556001   0.262828
     6  Na   0.661248   0.220515
     7  Na   0.869598   0.036298
 Sum of Mulliken charges =  -0.00000   1.00000

 Dipole moment (field-independent basis, Debye):
    X=             -0.3438    Y=             -0.1724    Z=              0.0705  Tot=              0.3910
 Quadrupole moment (field-independent basis, Debye-Ang):
   XX=            -62.6602   YY=            -61.1269   ZZ=            -71.4089
   XY=             -6.4107   XZ=             -0.0619   YZ=             -1.0269

 Normal termination of Gaussian 16 at Tue Nov 28 21:12:47 2023.
