 Gaussian 16, Revision B.01,
 Gaussian 16:  ES64L-G16RevB.01 20-Dec-2017

 -------------------------
 #P B3LYP/6-311+g(d) force
 -------------------------

 -----
 DPGEN
 -----
 Symbolic Z-matrix:
 Charge =  0 Multiplicity = 2

                         Standard orientation:
 ---------------------------------------------------------------------
 Center     Atomic      Atomic             Coordinates (Angstroms)
 Number     Number       Type             X           Y           Z
 ---------------------------------------------------------------------
      1         11           0       -0.397012    1.517945   -0.786419
      2         11           0       -2.662204    3.674742    0.138493
      3         11           0       -2.918900   -0.172057   -0.025389
      4         11           0       -2.554642   -3.595423   -0.087950
      5         11           0       -0.162044   -1.835682    0.307568
      6         11           0        3.008691    0.722022    1.035415
      7         11           0        5.686110   -0.311546   -0.581718
 ---------------------------------------------------------------------

 SCF Done:  E(UB3LYP) =  -1136.11924999     A.U. after   21 cycles

 The electronic state is 2-A.
 Alpha  occ. eigenvalues --  -38.44842 -38.44245 -38.44203 -38.44071 -38.43762
 Alpha  occ. eigenvalues --  -38.43714 -38.43361  -2.20727  -2.20067  -2.20049
 Alpha  occ. eigenvalues --   -2.19990  -2.19668  -2.19515  -2.19142  -1.14479
 Alpha  occ. eigenvalues --   -1.14427  -1.14295  -1.13828  -1.13721  -1.13710
 Alpha  occ. eigenvalues --   -1.13706  -1.13705  -1.13673  -1.13669  -1.13655
 Alpha  occ. eigenvalues --   -1.13528  -1.13383  -1.13333  -1.13250  -1.13155
 Alpha  occ. eigenvalues --   -1.13154  -1.13146  -1.12832  -1.12815  -1.12783
 Alpha  occ. eigenvalues --   -0.17472  -0.13425  -0.13076  -0.10319
 Alpha virt. eigenvalues --   -0.06381  -0.05198  -0.05054  -0.03565  -0.02524
 Alpha virt. eigenvalues --   -0.02441  -0.02098  -0.01710  -0.00948  -0.00707
 Alpha virt. eigenvalues --   -0.00336   0.00116   0.00299   0.00451   0.00512

  Beta  occ. eigenvalues --  -38.44832 -38.44216 -38.44182 -38.44041 -38.43732
  Beta  occ. eigenvalues --  -38.43629 -38.43371  -2.20711  -2.20028  -2.19994
  Beta  occ. eigenvalues --   -2.19939  -2.19616  -2.19356  -2.19168  -1.14448
  Beta  occ. eigenvalues --   -1.14417  -1.14284  -1.13798  -1.13684  -1.13682
  Beta  occ. eigenvalues --   -1.13674  -1.13668  -1.13635  -1.13632  -1.13623
  Beta  occ. eigenvalues --   -1.13480  -1.13353  -1.13302  -1.13183  -1.13049
  Beta  occ. eigenvalues --   -1.13046  -1.13044  -1.12857  -1.12835  -1.12753
  Beta  occ. eigenvalues --   -0.16931  -0.13118  -0.12457
  Beta virt. eigenvalues --   -0.07009  -0.06104  -0.04950  -0.04608  -0.03253
  Beta virt. eigenvalues --   -0.02406  -0.02134  -0.01980  -0.01403  -0.00636
  Beta virt. eigenvalues --   -0.00397  -0.00050   0.00283   0.00459   0.00538

 Mulliken charges and spin densities:
               1          2
     1  Na  -1.086202  -0.108456
     2  Na   0.865685   0.239316
     3  Na  -0.255866   0.272825
     4  Na   1.519913   0.220711
     5  Na  -1.373735   0.005645
     6  Na   0.264345  -0.045165
     7  Na   0.065859   0.415124
 Sum of Mulliken charges =  -0.00000   1.00000

 Dipole moment (field-independent basis, Debye):
    X=             -1.9524    Y=             -0.3706    Z=             -0.0637  Tot=              1.9883
 Quadrupole moment (field-independent basis, Debye-Ang):
   XX=            -73.7859   YY=            -57.1750   ZZ=            -69.4558
   XY=             -0.7992   XZ=             -2.8387   YZ=              2.4544

 Normal termination of Gaussian 16 at Tue Nov 28 22:15:20 2023.
