 Gaussian 16, Revision B.01,
 Gaussian 16:  ES64L-G16RevB.01 20-Dec-2017

 -------------------------
 #P B3LYP/6-311+g(d) force
 -------------------------

 -----
 DPGEN
 -----
 Symbolic Z-matrix:
 Charge =  0 Multiplicity = 2

                         Standard orientation:
 ---------------------------------------------------------------------
 Center     Atomic      Atomic             Coordinates (Angstroms)
 Number     Number       Type             X           Y           Z
 ---------------------------------------------------------------------
      1         11           0        0.193959    0.096987   -1.345957
      2         11           0        2.654564   -2.066782   -0.260657
      3         11           0        3.003988    1.265306    0.122902
      4         11           0       -0.539328    3.028189    0.153447
      5         11           0       -1.846761   -2.636147    0.160077
      6         11           0       -0.338323   -0.211899    1.656994
      7         11           0       -3.128098    0.524346   -0.486806
 ---------------------------------------------------------------------

 SCF Done:  E(UB3LYP) =  -1136.13250577     A.U. after   20 cycles

 The electronic state is 2-A.
 Alpha  occ. eigenvalues --  -38.44465 -38.44112 -38.44110 -38.43687 -38.43201
 Alpha  occ. eigenvalues --  -38.43187 -38.42871  -2.20285  -2.19960  -2.19922
 Alpha  occ. eigenvalues --   -2.19524  -2.19189  -2.19035  -2.18842  -1.13969
 Alpha  occ. eigenvalues --   -1.13950  -1.13917  -1.13634  -1.13619  -1.13596
 Alpha  occ. eigenvalues --   -1.13590  -1.13574  -1.13560  -1.13213  -1.13177
 Alpha  occ. eigenvalues --   -1.13163  -1.12966  -1.12826  -1.12799  -1.12704
 Alpha  occ. eigenvalues --   -1.12695  -1.12670  -1.12539  -1.12449  -1.12439
 Alpha  occ. eigenvalues --   -0.18522  -0.13492  -0.12211  -0.09861
 Alpha virt. eigenvalues --   -0.05922  -0.05669  -0.04804  -0.03046  -0.02426
 Alpha virt. eigenvalues --   -0.01974  -0.01688  -0.01432  -0.00778  -0.00589
 Alpha virt. eigenvalues --    0.00024   0.00300   0.00706   0.00765   0.00807

  Beta  occ. eigenvalues --  -38.44463 -38.44105 -38.44085 -38.43680 -38.43197
  Beta  occ. eigenvalues --  -38.43145 -38.42790  -2.20284  -2.19918  -2.19910
  Beta  occ. eigenvalues --   -2.19514  -2.19114  -2.19030  -2.18693  -1.13963
  Beta  occ. eigenvalues --   -1.13949  -1.13905  -1.13599  -1.13580  -1.13578
  Beta  occ. eigenvalues --   -1.13567  -1.13562  -1.13546  -1.13197  -1.13164
  Beta  occ. eigenvalues --   -1.13150  -1.12896  -1.12785  -1.12741  -1.12691
  Beta  occ. eigenvalues --   -1.12685  -1.12654  -1.12437  -1.12349  -1.12325
  Beta  occ. eigenvalues --   -0.17872  -0.13214  -0.11954
  Beta virt. eigenvalues --   -0.06164  -0.05804  -0.05582  -0.04777  -0.02349
  Beta virt. eigenvalues --   -0.01851  -0.01721  -0.01369  -0.00900  -0.00753
  Beta virt. eigenvalues --   -0.00552   0.00176   0.00370   0.00771   0.00779

 Mulliken charges and spin densities:
               1          2
     1  Na  -0.370057   0.266083
     2  Na   0.101828  -0.017980
     3  Na   0.159743  -0.005339
     4  Na  -0.009061  -0.004697
     5  Na   0.129387  -0.029930
     6  Na  -0.182205   0.615417
     7  Na   0.170365   0.176446
 Sum of Mulliken charges =  -0.00000   1.00000

 Dipole moment (field-independent basis, Debye):
    X=              0.3467    Y=             -0.0905    Z=              0.1133  Tot=              0.3758
 Quadrupole moment (field-independent basis, Debye-Ang):
   XX=            -52.8943   YY=            -59.3700   ZZ=            -78.2138
   XY=              0.7011   XZ=              1.2003   YZ=              1.0622

 Normal termination of Gaussian 16 at Sat Dec  9 06:02:15 2023.
