 Gaussian 16, Revision B.01,
 Gaussian 16:  ES64L-G16RevB.01 20-Dec-2017

 -------------------------
 #P B3LYP/6-311+g(d) force
 -------------------------

 -----
 DPGEN
 -----
 Symbolic Z-matrix:
 Charge =  0 Multiplicity = 2

                         Standard orientation:
 ---------------------------------------------------------------------
 Center     Atomic      Atomic             Coordinates (Angstroms)
 Number     Number       Type             X           Y           Z
 ---------------------------------------------------------------------
      1         11           0       -1.663975   -0.307711    1.689377
      2         11           0       -2.048881   -2.776967   -0.460764
      3         11           0       -1.433754    2.985470    0.665999
      4         11           0       -1.471048    0.494616   -1.544851
      5         11           0        1.358128    1.564031   -0.949519
      6         11           0        4.274426   -0.421841    0.379441
      7         11           0        0.985102   -1.537598    0.220317
 ---------------------------------------------------------------------

 SCF Done:  E(UB3LYP) =  -1136.13118339     A.U. after   20 cycles

 The electronic state is 2-A.
 Alpha  occ. eigenvalues --  -38.44094 -38.43814 -38.43671 -38.43645 -38.43555
 Alpha  occ. eigenvalues --  -38.43415 -38.43384  -2.19868  -2.19678  -2.19610
 Alpha  occ. eigenvalues --   -2.19541  -2.19406  -2.19399  -2.19305  -1.13539
 Alpha  occ. eigenvalues --   -1.13534  -1.13492  -1.13360  -1.13347  -1.13334
 Alpha  occ. eigenvalues --   -1.13328  -1.13306  -1.13271  -1.13211  -1.13190
 Alpha  occ. eigenvalues --   -1.13153  -1.13092  -1.13064  -1.13059  -1.13046
 Alpha  occ. eigenvalues --   -1.13023  -1.13020  -1.12995  -1.12957  -1.12872
 Alpha  occ. eigenvalues --   -0.18658  -0.13034  -0.12746  -0.10723
 Alpha virt. eigenvalues --   -0.06206  -0.05021  -0.04532  -0.03202  -0.02923
 Alpha virt. eigenvalues --   -0.02174  -0.01869  -0.01449  -0.00413  -0.00280
 Alpha virt. eigenvalues --    0.00106   0.00290   0.00605   0.00778   0.00851

  Beta  occ. eigenvalues --  -38.44090 -38.43806 -38.43618 -38.43604 -38.43537
  Beta  occ. eigenvalues --  -38.43373 -38.43355  -2.19861  -2.19666  -2.19496
  Beta  occ. eigenvalues --   -2.19486  -2.19377  -2.19294  -2.19287  -1.13534
  Beta  occ. eigenvalues --   -1.13527  -1.13489  -1.13347  -1.13335  -1.13304
  Beta  occ. eigenvalues --   -1.13282  -1.13231  -1.13192  -1.13165  -1.13123
  Beta  occ. eigenvalues --   -1.13105  -1.13065  -1.13031  -1.13014  -1.13000
  Beta  occ. eigenvalues --   -1.12992  -1.12951  -1.12946  -1.12888  -1.12864
  Beta  occ. eigenvalues --   -0.17954  -0.12867  -0.12488
  Beta virt. eigenvalues --   -0.06854  -0.05922  -0.04950  -0.04385  -0.02544
  Beta virt. eigenvalues --   -0.02466  -0.01852  -0.01347  -0.01231  -0.00351
  Beta virt. eigenvalues --   -0.00024   0.00192   0.00397   0.00759   0.00829

 Mulliken charges and spin densities:
               1          2
     1  Na  -0.225913   0.334266
     2  Na   0.897305   0.025210
     3  Na   0.142052   0.031853
     4  Na  -0.070406   0.412337
     5  Na  -0.076996   0.049080
     6  Na   0.372268  -0.000148
     7  Na  -1.038310   0.147403
 Sum of Mulliken charges =  -0.00000   1.00000

 Dipole moment (field-independent basis, Debye):
    X=             -0.0495    Y=             -0.0738    Z=             -0.0399  Tot=              0.0974
 Quadrupole moment (field-independent basis, Debye-Ang):
   XX=            -56.9833   YY=            -61.3514   ZZ=            -73.1888
   XY=              2.7374   XZ=              2.1087   YZ=              1.6172

 Normal termination of Gaussian 16 at Wed Dec  6 00:52:19 2023.
