 Gaussian 16, Revision B.01,
 Gaussian 16:  ES64L-G16RevB.01 20-Dec-2017

 -------------------------
 #P B3LYP/6-311+g(d) force
 -------------------------

 -----
 DPGEN
 -----
 Symbolic Z-matrix:
 Charge =  0 Multiplicity = 2

                         Standard orientation:
 ---------------------------------------------------------------------
 Center     Atomic      Atomic             Coordinates (Angstroms)
 Number     Number       Type             X           Y           Z
 ---------------------------------------------------------------------
      1         11           0       -2.716240    0.074957    2.262403
      2         11           0        3.967769    0.019545    1.126713
      3         11           0        0.606059    2.919070   -0.828316
      4         11           0        0.494091    0.026698    0.803731
      5         11           0       -2.330100    0.988693   -1.459261
      6         11           0       -1.623723   -2.201723   -0.443873
      7         11           0        1.602143   -1.827240   -1.461398
 ---------------------------------------------------------------------

 SCF Done:  E(UB3LYP) =  -1136.12302096     A.U. after   24 cycles

 The electronic state is 2-A.
 Alpha  occ. eigenvalues --  -38.44943 -38.44650 -38.44265 -38.43888 -38.43144
 Alpha  occ. eigenvalues --  -38.43106 -38.43046  -2.20706  -2.20471  -2.20090
 Alpha  occ. eigenvalues --   -2.19726  -2.19095  -2.18938  -2.18927  -1.14379
 Alpha  occ. eigenvalues --   -1.14349  -1.14325  -1.14134  -1.14097  -1.14075
 Alpha  occ. eigenvalues --   -1.13770  -1.13738  -1.13720  -1.13449  -1.13378
 Alpha  occ. eigenvalues --   -1.13330  -1.12833  -1.12773  -1.12721  -1.12610
 Alpha  occ. eigenvalues --   -1.12606  -1.12604  -1.12595  -1.12560  -1.12542
 Alpha  occ. eigenvalues --   -0.17882  -0.13238  -0.11514  -0.11246
 Alpha virt. eigenvalues --   -0.06449  -0.05120  -0.04409  -0.03236  -0.02716
 Alpha virt. eigenvalues --   -0.02445  -0.02205  -0.01146  -0.00686  -0.00192
 Alpha virt. eigenvalues --   -0.00045   0.00140   0.00275   0.00604   0.00759

  Beta  occ. eigenvalues --  -38.44912 -38.44558 -38.44240 -38.43869 -38.43139
  Beta  occ. eigenvalues --  -38.43093 -38.43036  -2.20648  -2.20300  -2.20044
  Beta  occ. eigenvalues --   -2.19692  -2.19075  -2.18931  -2.18914  -1.14336
  Beta  occ. eigenvalues --   -1.14311  -1.14289  -1.14011  -1.13980  -1.13966
  Beta  occ. eigenvalues --   -1.13732  -1.13704  -1.13687  -1.13427  -1.13356
  Beta  occ. eigenvalues --   -1.13293  -1.12784  -1.12768  -1.12712  -1.12605
  Beta  occ. eigenvalues --   -1.12596  -1.12593  -1.12587  -1.12550  -1.12512
  Beta  occ. eigenvalues --   -0.17279  -0.12852  -0.11199
  Beta virt. eigenvalues --   -0.07685  -0.06075  -0.04670  -0.04287  -0.03030
  Beta virt. eigenvalues --   -0.02174  -0.02057  -0.01748  -0.00702  -0.00599
  Beta virt. eigenvalues --   -0.00070   0.00185   0.00249   0.00384   0.00660

 Mulliken charges and spin densities:
               1          2
     1  Na   1.134749   0.126203
     2  Na   0.454729   0.288329
     3  Na  -0.174841   0.062098
     4  Na  -2.014413   0.031778
     5  Na   0.267412   0.233030
     6  Na   0.425152   0.034704
     7  Na  -0.092788   0.223857
 Sum of Mulliken charges =  -0.00000   1.00000

 Dipole moment (field-independent basis, Debye):
    X=              0.2949    Y=             -0.1049    Z=              0.0052  Tot=              0.3130
 Quadrupole moment (field-independent basis, Debye-Ang):
   XX=            -51.4258   YY=            -74.4368   ZZ=            -65.7456
   XY=              0.7291   XZ=              0.8135   YZ=              1.5087

 Normal termination of Gaussian 16 at Tue Dec  5 16:02:58 2023.
