 Gaussian 16, Revision B.01,
 Gaussian 16:  ES64L-G16RevB.01 20-Dec-2017

 -------------------------
 #P B3LYP/6-311+g(d) force
 -------------------------

 -----
 DPGEN
 -----
 Symbolic Z-matrix:
 Charge =  0 Multiplicity = 2

                         Standard orientation:
 ---------------------------------------------------------------------
 Center     Atomic      Atomic             Coordinates (Angstroms)
 Number     Number       Type             X           Y           Z
 ---------------------------------------------------------------------
      1         11           0        2.095029    2.213006    0.005884
      2         11           0       -0.442700    0.219854    1.738524
      3         11           0       -1.317090   -2.564357    0.173175
      4         11           0        2.075612   -1.580817    0.721776
      5         11           0        4.373625   -0.396718   -1.437751
      6         11           0       -4.776415   -0.482184   -1.214642
      7         11           0       -2.008062    2.591218    0.013034
 ---------------------------------------------------------------------

 SCF Done:  E(UB3LYP) =  -1136.11826333     A.U. after   22 cycles

 The electronic state is 2-A.
 Alpha  occ. eigenvalues --  -38.45510 -38.44451 -38.44449 -38.43905 -38.43873
 Alpha  occ. eigenvalues --  -38.43602 -38.43551  -2.21272  -2.20254  -2.20213
 Alpha  occ. eigenvalues --   -2.19787  -2.19667  -2.19464  -2.19343  -1.14916
 Alpha  occ. eigenvalues --   -1.14898  -1.14877  -1.13923  -1.13911  -1.13907
 Alpha  occ. eigenvalues --   -1.13904  -1.13871  -1.13805  -1.13496  -1.13473
 Alpha  occ. eigenvalues --   -1.13405  -1.13349  -1.13330  -1.13286  -1.13177
 Alpha  occ. eigenvalues --   -1.13147  -1.13059  -1.13025  -1.13021  -1.12962
 Alpha  occ. eigenvalues --   -0.16945  -0.13750  -0.11660  -0.11619
 Alpha virt. eigenvalues --   -0.06165  -0.05657  -0.04756  -0.03516  -0.02980
 Alpha virt. eigenvalues --   -0.02555  -0.02079  -0.01097  -0.00890  -0.00717
 Alpha virt. eigenvalues --   -0.00338  -0.00067   0.00113   0.00236   0.00591

  Beta  occ. eigenvalues --  -38.45386 -38.44450 -38.44396 -38.43916 -38.43833
  Beta  occ. eigenvalues --  -38.43593 -38.43559  -2.21041  -2.20217  -2.20151
  Beta  occ. eigenvalues --   -2.19713  -2.19690  -2.19453  -2.19362  -1.14759
  Beta  occ. eigenvalues --   -1.14740  -1.14724  -1.13923  -1.13908  -1.13841
  Beta  occ. eigenvalues --   -1.13836  -1.13815  -1.13786  -1.13455  -1.13429
  Beta  occ. eigenvalues --   -1.13381  -1.13362  -1.13316  -1.13280  -1.13159
  Beta  occ. eigenvalues --   -1.13143  -1.13044  -1.13037  -1.13029  -1.12955
  Beta  occ. eigenvalues --   -0.16513  -0.12855  -0.11541
  Beta virt. eigenvalues --   -0.08082  -0.05875  -0.05134  -0.04522  -0.03488
  Beta virt. eigenvalues --   -0.02426  -0.02075  -0.01625  -0.00966  -0.00777
  Beta virt. eigenvalues --   -0.00386  -0.00239   0.00180   0.00304   0.00374

 Mulliken charges and spin densities:
               1          2
     1  Na  -0.358737  -0.021470
     2  Na   0.866191   0.089094
     3  Na  -0.212931  -0.010530
     4  Na  -0.429914  -0.013002
     5  Na   0.349300   0.303740
     6  Na  -0.006518   0.662794
     7  Na  -0.207390  -0.010627
 Sum of Mulliken charges =  -0.00000   1.00000

 Dipole moment (field-independent basis, Debye):
    X=              0.2517    Y=              0.0401    Z=             -0.7089  Tot=              0.7533
 Quadrupole moment (field-independent basis, Debye-Ang):
   XX=            -58.2462   YY=            -70.7431   ZZ=            -67.9757
   XY=             -0.0124   XZ=             -0.7039   YZ=              1.0187

 Normal termination of Gaussian 16 at Tue Nov 28 21:29:50 2023.
