 Gaussian 16, Revision B.01,
 Gaussian 16:  ES64L-G16RevB.01 20-Dec-2017

 -------------------------
 #P B3LYP/6-311+g(d) force
 -------------------------

 -----
 DPGEN
 -----
 Symbolic Z-matrix:
 Charge =  0 Multiplicity = 2

                         Standard orientation:
 ---------------------------------------------------------------------
 Center     Atomic      Atomic             Coordinates (Angstroms)
 Number     Number       Type             X           Y           Z
 ---------------------------------------------------------------------
      1         11           0       -2.253991   -2.084871   -0.057511
      2         11           0        0.055124   -0.453107    2.022229
      3         11           0       -2.499262    1.613219    0.251095
      4         11           0        3.234489    0.582067    0.042975
      5         11           0       -0.540001   -0.203936   -1.660879
      6         11           0        1.650043   -2.181771   -0.337854
      7         11           0        0.353597    2.728399   -0.260056
 ---------------------------------------------------------------------

 SCF Done:  E(UB3LYP) =  -1136.13447799     A.U. after   19 cycles

 The electronic state is 2-A.
 Alpha  occ. eigenvalues --  -38.44081 -38.43771 -38.43758 -38.43649 -38.43607
 Alpha  occ. eigenvalues --  -38.43238 -38.43142  -2.19899  -2.19657  -2.19629
 Alpha  occ. eigenvalues --   -2.19549  -2.19503  -2.19256  -2.19016  -1.13584
 Alpha  occ. eigenvalues --   -1.13558  -1.13547  -1.13384  -1.13360  -1.13319
 Alpha  occ. eigenvalues --   -1.13301  -1.13284  -1.13249  -1.13238  -1.13203
 Alpha  occ. eigenvalues --   -1.13193  -1.13158  -1.13135  -1.13112  -1.12914
 Alpha  occ. eigenvalues --   -1.12884  -1.12875  -1.12691  -1.12676  -1.12647
 Alpha  occ. eigenvalues --   -0.18909  -0.13195  -0.12526  -0.10871
 Alpha virt. eigenvalues --   -0.05624  -0.05305  -0.04449  -0.03308  -0.02902
 Alpha virt. eigenvalues --   -0.02623  -0.01498  -0.01114  -0.00270  -0.00118
 Alpha virt. eigenvalues --   -0.00005   0.00348   0.00816   0.00874   0.00925

  Beta  occ. eigenvalues --  -38.44083 -38.43765 -38.43751 -38.43596 -38.43557
  Beta  occ. eigenvalues --  -38.43170 -38.43138  -2.19904  -2.19649  -2.19622
  Beta  occ. eigenvalues --   -2.19487  -2.19380  -2.19132  -2.19011  -1.13590
  Beta  occ. eigenvalues --   -1.13552  -1.13547  -1.13369  -1.13354  -1.13303
  Beta  occ. eigenvalues --   -1.13277  -1.13258  -1.13242  -1.13204  -1.13149
  Beta  occ. eigenvalues --   -1.13107  -1.13091  -1.13050  -1.13034  -1.12831
  Beta  occ. eigenvalues --   -1.12801  -1.12786  -1.12682  -1.12656  -1.12641
  Beta  occ. eigenvalues --   -0.18170  -0.12986  -0.12278
  Beta virt. eigenvalues --   -0.06917  -0.05569  -0.05294  -0.04417  -0.02512
  Beta virt. eigenvalues --   -0.02137  -0.01536  -0.01430  -0.01053  -0.00304
  Beta virt. eigenvalues --   -0.00148   0.00131   0.00380   0.00868   0.00884

 Mulliken charges and spin densities:
               1          2
     1  Na   0.406527  -0.064967
     2  Na  -0.587772   0.719849
     3  Na   0.135691   0.028961
     4  Na  -0.125184  -0.048168
     5  Na  -0.236390   0.471680
     6  Na   0.374849  -0.054253
     7  Na   0.032278  -0.053102
 Sum of Mulliken charges =  -0.00000   1.00000

 Dipole moment (field-independent basis, Debye):
    X=             -0.0054    Y=             -0.1509    Z=              0.2378  Tot=              0.2817
 Quadrupole moment (field-independent basis, Debye-Ang):
   XX=            -55.9085   YY=            -64.6740   ZZ=            -73.7531
   XY=              1.1627   XZ=             -1.1355   YZ=              0.5297

 Normal termination of Gaussian 16 at Thu Dec  7 12:13:46 2023.
