 Gaussian 16, Revision B.01,
 Gaussian 16:  ES64L-G16RevB.01 20-Dec-2017

 -------------------------
 #P B3LYP/6-311+g(d) force
 -------------------------

 -----
 DPGEN
 -----
 Symbolic Z-matrix:
 Charge =  0 Multiplicity = 2

                         Standard orientation:
 ---------------------------------------------------------------------
 Center     Atomic      Atomic             Coordinates (Angstroms)
 Number     Number       Type             X           Y           Z
 ---------------------------------------------------------------------
      1         11           0        0.128283    0.088087   -2.074345
      2         11           0        1.690063    2.343733    0.055102
      3         11           0        3.062703   -0.807336   -0.501706
      4         11           0       -0.311399   -2.310280    0.011358
      5         11           0        1.097347   -0.359893    2.098765
      6         11           0       -1.601358    0.984944    0.438378
      7         11           0       -4.065640    0.060745   -0.027552
 ---------------------------------------------------------------------

 SCF Done:  E(UB3LYP) =  -1136.11495684     A.U. after   26 cycles

 The electronic state is 2-A.
 Alpha  occ. eigenvalues --  -38.45790 -38.45176 -38.44402 -38.43938 -38.43312
 Alpha  occ. eigenvalues --  -38.42499 -38.42325  -2.21621  -2.21028  -2.20345
 Alpha  occ. eigenvalues --   -2.19887  -2.19327  -2.18401  -2.18201  -1.15444
 Alpha  occ. eigenvalues --   -1.15236  -1.15215  -1.14725  -1.14693  -1.14636
 Alpha  occ. eigenvalues --   -1.14047  -1.13966  -1.13944  -1.13571  -1.13524
 Alpha  occ. eigenvalues --   -1.13482  -1.13038  -1.12987  -1.12914  -1.12115
 Alpha  occ. eigenvalues --   -1.12090  -1.11986  -1.11875  -1.11861  -1.11853
 Alpha  occ. eigenvalues --   -0.19143  -0.13711  -0.11684  -0.11241
 Alpha virt. eigenvalues --   -0.07249  -0.04121  -0.03870  -0.03325  -0.03022
 Alpha virt. eigenvalues --   -0.02662  -0.02594  -0.00797  -0.00440  -0.00076
 Alpha virt. eigenvalues --    0.00151   0.00187   0.00328   0.00860   0.00978

  Beta  occ. eigenvalues --  -38.45799 -38.45163 -38.44312 -38.43851 -38.43296
  Beta  occ. eigenvalues --  -38.42490 -38.42320  -2.21639  -2.21010  -2.20180
  Beta  occ. eigenvalues --   -2.19726  -2.19301  -2.18389  -2.18197  -1.15456
  Beta  occ. eigenvalues --   -1.15244  -1.15228  -1.14691  -1.14670  -1.14630
  Beta  occ. eigenvalues --   -1.13938  -1.13845  -1.13826  -1.13460  -1.13419
  Beta  occ. eigenvalues --   -1.13364  -1.13029  -1.12937  -1.12895  -1.12112
  Beta  occ. eigenvalues --   -1.12043  -1.11983  -1.11876  -1.11853  -1.11830
  Beta  occ. eigenvalues --   -0.18305  -0.13581  -0.10979
  Beta virt. eigenvalues --   -0.07620  -0.07089  -0.04105  -0.03205  -0.03084
  Beta virt. eigenvalues --   -0.02603  -0.02153  -0.01774  -0.00717  -0.00239
  Beta virt. eigenvalues --   -0.00055   0.00156   0.00314   0.00440   0.00910

 Mulliken charges and spin densities:
               1          2
     1  Na  -0.143781   0.636064
     2  Na  -0.114225  -0.107728
     3  Na   0.246904   0.001013
     4  Na  -0.145272  -0.045923
     5  Na   0.106029   0.412681
     6  Na  -0.507638   0.161907
     7  Na   0.557983  -0.058015
 Sum of Mulliken charges =  -0.00000   1.00000

 Dipole moment (field-independent basis, Debye):
    X=             -0.2597    Y=             -0.5649    Z=             -0.3130  Tot=              0.6961
 Quadrupole moment (field-independent basis, Debye-Ang):
   XX=            -46.3991   YY=            -77.2989   ZZ=            -68.4697
   XY=              0.5105   XZ=              0.0968   YZ=              1.0949

 Normal termination of Gaussian 16 at Thu Dec  7 10:24:55 2023.
