 Gaussian 16, Revision B.01,
 Gaussian 16:  ES64L-G16RevB.01 20-Dec-2017

 -------------------------
 #P B3LYP/6-311+g(d) force
 -------------------------

 -----
 DPGEN
 -----
 Symbolic Z-matrix:
 Charge =  0 Multiplicity = 2

                         Standard orientation:
 ---------------------------------------------------------------------
 Center     Atomic      Atomic             Coordinates (Angstroms)
 Number     Number       Type             X           Y           Z
 ---------------------------------------------------------------------
      1         11           0       -3.296554   -0.523731   -0.026292
      2         11           0        3.071501   -1.259708   -0.425142
      3         11           0       -0.485218   -2.626595    0.032046
      4         11           0        0.062716    0.137566   -1.717294
      5         11           0        2.027557    2.288441    0.333969
      6         11           0        0.219696   -0.333359    1.950682
      7         11           0       -1.599699    2.317387   -0.147969
 ---------------------------------------------------------------------

 SCF Done:  E(UB3LYP) =  -1136.13591330     A.U. after   19 cycles

 The electronic state is 2-A.
 Alpha  occ. eigenvalues --  -38.44380 -38.44266 -38.43619 -38.43504 -38.43382
 Alpha  occ. eigenvalues --  -38.43243 -38.43134  -2.20176  -2.20085  -2.19442
 Alpha  occ. eigenvalues --   -2.19424  -2.19342  -2.19116  -2.19030  -1.13852
 Alpha  occ. eigenvalues --   -1.13824  -1.13815  -1.13761  -1.13745  -1.13728
 Alpha  occ. eigenvalues --   -1.13139  -1.13127  -1.13112  -1.13078  -1.13058
 Alpha  occ. eigenvalues --   -1.13039  -1.13026  -1.13012  -1.12952  -1.12792
 Alpha  occ. eigenvalues --   -1.12775  -1.12734  -1.12718  -1.12699  -1.12624
 Alpha  occ. eigenvalues --   -0.18648  -0.13091  -0.12297  -0.10726
 Alpha virt. eigenvalues --   -0.06005  -0.05242  -0.04279  -0.03199  -0.02866
 Alpha virt. eigenvalues --   -0.02483  -0.01895  -0.01160  -0.00303  -0.00206
 Alpha virt. eigenvalues --   -0.00026   0.00321   0.00746   0.00864   0.00895

  Beta  occ. eigenvalues --  -38.44369 -38.44267 -38.43611 -38.43415 -38.43315
  Beta  occ. eigenvalues --  -38.43238 -38.43125  -2.20158  -2.20089  -2.19430
  Beta  occ. eigenvalues --   -2.19261  -2.19220  -2.19111  -2.19017  -1.13822
  Beta  occ. eigenvalues --   -1.13812  -1.13806  -1.13765  -1.13738  -1.13726
  Beta  occ. eigenvalues --   -1.13108  -1.13086  -1.13073  -1.13034  -1.12967
  Beta  occ. eigenvalues --   -1.12942  -1.12931  -1.12913  -1.12867  -1.12772
  Beta  occ. eigenvalues --   -1.12756  -1.12726  -1.12703  -1.12656  -1.12618
  Beta  occ. eigenvalues --   -0.17928  -0.12862  -0.12031
  Beta virt. eigenvalues --   -0.06844  -0.05937  -0.05230  -0.04246  -0.02472
  Beta virt. eigenvalues --   -0.02080  -0.01783  -0.01445  -0.01089  -0.00340
  Beta virt. eigenvalues --   -0.00240   0.00105   0.00348   0.00804   0.00867

 Mulliken charges and spin densities:
               1          2
     1  Na   0.011705  -0.075986
     2  Na   0.104836  -0.044228
     3  Na   0.322935  -0.061378
     4  Na  -0.298661   0.602289
     5  Na   0.024859  -0.039020
     6  Na  -0.389866   0.665774
     7  Na   0.224192  -0.047452
 Sum of Mulliken charges =  -0.00000   1.00000

 Dipole moment (field-independent basis, Debye):
    X=              0.1910    Y=             -0.1110    Z=              0.0439  Tot=              0.2253
 Quadrupole moment (field-independent basis, Debye-Ang):
   XX=            -52.4685   YY=            -65.8066   ZZ=            -74.4073
   XY=              0.2360   XZ=             -0.4796   YZ=              1.3555

 Normal termination of Gaussian 16 at Thu Dec  7 12:59:00 2023.
