 Gaussian 16, Revision B.01,
 Gaussian 16:  ES64L-G16RevB.01 20-Dec-2017

 -------------------------
 #P B3LYP/6-311+g(d) force
 -------------------------

 -----
 DPGEN
 -----
 Symbolic Z-matrix:
 Charge =  0 Multiplicity = 2

                         Standard orientation:
 ---------------------------------------------------------------------
 Center     Atomic      Atomic             Coordinates (Angstroms)
 Number     Number       Type             X           Y           Z
 ---------------------------------------------------------------------
      1         11           0       -2.693570    2.589899   -0.099964
      2         11           0       -2.045111   -3.309339    0.890574
      3         11           0       -3.835732   -1.013001   -0.538848
      4         11           0        3.953851   -1.283861   -0.390349
      5         11           0       -0.129372    3.890758   -0.024715
      6         11           0        3.113298    2.257274    0.513393
      7         11           0        1.636636   -3.131730   -0.350091
 ---------------------------------------------------------------------

 SCF Done:  E(UB3LYP) =  -1136.10513134     A.U. after   21 cycles

 The electronic state is 2-A.
 Alpha  occ. eigenvalues --  -38.45203 -38.44787 -38.44526 -38.44522 -38.44488
 Alpha  occ. eigenvalues --  -38.44303 -38.44020  -2.20976  -2.20572  -2.20351
 Alpha  occ. eigenvalues --   -2.20347  -2.20304  -2.20095  -2.19867  -1.14648
 Alpha  occ. eigenvalues --   -1.14642  -1.14627  -1.14232  -1.14222  -1.14213
 Alpha  occ. eigenvalues --   -1.14166  -1.14132  -1.14002  -1.14002  -1.13987
 Alpha  occ. eigenvalues --   -1.13985  -1.13953  -1.13935  -1.13872  -1.13744
 Alpha  occ. eigenvalues --   -1.13729  -1.13711  -1.13508  -1.13496  -1.13480
 Alpha  occ. eigenvalues --   -0.15662  -0.13988  -0.13805  -0.10838
 Alpha virt. eigenvalues --   -0.07777  -0.04674  -0.04432  -0.03561  -0.03462
 Alpha virt. eigenvalues --   -0.02463  -0.02358  -0.01822  -0.01637  -0.00609
 Alpha virt. eigenvalues --   -0.00436   0.00007   0.00147   0.00322   0.00538

  Beta  occ. eigenvalues --  -38.45194 -38.44765 -38.44520 -38.44480 -38.44479
  Beta  occ. eigenvalues --  -38.44206 -38.43970  -2.20962  -2.20534  -2.20352
  Beta  occ. eigenvalues --   -2.20300  -2.20265  -2.19914  -2.19775  -1.14640
  Beta  occ. eigenvalues --   -1.14633  -1.14599  -1.14207  -1.14198  -1.14177
  Beta  occ. eigenvalues --   -1.14117  -1.14102  -1.14012  -1.13975  -1.13971
  Beta  occ. eigenvalues --   -1.13941  -1.13930  -1.13913  -1.13821  -1.13622
  Beta  occ. eigenvalues --   -1.13609  -1.13591  -1.13453  -1.13433  -1.13416
  Beta  occ. eigenvalues --   -0.15158  -0.13344  -0.13040
  Beta virt. eigenvalues --   -0.07886  -0.07597  -0.04278  -0.04046  -0.03225
  Beta virt. eigenvalues --   -0.03081  -0.02230  -0.02121  -0.01711  -0.01536
  Beta virt. eigenvalues --   -0.00289  -0.00216   0.00164   0.00322   0.00390

 Mulliken charges and spin densities:
               1          2
     1  Na  -0.369853   0.180949
     2  Na  -0.017777   0.125628
     3  Na  -0.035546   0.058131
     4  Na   0.607596  -0.003491
     5  Na   0.343531  -0.006047
     6  Na  -0.082748   0.462619
     7  Na  -0.445203   0.182211
 Sum of Mulliken charges =  -0.00000   1.00000

 Dipole moment (field-independent basis, Debye):
    X=             -0.5799    Y=             -0.8388    Z=             -0.0123  Tot=              1.0198
 Quadrupole moment (field-independent basis, Debye-Ang):
   XX=            -62.5155   YY=            -67.5263   ZZ=            -71.9362
   XY=              1.5239   XZ=              1.2572   YZ=             -1.8705

 Normal termination of Gaussian 16 at Sun Dec  3 21:36:30 2023.
