 Gaussian 16, Revision B.01,
 Gaussian 16:  ES64L-G16RevB.01 20-Dec-2017

 -------------------------
 #P B3LYP/6-311+g(d) force
 -------------------------

 -----
 DPGEN
 -----
 Symbolic Z-matrix:
 Charge =  0 Multiplicity = 2

                         Standard orientation:
 ---------------------------------------------------------------------
 Center     Atomic      Atomic             Coordinates (Angstroms)
 Number     Number       Type             X           Y           Z
 ---------------------------------------------------------------------
      1         11           0       -0.265218   -2.776717    0.958126
      2         11           0        2.796397    1.673595   -0.234236
      3         11           0       -1.979794    0.701916    1.735361
      4         11           0       -0.448425    3.335655    0.034356
      5         11           0       -3.033783   -0.925861   -1.597018
      6         11           0        2.692940   -1.980437   -0.110601
      7         11           0        0.237882   -0.028152   -0.785989
 ---------------------------------------------------------------------

 SCF Done:  E(UB3LYP) =  -1136.12935283     A.U. after   21 cycles

 The electronic state is 2-A.
 Alpha  occ. eigenvalues --  -38.44126 -38.43891 -38.43861 -38.43860 -38.43831
 Alpha  occ. eigenvalues --  -38.43784 -38.42924  -2.19930  -2.19722  -2.19707
 Alpha  occ. eigenvalues --   -2.19676  -2.19660  -2.19638  -2.18961  -1.13604
 Alpha  occ. eigenvalues --   -1.13595  -1.13568  -1.13434  -1.13424  -1.13386
 Alpha  occ. eigenvalues --   -1.13366  -1.13352  -1.13342  -1.13334  -1.13333
 Alpha  occ. eigenvalues --   -1.13316  -1.13314  -1.13305  -1.13289  -1.13285
 Alpha  occ. eigenvalues --   -1.13271  -1.13244  -1.12670  -1.12609  -1.12602
 Alpha  occ. eigenvalues --   -0.17869  -0.13093  -0.12860  -0.10308
 Alpha virt. eigenvalues --   -0.05796  -0.05396  -0.05222  -0.03127  -0.02695
 Alpha virt. eigenvalues --   -0.01986  -0.01535  -0.01395  -0.00807  -0.00710
 Alpha virt. eigenvalues --   -0.00168   0.00313   0.00623   0.00698   0.00778

  Beta  occ. eigenvalues --  -38.44121 -38.43884 -38.43835 -38.43788 -38.43785
  Beta  occ. eigenvalues --  -38.43772 -38.42906  -2.19922  -2.19710  -2.19661
  Beta  occ. eigenvalues --   -2.19643  -2.19581  -2.19510  -2.18932  -1.13598
  Beta  occ. eigenvalues --   -1.13584  -1.13558  -1.13424  -1.13403  -1.13374
  Beta  occ. eigenvalues --   -1.13334  -1.13329  -1.13316  -1.13310  -1.13291
  Beta  occ. eigenvalues --   -1.13288  -1.13248  -1.13230  -1.13219  -1.13213
  Beta  occ. eigenvalues --   -1.13199  -1.13171  -1.12619  -1.12598  -1.12583
  Beta  occ. eigenvalues --   -0.17429  -0.12738  -0.12530
  Beta virt. eigenvalues --   -0.06720  -0.05571  -0.05235  -0.04898  -0.02683
  Beta virt. eigenvalues --   -0.02253  -0.01586  -0.01400  -0.00903  -0.00655
  Beta virt. eigenvalues --   -0.00625   0.00094   0.00423   0.00740   0.00773

 Mulliken charges and spin densities:
               1          2
     1  Na  -0.054651   0.122498
     2  Na   0.438286  -0.085693
     3  Na  -0.216720   0.187679
     4  Na   0.265311   0.035579
     5  Na   0.153013   0.267043
     6  Na   0.441052  -0.070900
     7  Na  -1.026290   0.543795
 Sum of Mulliken charges =  -0.00000   1.00000

 Dipole moment (field-independent basis, Debye):
    X=              0.3678    Y=              0.2503    Z=              0.5058  Tot=              0.6736
 Quadrupole moment (field-independent basis, Debye-Ang):
   XX=            -60.0040   YY=            -59.5544   ZZ=            -73.8224
   XY=             -0.6054   XZ=             -0.6140   YZ=             -1.4033

 Normal termination of Gaussian 16 at Wed Dec  6 00:17:16 2023.
