 Gaussian 16, Revision B.01,
 Gaussian 16:  ES64L-G16RevB.01 20-Dec-2017

 -------------------------
 #P B3LYP/6-311+g(d) force
 -------------------------

 -----
 DPGEN
 -----
 Symbolic Z-matrix:
 Charge =  0 Multiplicity = 2

                         Standard orientation:
 ---------------------------------------------------------------------
 Center     Atomic      Atomic             Coordinates (Angstroms)
 Number     Number       Type             X           Y           Z
 ---------------------------------------------------------------------
      1         11           0        0.170868   -0.318206   -1.527614
      2         11           0       -3.045943   -1.234000   -0.279772
      3         11           0       -0.219913    0.492204    2.137375
      4         11           0        0.247498   -2.478472    0.623544
      5         11           0       -2.117848    1.997895   -0.549380
      6         11           0        1.758890    2.549956    0.098821
      7         11           0        3.206449   -1.009377   -0.502973
 ---------------------------------------------------------------------

 SCF Done:  E(UB3LYP) =  -1136.13521514     A.U. after   18 cycles

 The electronic state is 2-A.
 Alpha  occ. eigenvalues --  -38.44101 -38.43971 -38.43750 -38.43694 -38.43562
 Alpha  occ. eigenvalues --  -38.43372 -38.43058  -2.19922  -2.19796  -2.19637
 Alpha  occ. eigenvalues --   -2.19539  -2.19364  -2.19359  -2.18969  -1.13608
 Alpha  occ. eigenvalues --   -1.13572  -1.13554  -1.13468  -1.13461  -1.13441
 Alpha  occ. eigenvalues --   -1.13308  -1.13271  -1.13253  -1.13233  -1.13198
 Alpha  occ. eigenvalues --   -1.13152  -1.13100  -1.13041  -1.13032  -1.12997
 Alpha  occ. eigenvalues --   -1.12993  -1.12967  -1.12661  -1.12629  -1.12563
 Alpha  occ. eigenvalues --   -0.18546  -0.13086  -0.12132  -0.11029
 Alpha virt. eigenvalues --   -0.05683  -0.05366  -0.04207  -0.03205  -0.03014
 Alpha virt. eigenvalues --   -0.02671  -0.01773  -0.01157  -0.00316  -0.00153
 Alpha virt. eigenvalues --    0.00015   0.00316   0.00732   0.00834   0.00920

  Beta  occ. eigenvalues --  -38.44090 -38.43967 -38.43680 -38.43650 -38.43560
  Beta  occ. eigenvalues --  -38.43327 -38.43038  -2.19903  -2.19792  -2.19517
  Beta  occ. eigenvalues --   -2.19453  -2.19361  -2.19279  -2.18935  -1.13585
  Beta  occ. eigenvalues --   -1.13558  -1.13544  -1.13462  -1.13455  -1.13428
  Beta  occ. eigenvalues --   -1.13213  -1.13192  -1.13182  -1.13141  -1.13130
  Beta  occ. eigenvalues --   -1.13114  -1.13041  -1.13027  -1.13023  -1.12992
  Beta  occ. eigenvalues --   -1.12947  -1.12905  -1.12639  -1.12577  -1.12540
  Beta  occ. eigenvalues --   -0.17831  -0.12796  -0.11929
  Beta virt. eigenvalues --   -0.07102  -0.05562  -0.05368  -0.04117  -0.02548
  Beta virt. eigenvalues --   -0.02261  -0.01665  -0.01621  -0.01122  -0.00303
  Beta virt. eigenvalues --   -0.00088   0.00098   0.00356   0.00809   0.00833

 Mulliken charges and spin densities:
               1          2
     1  Na  -0.300795   0.277248
     2  Na   0.123818  -0.015624
     3  Na  -0.303912   0.535152
     4  Na   0.247390   0.211034
     5  Na   0.098602   0.021295
     6  Na  -0.024508  -0.034658
     7  Na   0.159405   0.005551
 Sum of Mulliken charges =  -0.00000   1.00000

 Dipole moment (field-independent basis, Debye):
    X=              0.0314    Y=              0.0845    Z=              0.0677  Tot=              0.1127
 Quadrupole moment (field-independent basis, Debye-Ang):
   XX=            -54.3236   YY=            -66.1702   ZZ=            -72.7198
   XY=              0.6309   XZ=              0.1170   YZ=             -1.2315

 Normal termination of Gaussian 16 at Tue Dec  5 23:24:09 2023.
