 Gaussian 16, Revision B.01,
 Gaussian 16:  ES64L-G16RevB.01 20-Dec-2017

 -------------------------
 #P B3LYP/6-311+g(d) force
 -------------------------

 -----
 DPGEN
 -----
 Symbolic Z-matrix:
 Charge =  0 Multiplicity = 2

                         Standard orientation:
 ---------------------------------------------------------------------
 Center     Atomic      Atomic             Coordinates (Angstroms)
 Number     Number       Type             X           Y           Z
 ---------------------------------------------------------------------
      1         11           0       -1.093138   -2.598637   -0.424618
      2         11           0        2.634279   -1.648743    0.265182
      3         11           0       -0.036793   -0.269170    1.935564
      4         11           0        2.250259    1.671738   -0.234353
      5         11           0       -0.010227    0.007063   -1.809610
      6         11           0       -0.860089    2.922534    0.093788
      7         11           0       -2.884292   -0.084785    0.174047
 ---------------------------------------------------------------------

 SCF Done:  E(UB3LYP) =  -1136.13927232     A.U. after   18 cycles

 The electronic state is 2-A.
 Alpha  occ. eigenvalues --  -38.43583 -38.43572 -38.43563 -38.43481 -38.43468
 Alpha  occ. eigenvalues --  -38.43424 -38.43322  -2.19503  -2.19480  -2.19406
 Alpha  occ. eigenvalues --   -2.19399  -2.19376  -2.19370  -2.19161  -1.13239
 Alpha  occ. eigenvalues --   -1.13183  -1.13175  -1.13146  -1.13139  -1.13124
 Alpha  occ. eigenvalues --   -1.13121  -1.13107  -1.13074  -1.13060  -1.13042
 Alpha  occ. eigenvalues --   -1.13038  -1.13024  -1.13010  -1.12999  -1.12977
 Alpha  occ. eigenvalues --   -1.12973  -1.12970  -1.12828  -1.12817  -1.12803
 Alpha  occ. eigenvalues --   -0.19002  -0.13090  -0.12531  -0.11065
 Alpha virt. eigenvalues --   -0.05151  -0.05007  -0.04851  -0.03312  -0.02990
 Alpha virt. eigenvalues --   -0.02725  -0.01265  -0.01101  -0.00177  -0.00098
 Alpha virt. eigenvalues --    0.00014   0.00374   0.00876   0.00921   0.00932

  Beta  occ. eigenvalues --  -38.43576 -38.43559 -38.43488 -38.43474 -38.43454
  Beta  occ. eigenvalues --  -38.43345 -38.43321  -2.19471  -2.19395  -2.19362
  Beta  occ. eigenvalues --   -2.19356  -2.19347  -2.19259  -2.19162  -1.13216
  Beta  occ. eigenvalues --   -1.13132  -1.13121  -1.13116  -1.13094  -1.13068
  Beta  occ. eigenvalues --   -1.13066  -1.13048  -1.13038  -1.13031  -1.13007
  Beta  occ. eigenvalues --   -1.12988  -1.12975  -1.12974  -1.12964  -1.12954
  Beta  occ. eigenvalues --   -1.12908  -1.12891  -1.12820  -1.12817  -1.12795
  Beta  occ. eigenvalues --   -0.18250  -0.12821  -0.12286
  Beta virt. eigenvalues --   -0.07122  -0.05122  -0.05006  -0.04798  -0.02475
  Beta virt. eigenvalues --   -0.02235  -0.01659  -0.01174  -0.01025  -0.00203
  Beta virt. eigenvalues --   -0.00142   0.00119   0.00390   0.00910   0.00921

 Mulliken charges and spin densities:
               1          2
     1  Na   0.305203  -0.022426
     2  Na   0.077399  -0.073678
     3  Na  -0.427820   0.738063
     4  Na   0.136923  -0.059759
     5  Na  -0.206110   0.543780
     6  Na  -0.054437  -0.094186
     7  Na   0.168841  -0.031794
 Sum of Mulliken charges =  -0.00000   1.00000

 Dipole moment (field-independent basis, Debye):
    X=              0.0159    Y=             -0.0893    Z=              0.1084  Tot=              0.1414
 Quadrupole moment (field-independent basis, Debye-Ang):
   XX=            -59.9506   YY=            -61.6966   ZZ=            -72.7860
   XY=             -0.8274   XZ=             -0.1178   YZ=              0.6028

 Normal termination of Gaussian 16 at Thu Dec  7 23:32:49 2023.
