 Gaussian 16, Revision B.01,
 Gaussian 16:  ES64L-G16RevB.01 20-Dec-2017

 -------------------------
 #P B3LYP/6-311+g(d) force
 -------------------------

 -----
 DPGEN
 -----
 Symbolic Z-matrix:
 Charge =  0 Multiplicity = 2

                         Standard orientation:
 ---------------------------------------------------------------------
 Center     Atomic      Atomic             Coordinates (Angstroms)
 Number     Number       Type             X           Y           Z
 ---------------------------------------------------------------------
      1         11           0       -1.607488    1.872980   -0.523301
      2         11           0        1.739256   -1.822957   -0.553111
      3         11           0        4.437963    0.016122   -0.097260
      4         11           0        1.923760    1.837493   -0.237312
      5         11           0       -0.193091   -0.130744    1.945293
      6         11           0       -1.606499   -1.869563   -0.363868
      7         11           0       -4.693900    0.096670   -0.170442
 ---------------------------------------------------------------------

 SCF Done:  E(UB3LYP) =  -1136.12255370     A.U. after   24 cycles

 The electronic state is 2-A.
 Alpha  occ. eigenvalues --  -38.45339 -38.44615 -38.44236 -38.43479 -38.43245
 Alpha  occ. eigenvalues --  -38.43221 -38.43136  -2.21216  -2.20422  -2.20103
 Alpha  occ. eigenvalues --   -2.19312  -2.19120  -2.19096  -2.19016  -1.14886
 Alpha  occ. eigenvalues --   -1.14871  -1.14815  -1.14070  -1.14062  -1.14032
 Alpha  occ. eigenvalues --   -1.13764  -1.13746  -1.13736  -1.13011  -1.12995
 Alpha  occ. eigenvalues --   -1.12936  -1.12813  -1.12804  -1.12793  -1.12768
 Alpha  occ. eigenvalues --   -1.12754  -1.12730  -1.12712  -1.12691  -1.12603
 Alpha  occ. eigenvalues --   -0.18054  -0.14488  -0.11405  -0.11223
 Alpha virt. eigenvalues --   -0.06726  -0.05200  -0.04655  -0.03140  -0.03126
 Alpha virt. eigenvalues --   -0.02258  -0.01692  -0.01567  -0.01305  -0.00378
 Alpha virt. eigenvalues --   -0.00272   0.00122   0.00562   0.00678   0.00729

  Beta  occ. eigenvalues --  -38.45285 -38.44528 -38.44181 -38.43473 -38.43235
  Beta  occ. eigenvalues --  -38.43216 -38.43132  -2.21116  -2.20261  -2.20001
  Beta  occ. eigenvalues --   -2.19308  -2.19107  -2.19089  -2.19011  -1.14826
  Beta  occ. eigenvalues --   -1.14799  -1.14736  -1.13959  -1.13950  -1.13929
  Beta  occ. eigenvalues --   -1.13702  -1.13671  -1.13666  -1.13014  -1.12988
  Beta  occ. eigenvalues --   -1.12902  -1.12808  -1.12800  -1.12789  -1.12758
  Beta  occ. eigenvalues --   -1.12723  -1.12707  -1.12703  -1.12683  -1.12586
  Beta  occ. eigenvalues --   -0.17461  -0.13712  -0.11035
  Beta virt. eigenvalues --   -0.07898  -0.06444  -0.04977  -0.03928  -0.03082
  Beta virt. eigenvalues --   -0.02889  -0.01706  -0.01412  -0.01248  -0.00845
  Beta virt. eigenvalues --   -0.00222  -0.00166   0.00169   0.00667   0.00758

 Mulliken charges and spin densities:
               1          2
     1  Na  -0.204133  -0.106201
     2  Na  -0.301260   0.081198
     3  Na   0.617432   0.275746
     4  Na  -0.411009   0.038585
     5  Na  -0.017075   0.112178
     6  Na  -0.139717   0.168055
     7  Na   0.455762   0.430441
 Sum of Mulliken charges =  -0.00000   1.00000

 Dipole moment (field-independent basis, Debye):
    X=             -0.0191    Y=             -0.2405    Z=              1.0055  Tot=              1.0341
 Quadrupole moment (field-independent basis, Debye-Ang):
   XX=            -57.5230   YY=            -78.5301   ZZ=            -63.7474
   XY=              0.1871   XZ=             -0.0465   YZ=              1.0135

 Normal termination of Gaussian 16 at Sun Dec  3 14:05:01 2023.
