 Gaussian 16, Revision B.01,
 Gaussian 16:  ES64L-G16RevB.01 20-Dec-2017

 -------------------------
 #P B3LYP/6-311+g(d) force
 -------------------------

 -----
 DPGEN
 -----
 Symbolic Z-matrix:
 Charge =  0 Multiplicity = 2

                         Standard orientation:
 ---------------------------------------------------------------------
 Center     Atomic      Atomic             Coordinates (Angstroms)
 Number     Number       Type             X           Y           Z
 ---------------------------------------------------------------------
      1         11           0       -1.537229    0.405081    2.280022
      2         11           0        3.128989    0.679883   -0.936177
      3         11           0        0.284218    2.933392    0.504015
      4         11           0       -0.897004    0.519878   -2.086893
      5         11           0        3.406606   -1.684581    0.831972
      6         11           0       -3.841656   -0.701845   -0.382774
      7         11           0       -0.543924   -2.151808   -0.210163
 ---------------------------------------------------------------------

 SCF Done:  E(UB3LYP) =  -1136.11745975     A.U. after   23 cycles

 The electronic state is 2-A.
 Alpha  occ. eigenvalues --  -38.45500 -38.44655 -38.44508 -38.44384 -38.44299
 Alpha  occ. eigenvalues --  -38.43752 -38.42537  -2.21280  -2.20462  -2.20322
 Alpha  occ. eigenvalues --   -2.20207  -2.20153  -2.19567  -2.18320  -1.14954
 Alpha  occ. eigenvalues --   -1.14945  -1.14909  -1.14191  -1.14155  -1.14049
 Alpha  occ. eigenvalues --   -1.14043  -1.13985  -1.13944  -1.13875  -1.13844
 Alpha  occ. eigenvalues --   -1.13837  -1.13814  -1.13789  -1.13736  -1.13248
 Alpha  occ. eigenvalues --   -1.13211  -1.13190  -1.11998  -1.11987  -1.11969
 Alpha  occ. eigenvalues --   -0.17531  -0.13540  -0.11480  -0.11186
 Alpha virt. eigenvalues --   -0.06984  -0.05136  -0.04560  -0.03298  -0.03145
 Alpha virt. eigenvalues --   -0.02851  -0.02509  -0.01044  -0.00630  -0.00260
 Alpha virt. eigenvalues --   -0.00103   0.00112   0.00170   0.00590   0.00722

  Beta  occ. eigenvalues --  -38.45499 -38.44643 -38.44508 -38.44292 -38.44216
  Beta  occ. eigenvalues --  -38.43745 -38.42542  -2.21282  -2.20444  -2.20322
  Beta  occ. eigenvalues --   -2.20037  -2.20000  -2.19554  -2.18333  -1.14956
  Beta  occ. eigenvalues --   -1.14924  -1.14912  -1.14169  -1.14119  -1.14044
  Beta  occ. eigenvalues --   -1.14035  -1.13984  -1.13945  -1.13758  -1.13742
  Beta  occ. eigenvalues --   -1.13727  -1.13692  -1.13689  -1.13622  -1.13241
  Beta  occ. eigenvalues --   -1.13201  -1.13180  -1.12004  -1.11998  -1.11965
  Beta  occ. eigenvalues --   -0.16782  -0.13397  -0.11139
  Beta virt. eigenvalues --   -0.07513  -0.06842  -0.04796  -0.04193  -0.03010
  Beta virt. eigenvalues --   -0.02561  -0.02307  -0.02194  -0.00805  -0.00420
  Beta virt. eigenvalues --   -0.00220  -0.00037   0.00196   0.00375   0.00746

 Mulliken charges and spin densities:
               1          2
     1  Na  -0.128869   0.403318
     2  Na  -0.109231  -0.055232
     3  Na  -0.141461   0.015929
     4  Na   0.151309   0.329564
     5  Na   0.246006   0.023747
     6  Na   0.461344   0.061662
     7  Na  -0.479097   0.221013
 Sum of Mulliken charges =  -0.00000   1.00000

 Dipole moment (field-independent basis, Debye):
    X=             -1.3885    Y=             -0.4927    Z=             -0.1977  Tot=              1.4865
 Quadrupole moment (field-independent basis, Debye-Ang):
   XX=            -53.4709   YY=            -74.7899   ZZ=            -69.2409
   XY=              2.0635   XZ=              1.0038   YZ=             -2.6051

 Normal termination of Gaussian 16 at Sun Dec  3 21:56:07 2023.
