 Gaussian 16, Revision B.01,
 Gaussian 16:  ES64L-G16RevB.01 20-Dec-2017

 -------------------------
 #P B3LYP/6-311+g(d) force
 -------------------------

 -----
 DPGEN
 -----
 Symbolic Z-matrix:
 Charge =  0 Multiplicity = 2

                         Standard orientation:
 ---------------------------------------------------------------------
 Center     Atomic      Atomic             Coordinates (Angstroms)
 Number     Number       Type             X           Y           Z
 ---------------------------------------------------------------------
      1         11           0        0.661071   -2.706133   -0.213854
      2         11           0        2.759029    1.548233    1.303329
      3         11           0        0.521763    3.640587   -0.325619
      4         11           0       -3.246529   -0.875589   -1.313829
      5         11           0       -1.474942   -2.661544    1.587373
      6         11           0       -3.154938    2.158014    0.158976
      7         11           0        3.934545   -1.103569   -1.196376
 ---------------------------------------------------------------------

 SCF Done:  E(UB3LYP) =  -1136.10753508     A.U. after   19 cycles

 The electronic state is 2-A.
 Alpha  occ. eigenvalues --  -38.44918 -38.44793 -38.44323 -38.44301 -38.44260
 Alpha  occ. eigenvalues --  -38.44248 -38.43983  -2.20693  -2.20538  -2.20179
 Alpha  occ. eigenvalues --   -2.20122  -2.20066  -2.20010  -2.19772  -1.14371
 Alpha  occ. eigenvalues --   -1.14353  -1.14312  -1.14223  -1.14211  -1.14172
 Alpha  occ. eigenvalues --   -1.14125  -1.13825  -1.13812  -1.13737  -1.13732
 Alpha  occ. eigenvalues --   -1.13718  -1.13712  -1.13693  -1.13685  -1.13672
 Alpha  occ. eigenvalues --   -1.13645  -1.13637  -1.13423  -1.13411  -1.13389
 Alpha  occ. eigenvalues --   -0.15880  -0.13486  -0.13060  -0.10577
 Alpha virt. eigenvalues --   -0.06589  -0.05667  -0.04646  -0.03500  -0.02886
 Alpha virt. eigenvalues --   -0.02186  -0.02074  -0.01601  -0.01394  -0.01046
 Alpha virt. eigenvalues --   -0.00513  -0.00029   0.00092   0.00513   0.00604

  Beta  occ. eigenvalues --  -38.44887 -38.44792 -38.44309 -38.44262 -38.44237
  Beta  occ. eigenvalues --  -38.44209 -38.43898  -2.20639  -2.20540  -2.20155
  Beta  occ. eigenvalues --   -2.20035  -2.19998  -2.19992  -2.19615  -1.14337
  Beta  occ. eigenvalues --   -1.14318  -1.14263  -1.14228  -1.14213  -1.14150
  Beta  occ. eigenvalues --   -1.14061  -1.13815  -1.13798  -1.13685  -1.13680
  Beta  occ. eigenvalues --   -1.13677  -1.13673  -1.13663  -1.13652  -1.13643
  Beta  occ. eigenvalues --   -1.13620  -1.13577  -1.13316  -1.13302  -1.13287
  Beta  occ. eigenvalues --   -0.15438  -0.12799  -0.12350
  Beta virt. eigenvalues --   -0.07414  -0.06630  -0.05445  -0.04151  -0.03323
  Beta virt. eigenvalues --   -0.02561  -0.01856  -0.01791  -0.01263  -0.01218
  Beta virt. eigenvalues --   -0.00877  -0.00239   0.00143   0.00225   0.00590

 Mulliken charges and spin densities:
               1          2
     1  Na  -0.736348   0.111230
     2  Na  -0.096328  -0.040922
     3  Na   0.077773   0.180158
     4  Na   0.069557   0.126979
     5  Na   0.659635   0.183793
     6  Na  -0.131433   0.029702
     7  Na   0.157143   0.409059
 Sum of Mulliken charges =  -0.00000   1.00000

 Dipole moment (field-independent basis, Debye):
    X=             -0.6291    Y=             -0.0543    Z=              0.1701  Tot=              0.6540
 Quadrupole moment (field-independent basis, Debye-Ang):
   XX=            -68.1438   YY=            -70.8136   ZZ=            -64.1765
   XY=              2.6825   XZ=             -0.4118   YZ=              1.3987

 Normal termination of Gaussian 16 at Sun Dec  3 15:14:14 2023.
