 Gaussian 16, Revision B.01,
 Gaussian 16:  ES64L-G16RevB.01 20-Dec-2017

 -------------------------
 #P B3LYP/6-311+g(d) force
 -------------------------

 -----
 DPGEN
 -----
 Symbolic Z-matrix:
 Charge =  0 Multiplicity = 2

                         Standard orientation:
 ---------------------------------------------------------------------
 Center     Atomic      Atomic             Coordinates (Angstroms)
 Number     Number       Type             X           Y           Z
 ---------------------------------------------------------------------
      1         11           0       -0.050595   -0.242891    2.154446
      2         11           0        0.550719    3.028134   -0.125240
      3         11           0        1.477430   -2.380160   -0.357701
      4         11           0       -2.483014   -2.054607   -0.105808
      5         11           0       -2.884356    1.344806    0.018700
      6         11           0       -0.065627    0.124700   -1.696207
      7         11           0        3.455444    0.180018    0.111809
 ---------------------------------------------------------------------

 SCF Done:  E(UB3LYP) =  -1136.13441943     A.U. after   19 cycles

 The electronic state is 2-A.
 Alpha  occ. eigenvalues --  -38.44713 -38.44285 -38.43910 -38.43752 -38.43362
 Alpha  occ. eigenvalues --  -38.43350 -38.43254  -2.20499  -2.20097  -2.19751
 Alpha  occ. eigenvalues --   -2.19566  -2.19298  -2.19219  -2.19052  -1.14171
 Alpha  occ. eigenvalues --   -1.14164  -1.14137  -1.13778  -1.13763  -1.13729
 Alpha  occ. eigenvalues --   -1.13415  -1.13381  -1.13366  -1.13236  -1.13225
 Alpha  occ. eigenvalues --   -1.13212  -1.13016  -1.12970  -1.12920  -1.12876
 Alpha  occ. eigenvalues --   -1.12871  -1.12840  -1.12732  -1.12714  -1.12683
 Alpha  occ. eigenvalues --   -0.18201  -0.13138  -0.11995  -0.10689
 Alpha virt. eigenvalues --   -0.06182  -0.05266  -0.04490  -0.03301  -0.02734
 Alpha virt. eigenvalues --   -0.02646  -0.01889  -0.01186  -0.00598  -0.00368
 Alpha virt. eigenvalues --   -0.00057   0.00336   0.00710   0.00805   0.00829

  Beta  occ. eigenvalues --  -38.44714 -38.44282 -38.43811 -38.43751 -38.43339
  Beta  occ. eigenvalues --  -38.43297 -38.43253  -2.20503  -2.20095  -2.19570
  Beta  occ. eigenvalues --   -2.19564  -2.19203  -2.19180  -2.19053  -1.14174
  Beta  occ. eigenvalues --   -1.14153  -1.14141  -1.13770  -1.13750  -1.13731
  Beta  occ. eigenvalues --   -1.13293  -1.13253  -1.13240  -1.13229  -1.13213
  Beta  occ. eigenvalues --   -1.13207  -1.12960  -1.12890  -1.12852  -1.12842
  Beta  occ. eigenvalues --   -1.12829  -1.12814  -1.12719  -1.12706  -1.12685
  Beta  occ. eigenvalues --   -0.17466  -0.12969  -0.11781
  Beta virt. eigenvalues --   -0.06766  -0.06094  -0.05290  -0.04432  -0.02547
  Beta virt. eigenvalues --   -0.01985  -0.01780  -0.01591  -0.01124  -0.00649
  Beta virt. eigenvalues --   -0.00406   0.00103   0.00360   0.00779   0.00820

 Mulliken charges and spin densities:
               1          2
     1  Na  -0.506834   0.796533
     2  Na  -0.053046  -0.109237
     3  Na   0.252514  -0.030015
     4  Na   0.176812  -0.052440
     5  Na   0.108096  -0.056021
     6  Na   0.009193   0.489091
     7  Na   0.013266  -0.037911
 Sum of Mulliken charges =  -0.00000   1.00000

 Dipole moment (field-independent basis, Debye):
    X=              0.0858    Y=              0.0442    Z=              0.1825  Tot=              0.2065
 Quadrupole moment (field-independent basis, Debye-Ang):
   XX=            -52.8313   YY=            -65.4301   ZZ=            -74.9744
   XY=              0.8289   XZ=              0.3010   YZ=              1.0445

 Normal termination of Gaussian 16 at Fri Dec  8 05:28:21 2023.
