 Gaussian 16, Revision B.01,
 Gaussian 16:  ES64L-G16RevB.01 20-Dec-2017

 -------------------------
 #P B3LYP/6-311+g(d) force
 -------------------------

 -----
 DPGEN
 -----
 Symbolic Z-matrix:
 Charge =  0 Multiplicity = 2

                         Standard orientation:
 ---------------------------------------------------------------------
 Center     Atomic      Atomic             Coordinates (Angstroms)
 Number     Number       Type             X           Y           Z
 ---------------------------------------------------------------------
      1         11           0        2.880441   -2.344665   -0.168746
      2         11           0       -0.960803   -3.042067   -0.369405
      3         11           0       -4.146846   -1.838937   -0.226675
      4         11           0       -0.759587    3.390881   -0.447693
      5         11           0        4.773396   -0.069137    0.972692
      6         11           0        2.081002    2.388722   -0.817737
      7         11           0       -3.867603    1.515202    1.057564
 ---------------------------------------------------------------------

 SCF Done:  E(UB3LYP) =  -1136.10836334     A.U. after   20 cycles

 The electronic state is 2-A.
 Alpha  occ. eigenvalues --  -38.45011 -38.44950 -38.44827 -38.44638 -38.44518
 Alpha  occ. eigenvalues --  -38.44072 -38.43638  -2.20781  -2.20725  -2.20587
 Alpha  occ. eigenvalues --   -2.20443  -2.20330  -2.19857  -2.19442  -1.14441
 Alpha  occ. eigenvalues --   -1.14421  -1.14411  -1.14402  -1.14392  -1.14386
 Alpha  occ. eigenvalues --   -1.14271  -1.14260  -1.14236  -1.14132  -1.14105
 Alpha  occ. eigenvalues --   -1.14068  -1.13978  -1.13972  -1.13955  -1.13517
 Alpha  occ. eigenvalues --   -1.13508  -1.13475  -1.13124  -1.13100  -1.13081
 Alpha  occ. eigenvalues --   -0.15529  -0.14034  -0.13114  -0.10993
 Alpha virt. eigenvalues --   -0.07522  -0.05041  -0.04505  -0.03468  -0.03427
 Alpha virt. eigenvalues --   -0.02455  -0.02307  -0.01624  -0.01214  -0.00927
 Alpha virt. eigenvalues --   -0.00809  -0.00164  -0.00063   0.00374   0.00549

  Beta  occ. eigenvalues --  -38.44946 -38.44938 -38.44845 -38.44601 -38.44468
  Beta  occ. eigenvalues --  -38.44007 -38.43631  -2.20725  -2.20645  -2.20623
  Beta  occ. eigenvalues --   -2.20378  -2.20237  -2.19734  -2.19435  -1.14412
  Beta  occ. eigenvalues --   -1.14398  -1.14348  -1.14347  -1.14332  -1.14314
  Beta  occ. eigenvalues --   -1.14299  -1.14285  -1.14229  -1.14080  -1.14062
  Beta  occ. eigenvalues --   -1.14015  -1.13914  -1.13906  -1.13895  -1.13433
  Beta  occ. eigenvalues --   -1.13425  -1.13399  -1.13108  -1.13099  -1.13064
  Beta  occ. eigenvalues --   -0.14984  -0.13450  -0.12458
  Beta virt. eigenvalues --   -0.07836  -0.07415  -0.04556  -0.04168  -0.03239
  Beta virt. eigenvalues --   -0.03072  -0.02231  -0.02103  -0.01504  -0.00951
  Beta virt. eigenvalues --   -0.00672  -0.00589   0.00059   0.00169   0.00428

 Mulliken charges and spin densities:
               1          2
     1  Na  -0.160541   0.011458
     2  Na  -0.038945   0.292295
     3  Na   0.052996   0.001488
     4  Na   0.150523  -0.045641
     5  Na   0.315928   0.219408
     6  Na  -0.222811   0.156967
     7  Na  -0.097150   0.364025
 Sum of Mulliken charges =  -0.00000   1.00000

 Dipole moment (field-independent basis, Debye):
    X=              0.3179    Y=             -0.0505    Z=              0.2972  Tot=              0.4381
 Quadrupole moment (field-independent basis, Debye-Ang):
   XX=            -56.5303   YY=            -70.3682   ZZ=            -71.8516
   XY=              1.8128   XZ=              1.0461   YZ=              2.7928

 Normal termination of Gaussian 16 at Sun Dec  3 16:06:02 2023.
