 Gaussian 16, Revision B.01,
 Gaussian 16:  ES64L-G16RevB.01 20-Dec-2017

 -------------------------
 #P B3LYP/6-311+g(d) force
 -------------------------

 -----
 DPGEN
 -----
 Symbolic Z-matrix:
 Charge =  0 Multiplicity = 2

                         Standard orientation:
 ---------------------------------------------------------------------
 Center     Atomic      Atomic             Coordinates (Angstroms)
 Number     Number       Type             X           Y           Z
 ---------------------------------------------------------------------
      1         11           0       -0.268346   -0.818321   -1.567889
      2         11           0        0.415853    2.744937   -0.379378
      3         11           0       -2.928741   -1.692115   -0.112613
      4         11           0       -2.575229    1.396375    0.111110
      5         11           0        2.721508   -2.256319   -0.059507
      6         11           0        2.955596    1.105008    0.152379
      7         11           0       -0.320641   -0.479564    1.855897
 ---------------------------------------------------------------------

 SCF Done:  E(UB3LYP) =  -1136.12732712     A.U. after   21 cycles

 The electronic state is 2-A.
 Alpha  occ. eigenvalues --  -38.44532 -38.44441 -38.44263 -38.44090 -38.43671
 Alpha  occ. eigenvalues --  -38.43522 -38.42666  -2.20373  -2.20331  -2.20167
 Alpha  occ. eigenvalues --   -2.19882  -2.19564  -2.19443  -2.18539  -1.14068
 Alpha  occ. eigenvalues --   -1.14045  -1.14037  -1.14009  -1.14008  -1.13968
 Alpha  occ. eigenvalues --   -1.13841  -1.13820  -1.13786  -1.13548  -1.13546
 Alpha  occ. eigenvalues --   -1.13526  -1.13260  -1.13195  -1.13172  -1.13125
 Alpha  occ. eigenvalues --   -1.13085  -1.13052  -1.12229  -1.12194  -1.12178
 Alpha  occ. eigenvalues --   -0.18639  -0.13902  -0.12032  -0.10399
 Alpha virt. eigenvalues --   -0.06302  -0.06080  -0.04115  -0.03518  -0.02482
 Alpha virt. eigenvalues --   -0.02228  -0.02059  -0.01421  -0.00769  -0.00128
 Alpha virt. eigenvalues --    0.00008   0.00281   0.00635   0.00709   0.00829

  Beta  occ. eigenvalues --  -38.44533 -38.44431 -38.44252 -38.44093 -38.43585
  Beta  occ. eigenvalues --  -38.43458 -38.42661  -2.20377  -2.20318  -2.20151
  Beta  occ. eigenvalues --   -2.19890  -2.19406  -2.19325  -2.18531  -1.14074
  Beta  occ. eigenvalues --   -1.14042  -1.14025  -1.14015  -1.13996  -1.13926
  Beta  occ. eigenvalues --   -1.13833  -1.13782  -1.13769  -1.13554  -1.13543
  Beta  occ. eigenvalues --   -1.13531  -1.13155  -1.13084  -1.13056  -1.13039
  Beta  occ. eigenvalues --   -1.12999  -1.12963  -1.12227  -1.12190  -1.12156
  Beta  occ. eigenvalues --   -0.17915  -0.13708  -0.11833
  Beta virt. eigenvalues --   -0.06499  -0.06217  -0.06036  -0.04070  -0.02741
  Beta virt. eigenvalues --   -0.01963  -0.01825  -0.01470  -0.01108  -0.00823
  Beta virt. eigenvalues --   -0.00095   0.00175   0.00325   0.00700   0.00736

 Mulliken charges and spin densities:
               1          2
     1  Na  -0.372059   0.294836
     2  Na  -0.213628  -0.062751
     3  Na   0.600246   0.178602
     4  Na   0.212054   0.187103
     5  Na   0.180067  -0.006741
     6  Na  -0.004457   0.010294
     7  Na  -0.402223   0.398657
 Sum of Mulliken charges =  -0.00000   1.00000

 Dipole moment (field-independent basis, Debye):
    X=             -0.1697    Y=             -0.5892    Z=              0.1403  Tot=              0.6290
 Quadrupole moment (field-independent basis, Debye-Ang):
   XX=            -50.6936   YY=            -66.7048   ZZ=            -76.5476
   XY=              0.1074   XZ=              0.3366   YZ=             -0.2334

 Normal termination of Gaussian 16 at Tue Dec  5 17:54:51 2023.
