 Gaussian 16, Revision B.01,
 Gaussian 16:  ES64L-G16RevB.01 20-Dec-2017

 -------------------------
 #P B3LYP/6-311+g(d) force
 -------------------------

 -----
 DPGEN
 -----
 Symbolic Z-matrix:
 Charge =  0 Multiplicity = 2

                         Standard orientation:
 ---------------------------------------------------------------------
 Center     Atomic      Atomic             Coordinates (Angstroms)
 Number     Number       Type             X           Y           Z
 ---------------------------------------------------------------------
      1         11           0       -2.426435   -0.673576    1.501664
      2         11           0       -0.301088    1.779590   -0.346118
      3         11           0        1.664657    0.191712    1.282689
      4         11           0       -0.244934   -2.442645   -0.938748
      5         11           0        2.878621   -2.802972   -0.332019
      6         11           0        2.679802    3.294703   -0.408691
      7         11           0       -4.250622    0.653188   -0.758778
 ---------------------------------------------------------------------

 SCF Done:  E(UB3LYP) =  -1136.12016409     A.U. after   21 cycles

 The electronic state is 2-A.
 Alpha  occ. eigenvalues --  -38.44838 -38.44243 -38.44138 -38.43999 -38.43894
 Alpha  occ. eigenvalues --  -38.43784 -38.43635  -2.20639  -2.20117  -2.20018
 Alpha  occ. eigenvalues --   -2.19801  -2.19745  -2.19605  -2.19457  -1.14333
 Alpha  occ. eigenvalues --   -1.14293  -1.14275  -1.13943  -1.13807  -1.13717
 Alpha  occ. eigenvalues --   -1.13676  -1.13669  -1.13591  -1.13464  -1.13458
 Alpha  occ. eigenvalues --   -1.13430  -1.13418  -1.13414  -1.13391  -1.13253
 Alpha  occ. eigenvalues --   -1.13246  -1.13211  -1.13118  -1.13104  -1.13093
 Alpha  occ. eigenvalues --   -0.17440  -0.13443  -0.12849  -0.09802
 Alpha virt. eigenvalues --   -0.06581  -0.05963  -0.04592  -0.03389  -0.02798
 Alpha virt. eigenvalues --   -0.02374  -0.02083  -0.01461  -0.00997  -0.00629
 Alpha virt. eigenvalues --   -0.00079   0.00020   0.00167   0.00456   0.00585

  Beta  occ. eigenvalues --  -38.44835 -38.44235 -38.44108 -38.43978 -38.43867
  Beta  occ. eigenvalues --  -38.43724 -38.43609  -2.20636  -2.20108  -2.19966
  Beta  occ. eigenvalues --   -2.19761  -2.19699  -2.19491  -2.19408  -1.14334
  Beta  occ. eigenvalues --   -1.14286  -1.14259  -1.13908  -1.13802  -1.13699
  Beta  occ. eigenvalues --   -1.13652  -1.13610  -1.13557  -1.13435  -1.13430
  Beta  occ. eigenvalues --   -1.13396  -1.13391  -1.13386  -1.13330  -1.13174
  Beta  occ. eigenvalues --   -1.13168  -1.13139  -1.13080  -1.13070  -1.13065
  Beta  occ. eigenvalues --   -0.16871  -0.13133  -0.12533
  Beta virt. eigenvalues --   -0.06436  -0.06373  -0.05710  -0.04202  -0.03108
  Beta virt. eigenvalues --   -0.02492  -0.02200  -0.01894  -0.01100  -0.00521
  Beta virt. eigenvalues --   -0.00432   0.00107   0.00188   0.00296   0.00528

 Mulliken charges and spin densities:
               1          2
     1  Na   0.447401   0.154314
     2  Na  -1.571786  -0.168589
     3  Na  -0.272341   0.406731
     4  Na  -0.162274   0.054719
     5  Na   0.263600   0.043454
     6  Na   0.828457   0.022286
     7  Na   0.466944   0.487083
 Sum of Mulliken charges =  -0.00000   1.00000

 Dipole moment (field-independent basis, Debye):
    X=              0.7198    Y=             -0.0617    Z=              0.4608  Tot=              0.8569
 Quadrupole moment (field-independent basis, Debye-Ang):
   XX=            -61.9700   YY=            -68.9408   ZZ=            -69.5179
   XY=              4.7531   XZ=              1.2204   YZ=             -1.8640

 Normal termination of Gaussian 16 at Wed Nov 29 01:10:06 2023.
