 Gaussian 16, Revision B.01,
 Gaussian 16:  ES64L-G16RevB.01 20-Dec-2017

 -------------------------
 #P B3LYP/6-311+g(d) force
 -------------------------

 -----
 DPGEN
 -----
 Symbolic Z-matrix:
 Charge =  0 Multiplicity = 2

                         Standard orientation:
 ---------------------------------------------------------------------
 Center     Atomic      Atomic             Coordinates (Angstroms)
 Number     Number       Type             X           Y           Z
 ---------------------------------------------------------------------
      1         11           0        1.990308   -2.425708   -0.223948
      2         11           0        3.067851    1.285321   -0.533344
      3         11           0        0.167752   -0.595838    2.121704
      4         11           0       -0.244216    2.837038    0.786577
      5         11           0        0.156462    0.029787   -1.425198
      6         11           0       -2.191263   -2.195357    0.003015
      7         11           0       -2.946894    1.064758   -0.728807
 ---------------------------------------------------------------------

 SCF Done:  E(UB3LYP) =  -1136.13527101     A.U. after   19 cycles

 The electronic state is 2-A.
 Alpha  occ. eigenvalues --  -38.44227 -38.43937 -38.43829 -38.43723 -38.43676
 Alpha  occ. eigenvalues --  -38.43372 -38.43105  -2.20022  -2.19756  -2.19651
 Alpha  occ. eigenvalues --   -2.19597  -2.19515  -2.19190  -2.19091  -1.13715
 Alpha  occ. eigenvalues --   -1.13672  -1.13650  -1.13452  -1.13432  -1.13373
 Alpha  occ. eigenvalues --   -1.13336  -1.13327  -1.13289  -1.13256  -1.13227
 Alpha  occ. eigenvalues --   -1.13202  -1.13202  -1.13162  -1.13144  -1.12866
 Alpha  occ. eigenvalues --   -1.12848  -1.12824  -1.12783  -1.12730  -1.12721
 Alpha  occ. eigenvalues --   -0.18253  -0.12945  -0.12218  -0.10851
 Alpha virt. eigenvalues --   -0.05761  -0.05224  -0.04574  -0.03146  -0.03054
 Alpha virt. eigenvalues --   -0.02563  -0.01633  -0.01269  -0.00437  -0.00293
 Alpha virt. eigenvalues --    0.00011   0.00334   0.00758   0.00777   0.00810

  Beta  occ. eigenvalues --  -38.44216 -38.43933 -38.43826 -38.43662 -38.43627
  Beta  occ. eigenvalues --  -38.43352 -38.43063  -2.20005  -2.19753  -2.19648
  Beta  occ. eigenvalues --   -2.19491  -2.19419  -2.19154  -2.19014  -1.13695
  Beta  occ. eigenvalues --   -1.13660  -1.13636  -1.13444  -1.13420  -1.13365
  Beta  occ. eigenvalues --   -1.13331  -1.13313  -1.13278  -1.13179  -1.13146
  Beta  occ. eigenvalues --   -1.13141  -1.13126  -1.13109  -1.13071  -1.12839
  Beta  occ. eigenvalues --   -1.12808  -1.12805  -1.12722  -1.12678  -1.12661
  Beta  occ. eigenvalues --   -0.17572  -0.12630  -0.12014
  Beta virt. eigenvalues --   -0.07017  -0.05745  -0.05116  -0.04412  -0.02492
  Beta virt. eigenvalues --   -0.02365  -0.01565  -0.01521  -0.01232  -0.00404
  Beta virt. eigenvalues --   -0.00250   0.00120   0.00386   0.00777   0.00858

 Mulliken charges and spin densities:
               1          2
     1  Na  -0.009429  -0.026445
     2  Na   0.057914   0.030319
     3  Na  -0.156470   0.617833
     4  Na  -0.071532   0.174344
     5  Na  -0.002748   0.122533
     6  Na   0.040755   0.025956
     7  Na   0.141510   0.055461
 Sum of Mulliken charges =  -0.00000   1.00000

 Dipole moment (field-independent basis, Debye):
    X=              0.2963    Y=             -0.2562    Z=              0.1020  Tot=              0.4048
 Quadrupole moment (field-independent basis, Debye-Ang):
   XX=            -56.7745   YY=            -62.4991   ZZ=            -73.5553
   XY=              0.1535   XZ=              0.0844   YZ=              0.8592

 Normal termination of Gaussian 16 at Tue Dec  5 11:58:51 2023.
