 Gaussian 16, Revision B.01,
 Gaussian 16:  ES64L-G16RevB.01 20-Dec-2017

 -------------------------
 #P B3LYP/6-311+g(d) force
 -------------------------

 -----
 DPGEN
 -----
 Symbolic Z-matrix:
 Charge =  0 Multiplicity = 2

                         Standard orientation:
 ---------------------------------------------------------------------
 Center     Atomic      Atomic             Coordinates (Angstroms)
 Number     Number       Type             X           Y           Z
 ---------------------------------------------------------------------
      1         11           0        0.680762    1.761929   -1.085411
      2         11           0       -2.813787    1.856510    0.533714
      3         11           0        1.481637   -0.655706    2.250206
      4         11           0       -2.596634   -0.907735   -1.568594
      5         11           0        3.919574    0.821637   -0.217038
      6         11           0       -1.947494   -0.958229    1.373334
      7         11           0        1.275943   -1.918406   -1.286210
 ---------------------------------------------------------------------

 SCF Done:  E(UB3LYP) =  -1136.11762393     A.U. after   26 cycles

 The electronic state is 2-A.
 Alpha  occ. eigenvalues --  -38.45023 -38.44858 -38.44528 -38.43892 -38.43821
 Alpha  occ. eigenvalues --  -38.43653 -38.43574  -2.20879  -2.20639  -2.20318
 Alpha  occ. eigenvalues --   -2.19751  -2.19630  -2.19493  -2.19436  -1.14595
 Alpha  occ. eigenvalues --   -1.14524  -1.14479  -1.14316  -1.14290  -1.14272
 Alpha  occ. eigenvalues --   -1.14007  -1.13958  -1.13938  -1.13483  -1.13390
 Alpha  occ. eigenvalues --   -1.13374  -1.13311  -1.13267  -1.13255  -1.13183
 Alpha  occ. eigenvalues --   -1.13151  -1.13137  -1.13129  -1.13090  -1.13044
 Alpha  occ. eigenvalues --   -0.17893  -0.14120  -0.11475  -0.10784
 Alpha virt. eigenvalues --   -0.06665  -0.05580  -0.04982  -0.03313  -0.02753
 Alpha virt. eigenvalues --   -0.02401  -0.02360  -0.00967  -0.00930  -0.00376
 Alpha virt. eigenvalues --    0.00062   0.00204   0.00238   0.00397   0.00572

  Beta  occ. eigenvalues --  -38.44982 -38.44853 -38.44483 -38.43868 -38.43770
  Beta  occ. eigenvalues --  -38.43655 -38.43554  -2.20804  -2.20629  -2.20235
  Beta  occ. eigenvalues --   -2.19705  -2.19535  -2.19461  -2.19441  -1.14552
  Beta  occ. eigenvalues --   -1.14470  -1.14412  -1.14303  -1.14284  -1.14267
  Beta  occ. eigenvalues --   -1.13948  -1.13899  -1.13873  -1.13448  -1.13358
  Beta  occ. eigenvalues --   -1.13344  -1.13244  -1.13207  -1.13186  -1.13140
  Beta  occ. eigenvalues --   -1.13136  -1.13125  -1.13121  -1.13063  -1.13051
  Beta  occ. eigenvalues --   -0.17231  -0.13938  -0.10552
  Beta virt. eigenvalues --   -0.07678  -0.06504  -0.05098  -0.04617  -0.02952
  Beta virt. eigenvalues --   -0.02358  -0.02147  -0.01808  -0.00837  -0.00475
  Beta virt. eigenvalues --   -0.00258   0.00202   0.00227   0.00286   0.00525

 Mulliken charges and spin densities:
               1          2
     1  Na  -0.534697   0.072686
     2  Na   0.161647  -0.067029
     3  Na  -0.078387   0.196138
     4  Na  -0.040617   0.342233
     5  Na   0.531817  -0.041359
     6  Na   0.167334   0.241186
     7  Na  -0.207096   0.256145
 Sum of Mulliken charges =  -0.00000   1.00000

 Dipole moment (field-independent basis, Debye):
    X=              0.5504    Y=             -0.2318    Z=             -0.3753  Tot=              0.7054
 Quadrupole moment (field-independent basis, Debye-Ang):
   XX=            -50.0250   YY=            -76.9361   ZZ=            -69.1350
   XY=             -0.8059   XZ=              1.9168   YZ=              6.4211

 Normal termination of Gaussian 16 at Fri Dec  8 05:34:40 2023.
