 Gaussian 16, Revision B.01,
 Gaussian 16:  ES64L-G16RevB.01 20-Dec-2017

 -------------------------
 #P B3LYP/6-311+g(d) force
 -------------------------

 -----
 DPGEN
 -----
 Symbolic Z-matrix:
 Charge =  0 Multiplicity = 2

                         Standard orientation:
 ---------------------------------------------------------------------
 Center     Atomic      Atomic             Coordinates (Angstroms)
 Number     Number       Type             X           Y           Z
 ---------------------------------------------------------------------
      1         11           0       -2.854805    3.072117   -0.387107
      2         11           0        0.825041    2.223828    0.229306
      3         11           0        1.565393   -0.779757    1.928866
      4         11           0        1.663422   -1.575170   -1.568551
      5         11           0       -3.883581   -0.810460    0.104774
      6         11           0       -1.617831   -2.836950   -0.004119
      7         11           0        4.302361    0.706391   -0.303168
 ---------------------------------------------------------------------

 SCF Done:  E(UB3LYP) =  -1136.11003122     A.U. after   25 cycles

 The electronic state is 2-A.
 Alpha  occ. eigenvalues --  -38.45700 -38.44974 -38.44740 -38.44348 -38.44342
 Alpha  occ. eigenvalues --  -38.44060 -38.43634  -2.21468  -2.20771  -2.20524
 Alpha  occ. eigenvalues --   -2.20178  -2.20117  -2.19787  -2.19442  -1.15164
 Alpha  occ. eigenvalues --   -1.15133  -1.15080  -1.14439  -1.14417  -1.14385
 Alpha  occ. eigenvalues --   -1.14223  -1.14189  -1.14144  -1.13851  -1.13817
 Alpha  occ. eigenvalues --   -1.13811  -1.13808  -1.13786  -1.13711  -1.13471
 Alpha  occ. eigenvalues --   -1.13442  -1.13437  -1.13131  -1.13105  -1.13075
 Alpha  occ. eigenvalues --   -0.17037  -0.13644  -0.11906  -0.10381
 Alpha virt. eigenvalues --   -0.07577  -0.06203  -0.04744  -0.03203  -0.02895
 Alpha virt. eigenvalues --   -0.02523  -0.02080  -0.01937  -0.01322  -0.00655
 Alpha virt. eigenvalues --   -0.00455  -0.00098   0.00035   0.00370   0.00464

  Beta  occ. eigenvalues --  -38.45677 -38.44915 -38.44725 -38.44334 -38.44259
  Beta  occ. eigenvalues --  -38.44070 -38.43636  -2.21430  -2.20663  -2.20496
  Beta  occ. eigenvalues --   -2.20093  -2.20024  -2.19805  -2.19448  -1.15141
  Beta  occ. eigenvalues --   -1.15102  -1.15035  -1.14364  -1.14329  -1.14315
  Beta  occ. eigenvalues --   -1.14207  -1.14168  -1.14125  -1.13800  -1.13777
  Beta  occ. eigenvalues --   -1.13730  -1.13710  -1.13705  -1.13679  -1.13484
  Beta  occ. eigenvalues --   -1.13454  -1.13447  -1.13136  -1.13109  -1.13068
  Beta  occ. eigenvalues --   -0.16392  -0.13341  -0.11891
  Beta virt. eigenvalues --   -0.07356  -0.06651  -0.05938  -0.04491  -0.02774
  Beta virt. eigenvalues --   -0.02579  -0.02266  -0.01812  -0.01517  -0.01019
  Beta virt. eigenvalues --   -0.00642  -0.00100   0.00022   0.00229   0.00465

 Mulliken charges and spin densities:
               1          2
     1  Na   0.243665  -0.059366
     2  Na  -0.732516   0.007996
     3  Na   0.265411   0.381302
     4  Na   0.025764   0.135735
     5  Na  -0.037880   0.066882
     6  Na  -0.151136   0.082803
     7  Na   0.386692   0.384647
 Sum of Mulliken charges =  -0.00000   1.00000

 Dipole moment (field-independent basis, Debye):
    X=              0.9750    Y=             -0.3798    Z=              0.1703  Tot=              1.0601
 Quadrupole moment (field-independent basis, Debye-Ang):
   XX=            -59.9220   YY=            -70.2913   ZZ=            -71.6884
   XY=              0.6694   XZ=              2.9754   YZ=             -0.5201

 Normal termination of Gaussian 16 at Sun Dec  3 12:21:00 2023.
