 Gaussian 16, Revision B.01,
 Gaussian 16:  ES64L-G16RevB.01 20-Dec-2017

 -------------------------
 #P B3LYP/6-311+g(d) force
 -------------------------

 -----
 DPGEN
 -----
 Symbolic Z-matrix:
 Charge =  0 Multiplicity = 2

                         Standard orientation:
 ---------------------------------------------------------------------
 Center     Atomic      Atomic             Coordinates (Angstroms)
 Number     Number       Type             X           Y           Z
 ---------------------------------------------------------------------
      1         11           0       -1.566971   -0.964487   -1.575661
      2         11           0       -0.033698   -0.196964    1.552375
      3         11           0       -3.740758   -0.981763    1.040091
      4         11           0        4.057562    0.482030    0.879865
      5         11           0       -1.922623    2.243084   -0.214930
      6         11           0        1.069729    1.490474   -1.016049
      7         11           0        2.136758   -2.072375   -0.665690
 ---------------------------------------------------------------------

 SCF Done:  E(UB3LYP) =  -1136.12331609     A.U. after   25 cycles

 The electronic state is 2-A.
 Alpha  occ. eigenvalues --  -38.45394 -38.45036 -38.43986 -38.43925 -38.43670
 Alpha  occ. eigenvalues --  -38.43053 -38.42502  -2.21247  -2.20827  -2.19865
 Alpha  occ. eigenvalues --   -2.19744  -2.19478  -2.18929  -2.18433  -1.14969
 Alpha  occ. eigenvalues --   -1.14904  -1.14852  -1.14493  -1.14476  -1.14440
 Alpha  occ. eigenvalues --   -1.13550  -1.13513  -1.13497  -1.13424  -1.13411
 Alpha  occ. eigenvalues --   -1.13363  -1.13145  -1.13130  -1.13109  -1.12607
 Alpha  occ. eigenvalues --   -1.12605  -1.12558  -1.12147  -1.12094  -1.12035
 Alpha  occ. eigenvalues --   -0.18355  -0.14058  -0.11015  -0.10846
 Alpha virt. eigenvalues --   -0.07063  -0.05259  -0.04706  -0.03000  -0.02916
 Alpha virt. eigenvalues --   -0.02256  -0.02098  -0.01271  -0.01098  -0.00335
 Alpha virt. eigenvalues --   -0.00014   0.00185   0.00302   0.00589   0.00691

  Beta  occ. eigenvalues --  -38.45376 -38.44994 -38.43942 -38.43897 -38.43647
  Beta  occ. eigenvalues --  -38.43050 -38.42487  -2.21214  -2.20746  -2.19787
  Beta  occ. eigenvalues --   -2.19695  -2.19435  -2.18925  -2.18409  -1.14932
  Beta  occ. eigenvalues --   -1.14879  -1.14828  -1.14436  -1.14419  -1.14390
  Beta  occ. eigenvalues --   -1.13500  -1.13448  -1.13430  -1.13394  -1.13374
  Beta  occ. eigenvalues --   -1.13310  -1.13116  -1.13098  -1.13080  -1.12608
  Beta  occ. eigenvalues --   -1.12592  -1.12551  -1.12137  -1.12044  -1.12022
  Beta  occ. eigenvalues --   -0.17697  -0.13746  -0.10731
  Beta virt. eigenvalues --   -0.07291  -0.06748  -0.05069  -0.04224  -0.02822
  Beta virt. eigenvalues --   -0.02599  -0.01783  -0.01468  -0.01051  -0.00799
  Beta virt. eigenvalues --   -0.00232   0.00052   0.00241   0.00408   0.00659

 Mulliken charges and spin densities:
               1          2
     1  Na  -0.026486   0.146898
     2  Na  -0.473835   0.162102
     3  Na   0.187565   0.152966
     4  Na   0.474204   0.226786
     5  Na   0.075813   0.059105
     6  Na  -0.183166   0.096134
     7  Na  -0.054096   0.156009
 Sum of Mulliken charges =  -0.00000   1.00000

 Dipole moment (field-independent basis, Debye):
    X=              0.7488    Y=              0.1305    Z=              0.1796  Tot=              0.7810
 Quadrupole moment (field-independent basis, Debye-Ang):
   XX=            -51.9202   YY=            -76.0451   ZZ=            -67.6693
   XY=             -1.7210   XZ=              1.5626   YZ=              2.3284

 Normal termination of Gaussian 16 at Thu Dec  7 08:58:17 2023.
