 Gaussian 16, Revision B.01,
 Gaussian 16:  ES64L-G16RevB.01 20-Dec-2017

 -------------------------
 #P B3LYP/6-311+g(d) force
 -------------------------

 -----
 DPGEN
 -----
 Symbolic Z-matrix:
 Charge =  0 Multiplicity = 2

                         Standard orientation:
 ---------------------------------------------------------------------
 Center     Atomic      Atomic             Coordinates (Angstroms)
 Number     Number       Type             X           Y           Z
 ---------------------------------------------------------------------
      1         11           0        2.562368    2.051321    0.054405
      2         11           0        2.651564   -1.617812    0.017778
      3         11           0        0.138808    0.286094   -1.802752
      4         11           0       -0.221610   -2.557203   -0.248629
      5         11           0       -0.229078    0.346976    2.317826
      6         11           0       -3.095715   -0.930008    0.055933
      7         11           0       -1.806336    2.420632   -0.394562
 ---------------------------------------------------------------------

 SCF Done:  E(UB3LYP) =  -1136.13214573     A.U. after   19 cycles

 The electronic state is 2-A.
 Alpha  occ. eigenvalues --  -38.44318 -38.44170 -38.44130 -38.43855 -38.43849
 Alpha  occ. eigenvalues --  -38.43609 -38.42779  -2.20140  -2.19984  -2.19908
 Alpha  occ. eigenvalues --   -2.19699  -2.19678  -2.19543  -2.18698  -1.13791
 Alpha  occ. eigenvalues --   -1.13773  -1.13757  -1.13659  -1.13649  -1.13625
 Alpha  occ. eigenvalues --   -1.13586  -1.13567  -1.13552  -1.13413  -1.13401
 Alpha  occ. eigenvalues --   -1.13356  -1.13333  -1.13327  -1.13300  -1.13221
 Alpha  occ. eigenvalues --   -1.13178  -1.13153  -1.12384  -1.12356  -1.12332
 Alpha  occ. eigenvalues --   -0.18339  -0.12963  -0.12184  -0.11121
 Alpha virt. eigenvalues --   -0.05920  -0.05409  -0.04179  -0.03363  -0.03076
 Alpha virt. eigenvalues --   -0.02960  -0.01619  -0.01199  -0.00449  -0.00111
 Alpha virt. eigenvalues --   -0.00056   0.00350   0.00716   0.00797   0.00824

  Beta  occ. eigenvalues --  -38.44216 -38.44169 -38.44131 -38.43849 -38.43845
  Beta  occ. eigenvalues --  -38.43542 -38.42771  -2.19985  -2.19949  -2.19912
  Beta  occ. eigenvalues --   -2.19700  -2.19664  -2.19422  -2.18689  -1.13667
  Beta  occ. eigenvalues --   -1.13660  -1.13641  -1.13634  -1.13627  -1.13615
  Beta  occ. eigenvalues --   -1.13578  -1.13565  -1.13557  -1.13415  -1.13376
  Beta  occ. eigenvalues --   -1.13340  -1.13329  -1.13309  -1.13294  -1.13141
  Beta  occ. eigenvalues --   -1.13094  -1.13067  -1.12376  -1.12348  -1.12307
  Beta  occ. eigenvalues --   -0.17602  -0.12788  -0.11960
  Beta virt. eigenvalues --   -0.07163  -0.05899  -0.05297  -0.04156  -0.02605
  Beta virt. eigenvalues --   -0.02238  -0.01972  -0.01509  -0.01119  -0.00519
  Beta virt. eigenvalues --   -0.00109   0.00081   0.00378   0.00771   0.00846

 Mulliken charges and spin densities:
               1          2
     1  Na   0.080911  -0.062899
     2  Na   0.037883  -0.002330
     3  Na   0.019067   0.342655
     4  Na   0.098834   0.051710
     5  Na  -0.571859   0.703332
     6  Na   0.150567   0.040930
     7  Na   0.184597  -0.073398
 Sum of Mulliken charges =  -0.00000   1.00000

 Dipole moment (field-independent basis, Debye):
    X=             -0.0415    Y=              0.4515    Z=              0.2556  Tot=              0.5205
 Quadrupole moment (field-independent basis, Debye-Ang):
   XX=            -56.0191   YY=            -66.6073   ZZ=            -72.3868
   XY=              0.4049   XZ=              0.6203   YZ=             -0.0903

 Normal termination of Gaussian 16 at Thu Dec  7 23:17:16 2023.
