 Gaussian 16, Revision B.01,
 Gaussian 16:  ES64L-G16RevB.01 20-Dec-2017

 -------------------------
 #P B3LYP/6-311+g(d) force
 -------------------------

 -----
 DPGEN
 -----
 Symbolic Z-matrix:
 Charge =  0 Multiplicity = 2

                         Standard orientation:
 ---------------------------------------------------------------------
 Center     Atomic      Atomic             Coordinates (Angstroms)
 Number     Number       Type             X           Y           Z
 ---------------------------------------------------------------------
      1         11           0        3.135916   -0.449046   -1.042075
      2         11           0       -4.523687   -0.118661   -0.042588
      3         11           0        0.412690    0.471478    1.644349
      4         11           0       -1.824959   -2.114782   -0.360107
      5         11           0        2.044490    3.246796    0.022356
      6         11           0        2.330713   -2.932031    0.344130
      7         11           0       -1.575163    1.896247   -0.566065
 ---------------------------------------------------------------------

 SCF Done:  E(UB3LYP) =  -1136.12052921     A.U. after   20 cycles

 The electronic state is 2-A.
 Alpha  occ. eigenvalues --  -38.44913 -38.44899 -38.44189 -38.43873 -38.43864
 Alpha  occ. eigenvalues --  -38.43738 -38.43669  -2.20711  -2.20669  -2.19961
 Alpha  occ. eigenvalues --   -2.19723  -2.19692  -2.19560  -2.19518  -1.14423
 Alpha  occ. eigenvalues --   -1.14415  -1.14370  -1.14336  -1.14293  -1.14286
 Alpha  occ. eigenvalues --   -1.13643  -1.13620  -1.13589  -1.13413  -1.13390
 Alpha  occ. eigenvalues --   -1.13371  -1.13350  -1.13343  -1.13314  -1.13311
 Alpha  occ. eigenvalues --   -1.13220  -1.13188  -1.13164  -1.13136  -1.13078
 Alpha  occ. eigenvalues --   -0.17089  -0.13807  -0.12399  -0.09867
 Alpha virt. eigenvalues --   -0.06463  -0.05881  -0.05124  -0.03158  -0.02739
 Alpha virt. eigenvalues --   -0.02571  -0.01836  -0.01624  -0.01111  -0.00979
 Alpha virt. eigenvalues --   -0.00033   0.00101   0.00518   0.00556   0.00582

  Beta  occ. eigenvalues --  -38.44910 -38.44893 -38.44180 -38.43825 -38.43796
  Beta  occ. eigenvalues --  -38.43739 -38.43616  -2.20709  -2.20663  -2.19946
  Beta  occ. eigenvalues --   -2.19601  -2.19600  -2.19564  -2.19420  -1.14418
  Beta  occ. eigenvalues --   -1.14402  -1.14369  -1.14328  -1.14288  -1.14267
  Beta  occ. eigenvalues --   -1.13633  -1.13606  -1.13573  -1.13365  -1.13329
  Beta  occ. eigenvalues --   -1.13289  -1.13287  -1.13278  -1.13254  -1.13224
  Beta  occ. eigenvalues --   -1.13221  -1.13170  -1.13102  -1.13071  -1.13027
  Beta  occ. eigenvalues --   -0.16523  -0.13290  -0.12256
  Beta virt. eigenvalues --   -0.06507  -0.06279  -0.05518  -0.04902  -0.02696
  Beta virt. eigenvalues --   -0.02316  -0.02251  -0.01762  -0.01318  -0.00957
  Beta virt. eigenvalues --   -0.00684   0.00204   0.00265   0.00595   0.00667

 Mulliken charges and spin densities:
               1          2
     1  Na  -0.251898   0.316218
     2  Na   0.320387   0.214215
     3  Na  -0.195886   0.263060
     4  Na  -0.169684  -0.010723
     5  Na   0.347791   0.192141
     6  Na   0.244128   0.030313
     7  Na  -0.294837  -0.005224
 Sum of Mulliken charges =  -0.00000   1.00000

 Dipole moment (field-independent basis, Debye):
    X=             -0.7107    Y=              0.2745    Z=              0.3872  Tot=              0.8546
 Quadrupole moment (field-independent basis, Debye-Ang):
   XX=            -70.8660   YY=            -60.7585   ZZ=            -70.3399
   XY=              2.5890   XZ=              1.0998   YZ=             -1.3187

 Normal termination of Gaussian 16 at Mon Dec  4 01:15:26 2023.
