 Gaussian 16, Revision B.01,
 Gaussian 16:  ES64L-G16RevB.01 20-Dec-2017

 -------------------------
 #P B3LYP/6-311+g(d) force
 -------------------------

 -----
 DPGEN
 -----
 Symbolic Z-matrix:
 Charge =  0 Multiplicity = 2

                         Standard orientation:
 ---------------------------------------------------------------------
 Center     Atomic      Atomic             Coordinates (Angstroms)
 Number     Number       Type             X           Y           Z
 ---------------------------------------------------------------------
      1         11           0        0.409883    0.244511   -1.528167
      2         11           0       -1.065545    3.155940    0.615464
      3         11           0       -1.205331   -2.764225   -0.455392
      4         11           0        4.240575    0.717949   -0.649735
      5         11           0        1.920706   -1.378059    1.236030
      6         11           0       -3.083268    0.234606   -1.107004
      7         11           0       -1.217021   -0.210721    1.888804
 ---------------------------------------------------------------------

 SCF Done:  E(UB3LYP) =  -1136.12837108     A.U. after   21 cycles

 The electronic state is 2-A.
 Alpha  occ. eigenvalues --  -38.44567 -38.44381 -38.44334 -38.43800 -38.43742
 Alpha  occ. eigenvalues --  -38.43437 -38.43168  -2.20397  -2.20182  -2.20132
 Alpha  occ. eigenvalues --   -2.19706  -2.19580  -2.19214  -2.19009  -1.14085
 Alpha  occ. eigenvalues --   -1.14059  -1.13997  -1.13888  -1.13837  -1.13804
 Alpha  occ. eigenvalues --   -1.13797  -1.13792  -1.13753  -1.13408  -1.13358
 Alpha  occ. eigenvalues --   -1.13308  -1.13268  -1.13250  -1.13173  -1.12885
 Alpha  occ. eigenvalues --   -1.12877  -1.12843  -1.12690  -1.12671  -1.12646
 Alpha  occ. eigenvalues --   -0.18028  -0.12975  -0.11647  -0.11237
 Alpha virt. eigenvalues --   -0.06451  -0.04902  -0.04690  -0.03107  -0.02903
 Alpha virt. eigenvalues --   -0.02644  -0.02156  -0.01143  -0.00819  -0.00289
 Alpha virt. eigenvalues --    0.00021   0.00210   0.00342   0.00729   0.00799

  Beta  occ. eigenvalues --  -38.44534 -38.44369 -38.44298 -38.43726 -38.43715
  Beta  occ. eigenvalues --  -38.43425 -38.43165  -2.20338  -2.20117  -2.20109
  Beta  occ. eigenvalues --   -2.19573  -2.19533  -2.19194  -2.19007  -1.14034
  Beta  occ. eigenvalues --   -1.14023  -1.13950  -1.13839  -1.13793  -1.13786
  Beta  occ. eigenvalues --   -1.13782  -1.13747  -1.13731  -1.13316  -1.13265
  Beta  occ. eigenvalues --   -1.13241  -1.13215  -1.13196  -1.13126  -1.12866
  Beta  occ. eigenvalues --   -1.12857  -1.12833  -1.12687  -1.12674  -1.12620
  Beta  occ. eigenvalues --   -0.17298  -0.12719  -0.11401
  Beta virt. eigenvalues --   -0.07458  -0.06224  -0.04702  -0.04444  -0.02758
  Beta virt. eigenvalues --   -0.02304  -0.02113  -0.01666  -0.01064  -0.00625
  Beta virt. eigenvalues --   -0.00151   0.00094   0.00259   0.00434   0.00803

 Mulliken charges and spin densities:
               1          2
     1  Na  -0.276184   0.361846
     2  Na  -0.327116  -0.070491
     3  Na  -0.000962   0.045875
     4  Na   0.205227   0.064539
     5  Na  -0.320308  -0.035423
     6  Na   0.344070   0.060230
     7  Na   0.375273   0.573424
 Sum of Mulliken charges =  -0.00000   1.00000

 Dipole moment (field-independent basis, Debye):
    X=             -0.1161    Y=             -0.0101    Z=             -0.2053  Tot=              0.2361
 Quadrupole moment (field-independent basis, Debye-Ang):
   XX=            -55.8310   YY=            -67.8153   ZZ=            -69.9664
   XY=              2.2655   XZ=              1.4763   YZ=             -0.1328

 Normal termination of Gaussian 16 at Thu Dec  7 05:27:25 2023.
