 Gaussian 16, Revision B.01,
 Gaussian 16:  ES64L-G16RevB.01 20-Dec-2017

 -------------------------
 #P B3LYP/6-311+g(d) force
 -------------------------

 -----
 DPGEN
 -----
 Symbolic Z-matrix:
 Charge =  0 Multiplicity = 2

                         Standard orientation:
 ---------------------------------------------------------------------
 Center     Atomic      Atomic             Coordinates (Angstroms)
 Number     Number       Type             X           Y           Z
 ---------------------------------------------------------------------
      1         11           0        3.796124   -0.334376   -1.077660
      2         11           0        2.063732   -0.080209    1.733471
      3         11           0       -1.240974    0.629861    2.032566
      4         11           0        0.338250    2.194245   -0.496585
      5         11           0       -2.335797    1.125202   -1.539322
      6         11           0       -2.717746   -1.578920    0.116837
      7         11           0        0.096410   -1.955804   -0.769308
 ---------------------------------------------------------------------

 SCF Done:  E(UB3LYP) =  -1136.12330714     A.U. after   24 cycles

 The electronic state is 2-A.
 Alpha  occ. eigenvalues --  -38.44820 -38.44271 -38.44183 -38.43952 -38.43704
 Alpha  occ. eigenvalues --  -38.43305 -38.42922  -2.20605  -2.20176  -2.20052
 Alpha  occ. eigenvalues --   -2.19867  -2.19550  -2.19238  -2.18809  -1.14277
 Alpha  occ. eigenvalues --   -1.14254  -1.14233  -1.13875  -1.13818  -1.13790
 Alpha  occ. eigenvalues --   -1.13748  -1.13701  -1.13678  -1.13536  -1.13517
 Alpha  occ. eigenvalues --   -1.13481  -1.13282  -1.13228  -1.13202  -1.12887
 Alpha  occ. eigenvalues --   -1.12878  -1.12861  -1.12511  -1.12462  -1.12429
 Alpha  occ. eigenvalues --   -0.18591  -0.13839  -0.11749  -0.11408
 Alpha virt. eigenvalues --   -0.06457  -0.05142  -0.04323  -0.03426  -0.02985
 Alpha virt. eigenvalues --   -0.02683  -0.02082  -0.01004  -0.00542  -0.00087
 Alpha virt. eigenvalues --    0.00224   0.00244   0.00384   0.00679   0.00817

  Beta  occ. eigenvalues --  -38.44798 -38.44216 -38.44151 -38.43883 -38.43704
  Beta  occ. eigenvalues --  -38.43298 -38.42903  -2.20562  -2.20075  -2.19997
  Beta  occ. eigenvalues --   -2.19744  -2.19551  -2.19227  -2.18777  -1.14248
  Beta  occ. eigenvalues --   -1.14224  -1.14205  -1.13796  -1.13752  -1.13722
  Beta  occ. eigenvalues --   -1.13702  -1.13667  -1.13618  -1.13454  -1.13426
  Beta  occ. eigenvalues --   -1.13389  -1.13279  -1.13218  -1.13204  -1.12877
  Beta  occ. eigenvalues --   -1.12861  -1.12850  -1.12487  -1.12417  -1.12409
  Beta  occ. eigenvalues --   -0.17886  -0.13595  -0.11175
  Beta virt. eigenvalues --   -0.07857  -0.06217  -0.04580  -0.04217  -0.03178
  Beta virt. eigenvalues --   -0.02340  -0.01978  -0.01933  -0.00572  -0.00421
  Beta virt. eigenvalues --    0.00047   0.00270   0.00363   0.00449   0.00761

 Mulliken charges and spin densities:
               1          2
     1  Na   0.410435   0.057465
     2  Na   0.296566  -0.062234
     3  Na  -0.235919   0.366281
     4  Na  -0.488231   0.433606
     5  Na   0.148071  -0.059339
     6  Na   0.833780   0.030817
     7  Na  -0.964702   0.233404
 Sum of Mulliken charges =  -0.00000   1.00000

 Dipole moment (field-independent basis, Debye):
    X=              0.6055    Y=              0.1895    Z=             -0.1455  Tot=              0.6509
 Quadrupole moment (field-independent basis, Debye-Ang):
   XX=            -52.7498   YY=            -78.7013   ZZ=            -64.9411
   XY=             -0.0856   XZ=             -2.2911   YZ=             -2.0942

 Normal termination of Gaussian 16 at Mon Dec  4 05:12:47 2023.
