 Gaussian 16, Revision B.01,
 Gaussian 16:  ES64L-G16RevB.01 20-Dec-2017

 -------------------------
 #P B3LYP/6-311+g(d) force
 -------------------------

 -----
 DPGEN
 -----
 Symbolic Z-matrix:
 Charge =  0 Multiplicity = 2

                         Standard orientation:
 ---------------------------------------------------------------------
 Center     Atomic      Atomic             Coordinates (Angstroms)
 Number     Number       Type             X           Y           Z
 ---------------------------------------------------------------------
      1         11           0        0.339650   -1.257892   -1.384167
      2         11           0       -2.516437    1.423558   -0.803507
      3         11           0       -1.072832   -0.107092    1.886302
      4         11           0       -3.277237   -2.052059   -0.003398
      5         11           0        1.922167    0.626751    1.497279
      6         11           0        3.799670   -1.714858   -0.486641
      7         11           0        0.805018    3.081592   -0.705869
 ---------------------------------------------------------------------

 SCF Done:  E(UB3LYP) =  -1136.12479804     A.U. after   21 cycles

 The electronic state is 2-A.
 Alpha  occ. eigenvalues --  -38.44540 -38.44478 -38.44314 -38.44000 -38.43999
 Alpha  occ. eigenvalues --  -38.43633 -38.43492  -2.20335  -2.20299  -2.20109
 Alpha  occ. eigenvalues --   -2.19915  -2.19772  -2.19519  -2.19274  -1.14038
 Alpha  occ. eigenvalues --   -1.14009  -1.13995  -1.13974  -1.13931  -1.13895
 Alpha  occ. eigenvalues --   -1.13784  -1.13771  -1.13740  -1.13626  -1.13550
 Alpha  occ. eigenvalues --   -1.13522  -1.13441  -1.13438  -1.13403  -1.13221
 Alpha  occ. eigenvalues --   -1.13166  -1.13111  -1.12943  -1.12936  -1.12908
 Alpha  occ. eigenvalues --   -0.17858  -0.13377  -0.11689  -0.11055
 Alpha virt. eigenvalues --   -0.06298  -0.05831  -0.04517  -0.03338  -0.02803
 Alpha virt. eigenvalues --   -0.02386  -0.02140  -0.01592  -0.00667  -0.00316
 Alpha virt. eigenvalues --    0.00076   0.00150   0.00365   0.00509   0.00625

  Beta  occ. eigenvalues --  -38.44510 -38.44449 -38.44312 -38.43997 -38.43915
  Beta  occ. eigenvalues --  -38.43588 -38.43484  -2.20279  -2.20247  -2.20107
  Beta  occ. eigenvalues --   -2.19768  -2.19763  -2.19441  -2.19260  -1.13995
  Beta  occ. eigenvalues --   -1.13967  -1.13953  -1.13937  -1.13891  -1.13856
  Beta  occ. eigenvalues --   -1.13773  -1.13768  -1.13739  -1.13518  -1.13445
  Beta  occ. eigenvalues --   -1.13437  -1.13434  -1.13407  -1.13400  -1.13154
  Beta  occ. eigenvalues --   -1.13109  -1.13055  -1.12933  -1.12916  -1.12900
  Beta  occ. eigenvalues --   -0.17157  -0.13244  -0.11396
  Beta virt. eigenvalues --   -0.07218  -0.06127  -0.05777  -0.03989  -0.02906
  Beta virt. eigenvalues --   -0.02269  -0.02173  -0.01690  -0.01327  -0.00463
  Beta virt. eigenvalues --   -0.00135   0.00149   0.00208   0.00441   0.00599

 Mulliken charges and spin densities:
               1          2
     1  Na  -0.711493   0.291563
     2  Na   0.107016   0.366777
     3  Na  -0.254784   0.077172
     4  Na   0.626659   0.056018
     5  Na   0.257135   0.376253
     6  Na   0.192834  -0.077583
     7  Na  -0.217368  -0.090200
 Sum of Mulliken charges =  -0.00000   1.00000

 Dipole moment (field-independent basis, Debye):
    X=             -0.5918    Y=             -0.3956    Z=             -0.3334  Tot=              0.7860
 Quadrupole moment (field-independent basis, Debye-Ang):
   XX=            -52.8082   YY=            -69.2565   ZZ=            -72.2803
   XY=              3.1427   XZ=              1.0921   YZ=             -0.4792

 Normal termination of Gaussian 16 at Thu Dec  7 16:29:18 2023.
