 Gaussian 16, Revision B.01,
 Gaussian 16:  ES64L-G16RevB.01 20-Dec-2017

 -------------------------
 #P B3LYP/6-311+g(d) force
 -------------------------

 -----
 DPGEN
 -----
 Symbolic Z-matrix:
 Charge =  0 Multiplicity = 2

                         Standard orientation:
 ---------------------------------------------------------------------
 Center     Atomic      Atomic             Coordinates (Angstroms)
 Number     Number       Type             X           Y           Z
 ---------------------------------------------------------------------
      1         11           0        0.750724    2.422093    0.000137
      2         11           0       -0.489207   -0.751851    1.562904
      3         11           0       -3.192733    1.829614   -0.410519
      4         11           0        0.158354   -1.729114   -1.541093
      5         11           0        2.794459   -0.275185    1.459987
      6         11           0       -3.016739   -1.526569    0.195112
      7         11           0        2.995142    0.031011   -1.266528
 ---------------------------------------------------------------------

 SCF Done:  E(UB3LYP) =  -1136.11406631     A.U. after   25 cycles

 The electronic state is 2-A.
 Alpha  occ. eigenvalues --  -38.44976 -38.44723 -38.44457 -38.44080 -38.43815
 Alpha  occ. eigenvalues --  -38.43791 -38.43730  -2.20908  -2.20656  -2.20326
 Alpha  occ. eigenvalues --   -2.19846  -2.19767  -2.19642  -2.19521  -1.14818
 Alpha  occ. eigenvalues --   -1.14550  -1.14493  -1.14294  -1.14246  -1.14216
 Alpha  occ. eigenvalues --   -1.14079  -1.13975  -1.13938  -1.13523  -1.13506
 Alpha  occ. eigenvalues --   -1.13483  -1.13460  -1.13416  -1.13374  -1.13319
 Alpha  occ. eigenvalues --   -1.13287  -1.13254  -1.13216  -1.13210  -1.13129
 Alpha  occ. eigenvalues --   -0.18526  -0.14357  -0.11418  -0.11107
 Alpha virt. eigenvalues --   -0.06932  -0.05716  -0.04557  -0.03388  -0.02725
 Alpha virt. eigenvalues --   -0.02429  -0.02231  -0.01170  -0.00662  -0.00245
 Alpha virt. eigenvalues --    0.00127   0.00173   0.00333   0.00528   0.00612

  Beta  occ. eigenvalues --  -38.44933 -38.44684 -38.44458 -38.44078 -38.43756
  Beta  occ. eigenvalues --  -38.43747 -38.43723  -2.20832  -2.20587  -2.20329
  Beta  occ. eigenvalues --   -2.19843  -2.19661  -2.19563  -2.19511  -1.14760
  Beta  occ. eigenvalues --   -1.14486  -1.14441  -1.14235  -1.14196  -1.14160
  Beta  occ. eigenvalues --   -1.14072  -1.13972  -1.13944  -1.13519  -1.13505
  Beta  occ. eigenvalues --   -1.13482  -1.13395  -1.13327  -1.13304  -1.13265
  Beta  occ. eigenvalues --   -1.13232  -1.13211  -1.13183  -1.13182  -1.13126
  Beta  occ. eigenvalues --   -0.17815  -0.14211  -0.11092
  Beta virt. eigenvalues --   -0.07254  -0.06835  -0.05472  -0.03949  -0.03235
  Beta virt. eigenvalues --   -0.02355  -0.01960  -0.01573  -0.01098  -0.00308
  Beta virt. eigenvalues --   -0.00162   0.00169   0.00216   0.00494   0.00683

 Mulliken charges and spin densities:
               1          2
     1  Na  -0.493037   0.166257
     2  Na  -1.298668   0.231724
     3  Na  -0.167051  -0.105288
     4  Na  -0.411029   0.193393
     5  Na   0.386814  -0.037220
     6  Na   1.524418   0.266504
     7  Na   0.458553   0.284630
 Sum of Mulliken charges =  -0.00000   1.00000

 Dipole moment (field-independent basis, Debye):
    X=              0.1043    Y=             -0.4706    Z=             -0.1083  Tot=              0.4941
 Quadrupole moment (field-independent basis, Debye-Ang):
   XX=            -49.9735   YY=            -76.3072   ZZ=            -70.6748
   XY=              2.7404   XZ=              1.4143   YZ=             -0.6392

 Normal termination of Gaussian 16 at Tue Dec  5 18:59:54 2023.
