 Gaussian 16, Revision B.01,
 Gaussian 16:  ES64L-G16RevB.01 20-Dec-2017

 -------------------------
 #P B3LYP/6-311+g(d) force
 -------------------------

 -----
 DPGEN
 -----
 Symbolic Z-matrix:
 Charge =  0 Multiplicity = 2

                         Standard orientation:
 ---------------------------------------------------------------------
 Center     Atomic      Atomic             Coordinates (Angstroms)
 Number     Number       Type             X           Y           Z
 ---------------------------------------------------------------------
      1         11           0       -2.513844   -2.464479    0.496909
      2         11           0        2.670554    1.314768    0.469534
      3         11           0        3.503350   -1.845061   -0.390684
      4         11           0        0.013355   -0.721857   -1.505027
      5         11           0       -0.416061   -0.052205    1.835777
      6         11           0       -0.362814    3.023383   -0.188049
      7         11           0       -2.894540    0.745450   -0.718460
 ---------------------------------------------------------------------

 SCF Done:  E(UB3LYP) =  -1136.13169648     A.U. after   20 cycles

 The electronic state is 2-A.
 Alpha  occ. eigenvalues --  -38.44147 -38.44139 -38.44067 -38.43996 -38.43860
 Alpha  occ. eigenvalues --  -38.43810 -38.42844  -2.20020  -2.20015  -2.19847
 Alpha  occ. eigenvalues --   -2.19829  -2.19704  -2.19688  -2.18676  -1.13744
 Alpha  occ. eigenvalues --   -1.13714  -1.13681  -1.13659  -1.13640  -1.13604
 Alpha  occ. eigenvalues --   -1.13532  -1.13519  -1.13507  -1.13504  -1.13485
 Alpha  occ. eigenvalues --   -1.13425  -1.13394  -1.13362  -1.13352  -1.13342
 Alpha  occ. eigenvalues --   -1.13325  -1.13281  -1.12353  -1.12338  -1.12326
 Alpha  occ. eigenvalues --   -0.18208  -0.13551  -0.11931  -0.10570
 Alpha virt. eigenvalues --   -0.06185  -0.05652  -0.04612  -0.03187  -0.02611
 Alpha virt. eigenvalues --   -0.02335  -0.02040  -0.01477  -0.00737  -0.00247
 Alpha virt. eigenvalues --   -0.00140   0.00239   0.00631   0.00668   0.00745

  Beta  occ. eigenvalues --  -38.44107 -38.44103 -38.44061 -38.43987 -38.43846
  Beta  occ. eigenvalues --  -38.43731 -38.42845  -2.19964  -2.19935  -2.19835
  Beta  occ. eigenvalues --   -2.19816  -2.19665  -2.19558  -2.18680  -1.13693
  Beta  occ. eigenvalues --   -1.13652  -1.13634  -1.13607  -1.13594  -1.13549
  Beta  occ. eigenvalues --   -1.13526  -1.13502  -1.13496  -1.13490  -1.13474
  Beta  occ. eigenvalues --   -1.13414  -1.13339  -1.13326  -1.13304  -1.13290
  Beta  occ. eigenvalues --   -1.13247  -1.13178  -1.12360  -1.12341  -1.12305
  Beta  occ. eigenvalues --   -0.17536  -0.13326  -0.11656
  Beta virt. eigenvalues --   -0.06866  -0.05997  -0.05496  -0.04413  -0.02687
  Beta virt. eigenvalues --   -0.02098  -0.01905  -0.01468  -0.01213  -0.00742
  Beta virt. eigenvalues --   -0.00178   0.00042   0.00293   0.00710   0.00740

 Mulliken charges and spin densities:
               1          2
     1  Na   0.043195   0.073064
     2  Na   0.117328   0.001783
     3  Na   0.013353   0.007744
     4  Na  -0.261525   0.317537
     5  Na  -0.032987   0.446705
     6  Na  -0.294509  -0.053293
     7  Na   0.415146   0.206460
 Sum of Mulliken charges =  -0.00000   1.00000

 Dipole moment (field-independent basis, Debye):
    X=             -0.1793    Y=             -0.4323    Z=              0.0691  Tot=              0.4731
 Quadrupole moment (field-independent basis, Debye-Ang):
   XX=            -55.2352   YY=            -64.0565   ZZ=            -74.6971
   XY=              1.0879   XZ=              1.0468   YZ=             -0.4415

 Normal termination of Gaussian 16 at Tue Dec  5 21:04:28 2023.
