 Gaussian 16, Revision B.01,
 Gaussian 16:  ES64L-G16RevB.01 20-Dec-2017

 -------------------------
 #P B3LYP/6-311+g(d) force
 -------------------------

 -----
 DPGEN
 -----
 Symbolic Z-matrix:
 Charge =  0 Multiplicity = 2

                         Standard orientation:
 ---------------------------------------------------------------------
 Center     Atomic      Atomic             Coordinates (Angstroms)
 Number     Number       Type             X           Y           Z
 ---------------------------------------------------------------------
      1         11           0        2.826670    1.167147    0.367692
      2         11           0       -0.237959    3.226126   -0.427754
      3         11           0       -3.262110   -0.797125   -0.795985
      4         11           0        5.386981   -1.046404   -0.334285
      5         11           0       -6.041437   -0.667947    0.195381
      6         11           0       -0.586737   -0.029069    1.064026
      7         11           0        1.914592   -1.852728   -0.069075
 ---------------------------------------------------------------------

 SCF Done:  E(UB3LYP) =  -1136.11798911     A.U. after   21 cycles

 The electronic state is 2-A.
 Alpha  occ. eigenvalues --  -38.44511 -38.44479 -38.44129 -38.44022 -38.43911
 Alpha  occ. eigenvalues --  -38.43803 -38.43672  -2.20390  -2.20341  -2.19919
 Alpha  occ. eigenvalues --   -2.19824  -2.19726  -2.19690  -2.19519  -1.14148
 Alpha  occ. eigenvalues --   -1.14062  -1.14039  -1.14018  -1.13973  -1.13904
 Alpha  occ. eigenvalues --   -1.13579  -1.13567  -1.13533  -1.13490  -1.13486
 Alpha  occ. eigenvalues --   -1.13485  -1.13442  -1.13385  -1.13365  -1.13363
 Alpha  occ. eigenvalues --   -1.13362  -1.13296  -1.13176  -1.13163  -1.13120
 Alpha  occ. eigenvalues --   -0.17164  -0.13918  -0.12115  -0.11070
 Alpha virt. eigenvalues --   -0.06274  -0.05381  -0.04706  -0.03333  -0.03070
 Alpha virt. eigenvalues --   -0.02298  -0.02052  -0.01414  -0.01090  -0.00869
 Alpha virt. eigenvalues --   -0.00336   0.00044   0.00161   0.00498   0.00644

  Beta  occ. eigenvalues --  -38.44459 -38.44457 -38.44076 -38.44005 -38.43889
  Beta  occ. eigenvalues --  -38.43765 -38.43674  -2.20306  -2.20294  -2.19818
  Beta  occ. eigenvalues --   -2.19792  -2.19687  -2.19625  -2.19525  -1.14100
  Beta  occ. eigenvalues --   -1.14021  -1.13992  -1.13963  -1.13900  -1.13861
  Beta  occ. eigenvalues --   -1.13511  -1.13495  -1.13470  -1.13466  -1.13463
  Beta  occ. eigenvalues --   -1.13462  -1.13425  -1.13351  -1.13339  -1.13336
  Beta  occ. eigenvalues --   -1.13304  -1.13231  -1.13178  -1.13168  -1.13103
  Beta  occ. eigenvalues --   -0.16472  -0.13749  -0.11648
  Beta virt. eigenvalues --   -0.07518  -0.06052  -0.04880  -0.04454  -0.03034
  Beta virt. eigenvalues --   -0.02752  -0.02205  -0.01636  -0.01206  -0.00825
  Beta virt. eigenvalues --   -0.00521  -0.00124   0.00206   0.00334   0.00551

 Mulliken charges and spin densities:
               1          2
     1  Na  -0.431057   0.276379
     2  Na   0.147382   0.289494
     3  Na  -0.406396   0.058850
     4  Na   0.611297   0.095393
     5  Na   0.392089   0.063639
     6  Na  -0.098402   0.026041
     7  Na  -0.214912   0.190206
 Sum of Mulliken charges =  -0.00000   1.00000

 Dipole moment (field-independent basis, Debye):
    X=              0.9419    Y=              0.0167    Z=             -0.0440  Tot=              0.9431
 Quadrupole moment (field-independent basis, Debye-Ang):
   XX=            -58.5088   YY=            -68.2984   ZZ=            -69.4887
   XY=             -5.1928   XZ=             -3.1218   YZ=              0.3279

 Normal termination of Gaussian 16 at Wed Nov 29 01:17:09 2023.
