 Gaussian 16, Revision B.01,
 Gaussian 16:  ES64L-G16RevB.01 20-Dec-2017

 -------------------------
 #P B3LYP/6-311+g(d) force
 -------------------------

 -----
 DPGEN
 -----
 Symbolic Z-matrix:
 Charge =  0 Multiplicity = 2

                         Standard orientation:
 ---------------------------------------------------------------------
 Center     Atomic      Atomic             Coordinates (Angstroms)
 Number     Number       Type             X           Y           Z
 ---------------------------------------------------------------------
      1         11           0        3.422205    0.378439    0.254266
      2         11           0       -3.231658    1.267982   -0.011110
      3         11           0        0.850268    3.121967   -0.433050
      4         11           0       -0.519824   -0.258906   -1.624335
      5         11           0       -2.255483   -2.089646    0.188122
      6         11           0       -0.112296    0.117781    2.021855
      7         11           0        1.846786   -2.537618   -0.395747
 ---------------------------------------------------------------------

 SCF Done:  E(UB3LYP) =  -1136.12879107     A.U. after   21 cycles

 The electronic state is 2-A.
 Alpha  occ. eigenvalues --  -38.44930 -38.44616 -38.44041 -38.43784 -38.43588
 Alpha  occ. eigenvalues --  -38.43486 -38.43398  -2.20717  -2.20392  -2.19899
 Alpha  occ. eigenvalues --   -2.19628  -2.19347  -2.19326  -2.19295  -1.14392
 Alpha  occ. eigenvalues --   -1.14368  -1.14362  -1.14070  -1.14055  -1.14030
 Alpha  occ. eigenvalues --   -1.13618  -1.13561  -1.13515  -1.13304  -1.13256
 Alpha  occ. eigenvalues --   -1.13241  -1.13028  -1.13016  -1.13006  -1.12989
 Alpha  occ. eigenvalues --   -1.12986  -1.12962  -1.12953  -1.12944  -1.12918
 Alpha  occ. eigenvalues --   -0.17977  -0.13272  -0.11823  -0.10403
 Alpha virt. eigenvalues --   -0.06426  -0.05545  -0.04657  -0.03271  -0.02626
 Alpha virt. eigenvalues --   -0.02355  -0.02012  -0.01316  -0.00861  -0.00553
 Alpha virt. eigenvalues --   -0.00055   0.00314   0.00669   0.00720   0.00748

  Beta  occ. eigenvalues --  -38.44927 -38.44617 -38.44031 -38.43693 -38.43584
  Beta  occ. eigenvalues --  -38.43482 -38.43336  -2.20714  -2.20396  -2.19886
  Beta  occ. eigenvalues --   -2.19460  -2.19341  -2.19289  -2.19213  -1.14376
  Beta  occ. eigenvalues --   -1.14366  -1.14358  -1.14061  -1.14059  -1.14035
  Beta  occ. eigenvalues --   -1.13606  -1.13527  -1.13507  -1.13191  -1.13139
  Beta  occ. eigenvalues --   -1.13118  -1.13014  -1.13001  -1.12984  -1.12973
  Beta  occ. eigenvalues --   -1.12941  -1.12939  -1.12927  -1.12883  -1.12846
  Beta  occ. eigenvalues --   -0.17263  -0.13121  -0.11597
  Beta virt. eigenvalues --   -0.06578  -0.06326  -0.05501  -0.04551  -0.02577
  Beta virt. eigenvalues --   -0.01998  -0.01878  -0.01365  -0.01245  -0.00860
  Beta virt. eigenvalues --   -0.00584   0.00109   0.00350   0.00736   0.00765

 Mulliken charges and spin densities:
               1          2
     1  Na   0.008845  -0.020047
     2  Na   0.075578  -0.071173
     3  Na  -0.216601  -0.084206
     4  Na   0.127408   0.573457
     5  Na   0.238202   0.020636
     6  Na  -0.219854   0.654551
     7  Na  -0.013579  -0.073217
 Sum of Mulliken charges =  -0.00000   1.00000

 Dipole moment (field-independent basis, Debye):
    X=             -0.4763    Y=              0.0540    Z=              0.1795  Tot=              0.5118
 Quadrupole moment (field-independent basis, Debye-Ang):
   XX=            -51.3224   YY=            -64.7961   ZZ=            -76.6142
   XY=             -0.7612   XZ=             -0.2955   YZ=             -0.6466

 Normal termination of Gaussian 16 at Thu Dec  7 07:56:31 2023.
