 Gaussian 16, Revision B.01,
 Gaussian 16:  ES64L-G16RevB.01 20-Dec-2017

 -------------------------
 #P B3LYP/6-311+g(d) force
 -------------------------

 -----
 DPGEN
 -----
 Symbolic Z-matrix:
 Charge =  0 Multiplicity = 2

                         Standard orientation:
 ---------------------------------------------------------------------
 Center     Atomic      Atomic             Coordinates (Angstroms)
 Number     Number       Type             X           Y           Z
 ---------------------------------------------------------------------
      1         11           0        0.123580   -0.102427   -1.680378
      2         11           0       -1.971765   -2.193246    0.542402
      3         11           0        1.428060   -0.513763    1.593453
      4         11           0       -3.681973    0.592515   -1.226404
      5         11           0       -1.581701    1.046778    1.598998
      6         11           0        2.002277    2.411093   -0.037942
      7         11           0        3.681520   -1.240950   -0.790129
 ---------------------------------------------------------------------

 SCF Done:  E(UB3LYP) =  -1136.12027324     A.U. after   36 cycles

 The electronic state is 2-A.
 Alpha  occ. eigenvalues --  -38.45065 -38.44799 -38.44180 -38.43940 -38.43843
 Alpha  occ. eigenvalues --  -38.43493 -38.43307  -2.20861  -2.20638  -2.20005
 Alpha  occ. eigenvalues --   -2.19760  -2.19716  -2.19302  -2.19178  -1.14524
 Alpha  occ. eigenvalues --   -1.14512  -1.14475  -1.14347  -1.14293  -1.14241
 Alpha  occ. eigenvalues --   -1.13679  -1.13669  -1.13624  -1.13463  -1.13448
 Alpha  occ. eigenvalues --   -1.13396  -1.13379  -1.13371  -1.13338  -1.12992
 Alpha  occ. eigenvalues --   -1.12959  -1.12920  -1.12879  -1.12837  -1.12782
 Alpha  occ. eigenvalues --   -0.18218  -0.13942  -0.11464  -0.10466
 Alpha virt. eigenvalues --   -0.06848  -0.05435  -0.04939  -0.03041  -0.02743
 Alpha virt. eigenvalues --   -0.02483  -0.02165  -0.01245  -0.01044  -0.00338
 Alpha virt. eigenvalues --    0.00073   0.00134   0.00246   0.00482   0.00688

  Beta  occ. eigenvalues --  -38.45017 -38.44757 -38.44142 -38.43965 -38.43800
  Beta  occ. eigenvalues --  -38.43489 -38.43272  -2.20773  -2.20561  -2.19937
  Beta  occ. eigenvalues --   -2.19764  -2.19684  -2.19294  -2.19117  -1.14458
  Beta  occ. eigenvalues --   -1.14448  -1.14420  -1.14287  -1.14237  -1.14183
  Beta  occ. eigenvalues --   -1.13631  -1.13614  -1.13566  -1.13457  -1.13414
  Beta  occ. eigenvalues --   -1.13408  -1.13394  -1.13330  -1.13310  -1.12980
  Beta  occ. eigenvalues --   -1.12956  -1.12914  -1.12825  -1.12773  -1.12751
  Beta  occ. eigenvalues --   -0.17433  -0.13766  -0.10349
  Beta virt. eigenvalues --   -0.07619  -0.06577  -0.05191  -0.04458  -0.02711
  Beta virt. eigenvalues --   -0.02457  -0.01918  -0.01616  -0.01000  -0.00813
  Beta virt. eigenvalues --   -0.00232   0.00148   0.00157   0.00328   0.00563

 Mulliken charges and spin densities:
               1          2
     1  Na  -0.347766   0.426391
     2  Na  -0.119933   0.193242
     3  Na   0.268571   0.087121
     4  Na   0.203588   0.146444
     5  Na   0.067884   0.213643
     6  Na  -0.169754   0.003099
     7  Na   0.097410  -0.069940
 Sum of Mulliken charges =  -0.00000   1.00000

 Dipole moment (field-independent basis, Debye):
    X=             -0.7045    Y=              0.2404    Z=             -0.3669  Tot=              0.8299
 Quadrupole moment (field-independent basis, Debye-Ang):
   XX=            -51.6578   YY=            -74.1362   ZZ=            -69.3406
   XY=              0.9769   XZ=              0.7953   YZ=             -5.3227

 Normal termination of Gaussian 16 at Fri Dec  8 06:24:22 2023.
