 Gaussian 16, Revision B.01,
 Gaussian 16:  ES64L-G16RevB.01 20-Dec-2017

 -------------------------
 #P B3LYP/6-311+g(d) force
 -------------------------

 -----
 DPGEN
 -----
 Symbolic Z-matrix:
 Charge =  0 Multiplicity = 2

                         Standard orientation:
 ---------------------------------------------------------------------
 Center     Atomic      Atomic             Coordinates (Angstroms)
 Number     Number       Type             X           Y           Z
 ---------------------------------------------------------------------
      1         11           0        3.564064    1.679011    0.214878
      2         11           0       -3.636980   -1.272023    1.348260
      3         11           0       -0.100059    2.656737   -0.609371
      4         11           0       -1.427037   -2.106509   -1.400973
      5         11           0       -3.550955    1.716579    0.365539
      6         11           0        3.660034   -1.506947    1.500067
      7         11           0        1.490933   -1.166846   -1.418400
 ---------------------------------------------------------------------

 SCF Done:  E(UB3LYP) =  -1136.11339950     A.U. after   23 cycles

 The electronic state is 2-A.
 Alpha  occ. eigenvalues --  -38.45106 -38.45004 -38.44798 -38.44245 -38.43902
 Alpha  occ. eigenvalues --  -38.43654 -38.43416  -2.20907  -2.20779  -2.20613
 Alpha  occ. eigenvalues --   -2.20037  -2.19750  -2.19417  -2.19239  -1.14559
 Alpha  occ. eigenvalues --   -1.14550  -1.14534  -1.14466  -1.14433  -1.14406
 Alpha  occ. eigenvalues --   -1.14290  -1.14265  -1.14236  -1.13716  -1.13697
 Alpha  occ. eigenvalues --   -1.13679  -1.13460  -1.13411  -1.13380  -1.13091
 Alpha  occ. eigenvalues --   -1.13083  -1.13032  -1.12919  -1.12892  -1.12863
 Alpha  occ. eigenvalues --   -0.16479  -0.14379  -0.11727  -0.11321
 Alpha virt. eigenvalues --   -0.06801  -0.05249  -0.04679  -0.03477  -0.03238
 Alpha virt. eigenvalues --   -0.02420  -0.02185  -0.01571  -0.00952  -0.00428
 Alpha virt. eigenvalues --   -0.00258  -0.00092   0.00201   0.00335   0.00601

  Beta  occ. eigenvalues --  -38.45035 -38.44995 -38.44756 -38.44247 -38.43860
  Beta  occ. eigenvalues --  -38.43613 -38.43394  -2.20775  -2.20765  -2.20535
  Beta  occ. eigenvalues --   -2.20043  -2.19680  -2.19341  -2.19202  -1.14473
  Beta  occ. eigenvalues --   -1.14462  -1.14456  -1.14452  -1.14420  -1.14362
  Beta  occ. eigenvalues --   -1.14233  -1.14212  -1.14186  -1.13718  -1.13705
  Beta  occ. eigenvalues --   -1.13668  -1.13404  -1.13350  -1.13326  -1.13038
  Beta  occ. eigenvalues --   -1.13029  -1.12985  -1.12882  -1.12870  -1.12828
  Beta  occ. eigenvalues --   -0.15814  -0.13787  -0.11263
  Beta virt. eigenvalues --   -0.07959  -0.06745  -0.04847  -0.04335  -0.03144
  Beta virt. eigenvalues --   -0.02912  -0.01996  -0.01833  -0.01253  -0.00859
  Beta virt. eigenvalues --   -0.00323  -0.00071   0.00029   0.00319   0.00439

 Mulliken charges and spin densities:
               1          2
     1  Na   0.337066   0.096254
     2  Na   0.016186   0.198858
     3  Na  -0.263112   0.175285
     4  Na  -0.240211   0.048210
     5  Na   0.017298   0.064806
     6  Na   0.305867   0.396958
     7  Na  -0.173093   0.019630
 Sum of Mulliken charges =  -0.00000   1.00000

 Dipole moment (field-independent basis, Debye):
    X=              0.6840    Y=             -0.4593    Z=              1.1396  Tot=              1.4062
 Quadrupole moment (field-independent basis, Debye-Ang):
   XX=            -57.5437   YY=            -71.5188   ZZ=            -68.3079
   XY=              2.3285   XZ=              0.2062   YZ=             -5.2556

 Normal termination of Gaussian 16 at Mon Dec  4 04:54:14 2023.
