 Gaussian 16, Revision B.01,
 Gaussian 16:  ES64L-G16RevB.01 20-Dec-2017

 -------------------------
 #P B3LYP/6-311+g(d) force
 -------------------------

 -----
 DPGEN
 -----
 Symbolic Z-matrix:
 Charge =  0 Multiplicity = 2

                         Standard orientation:
 ---------------------------------------------------------------------
 Center     Atomic      Atomic             Coordinates (Angstroms)
 Number     Number       Type             X           Y           Z
 ---------------------------------------------------------------------
      1         11           0        0.371700   -1.917760   -0.385830
      2         11           0        3.515853   -2.804124   -0.175300
      3         11           0        3.043909    0.556339    0.467315
      4         11           0        2.473896    3.284771   -0.579816
      5         11           0       -0.206036    1.299339    0.550842
      6         11           0       -3.060092   -0.503347    0.532295
      7         11           0       -6.139230    0.084781   -0.409505
 ---------------------------------------------------------------------

 SCF Done:  E(UB3LYP) =  -1136.12543604     A.U. after   19 cycles

 The electronic state is 2-A.
 Alpha  occ. eigenvalues --  -38.44663 -38.44056 -38.44012 -38.43952 -38.43882
 Alpha  occ. eigenvalues --  -38.43461 -38.43231  -2.20476  -2.19952  -2.19880
 Alpha  occ. eigenvalues --   -2.19866  -2.19736  -2.19292  -2.19066  -1.14104
 Alpha  occ. eigenvalues --   -1.14102  -1.14100  -1.13686  -1.13640  -1.13633
 Alpha  occ. eigenvalues --   -1.13585  -1.13558  -1.13550  -1.13527  -1.13514
 Alpha  occ. eigenvalues --   -1.13467  -1.13376  -1.13368  -1.13313  -1.12951
 Alpha  occ. eigenvalues --   -1.12944  -1.12923  -1.12757  -1.12744  -1.12718
 Alpha  occ. eigenvalues --   -0.17337  -0.14087  -0.12540  -0.11431
 Alpha virt. eigenvalues --   -0.05591  -0.05101  -0.04869  -0.03937  -0.02550
 Alpha virt. eigenvalues --   -0.02289  -0.01942  -0.01756  -0.00978  -0.00654
 Alpha virt. eigenvalues --   -0.00410   0.00019   0.00229   0.00598   0.00742

  Beta  occ. eigenvalues --  -38.44550 -38.44018 -38.43991 -38.43933 -38.43870
  Beta  occ. eigenvalues --  -38.43440 -38.43229  -2.20266  -2.19885  -2.19846
  Beta  occ. eigenvalues --   -2.19831  -2.19714  -2.19253  -2.19073  -1.13964
  Beta  occ. eigenvalues --   -1.13959  -1.13958  -1.13648  -1.13609  -1.13594
  Beta  occ. eigenvalues --   -1.13546  -1.13533  -1.13527  -1.13504  -1.13466
  Beta  occ. eigenvalues --   -1.13421  -1.13362  -1.13348  -1.13296  -1.12921
  Beta  occ. eigenvalues --   -1.12917  -1.12900  -1.12770  -1.12758  -1.12649
  Beta  occ. eigenvalues --   -0.16820  -0.13098  -0.12412
  Beta virt. eigenvalues --   -0.07898  -0.05434  -0.04743  -0.04440  -0.03716
  Beta virt. eigenvalues --   -0.02284  -0.01962  -0.01742  -0.01239  -0.00816
  Beta virt. eigenvalues --   -0.00306  -0.00147   0.00150   0.00390   0.00694

 Mulliken charges and spin densities:
               1          2
     1  Na  -0.990472  -0.004625
     2  Na   1.248676   0.092430
     3  Na  -0.449821   0.273084
     4  Na   0.543633   0.036269
     5  Na  -0.595921  -0.016298
     6  Na  -0.054956   0.119229
     7  Na   0.298861   0.499911
 Sum of Mulliken charges =  -0.00000   1.00000

 Dipole moment (field-independent basis, Debye):
    X=              0.5356    Y=              0.4801    Z=             -0.4698  Tot=              0.8591
 Quadrupole moment (field-independent basis, Debye-Ang):
   XX=            -61.4036   YY=            -63.8515   ZZ=            -70.2676
   XY=             -0.8534   XZ=              1.2269   YZ=             -1.3490

 Normal termination of Gaussian 16 at Wed Nov 29 00:31:14 2023.
