 Gaussian 16, Revision B.01,
 Gaussian 16:  ES64L-G16RevB.01 20-Dec-2017

 -------------------------
 #P B3LYP/6-311+g(d) force
 -------------------------

 -----
 DPGEN
 -----
 Symbolic Z-matrix:
 Charge =  0 Multiplicity = 2

                         Standard orientation:
 ---------------------------------------------------------------------
 Center     Atomic      Atomic             Coordinates (Angstroms)
 Number     Number       Type             X           Y           Z
 ---------------------------------------------------------------------
      1         11           0        1.842985    2.248935   -0.275727
      2         11           0       -0.028468   -0.068332   -1.927572
      3         11           0       -0.186816   -2.884605   -0.299815
      4         11           0       -1.508157    2.490637    0.212689
      5         11           0       -3.146977   -0.574061    0.023619
      6         11           0        3.084179   -0.892948    0.293228
      7         11           0       -0.056746   -0.319626    1.973577
 ---------------------------------------------------------------------

 SCF Done:  E(UB3LYP) =  -1136.13985490     A.U. after   18 cycles

 The electronic state is 2-A.
 Alpha  occ. eigenvalues --  -38.44111 -38.44032 -38.43725 -38.43580 -38.43419
 Alpha  occ. eigenvalues --  -38.43293 -38.43260  -2.19924  -2.19841  -2.19616
 Alpha  occ. eigenvalues --   -2.19499  -2.19268  -2.19151  -2.19110  -1.13599
 Alpha  occ. eigenvalues --   -1.13587  -1.13563  -1.13517  -1.13502  -1.13481
 Alpha  occ. eigenvalues --   -1.13289  -1.13256  -1.13230  -1.13178  -1.13153
 Alpha  occ. eigenvalues --   -1.13118  -1.12946  -1.12933  -1.12881  -1.12837
 Alpha  occ. eigenvalues --   -1.12822  -1.12798  -1.12779  -1.12771  -1.12731
 Alpha  occ. eigenvalues --   -0.18520  -0.12857  -0.12431  -0.10969
 Alpha virt. eigenvalues --   -0.05754  -0.04905  -0.04705  -0.03219  -0.03058
 Alpha virt. eigenvalues --   -0.02783  -0.01585  -0.01006  -0.00373  -0.00228
 Alpha virt. eigenvalues --   -0.00036   0.00374   0.00820   0.00867   0.00915

  Beta  occ. eigenvalues --  -38.44109 -38.44028 -38.43644 -38.43496 -38.43409
  Beta  occ. eigenvalues --  -38.43288 -38.43256  -2.19923  -2.19835  -2.19467
  Beta  occ. eigenvalues --   -2.19345  -2.19254  -2.19144  -2.19106  -1.13590
  Beta  occ. eigenvalues --   -1.13580  -1.13561  -1.13506  -1.13487  -1.13480
  Beta  occ. eigenvalues --   -1.13192  -1.13153  -1.13120  -1.13082  -1.13044
  Beta  occ. eigenvalues --   -1.13011  -1.12924  -1.12900  -1.12874  -1.12833
  Beta  occ. eigenvalues --   -1.12807  -1.12784  -1.12771  -1.12757  -1.12727
  Beta  occ. eigenvalues --   -0.17771  -0.12640  -0.12179
  Beta virt. eigenvalues --   -0.07069  -0.05719  -0.04919  -0.04609  -0.02459
  Beta virt. eigenvalues --   -0.02260  -0.01738  -0.01489  -0.00931  -0.00430
  Beta virt. eigenvalues --   -0.00269   0.00093   0.00390   0.00855   0.00875

 Mulliken charges and spin densities:
               1          2
     1  Na   0.092956  -0.039004
     2  Na  -0.167912   0.655513
     3  Na   0.153692  -0.126060
     4  Na   0.018770  -0.059510
     5  Na   0.137478  -0.101934
     6  Na   0.089423  -0.058146
     7  Na  -0.324407   0.729142
 Sum of Mulliken charges =  -0.00000   1.00000

 Dipole moment (field-independent basis, Debye):
    X=             -0.0847    Y=             -0.2748    Z=              0.0804  Tot=              0.2986
 Quadrupole moment (field-independent basis, Debye-Ang):
   XX=            -56.8222   YY=            -64.3409   ZZ=            -72.9793
   XY=             -0.1186   XZ=              0.1768   YZ=              0.3472

 Normal termination of Gaussian 16 at Wed Nov 29 17:20:26 2023.
