 Gaussian 16, Revision B.01,
 Gaussian 16:  ES64L-G16RevB.01 20-Dec-2017

 -------------------------
 #P B3LYP/6-311+g(d) force
 -------------------------

 -----
 DPGEN
 -----
 Symbolic Z-matrix:
 Charge =  0 Multiplicity = 2

                         Standard orientation:
 ---------------------------------------------------------------------
 Center     Atomic      Atomic             Coordinates (Angstroms)
 Number     Number       Type             X           Y           Z
 ---------------------------------------------------------------------
      1         11           0       -4.498845   -1.210633    1.275109
      2         11           0       -0.671328    2.217203   -0.473908
      3         11           0       -3.761274    0.914965   -1.146172
      4         11           0        4.527252   -0.233611   -0.294224
      5         11           0       -0.940117   -1.608759   -0.246581
      6         11           0        2.809456   -2.806532   -0.137676
      7         11           0        2.534856    2.727365    1.023453
 ---------------------------------------------------------------------

 SCF Done:  E(UB3LYP) =  -1136.11106682     A.U. after   24 cycles

 The electronic state is 2-A.
 Alpha  occ. eigenvalues --  -38.45640 -38.45314 -38.44519 -38.44412 -38.44012
 Alpha  occ. eigenvalues --  -38.43776 -38.43438  -2.21457  -2.21082  -2.20343
 Alpha  occ. eigenvalues --   -2.20209  -2.19764  -2.19568  -2.19246  -1.15140
 Alpha  occ. eigenvalues --   -1.15118  -1.15096  -1.14781  -1.14756  -1.14664
 Alpha  occ. eigenvalues --   -1.13993  -1.13984  -1.13954  -1.13896  -1.13878
 Alpha  occ. eigenvalues --   -1.13839  -1.13449  -1.13430  -1.13402  -1.13243
 Alpha  occ. eigenvalues --   -1.13237  -1.13208  -1.12924  -1.12922  -1.12864
 Alpha  occ. eigenvalues --   -0.16659  -0.14146  -0.11897  -0.10878
 Alpha virt. eigenvalues --   -0.07586  -0.05451  -0.04637  -0.03630  -0.03071
 Alpha virt. eigenvalues --   -0.02474  -0.02306  -0.01424  -0.01042  -0.00770
 Alpha virt. eigenvalues --   -0.00407  -0.00381   0.00158   0.00346   0.00490

  Beta  occ. eigenvalues --  -38.45623 -38.45257 -38.44435 -38.44395 -38.44019
  Beta  occ. eigenvalues --  -38.43783 -38.43413  -2.21433  -2.20978  -2.20186
  Beta  occ. eigenvalues --   -2.20177  -2.19775  -2.19584  -2.19201  -1.15128
  Beta  occ. eigenvalues --   -1.15089  -1.15046  -1.14713  -1.14674  -1.14585
  Beta  occ. eigenvalues --   -1.13882  -1.13880  -1.13876  -1.13855  -1.13853
  Beta  occ. eigenvalues --   -1.13816  -1.13457  -1.13440  -1.13404  -1.13257
  Beta  occ. eigenvalues --   -1.13247  -1.13203  -1.12894  -1.12889  -1.12836
  Beta  occ. eigenvalues --   -0.15940  -0.13845  -0.11790
  Beta virt. eigenvalues --   -0.07359  -0.07260  -0.04960  -0.04265  -0.03378
  Beta virt. eigenvalues --   -0.02810  -0.02156  -0.01995  -0.01032  -0.00967
  Beta virt. eigenvalues --   -0.00548  -0.00326  -0.00138   0.00389   0.00502

 Mulliken charges and spin densities:
               1          2
     1  Na   0.649925   0.508833
     2  Na  -0.494648  -0.123432
     3  Na   0.744361   0.092077
     4  Na  -0.301227   0.205688
     5  Na  -0.886557   0.345929
     6  Na  -0.043390  -0.245912
     7  Na   0.331535   0.216818
 Sum of Mulliken charges =  -0.00000   1.00000

 Dipole moment (field-independent basis, Debye):
    X=             -1.3843    Y=             -0.1113    Z=             -0.1999  Tot=              1.4031
 Quadrupole moment (field-independent basis, Debye-Ang):
   XX=            -61.3474   YY=            -71.4309   ZZ=            -68.1262
   XY=             -2.8622   XZ=              2.6633   YZ=             -1.9324

 Normal termination of Gaussian 16 at Sun Dec  3 15:42:50 2023.
