 Gaussian 16, Revision B.01,
 Gaussian 16:  ES64L-G16RevB.01 20-Dec-2017

 -------------------------
 #P B3LYP/6-311+g(d) force
 -------------------------

 -----
 DPGEN
 -----
 Symbolic Z-matrix:
 Charge =  0 Multiplicity = 2

                         Standard orientation:
 ---------------------------------------------------------------------
 Center     Atomic      Atomic             Coordinates (Angstroms)
 Number     Number       Type             X           Y           Z
 ---------------------------------------------------------------------
      1         11           0       -0.212896    0.093707   -1.545905
      2         11           0       -3.077323   -0.848536    0.249553
      3         11           0        2.106164    2.528209    0.171918
      4         11           0       -2.092941    2.559399   -0.256847
      5         11           0       -0.053043   -3.139362   -0.231200
      6         11           0        0.469097   -0.287793    2.126515
      7         11           0        2.860941   -0.905624   -0.514035
 ---------------------------------------------------------------------

 SCF Done:  E(UB3LYP) =  -1136.13658091     A.U. after   19 cycles

 The electronic state is 2-A.
 Alpha  occ. eigenvalues --  -38.44148 -38.43986 -38.43896 -38.43871 -38.43690
 Alpha  occ. eigenvalues --  -38.43561 -38.43170  -2.19946  -2.19768  -2.19714
 Alpha  occ. eigenvalues --   -2.19690  -2.19539  -2.19376  -2.19112  -1.13625
 Alpha  occ. eigenvalues --   -1.13613  -1.13577  -1.13443  -1.13431  -1.13418
 Alpha  occ. eigenvalues --   -1.13400  -1.13378  -1.13376  -1.13348  -1.13330
 Alpha  occ. eigenvalues --   -1.13320  -1.13201  -1.13174  -1.13148  -1.13056
 Alpha  occ. eigenvalues --   -1.13035  -1.13016  -1.12803  -1.12746  -1.12740
 Alpha  occ. eigenvalues --   -0.18075  -0.12884  -0.12290  -0.10506
 Alpha virt. eigenvalues --   -0.05637  -0.05395  -0.05086  -0.03111  -0.02790
 Alpha virt. eigenvalues --   -0.02484  -0.01497  -0.01366  -0.00758  -0.00590
 Alpha virt. eigenvalues --   -0.00027   0.00341   0.00781   0.00802   0.00807

  Beta  occ. eigenvalues --  -38.44144 -38.43984 -38.43894 -38.43856 -38.43593
  Beta  occ. eigenvalues --  -38.43557 -38.43117  -2.19942  -2.19767  -2.19690
  Beta  occ. eigenvalues --   -2.19688  -2.19372  -2.19359  -2.19015  -1.13615
  Beta  occ. eigenvalues --   -1.13606  -1.13575  -1.13432  -1.13425  -1.13416
  Beta  occ. eigenvalues --   -1.13378  -1.13366  -1.13348  -1.13343  -1.13321
  Beta  occ. eigenvalues --   -1.13313  -1.13082  -1.13054  -1.13044  -1.13030
  Beta  occ. eigenvalues --   -1.13014  -1.13003  -1.12734  -1.12676  -1.12668
  Beta  occ. eigenvalues --   -0.17375  -0.12683  -0.12087
  Beta virt. eigenvalues --   -0.06627  -0.05592  -0.05370  -0.04976  -0.02400
  Beta virt. eigenvalues --   -0.02108  -0.01453  -0.01393  -0.01260  -0.00786
  Beta virt. eigenvalues --   -0.00634   0.00136   0.00381   0.00798   0.00819

 Mulliken charges and spin densities:
               1          2
     1  Na   0.064277   0.324232
     2  Na   0.002413  -0.002597
     3  Na  -0.012083  -0.033971
     4  Na   0.032519  -0.064801
     5  Na   0.101743  -0.028318
     6  Na  -0.463515   0.784669
     7  Na   0.274647   0.020786
 Sum of Mulliken charges =  -0.00000   1.00000

 Dipole moment (field-independent basis, Debye):
    X=             -0.0910    Y=              0.0783    Z=              0.1160  Tot=              0.1669
 Quadrupole moment (field-independent basis, Debye-Ang):
   XX=            -57.8529   YY=            -59.2053   ZZ=            -75.7594
   XY=              0.6681   XZ=             -1.6072   YZ=              0.7788

 Normal termination of Gaussian 16 at Fri Dec  8 00:15:26 2023.
