 Gaussian 16, Revision B.01,
 Gaussian 16:  ES64L-G16RevB.01 20-Dec-2017

 -------------------------
 #P B3LYP/6-311+g(d) force
 -------------------------

 -----
 DPGEN
 -----
 Symbolic Z-matrix:
 Charge =  0 Multiplicity = 2

                         Standard orientation:
 ---------------------------------------------------------------------
 Center     Atomic      Atomic             Coordinates (Angstroms)
 Number     Number       Type             X           Y           Z
 ---------------------------------------------------------------------
      1         11           0        2.659172   -2.454625    0.225020
      2         11           0       -0.260306   -0.166065    1.896901
      3         11           0        1.313188   -0.233233   -1.576622
      4         11           0       -0.836828    1.823751   -1.375024
      5         11           0       -1.658055   -2.232147   -0.324200
      6         11           0       -3.446909    0.468350    0.404348
      7         11           0        2.229738    2.793970    0.749576
 ---------------------------------------------------------------------

 SCF Done:  E(UB3LYP) =  -1136.12562682     A.U. after   20 cycles

 The electronic state is 2-A.
 Alpha  occ. eigenvalues --  -38.44405 -38.44184 -38.44174 -38.44150 -38.44028
 Alpha  occ. eigenvalues --  -38.43329 -38.43185  -2.20232  -2.20011  -2.20007
 Alpha  occ. eigenvalues --   -2.19940  -2.19815  -2.19222  -2.19124  -1.13939
 Alpha  occ. eigenvalues --   -1.13907  -1.13855  -1.13696  -1.13676  -1.13670
 Alpha  occ. eigenvalues --   -1.13650  -1.13639  -1.13614  -1.13607  -1.13600
 Alpha  occ. eigenvalues --   -1.13561  -1.13518  -1.13469  -1.13443  -1.13052
 Alpha  occ. eigenvalues --   -1.12863  -1.12809  -1.12777  -1.12760  -1.12698
 Alpha  occ. eigenvalues --   -0.18120  -0.12949  -0.11970  -0.10912
 Alpha virt. eigenvalues --   -0.06082  -0.05728  -0.04097  -0.03334  -0.02909
 Alpha virt. eigenvalues --   -0.02585  -0.01847  -0.01532  -0.00525  -0.00098
 Alpha virt. eigenvalues --    0.00047   0.00280   0.00568   0.00714   0.00735

  Beta  occ. eigenvalues --  -38.44401 -38.44172 -38.44158 -38.44080 -38.44031
  Beta  occ. eigenvalues --  -38.43285 -38.43136  -2.20227  -2.20008  -2.19893
  Beta  occ. eigenvalues --   -2.19881  -2.19823  -2.19144  -2.19036  -1.13932
  Beta  occ. eigenvalues --   -1.13885  -1.13855  -1.13677  -1.13655  -1.13644
  Beta  occ. eigenvalues --   -1.13604  -1.13575  -1.13561  -1.13551  -1.13534
  Beta  occ. eigenvalues --   -1.13524  -1.13519  -1.13467  -1.13449  -1.12985
  Beta  occ. eigenvalues --   -1.12806  -1.12750  -1.12721  -1.12680  -1.12643
  Beta  occ. eigenvalues --   -0.17410  -0.12775  -0.11746
  Beta virt. eigenvalues --   -0.07082  -0.06020  -0.05437  -0.03942  -0.02769
  Beta virt. eigenvalues --   -0.02433  -0.01817  -0.01607  -0.01323  -0.00312
  Beta virt. eigenvalues --   -0.00095   0.00114   0.00318   0.00614   0.00775

 Mulliken charges and spin densities:
               1          2
     1  Na   0.014986  -0.045491
     2  Na  -0.361575   0.597776
     3  Na   0.473396   0.120655
     4  Na  -0.242884   0.175781
     5  Na  -0.204905   0.064906
     6  Na   0.504928  -0.023869
     7  Na  -0.183946   0.110241
 Sum of Mulliken charges =  -0.00000   1.00000

 Dipole moment (field-independent basis, Debye):
    X=             -0.3454    Y=             -0.2643    Z=              0.4920  Tot=              0.6566
 Quadrupole moment (field-independent basis, Debye-Ang):
   XX=            -55.5235   YY=            -65.0117   ZZ=            -72.7197
   XY=             -0.4547   XZ=              2.2518   YZ=              1.3009

 Normal termination of Gaussian 16 at Wed Dec  6 01:21:27 2023.
