 Gaussian 16, Revision B.01,
 Gaussian 16:  ES64L-G16RevB.01 20-Dec-2017

 -------------------------
 #P B3LYP/6-311+g(d) force
 -------------------------

 -----
 DPGEN
 -----
 Symbolic Z-matrix:
 Charge =  0 Multiplicity = 2

                         Standard orientation:
 ---------------------------------------------------------------------
 Center     Atomic      Atomic             Coordinates (Angstroms)
 Number     Number       Type             X           Y           Z
 ---------------------------------------------------------------------
      1         11           0       -2.810077   -1.719794   -0.549253
      2         11           0       -2.751595    1.832557    0.325767
      3         11           0        0.952793    2.337125   -0.256410
      4         11           0        3.565380    0.302043    0.031283
      5         11           0       -0.216577   -0.577944    2.417772
      6         11           0        1.455865   -2.206759   -0.227770
      7         11           0       -0.195789    0.032774   -1.741390
 ---------------------------------------------------------------------

 SCF Done:  E(UB3LYP) =  -1136.12502036     A.U. after   21 cycles

 The electronic state is 2-A.
 Alpha  occ. eigenvalues --  -38.44880 -38.44431 -38.44315 -38.44240 -38.43852
 Alpha  occ. eigenvalues --  -38.43229 -38.42872  -2.20692  -2.20243  -2.20108
 Alpha  occ. eigenvalues --   -2.20023  -2.19820  -2.19098  -2.18751  -1.14363
 Alpha  occ. eigenvalues --   -1.14347  -1.14339  -1.13893  -1.13870  -1.13861
 Alpha  occ. eigenvalues --   -1.13798  -1.13762  -1.13745  -1.13696  -1.13672
 Alpha  occ. eigenvalues --   -1.13666  -1.13534  -1.13486  -1.13422  -1.12800
 Alpha  occ. eigenvalues --   -1.12761  -1.12717  -1.12481  -1.12403  -1.12348
 Alpha  occ. eigenvalues --   -0.18250  -0.13343  -0.11604  -0.11174
 Alpha virt. eigenvalues --   -0.06484  -0.05504  -0.03574  -0.03515  -0.03230
 Alpha virt. eigenvalues --   -0.02661  -0.02144  -0.01321  -0.00325  -0.00170
 Alpha virt. eigenvalues --    0.00033   0.00242   0.00588   0.00644   0.00815

  Beta  occ. eigenvalues --  -38.44883 -38.44325 -38.44306 -38.44235 -38.43791
  Beta  occ. eigenvalues --  -38.43223 -38.42868  -2.20698  -2.20094  -2.20046
  Beta  occ. eigenvalues --   -2.20015  -2.19709  -2.19091  -2.18745  -1.14369
  Beta  occ. eigenvalues --   -1.14349  -1.14338  -1.13775  -1.13761  -1.13749
  Beta  occ. eigenvalues --   -1.13739  -1.13731  -1.13721  -1.13675  -1.13668
  Beta  occ. eigenvalues --   -1.13664  -1.13453  -1.13410  -1.13344  -1.12791
  Beta  occ. eigenvalues --   -1.12730  -1.12717  -1.12470  -1.12387  -1.12345
  Beta  occ. eigenvalues --   -0.17547  -0.13189  -0.11359
  Beta virt. eigenvalues --   -0.07212  -0.06360  -0.05463  -0.03519  -0.02844
  Beta virt. eigenvalues --   -0.02299  -0.02029  -0.01801  -0.01215  -0.00363
  Beta virt. eigenvalues --   -0.00035   0.00056   0.00282   0.00706   0.00806

 Mulliken charges and spin densities:
               1          2
     1  Na   0.205825  -0.015581
     2  Na  -0.079189   0.084481
     3  Na   0.203584   0.131645
     4  Na  -0.012447  -0.044219
     5  Na  -0.581465   0.599529
     6  Na   0.294728   0.096360
     7  Na  -0.031036   0.147785
 Sum of Mulliken charges =  -0.00000   1.00000

 Dipole moment (field-independent basis, Debye):
    X=             -0.0924    Y=             -0.1344    Z=              0.3640  Tot=              0.3988
 Quadrupole moment (field-independent basis, Debye-Ang):
   XX=            -49.7668   YY=            -72.0031   ZZ=            -72.1411
   XY=              0.2239   XZ=              0.1230   YZ=              1.7884

 Normal termination of Gaussian 16 at Fri Dec  8 02:35:28 2023.
