 Gaussian 16, Revision B.01,
 Gaussian 16:  ES64L-G16RevB.01 20-Dec-2017

 -------------------------
 #P B3LYP/6-311+g(d) force
 -------------------------

 -----
 DPGEN
 -----
 Symbolic Z-matrix:
 Charge =  0 Multiplicity = 2

                         Standard orientation:
 ---------------------------------------------------------------------
 Center     Atomic      Atomic             Coordinates (Angstroms)
 Number     Number       Type             X           Y           Z
 ---------------------------------------------------------------------
      1         11           0       -2.719797   -0.514399   -1.854818
      2         11           0        0.471958    0.121610    2.186352
      3         11           0       -2.339331   -1.723706    1.326053
      4         11           0        0.326034   -0.732382   -1.125670
      5         11           0        1.736996    2.286599   -0.355304
      6         11           0        4.082394   -1.479552   -0.401648
      7         11           0       -1.558253    2.041831    0.225036
 ---------------------------------------------------------------------

 SCF Done:  E(UB3LYP) =  -1136.12387927     A.U. after   25 cycles

 The electronic state is 2-A.
 Alpha  occ. eigenvalues --  -38.44544 -38.44518 -38.44024 -38.43927 -38.43826
 Alpha  occ. eigenvalues --  -38.43525 -38.43110  -2.20429  -2.20359  -2.19908
 Alpha  occ. eigenvalues --   -2.19767  -2.19549  -2.19449  -2.19005  -1.14134
 Alpha  occ. eigenvalues --   -1.14064  -1.14042  -1.14017  -1.14003  -1.13981
 Alpha  occ. eigenvalues --   -1.13612  -1.13545  -1.13517  -1.13470  -1.13425
 Alpha  occ. eigenvalues --   -1.13373  -1.13230  -1.13226  -1.13178  -1.13165
 Alpha  occ. eigenvalues --   -1.13111  -1.13047  -1.12686  -1.12679  -1.12621
 Alpha  occ. eigenvalues --   -0.18621  -0.13102  -0.12123  -0.11064
 Alpha virt. eigenvalues --   -0.06127  -0.05306  -0.04620  -0.03412  -0.02819
 Alpha virt. eigenvalues --   -0.02528  -0.01998  -0.01209  -0.00817  -0.00085
 Alpha virt. eigenvalues --    0.00175   0.00236   0.00459   0.00541   0.00585

  Beta  occ. eigenvalues --  -38.44471 -38.44468 -38.43980 -38.43916 -38.43841
  Beta  occ. eigenvalues --  -38.43496 -38.43092  -2.20297  -2.20270  -2.19827
  Beta  occ. eigenvalues --   -2.19749  -2.19578  -2.19400  -2.18975  -1.14045
  Beta  occ. eigenvalues --   -1.13968  -1.13959  -1.13948  -1.13928  -1.13900
  Beta  occ. eigenvalues --   -1.13548  -1.13488  -1.13463  -1.13451  -1.13413
  Beta  occ. eigenvalues --   -1.13360  -1.13249  -1.13246  -1.13195  -1.13113
  Beta  occ. eigenvalues --   -1.13072  -1.13012  -1.12666  -1.12631  -1.12605
  Beta  occ. eigenvalues --   -0.17755  -0.12974  -0.10976
  Beta virt. eigenvalues --   -0.07908  -0.05993  -0.05080  -0.04089  -0.02870
  Beta virt. eigenvalues --   -0.02326  -0.01972  -0.01811  -0.01086  -0.00454
  Beta virt. eigenvalues --   -0.00073   0.00211   0.00368   0.00516   0.00656

 Mulliken charges and spin densities:
               1          2
     1  Na   1.567486  -0.197459
     2  Na   0.105740   0.401407
     3  Na  -0.107569   0.104260
     4  Na  -1.842621   0.614557
     5  Na   0.378511  -0.141696
     6  Na   0.045819  -0.096489
     7  Na  -0.147366   0.315419
 Sum of Mulliken charges =  -0.00000   1.00000

 Dipole moment (field-independent basis, Debye):
    X=             -0.7687    Y=              0.4422    Z=              0.4960  Tot=              1.0161
 Quadrupole moment (field-independent basis, Debye-Ang):
   XX=            -57.4318   YY=            -71.6046   ZZ=            -66.4738
   XY=              3.5793   XZ=              1.6685   YZ=             -4.4498

 Normal termination of Gaussian 16 at Tue Dec  5 23:26:00 2023.
