 Gaussian 16, Revision B.01,
 Gaussian 16:  ES64L-G16RevB.01 20-Dec-2017

 -------------------------
 #P B3LYP/6-311+g(d) force
 -------------------------

 -----
 DPGEN
 -----
 Symbolic Z-matrix:
 Charge =  0 Multiplicity = 2

                         Standard orientation:
 ---------------------------------------------------------------------
 Center     Atomic      Atomic             Coordinates (Angstroms)
 Number     Number       Type             X           Y           Z
 ---------------------------------------------------------------------
      1         11           0        2.629645   -2.204312    0.996879
      2         11           0        4.927788    0.085926   -0.136420
      3         11           0       -1.524750    3.236231    0.039253
      4         11           0       -3.871736    1.637192    0.643906
      5         11           0        2.166752    2.797768   -0.593387
      6         11           0       -0.616972   -3.238994   -0.529011
      7         11           0       -3.710726   -2.313811   -0.421220
 ---------------------------------------------------------------------

 SCF Done:  E(UB3LYP) =  -1136.10378569     A.U. after   23 cycles

 The electronic state is 2-A.
 Alpha  occ. eigenvalues --  -38.45487 -38.44989 -38.44766 -38.44416 -38.44330
 Alpha  occ. eigenvalues --  -38.44151 -38.44035  -2.21229  -2.20769  -2.20546
 Alpha  occ. eigenvalues --   -2.20193  -2.20110  -2.19973  -2.19875  -1.14912
 Alpha  occ. eigenvalues --   -1.14890  -1.14883  -1.14432  -1.14427  -1.14408
 Alpha  occ. eigenvalues --   -1.14209  -1.14201  -1.14166  -1.13865  -1.13861
 Alpha  occ. eigenvalues --   -1.13838  -1.13809  -1.13764  -1.13754  -1.13716
 Alpha  occ. eigenvalues --   -1.13632  -1.13622  -1.13503  -1.13486  -1.13445
 Alpha  occ. eigenvalues --   -0.15461  -0.13914  -0.13413  -0.10747
 Alpha virt. eigenvalues --   -0.07951  -0.04834  -0.04560  -0.03604  -0.03413
 Alpha virt. eigenvalues --   -0.02500  -0.02321  -0.01809  -0.01073  -0.00968
 Alpha virt. eigenvalues --   -0.00811  -0.00446   0.00143   0.00382   0.00541

  Beta  occ. eigenvalues --  -38.45501 -38.44956 -38.44717 -38.44415 -38.44234
  Beta  occ. eigenvalues --  -38.44146 -38.43984  -2.21259  -2.20711  -2.20455
  Beta  occ. eigenvalues --   -2.20195  -2.19970  -2.19930  -2.19781  -1.14936
  Beta  occ. eigenvalues --   -1.14911  -1.14880  -1.14391  -1.14388  -1.14361
  Beta  occ. eigenvalues --   -1.14146  -1.14139  -1.14108  -1.13869  -1.13866
  Beta  occ. eigenvalues --   -1.13816  -1.13758  -1.13643  -1.13636  -1.13635
  Beta  occ. eigenvalues --   -1.13616  -1.13594  -1.13440  -1.13424  -1.13385
  Beta  occ. eigenvalues --   -0.14960  -0.13360  -0.12643
  Beta virt. eigenvalues --   -0.08019  -0.07509  -0.04545  -0.04003  -0.03424
  Beta virt. eigenvalues --   -0.03074  -0.02305  -0.02185  -0.01554  -0.00970
  Beta virt. eigenvalues --   -0.00630  -0.00530  -0.00247   0.00301   0.00494

 Mulliken charges and spin densities:
               1          2
     1  Na  -0.303151   0.260383
     2  Na   0.328946  -0.037516
     3  Na   0.092794  -0.032328
     4  Na   0.107421   0.177452
     5  Na  -0.259446   0.512262
     6  Na  -0.397050  -0.011256
     7  Na   0.430485   0.131002
 Sum of Mulliken charges =  -0.00000   1.00000

 Dipole moment (field-independent basis, Debye):
    X=              0.5884    Y=             -0.8222    Z=             -0.0145  Tot=              1.0112
 Quadrupole moment (field-independent basis, Debye-Ang):
   XX=            -50.8986   YY=            -74.9268   ZZ=            -73.2381
   XY=              3.7313   XZ=             -1.5434   YZ=             -0.7484

 Normal termination of Gaussian 16 at Sun Dec  3 16:24:18 2023.
