 Gaussian 16, Revision B.01,
 Gaussian 16:  ES64L-G16RevB.01 20-Dec-2017

 -------------------------
 #P B3LYP/6-311+g(d) force
 -------------------------

 -----
 DPGEN
 -----
 Symbolic Z-matrix:
 Charge =  0 Multiplicity = 2

                         Standard orientation:
 ---------------------------------------------------------------------
 Center     Atomic      Atomic             Coordinates (Angstroms)
 Number     Number       Type             X           Y           Z
 ---------------------------------------------------------------------
      1         11           0       -4.837343   -0.637591   -1.072948
      2         11           0        3.611085    1.838684    0.410743
      3         11           0       -1.861072   -2.135769    1.399418
      4         11           0        1.395691   -3.230310   -0.230770
      5         11           0        3.966200   -1.482823   -0.657792
      6         11           0        0.447591    3.806355   -0.229043
      7         11           0       -2.722152    1.841455    0.380393
 ---------------------------------------------------------------------

 SCF Done:  E(UB3LYP) =  -1136.10764449     A.U. after   22 cycles

 The electronic state is 2-A.
 Alpha  occ. eigenvalues --  -38.45524 -38.45182 -38.44906 -38.44591 -38.44225
 Alpha  occ. eigenvalues --  -38.44083 -38.43767  -2.21265  -2.20933  -2.20649
 Alpha  occ. eigenvalues --   -2.20378  -2.20010  -2.19899  -2.19531  -1.14949
 Alpha  occ. eigenvalues --   -1.14932  -1.14866  -1.14634  -1.14617  -1.14542
 Alpha  occ. eigenvalues --   -1.14338  -1.14324  -1.14278  -1.14032  -1.14027
 Alpha  occ. eigenvalues --   -1.13981  -1.13727  -1.13686  -1.13662  -1.13559
 Alpha  occ. eigenvalues --   -1.13547  -1.13510  -1.13202  -1.13187  -1.13160
 Alpha  occ. eigenvalues --   -0.15513  -0.13951  -0.12793  -0.10794
 Alpha virt. eigenvalues --   -0.07402  -0.05997  -0.03922  -0.03530  -0.02948
 Alpha virt. eigenvalues --   -0.02807  -0.02247  -0.01859  -0.01272  -0.01152
 Alpha virt. eigenvalues --   -0.00434  -0.00214   0.00069   0.00327   0.00477

  Beta  occ. eigenvalues --  -38.45479 -38.45166 -38.44905 -38.44512 -38.44226
  Beta  occ. eigenvalues --  -38.44066 -38.43732  -2.21184  -2.20908  -2.20650
  Beta  occ. eigenvalues --   -2.20230  -2.20013  -2.19866  -2.19466  -1.14896
  Beta  occ. eigenvalues --   -1.14878  -1.14793  -1.14620  -1.14603  -1.14491
  Beta  occ. eigenvalues --   -1.14341  -1.14326  -1.14264  -1.13930  -1.13922
  Beta  occ. eigenvalues --   -1.13887  -1.13729  -1.13689  -1.13654  -1.13537
  Beta  occ. eigenvalues --   -1.13524  -1.13492  -1.13158  -1.13142  -1.13117
  Beta  occ. eigenvalues --   -0.15020  -0.13502  -0.12306
  Beta virt. eigenvalues --   -0.07428  -0.07328  -0.05457  -0.03585  -0.03388
  Beta virt. eigenvalues --   -0.02647  -0.02517  -0.01956  -0.01652  -0.01071
  Beta virt. eigenvalues --   -0.00856  -0.00203  -0.00002   0.00253   0.00387

 Mulliken charges and spin densities:
               1          2
     1  Na   0.335737   0.393243
     2  Na  -0.293179  -0.001765
     3  Na   0.127019   0.169052
     4  Na  -0.270167  -0.008494
     5  Na   0.432028   0.177953
     6  Na   0.075065   0.117966
     7  Na  -0.406504   0.152045
 Sum of Mulliken charges =  -0.00000   1.00000

 Dipole moment (field-independent basis, Debye):
    X=             -0.6832    Y=             -0.5425    Z=              0.0873  Tot=              0.8768
 Quadrupole moment (field-independent basis, Debye-Ang):
   XX=            -62.7212   YY=            -68.3439   ZZ=            -69.3904
   XY=              2.3036   XZ=              0.0842   YZ=              1.3070

 Normal termination of Gaussian 16 at Sun Dec  3 14:10:43 2023.
