 Gaussian 16, Revision B.01,
 Gaussian 16:  ES64L-G16RevB.01 20-Dec-2017

 -------------------------
 #P B3LYP/6-311+g(d) force
 -------------------------

 -----
 DPGEN
 -----
 Symbolic Z-matrix:
 Charge =  0 Multiplicity = 2

                         Standard orientation:
 ---------------------------------------------------------------------
 Center     Atomic      Atomic             Coordinates (Angstroms)
 Number     Number       Type             X           Y           Z
 ---------------------------------------------------------------------
      1         11           0       -0.537140    1.126134   -0.217324
      2         11           0        1.396646    3.878365    0.139052
      3         11           0        2.909811    0.759652   -0.073533
      4         11           0        4.394678   -2.360832   -0.125946
      5         11           0        0.888908   -2.036334   -0.051418
      6         11           0       -2.959649   -1.010475    0.800334
      7         11           0       -6.093255   -0.356509   -0.471165
 ---------------------------------------------------------------------

 SCF Done:  E(UB3LYP) =  -1136.12808987     A.U. after   20 cycles

 The electronic state is 2-A.
 Alpha  occ. eigenvalues --  -38.44562 -38.44249 -38.44042 -38.44025 -38.43760
 Alpha  occ. eigenvalues --  -38.43579 -38.43494  -2.20357  -2.20091  -2.19895
 Alpha  occ. eigenvalues --   -2.19850  -2.19647  -2.19395  -2.19297  -1.13992
 Alpha  occ. eigenvalues --   -1.13992  -1.13969  -1.13808  -1.13780  -1.13674
 Alpha  occ. eigenvalues --   -1.13613  -1.13598  -1.13526  -1.13509  -1.13482
 Alpha  occ. eigenvalues --   -1.13438  -1.13351  -1.13334  -1.13250  -1.13059
 Alpha  occ. eigenvalues --   -1.13053  -1.13016  -1.12992  -1.12976  -1.12933
 Alpha  occ. eigenvalues --   -0.17049  -0.13778  -0.12616  -0.11188
 Alpha virt. eigenvalues --   -0.05749  -0.05134  -0.04901  -0.03932  -0.02605
 Alpha virt. eigenvalues --   -0.02202  -0.01850  -0.01554  -0.01476  -0.00782
 Alpha virt. eigenvalues --   -0.00425   0.00044   0.00184   0.00406   0.00697

  Beta  occ. eigenvalues --  -38.44455 -38.44215 -38.44018 -38.44011 -38.43737
  Beta  occ. eigenvalues --  -38.43566 -38.43500  -2.20156  -2.20032  -2.19871
  Beta  occ. eigenvalues --   -2.19805  -2.19608  -2.19371  -2.19317  -1.13856
  Beta  occ. eigenvalues --   -1.13855  -1.13838  -1.13770  -1.13744  -1.13613
  Beta  occ. eigenvalues --   -1.13587  -1.13582  -1.13493  -1.13478  -1.13456
  Beta  occ. eigenvalues --   -1.13415  -1.13327  -1.13306  -1.13211  -1.13040
  Beta  occ. eigenvalues --   -1.13036  -1.13015  -1.13000  -1.12996  -1.12887
  Beta  occ. eigenvalues --   -0.16527  -0.13039  -0.12349
  Beta virt. eigenvalues --   -0.07712  -0.05461  -0.04731  -0.04644  -0.03710
  Beta virt. eigenvalues --   -0.02273  -0.02044  -0.01524  -0.01252  -0.01188
  Beta virt. eigenvalues --   -0.00459  -0.00103   0.00192   0.00329   0.00509

 Mulliken charges and spin densities:
               1          2
     1  Na  -1.228576  -0.121503
     2  Na   1.116528   0.127437
     3  Na  -0.914021   0.307379
     4  Na   1.574401   0.050173
     5  Na  -0.784652   0.116770
     6  Na  -0.059225   0.018592
     7  Na   0.295545   0.501153
 Sum of Mulliken charges =  -0.00000   1.00000

 Dipole moment (field-independent basis, Debye):
    X=              0.9482    Y=             -0.0572    Z=             -0.1033  Tot=              0.9555
 Quadrupole moment (field-independent basis, Debye-Ang):
   XX=            -60.7586   YY=            -61.0775   ZZ=            -71.8565
   XY=             -4.2595   XZ=              1.9992   YZ=             -0.0427

 Normal termination of Gaussian 16 at Wed Nov 29 01:48:19 2023.
