 Gaussian 16, Revision B.01,
 Gaussian 16:  ES64L-G16RevB.01 20-Dec-2017

 -------------------------
 #P B3LYP/6-311+g(d) force
 -------------------------

 -----
 DPGEN
 -----
 Symbolic Z-matrix:
 Charge =  0 Multiplicity = 2

                         Standard orientation:
 ---------------------------------------------------------------------
 Center     Atomic      Atomic             Coordinates (Angstroms)
 Number     Number       Type             X           Y           Z
 ---------------------------------------------------------------------
      1         11           0       -0.100236   -0.463789    1.772525
      2         11           0       -2.766760   -0.071422    0.212080
      3         11           0       -0.941646   -2.114943   -0.526297
      4         11           0       -1.019230    2.185996   -0.241214
      5         11           0        0.556182    0.378283   -1.717694
      6         11           0        1.991880    1.437028    0.565814
      7         11           0        2.279811   -1.351153   -0.065214
 ---------------------------------------------------------------------

 SCF Done:  E(UB3LYP) =  -1136.10581751     A.U. after   19 cycles

 The electronic state is 2-A.
 Alpha  occ. eigenvalues --  -38.44092 -38.43848 -38.43681 -38.43646 -38.43618
 Alpha  occ. eigenvalues --  -38.43250 -38.43098  -2.20105  -2.20023  -2.19806
 Alpha  occ. eigenvalues --   -2.19722  -2.19654  -2.19294  -2.19134  -1.13876
 Alpha  occ. eigenvalues --   -1.13847  -1.13824  -1.13777  -1.13737  -1.13656
 Alpha  occ. eigenvalues --   -1.13578  -1.13513  -1.13475  -1.13413  -1.13318
 Alpha  occ. eigenvalues --   -1.13305  -1.13291  -1.13253  -1.13172  -1.12958
 Alpha  occ. eigenvalues --   -1.12922  -1.12894  -1.12811  -1.12759  -1.12738
 Alpha  occ. eigenvalues --   -0.20869  -0.13931  -0.12628  -0.11924
 Alpha virt. eigenvalues --   -0.05407  -0.04588  -0.03973  -0.03790  -0.03032
 Alpha virt. eigenvalues --   -0.02808  -0.01164  -0.00585  -0.00089   0.00350
 Alpha virt. eigenvalues --    0.00587   0.00615   0.00977   0.01067   0.01101

  Beta  occ. eigenvalues --  -38.44086 -38.43766 -38.43625 -38.43607 -38.43599
  Beta  occ. eigenvalues --  -38.43232 -38.43088  -2.20098  -2.19875  -2.19692
  Beta  occ. eigenvalues --   -2.19656  -2.19637  -2.19266  -2.19120  -1.13870
  Beta  occ. eigenvalues --   -1.13822  -1.13783  -1.13701  -1.13675  -1.13556
  Beta  occ. eigenvalues --   -1.13511  -1.13432  -1.13414  -1.13329  -1.13274
  Beta  occ. eigenvalues --   -1.13251  -1.13227  -1.13206  -1.13157  -1.12939
  Beta  occ. eigenvalues --   -1.12881  -1.12858  -1.12794  -1.12747  -1.12702
  Beta  occ. eigenvalues --   -0.20060  -0.13615  -0.12332
  Beta virt. eigenvalues --   -0.07756  -0.05381  -0.04586  -0.03936  -0.02895
  Beta virt. eigenvalues --   -0.02227  -0.01666  -0.01088  -0.00532   0.00069
  Beta virt. eigenvalues --    0.00373   0.00581   0.00586   0.01025   0.01075

 Mulliken charges and spin densities:
               1          2
     1  Na  -0.435882   0.391971
     2  Na   0.102961  -0.023787
     3  Na   0.095115   0.100492
     4  Na   0.116704   0.103188
     5  Na  -0.324664   0.368694
     6  Na   0.234315   0.119968
     7  Na   0.211451  -0.060526
 Sum of Mulliken charges =  -0.00000   1.00000

 Dipole moment (field-independent basis, Debye):
    X=             -0.0078    Y=             -0.1145    Z=              0.1297  Tot=              0.1732
 Quadrupole moment (field-independent basis, Debye-Ang):
   XX=            -58.8771   YY=            -68.9199   ZZ=            -69.3049
   XY=             -0.4853   XZ=              0.6495   YZ=              1.6387

 Normal termination of Gaussian 16 at Fri Dec  8 03:18:40 2023.
