 Gaussian 16, Revision B.01,
 Gaussian 16:  ES64L-G16RevB.01 20-Dec-2017

 -------------------------
 #P B3LYP/6-311+g(d) force
 -------------------------

 -----
 DPGEN
 -----
 Symbolic Z-matrix:
 Charge =  0 Multiplicity = 2

                         Standard orientation:
 ---------------------------------------------------------------------
 Center     Atomic      Atomic             Coordinates (Angstroms)
 Number     Number       Type             X           Y           Z
 ---------------------------------------------------------------------
      1         11           0       -3.638159   -2.583933   -0.172964
      2         11           0       -4.149002    0.383416    0.757353
      3         11           0       -1.748391    3.305468   -0.388529
      4         11           0        1.266707    3.612925   -0.526446
      5         11           0        4.061052   -2.043122   -0.209008
      6         11           0        0.385587   -3.466621   -0.374465
      7         11           0        3.822206    0.791866    0.914059
 ---------------------------------------------------------------------

 SCF Done:  E(UB3LYP) =  -1136.10392277     A.U. after   19 cycles

 The electronic state is 2-A.
 Alpha  occ. eigenvalues --  -38.44834 -38.44727 -38.44646 -38.44630 -38.44534
 Alpha  occ. eigenvalues --  -38.44394 -38.44335  -2.20601  -2.20494  -2.20445
 Alpha  occ. eigenvalues --   -2.20434  -2.20332  -2.20196  -2.20140  -1.14292
 Alpha  occ. eigenvalues --   -1.14275  -1.14253  -1.14226  -1.14146  -1.14134
 Alpha  occ. eigenvalues --   -1.14110  -1.14102  -1.14089  -1.14078  -1.14076
 Alpha  occ. eigenvalues --   -1.14063  -1.14004  -1.13992  -1.13978  -1.13848
 Alpha  occ. eigenvalues --   -1.13837  -1.13804  -1.13790  -1.13782  -1.13773
 Alpha  occ. eigenvalues --   -0.15323  -0.13955  -0.13416  -0.10944
 Alpha virt. eigenvalues --   -0.07673  -0.04998  -0.04537  -0.03576  -0.03276
 Alpha virt. eigenvalues --   -0.02546  -0.02243  -0.01945  -0.01496  -0.00874
 Alpha virt. eigenvalues --   -0.00608  -0.00180   0.00003   0.00170   0.00524

  Beta  occ. eigenvalues --  -38.44843 -38.44650 -38.44615 -38.44582 -38.44523
  Beta  occ. eigenvalues --  -38.44380 -38.44290  -2.20624  -2.20451  -2.20351
  Beta  occ. eigenvalues --   -2.20314  -2.20285  -2.20172  -2.20056  -1.14301
  Beta  occ. eigenvalues --   -1.14295  -1.14245  -1.14197  -1.14118  -1.14082
  Beta  occ. eigenvalues --   -1.14052  -1.14024  -1.14010  -1.14004  -1.13992
  Beta  occ. eigenvalues --   -1.13982  -1.13965  -1.13962  -1.13956  -1.13834
  Beta  occ. eigenvalues --   -1.13823  -1.13776  -1.13732  -1.13729  -1.13716
  Beta  occ. eigenvalues --   -0.14828  -0.13455  -0.12720
  Beta virt. eigenvalues --   -0.07690  -0.07595  -0.04629  -0.04037  -0.03408
  Beta virt. eigenvalues --   -0.02862  -0.02336  -0.02088  -0.01958  -0.01305
  Beta virt. eigenvalues --   -0.00460  -0.00372   0.00071   0.00159   0.00286

 Mulliken charges and spin densities:
               1          2
     1  Na   0.118327  -0.063636
     2  Na  -0.100113   0.215619
     3  Na   0.159718   0.027472
     4  Na   0.022849   0.034346
     5  Na   0.164607  -0.043678
     6  Na  -0.071366   0.592900
     7  Na  -0.294022   0.236977
 Sum of Mulliken charges =  -0.00000   1.00000

 Dipole moment (field-independent basis, Debye):
    X=              0.1562    Y=              0.1424    Z=              0.0193  Tot=              0.2123
 Quadrupole moment (field-independent basis, Debye-Ang):
   XX=            -62.7061   YY=            -65.9658   ZZ=            -72.9155
   XY=              0.0618   XZ=             -0.7381   YZ=              2.6785

 Normal termination of Gaussian 16 at Sun Dec  3 18:55:26 2023.
