 Gaussian 16, Revision B.01,
 Gaussian 16:  ES64L-G16RevB.01 20-Dec-2017

 -------------------------
 #P B3LYP/6-311+g(d) force
 -------------------------

 -----
 DPGEN
 -----
 Symbolic Z-matrix:
 Charge =  0 Multiplicity = 2

                         Standard orientation:
 ---------------------------------------------------------------------
 Center     Atomic      Atomic             Coordinates (Angstroms)
 Number     Number       Type             X           Y           Z
 ---------------------------------------------------------------------
      1         11           0       -2.660610   -2.431192    0.585328
      2         11           0        1.736596    1.552306   -0.797797
      3         11           0        0.446413   -1.595485   -1.456991
      4         11           0        3.383998   -1.668098    0.488530
      5         11           0       -2.415872    0.517915   -0.910451
      6         11           0       -0.047780    0.123731    1.687322
      7         11           0       -0.442745    3.500821    0.404059
 ---------------------------------------------------------------------

 SCF Done:  E(UB3LYP) =  -1136.13382166     A.U. after   20 cycles

 The electronic state is 2-A.
 Alpha  occ. eigenvalues --  -38.44083 -38.44031 -38.43925 -38.43741 -38.43576
 Alpha  occ. eigenvalues --  -38.43502 -38.43346  -2.19858  -2.19836  -2.19778
 Alpha  occ. eigenvalues --   -2.19628  -2.19467  -2.19336  -2.19225  -1.13533
 Alpha  occ. eigenvalues --   -1.13522  -1.13521  -1.13493  -1.13490  -1.13486
 Alpha  occ. eigenvalues --   -1.13459  -1.13446  -1.13372  -1.13344  -1.13310
 Alpha  occ. eigenvalues --   -1.13256  -1.13165  -1.13091  -1.13085  -1.13001
 Alpha  occ. eigenvalues --   -1.12986  -1.12967  -1.12929  -1.12887  -1.12814
 Alpha  occ. eigenvalues --   -0.18149  -0.12898  -0.12529  -0.10239
 Alpha virt. eigenvalues --   -0.05786  -0.05585  -0.04737  -0.03170  -0.02894
 Alpha virt. eigenvalues --   -0.02113  -0.01722  -0.01604  -0.00659  -0.00275
 Alpha virt. eigenvalues --    0.00177   0.00297   0.00720   0.00766   0.00788

  Beta  occ. eigenvalues --  -38.44080 -38.44024 -38.43904 -38.43723 -38.43508
  Beta  occ. eigenvalues --  -38.43501 -38.43299  -2.19853  -2.19824  -2.19741
  Beta  occ. eigenvalues --   -2.19599  -2.19343  -2.19335  -2.19141  -1.13531
  Beta  occ. eigenvalues --   -1.13514  -1.13508  -1.13485  -1.13482  -1.13469
  Beta  occ. eigenvalues --   -1.13437  -1.13396  -1.13352  -1.13325  -1.13266
  Beta  occ. eigenvalues --   -1.13235  -1.13077  -1.13005  -1.13000  -1.12999
  Beta  occ. eigenvalues --   -1.12972  -1.12960  -1.12873  -1.12808  -1.12756
  Beta  occ. eigenvalues --   -0.17427  -0.12712  -0.12380
  Beta virt. eigenvalues --   -0.06446  -0.05617  -0.05471  -0.04678  -0.02544
  Beta virt. eigenvalues --   -0.02353  -0.01608  -0.01504  -0.01238  -0.00548
  Beta virt. eigenvalues --   -0.00114   0.00235   0.00348   0.00740   0.00789

 Mulliken charges and spin densities:
               1          2
     1  Na   0.069700  -0.084197
     2  Na  -0.178751   0.096941
     3  Na   0.080522   0.273987
     4  Na   0.018346  -0.111023
     5  Na  -0.036237   0.148015
     6  Na  -0.442350   0.725762
     7  Na   0.488769  -0.049484
 Sum of Mulliken charges =  -0.00000   1.00000

 Dipole moment (field-independent basis, Debye):
    X=             -0.0848    Y=             -0.2520    Z=              0.0831  Tot=              0.2786
 Quadrupole moment (field-independent basis, Debye-Ang):
   XX=            -58.1815   YY=            -58.3185   ZZ=            -74.7934
   XY=             -0.7295   XZ=              0.6914   YZ=             -1.6291

 Normal termination of Gaussian 16 at Tue Dec  5 17:15:02 2023.
