 Gaussian 16, Revision B.01,
 Gaussian 16:  ES64L-G16RevB.01 20-Dec-2017

 -------------------------
 #P B3LYP/6-311+g(d) force
 -------------------------

 -----
 DPGEN
 -----
 Symbolic Z-matrix:
 Charge =  0 Multiplicity = 2

                         Standard orientation:
 ---------------------------------------------------------------------
 Center     Atomic      Atomic             Coordinates (Angstroms)
 Number     Number       Type             X           Y           Z
 ---------------------------------------------------------------------
      1         11           0       -0.005166    0.016385    2.692907
      2         11           0        3.581564    1.342731   -1.286129
      3         11           0       -3.389859    0.013388   -0.825837
      4         11           0        0.115954   -0.166252   -1.067681
      5         11           0       -1.647873    3.006199    0.304973
      6         11           0       -1.224922   -2.908069   -0.521696
      7         11           0        2.570304   -1.304381    0.703464
 ---------------------------------------------------------------------

 SCF Done:  E(UB3LYP) =  -1136.12270016     A.U. after   22 cycles

 The electronic state is 2-A.
 Alpha  occ. eigenvalues --  -38.45162 -38.44504 -38.44469 -38.44127 -38.43549
 Alpha  occ. eigenvalues --  -38.43169 -38.42899  -2.20971  -2.20299  -2.20259
 Alpha  occ. eigenvalues --   -2.19973  -2.19496  -2.18935  -2.18728  -1.14617
 Alpha  occ. eigenvalues --   -1.14601  -1.14574  -1.13992  -1.13961  -1.13917
 Alpha  occ. eigenvalues --   -1.13905  -1.13904  -1.13881  -1.13680  -1.13644
 Alpha  occ. eigenvalues --   -1.13587  -1.13213  -1.13161  -1.13122  -1.12608
 Alpha  occ. eigenvalues --   -1.12597  -1.12581  -1.12421  -1.12384  -1.12352
 Alpha  occ. eigenvalues --   -0.17561  -0.13294  -0.11621  -0.11329
 Alpha virt. eigenvalues --   -0.05948  -0.05380  -0.04632  -0.03283  -0.02980
 Alpha virt. eigenvalues --   -0.02781  -0.01993  -0.01105  -0.00638  -0.00353
 Alpha virt. eigenvalues --   -0.00233   0.00221   0.00438   0.00662   0.00726

  Beta  occ. eigenvalues --  -38.45043 -38.44492 -38.44417 -38.44119 -38.43535
  Beta  occ. eigenvalues --  -38.43173 -38.42901  -2.20751  -2.20278  -2.20161
  Beta  occ. eigenvalues --   -2.19964  -2.19472  -2.18944  -2.18734  -1.14469
  Beta  occ. eigenvalues --   -1.14453  -1.14412  -1.13974  -1.13948  -1.13892
  Beta  occ. eigenvalues --   -1.13849  -1.13836  -1.13819  -1.13679  -1.13622
  Beta  occ. eigenvalues --   -1.13558  -1.13182  -1.13146  -1.13107  -1.12614
  Beta  occ. eigenvalues --   -1.12598  -1.12588  -1.12423  -1.12388  -1.12349
  Beta  occ. eigenvalues --   -0.16917  -0.12926  -0.11194
  Beta virt. eigenvalues --   -0.07761  -0.05654  -0.04956  -0.04557  -0.02856
  Beta virt. eigenvalues --   -0.02279  -0.02163  -0.01825  -0.01017  -0.00527
  Beta virt. eigenvalues --   -0.00216  -0.00064   0.00297   0.00672   0.00754

 Mulliken charges and spin densities:
               1          2
     1  Na  -0.379903   0.614971
     2  Na   0.047064   0.249060
     3  Na   0.173990   0.055353
     4  Na  -0.300307  -0.306810
     5  Na  -0.137435   0.076572
     6  Na   0.122732   0.104301
     7  Na   0.473859   0.206554
 Sum of Mulliken charges =  -0.00000   1.00000

 Dipole moment (field-independent basis, Debye):
    X=              0.2233    Y=             -0.1280    Z=              0.4343  Tot=              0.5049
 Quadrupole moment (field-independent basis, Debye-Ang):
   XX=            -57.3162   YY=            -68.5441   ZZ=            -68.9162
   XY=              2.0277   XZ=             -0.1792   YZ=             -3.2164

 Normal termination of Gaussian 16 at Tue Dec  5 22:48:50 2023.
