 Gaussian 16, Revision B.01,
 Gaussian 16:  ES64L-G16RevB.01 20-Dec-2017

 -------------------------
 #P B3LYP/6-311+g(d) force
 -------------------------

 -----
 DPGEN
 -----
 Symbolic Z-matrix:
 Charge =  0 Multiplicity = 2

                         Standard orientation:
 ---------------------------------------------------------------------
 Center     Atomic      Atomic             Coordinates (Angstroms)
 Number     Number       Type             X           Y           Z
 ---------------------------------------------------------------------
      1         11           0        2.668481   -0.837001    1.765124
      2         11           0       -3.070249    2.024356    0.812589
      3         11           0        2.076019   -1.202316   -1.568779
      4         11           0       -3.937665   -0.856953   -1.066027
      5         11           0        0.144664    1.111616   -0.084920
      6         11           0       -1.043038   -1.942413    0.854476
      7         11           0        3.161788    1.702712   -0.712463
 ---------------------------------------------------------------------

 SCF Done:  E(UB3LYP) =  -1136.11282947     A.U. after   30 cycles

 The electronic state is 2-A.
 Alpha  occ. eigenvalues --  -38.45037 -38.44730 -38.44715 -38.44065 -38.43806
 Alpha  occ. eigenvalues --  -38.43721 -38.43403  -2.20819  -2.20604  -2.20574
 Alpha  occ. eigenvalues --   -2.19858  -2.19746  -2.19602  -2.19202  -1.14488
 Alpha  occ. eigenvalues --   -1.14462  -1.14442  -1.14306  -1.14288  -1.14238
 Alpha  occ. eigenvalues --   -1.14206  -1.14193  -1.14172  -1.13536  -1.13524
 Alpha  occ. eigenvalues --   -1.13491  -1.13447  -1.13436  -1.13388  -1.13256
 Alpha  occ. eigenvalues --   -1.13252  -1.13236  -1.12920  -1.12884  -1.12808
 Alpha  occ. eigenvalues --   -0.18077  -0.14437  -0.11063  -0.10420
 Alpha virt. eigenvalues --   -0.07219  -0.06214  -0.04499  -0.03111  -0.02707
 Alpha virt. eigenvalues --   -0.02331  -0.02129  -0.01316  -0.01258  -0.00616
 Alpha virt. eigenvalues --   -0.00089   0.00055   0.00223   0.00309   0.00510

  Beta  occ. eigenvalues --  -38.44994 -38.44675 -38.44669 -38.44048 -38.43768
  Beta  occ. eigenvalues --  -38.43731 -38.43412  -2.20738  -2.20529  -2.20459
  Beta  occ. eigenvalues --   -2.19830  -2.19681  -2.19624  -2.19220  -1.14432
  Beta  occ. eigenvalues --   -1.14406  -1.14389  -1.14252  -1.14232  -1.14154
  Beta  occ. eigenvalues --   -1.14142  -1.14122  -1.14107  -1.13507  -1.13501
  Beta  occ. eigenvalues --   -1.13471  -1.13427  -1.13364  -1.13346  -1.13268
  Beta  occ. eigenvalues --   -1.13242  -1.13234  -1.12936  -1.12884  -1.12810
  Beta  occ. eigenvalues --   -0.17610  -0.14107  -0.10803
  Beta virt. eigenvalues --   -0.06936  -0.06806  -0.05908  -0.04215  -0.02876
  Beta virt. eigenvalues --   -0.02599  -0.01790  -0.01634  -0.00996  -0.00700
  Beta virt. eigenvalues --   -0.00531  -0.00088   0.00155   0.00353   0.00432

 Mulliken charges and spin densities:
               1          2
     1  Na   0.075167   0.193208
     2  Na   0.415322  -0.114187
     3  Na   0.399648   0.133947
     4  Na   0.210887   0.177383
     5  Na  -2.708170   0.492699
     6  Na  -0.024683   0.185476
     7  Na   1.631830  -0.068527
 Sum of Mulliken charges =  -0.00000   1.00000

 Dipole moment (field-independent basis, Debye):
    X=              0.2107    Y=             -0.3721    Z=             -0.0141  Tot=              0.4278
 Quadrupole moment (field-independent basis, Debye-Ang):
   XX=            -50.0299   YY=            -75.4561   ZZ=            -69.5170
   XY=             -0.9244   XZ=              3.0170   YZ=              3.1060

 Normal termination of Gaussian 16 at Tue Dec  5 09:51:04 2023.
