 Gaussian 16, Revision B.01,
 Gaussian 16:  ES64L-G16RevB.01 20-Dec-2017

 -------------------------
 #P B3LYP/6-311+g(d) force
 -------------------------

 -----
 DPGEN
 -----
 Symbolic Z-matrix:
 Charge =  0 Multiplicity = 2

                         Standard orientation:
 ---------------------------------------------------------------------
 Center     Atomic      Atomic             Coordinates (Angstroms)
 Number     Number       Type             X           Y           Z
 ---------------------------------------------------------------------
      1         11           0        0.736225    2.565426    0.557774
      2         11           0        0.000393    0.237748   -1.591272
      3         11           0       -1.070348   -0.368546    2.022492
      4         11           0       -2.613627    1.443632   -0.278939
      5         11           0        3.895352   -0.065648   -0.670987
      6         11           0        1.725403   -1.920316    0.803627
      7         11           0       -2.673397   -1.892297   -0.842695
 ---------------------------------------------------------------------

 SCF Done:  E(UB3LYP) =  -1136.12817197     A.U. after   21 cycles

 The electronic state is 2-A.
 Alpha  occ. eigenvalues --  -38.44789 -38.44075 -38.44003 -38.43753 -38.43558
 Alpha  occ. eigenvalues --  -38.43539 -38.42883  -2.20576  -2.19984  -2.19939
 Alpha  occ. eigenvalues --   -2.19661  -2.19396  -2.19381  -2.18716  -1.14250
 Alpha  occ. eigenvalues --   -1.14235  -1.14204  -1.13736  -1.13679  -1.13625
 Alpha  occ. eigenvalues --   -1.13588  -1.13563  -1.13541  -1.13341  -1.13299
 Alpha  occ. eigenvalues --   -1.13258  -1.13065  -1.13059  -1.13051  -1.13044
 Alpha  occ. eigenvalues --   -1.13029  -1.13012  -1.12408  -1.12384  -1.12333
 Alpha  occ. eigenvalues --   -0.18471  -0.13598  -0.11462  -0.11224
 Alpha virt. eigenvalues --   -0.06479  -0.05055  -0.04253  -0.03162  -0.02934
 Alpha virt. eigenvalues --   -0.02546  -0.02197  -0.01008  -0.00664  -0.00162
 Alpha virt. eigenvalues --    0.00151   0.00268   0.00391   0.00683   0.00835

  Beta  occ. eigenvalues --  -38.44780 -38.44063 -38.43961 -38.43662 -38.43540
  Beta  occ. eigenvalues --  -38.43521 -38.42879  -2.20558  -2.19966  -2.19862
  Beta  occ. eigenvalues --   -2.19495  -2.19365  -2.19351  -2.18710  -1.14240
  Beta  occ. eigenvalues --   -1.14221  -1.14191  -1.13710  -1.13649  -1.13570
  Beta  occ. eigenvalues --   -1.13559  -1.13521  -1.13486  -1.13225  -1.13187
  Beta  occ. eigenvalues --   -1.13139  -1.13040  -1.13039  -1.13028  -1.13013
  Beta  occ. eigenvalues --   -1.12998  -1.12980  -1.12406  -1.12364  -1.12328
  Beta  occ. eigenvalues --   -0.17739  -0.13373  -0.11227
  Beta virt. eigenvalues --   -0.07332  -0.06246  -0.05004  -0.03927  -0.02872
  Beta virt. eigenvalues --   -0.02126  -0.02071  -0.01652  -0.00965  -0.00442
  Beta virt. eigenvalues --   -0.00040   0.00167   0.00303   0.00580   0.00759

 Mulliken charges and spin densities:
               1          2
     1  Na  -0.252290  -0.057087
     2  Na  -0.415841   0.352779
     3  Na   0.009508   0.568349
     4  Na   0.621346   0.099490
     5  Na   0.212602   0.035425
     6  Na  -0.178734  -0.034203
     7  Na   0.003409   0.035246
 Sum of Mulliken charges =  -0.00000   1.00000

 Dipole moment (field-independent basis, Debye):
    X=              0.2842    Y=              0.2159    Z=             -0.1756  Tot=              0.3978
 Quadrupole moment (field-independent basis, Debye-Ang):
   XX=            -51.6119   YY=            -71.7811   ZZ=            -70.4612
   XY=              1.1031   XZ=             -1.0355   YZ=              1.3664

 Normal termination of Gaussian 16 at Tue Dec  5 15:03:33 2023.
