 Gaussian 16, Revision B.01,
 Gaussian 16:  ES64L-G16RevB.01 20-Dec-2017

 -------------------------
 #P B3LYP/6-311+g(d) force
 -------------------------

 -----
 DPGEN
 -----
 Symbolic Z-matrix:
 Charge =  0 Multiplicity = 2

                         Standard orientation:
 ---------------------------------------------------------------------
 Center     Atomic      Atomic             Coordinates (Angstroms)
 Number     Number       Type             X           Y           Z
 ---------------------------------------------------------------------
      1         11           0       -0.276003   -0.433815    1.909770
      2         11           0       -0.537278   -2.853843   -0.756034
      3         11           0       -3.372371   -1.543814    0.094418
      4         11           0       -3.158715    1.627495   -0.752705
      5         11           0       -0.224537    2.810107   -0.022123
      6         11           0        2.787461    1.489914   -0.160461
      7         11           0        4.781443   -1.096044   -0.312866
 ---------------------------------------------------------------------

 SCF Done:  E(UB3LYP) =  -1136.11671064     A.U. after   21 cycles

 The electronic state is 2-A.
 Alpha  occ. eigenvalues --  -38.45509 -38.44900 -38.44316 -38.44022 -38.43764
 Alpha  occ. eigenvalues --  -38.43550 -38.43348  -2.21301  -2.20687  -2.20173
 Alpha  occ. eigenvalues --   -2.19823  -2.19581  -2.19394  -2.19194  -1.14970
 Alpha  occ. eigenvalues --   -1.14955  -1.14905  -1.14362  -1.14345  -1.14329
 Alpha  occ. eigenvalues --   -1.13852  -1.13840  -1.13793  -1.13477  -1.13464
 Alpha  occ. eigenvalues --   -1.13453  -1.13268  -1.13242  -1.13237  -1.13061
 Alpha  occ. eigenvalues --   -1.13048  -1.13045  -1.12863  -1.12842  -1.12831
 Alpha  occ. eigenvalues --   -0.17105  -0.13815  -0.12336  -0.10811
 Alpha virt. eigenvalues --   -0.06840  -0.05858  -0.04211  -0.03436  -0.03056
 Alpha virt. eigenvalues --   -0.02338  -0.02120  -0.01663  -0.01111  -0.00616
 Alpha virt. eigenvalues --   -0.00350   0.00037   0.00398   0.00524   0.00682

  Beta  occ. eigenvalues --  -38.45447 -38.44900 -38.44288 -38.43945 -38.43767
  Beta  occ. eigenvalues --  -38.43507 -38.43341  -2.21186  -2.20688  -2.20125
  Beta  occ. eigenvalues --   -2.19682  -2.19592  -2.19316  -2.19182  -1.14894
  Beta  occ. eigenvalues --   -1.14882  -1.14817  -1.14364  -1.14348  -1.14322
  Beta  occ. eigenvalues --   -1.13823  -1.13809  -1.13734  -1.13389  -1.13367
  Beta  occ. eigenvalues --   -1.13358  -1.13280  -1.13252  -1.13199  -1.13010
  Beta  occ. eigenvalues --   -1.12998  -1.12988  -1.12857  -1.12832  -1.12810
  Beta  occ. eigenvalues --   -0.16578  -0.13246  -0.11935
  Beta virt. eigenvalues --   -0.07408  -0.06540  -0.05693  -0.03940  -0.02999
  Beta virt. eigenvalues --   -0.02598  -0.02086  -0.01873  -0.01302  -0.00908
  Beta virt. eigenvalues --   -0.00589  -0.00068   0.00240   0.00478   0.00621

 Mulliken charges and spin densities:
               1          2
     1  Na  -0.258406   0.103268
     2  Na  -0.046556  -0.054970
     3  Na   0.298743   0.327302
     4  Na  -0.145333   0.224398
     5  Na   0.058682   0.009721
     6  Na  -0.243720   0.024989
     7  Na   0.336590   0.365293
 Sum of Mulliken charges =  -0.00000   1.00000

 Dipole moment (field-independent basis, Debye):
    X=             -0.5652    Y=             -1.3043    Z=              0.3831  Tot=              1.4722
 Quadrupole moment (field-independent basis, Debye-Ang):
   XX=            -72.2069   YY=            -66.0697   ZZ=            -66.8068
   XY=              0.5787   XZ=             -1.3596   YZ=              1.6127

 Normal termination of Gaussian 16 at Mon Nov 27 04:22:20 2023.
