 Gaussian 16, Revision B.01,
 Gaussian 16:  ES64L-G16RevB.01 20-Dec-2017

 -------------------------
 #P B3LYP/6-311+g(d) force
 -------------------------

 -----
 DPGEN
 -----
 Symbolic Z-matrix:
 Charge =  0 Multiplicity = 2

                         Standard orientation:
 ---------------------------------------------------------------------
 Center     Atomic      Atomic             Coordinates (Angstroms)
 Number     Number       Type             X           Y           Z
 ---------------------------------------------------------------------
      1         11           0       -1.548167   -1.639233   -0.579088
      2         11           0       -4.878347   -1.404740   -0.403535
      3         11           0       -4.601698    1.887362   -0.912061
      4         11           0       -1.604991    1.554004    1.041956
      5         11           0        0.405673   -0.561473    1.565037
      6         11           0        4.781717   -0.298293    0.270629
      7         11           0        7.445813    0.462373   -0.982938
 ---------------------------------------------------------------------

 SCF Done:  E(UB3LYP) =  -1136.11215979     A.U. after   18 cycles

 The electronic state is 2-A.
 Alpha  occ. eigenvalues --  -38.44804 -38.44728 -38.44261 -38.44240 -38.43969
 Alpha  occ. eigenvalues --  -38.43894 -38.43807  -2.20690  -2.20613  -2.20086
 Alpha  occ. eigenvalues --   -2.20050  -2.19763  -2.19703  -2.19683  -1.14362
 Alpha  occ. eigenvalues --   -1.14346  -1.14334  -1.14289  -1.14268  -1.14243
 Alpha  occ. eigenvalues --   -1.13754  -1.13749  -1.13744  -1.13712  -1.13703
 Alpha  occ. eigenvalues --   -1.13648  -1.13508  -1.13415  -1.13415  -1.13375
 Alpha  occ. eigenvalues --   -1.13357  -1.13340  -1.13338  -1.13327  -1.13263
 Alpha  occ. eigenvalues --   -0.17274  -0.13419  -0.12386  -0.11643
 Alpha virt. eigenvalues --   -0.06378  -0.05696  -0.04486  -0.03737  -0.03175
 Alpha virt. eigenvalues --   -0.02537  -0.02109  -0.01654  -0.01295  -0.01234
 Alpha virt. eigenvalues --   -0.00358  -0.00047   0.00275   0.00364   0.00407

  Beta  occ. eigenvalues --  -38.44739 -38.44664 -38.44228 -38.44204 -38.43969
  Beta  occ. eigenvalues --  -38.43894 -38.43802  -2.20573  -2.20497  -2.20027
  Beta  occ. eigenvalues --   -2.19984  -2.19763  -2.19697  -2.19683  -1.14285
  Beta  occ. eigenvalues --   -1.14265  -1.14238  -1.14202  -1.14185  -1.14163
  Beta  occ. eigenvalues --   -1.13715  -1.13710  -1.13691  -1.13667  -1.13645
  Beta  occ. eigenvalues --   -1.13604  -1.13508  -1.13415  -1.13415  -1.13362
  Beta  occ. eigenvalues --   -1.13344  -1.13340  -1.13338  -1.13324  -1.13263
  Beta  occ. eigenvalues --   -0.16513  -0.13303  -0.12309
  Beta virt. eigenvalues --   -0.07582  -0.06310  -0.05214  -0.04112  -0.03387
  Beta virt. eigenvalues --   -0.02476  -0.02362  -0.02050  -0.01591  -0.01193
  Beta virt. eigenvalues --   -0.00708  -0.00018   0.00066   0.00371   0.00464

 Mulliken charges and spin densities:
               1          2
     1  Na  -0.134084   0.403135
     2  Na   0.162954   0.057810
     3  Na   0.145129   0.067743
     4  Na   0.067817   0.271155
     5  Na  -0.451850   0.236969
     6  Na  -0.433220  -0.044401
     7  Na   0.643253   0.007588
 Sum of Mulliken charges =  -0.00000   1.00000

 Dipole moment (field-independent basis, Debye):
    X=             -1.0710    Y=              0.0445    Z=             -0.0868  Tot=              1.0754
 Quadrupole moment (field-independent basis, Debye-Ang):
   XX=            -61.8900   YY=            -69.6516   ZZ=            -68.7799
   XY=              1.7796   XZ=             -2.7653   YZ=             -2.1157

 Normal termination of Gaussian 16 at Tue Nov 28 20:53:56 2023.
