 Gaussian 16, Revision B.01,
 Gaussian 16:  ES64L-G16RevB.01 20-Dec-2017

 -------------------------
 #P B3LYP/6-311+g(d) force
 -------------------------

 -----
 DPGEN
 -----
 Symbolic Z-matrix:
 Charge =  0 Multiplicity = 2

                         Standard orientation:
 ---------------------------------------------------------------------
 Center     Atomic      Atomic             Coordinates (Angstroms)
 Number     Number       Type             X           Y           Z
 ---------------------------------------------------------------------
      1         11           0       -0.998105    2.409553    0.884877
      2         11           0        3.175420   -1.004410   -1.444903
      3         11           0       -2.986781    0.790470   -1.229526
      4         11           0        1.958407   -1.095619    1.923954
      5         11           0       -3.301128   -1.870824    0.590734
      6         11           0       -0.080618   -0.952743   -0.691762
      7         11           0        2.232805    1.723573   -0.033373
 ---------------------------------------------------------------------

 SCF Done:  E(UB3LYP) =  -1136.12205391     A.U. after   24 cycles

 The electronic state is 2-A.
 Alpha  occ. eigenvalues --  -38.44579 -38.44564 -38.44068 -38.44015 -38.43970
 Alpha  occ. eigenvalues --  -38.43839 -38.42610  -2.20428  -2.20374  -2.19936
 Alpha  occ. eigenvalues --   -2.19900  -2.19888  -2.19728  -2.18440  -1.14122
 Alpha  occ. eigenvalues --   -1.14112  -1.14071  -1.14033  -1.14028  -1.13975
 Alpha  occ. eigenvalues --   -1.13659  -1.13609  -1.13596  -1.13576  -1.13564
 Alpha  occ. eigenvalues --   -1.13553  -1.13543  -1.13526  -1.13503  -1.13377
 Alpha  occ. eigenvalues --   -1.13367  -1.13327  -1.12110  -1.12098  -1.12095
 Alpha  occ. eigenvalues --   -0.18169  -0.14507  -0.11252  -0.10575
 Alpha virt. eigenvalues --   -0.06475  -0.05917  -0.04821  -0.03181  -0.02570
 Alpha virt. eigenvalues --   -0.02374  -0.02054  -0.01177  -0.00754  -0.00454
 Alpha virt. eigenvalues --    0.00028   0.00222   0.00227   0.00388   0.00673

  Beta  occ. eigenvalues --  -38.44584 -38.44553 -38.43998 -38.43985 -38.43954
  Beta  occ. eigenvalues --  -38.43783 -38.42611  -2.20407  -2.20384  -2.19874
  Beta  occ. eigenvalues --   -2.19864  -2.19783  -2.19624  -2.18443  -1.14114
  Beta  occ. eigenvalues --   -1.14097  -1.14062  -1.14039  -1.14031  -1.13973
  Beta  occ. eigenvalues --   -1.13601  -1.13570  -1.13549  -1.13540  -1.13516
  Beta  occ. eigenvalues --   -1.13502  -1.13471  -1.13449  -1.13435  -1.13308
  Beta  occ. eigenvalues --   -1.13293  -1.13256  -1.12114  -1.12098  -1.12088
  Beta  occ. eigenvalues --   -0.17558  -0.14276  -0.11124
  Beta virt. eigenvalues --   -0.06830  -0.06232  -0.05605  -0.04427  -0.03051
  Beta virt. eigenvalues --   -0.02371  -0.01879  -0.01302  -0.01014  -0.00392
  Beta virt. eigenvalues --   -0.00272   0.00208   0.00264   0.00346   0.00555

 Mulliken charges and spin densities:
               1          2
     1  Na  -0.159698  -0.014616
     2  Na   1.036409   0.294216
     3  Na   0.680352  -0.092556
     4  Na  -0.352432   0.354796
     5  Na   0.106933  -0.091132
     6  Na  -1.300194   0.362257
     7  Na  -0.011370   0.187036
 Sum of Mulliken charges =  -0.00000   1.00000

 Dipole moment (field-independent basis, Debye):
    X=             -0.5452    Y=             -0.4011    Z=              0.1762  Tot=              0.6994
 Quadrupole moment (field-independent basis, Debye-Ang):
   XX=            -51.7198   YY=            -74.1118   ZZ=            -69.4741
   XY=              0.4027   XZ=              0.1703   YZ=             -2.1130

 Normal termination of Gaussian 16 at Tue Dec  5 22:27:07 2023.
