 Gaussian 16, Revision B.01,
 Gaussian 16:  ES64L-G16RevB.01 20-Dec-2017

 -------------------------
 #P B3LYP/6-311+g(d) force
 -------------------------

 -----
 DPGEN
 -----
 Symbolic Z-matrix:
 Charge =  0 Multiplicity = 2

                         Standard orientation:
 ---------------------------------------------------------------------
 Center     Atomic      Atomic             Coordinates (Angstroms)
 Number     Number       Type             X           Y           Z
 ---------------------------------------------------------------------
      1         11           0        2.971623    1.682328    0.088015
      2         11           0       -0.896329   -2.207224   -0.586689
      3         11           0       -3.480492   -0.709321    0.437801
      4         11           0        0.209353    0.224607    2.233813
      5         11           0        0.532390    0.257650   -1.637068
      6         11           0        2.869548   -1.570586   -0.008262
      7         11           0       -2.206093    2.322546   -0.527610
 ---------------------------------------------------------------------

 SCF Done:  E(UB3LYP) =  -1136.12038675     A.U. after   24 cycles

 The electronic state is 2-A.
 Alpha  occ. eigenvalues --  -38.45116 -38.44669 -38.44596 -38.44422 -38.43688
 Alpha  occ. eigenvalues --  -38.43567 -38.42583  -2.20929  -2.20477  -2.20435
 Alpha  occ. eigenvalues --   -2.20255  -2.19650  -2.19357  -2.18477  -1.14609
 Alpha  occ. eigenvalues --   -1.14589  -1.14565  -1.14143  -1.14124  -1.14112
 Alpha  occ. eigenvalues --   -1.14101  -1.14087  -1.14076  -1.13932  -1.13900
 Alpha  occ. eigenvalues --   -1.13897  -1.13359  -1.13300  -1.13255  -1.13028
 Alpha  occ. eigenvalues --   -1.13010  -1.13008  -1.12194  -1.12126  -1.12098
 Alpha  occ. eigenvalues --   -0.18328  -0.13936  -0.11192  -0.10986
 Alpha virt. eigenvalues --   -0.06835  -0.05829  -0.04044  -0.03259  -0.02864
 Alpha virt. eigenvalues --   -0.02441  -0.02346  -0.01396  -0.00658  -0.00208
 Alpha virt. eigenvalues --    0.00037   0.00230   0.00435   0.00587   0.00702

  Beta  occ. eigenvalues --  -38.45116 -38.44591 -38.44574 -38.44422 -38.43620
  Beta  occ. eigenvalues --  -38.43560 -38.42574  -2.20930  -2.20429  -2.20301
  Beta  occ. eigenvalues --   -2.20258  -2.19526  -2.19345  -2.18466  -1.14613
  Beta  occ. eigenvalues --   -1.14577  -1.14568  -1.14124  -1.14081  -1.14068
  Beta  occ. eigenvalues --   -1.14022  -1.13987  -1.13963  -1.13926  -1.13904
  Beta  occ. eigenvalues --   -1.13885  -1.13274  -1.13212  -1.13160  -1.13010
  Beta  occ. eigenvalues --   -1.13002  -1.12999  -1.12178  -1.12101  -1.12091
  Beta  occ. eigenvalues --   -0.17602  -0.13808  -0.10932
  Beta virt. eigenvalues --   -0.07139  -0.06575  -0.05833  -0.03575  -0.02978
  Beta virt. eigenvalues --   -0.02215  -0.01884  -0.01760  -0.01224  -0.00674
  Beta virt. eigenvalues --   -0.00053   0.00048   0.00271   0.00617   0.00667

 Mulliken charges and spin densities:
               1          2
     1  Na   0.105748   0.031667
     2  Na  -0.118044   0.090686
     3  Na   0.093062   0.030265
     4  Na  -0.427709   0.581922
     5  Na   0.154273   0.085323
     6  Na   0.208666   0.105693
     7  Na  -0.015996   0.074444
 Sum of Mulliken charges =  -0.00000   1.00000

 Dipole moment (field-independent basis, Debye):
    X=              0.4155    Y=             -0.0600    Z=              0.5653  Tot=              0.7042
 Quadrupole moment (field-independent basis, Debye-Ang):
   XX=            -48.1314   YY=            -72.6600   ZZ=            -73.4220
   XY=              0.5739   XZ=             -0.9158   YZ=             -1.1213

 Normal termination of Gaussian 16 at Thu Dec  7 13:06:41 2023.
