 Gaussian 16, Revision B.01,
 Gaussian 16:  ES64L-G16RevB.01 20-Dec-2017

 -------------------------
 #P B3LYP/6-311+g(d) force
 -------------------------

 -----
 DPGEN
 -----
 Symbolic Z-matrix:
 Charge =  0 Multiplicity = 2

                         Standard orientation:
 ---------------------------------------------------------------------
 Center     Atomic      Atomic             Coordinates (Angstroms)
 Number     Number       Type             X           Y           Z
 ---------------------------------------------------------------------
      1         11           0        5.228765   -0.090834    0.002541
      2         11           0        1.777165    1.672499   -0.751834
      3         11           0       -3.711302    1.319121    0.525499
      4         11           0       -0.807971   -3.057668   -0.365961
      5         11           0        1.999808   -2.008993    0.797402
      6         11           0       -0.462057    3.554326    0.153589
      7         11           0       -4.024408   -1.388451   -0.361236
 ---------------------------------------------------------------------

 SCF Done:  E(UB3LYP) =  -1136.11151808     A.U. after   19 cycles

 The electronic state is 2-A.
 Alpha  occ. eigenvalues --  -38.44881 -38.44879 -38.44517 -38.44516 -38.44302
 Alpha  occ. eigenvalues --  -38.44099 -38.43570  -2.20704  -2.20666  -2.20317
 Alpha  occ. eigenvalues --   -2.20307  -2.20148  -2.19908  -2.19385  -1.14477
 Alpha  occ. eigenvalues --   -1.14351  -1.14318  -1.14312  -1.14308  -1.14266
 Alpha  occ. eigenvalues --   -1.14013  -1.14003  -1.13990  -1.13987  -1.13957
 Alpha  occ. eigenvalues --   -1.13939  -1.13812  -1.13786  -1.13764  -1.13566
 Alpha  occ. eigenvalues --   -1.13563  -1.13531  -1.13061  -1.13033  -1.13012
 Alpha  occ. eigenvalues --   -0.16011  -0.14169  -0.12984  -0.11323
 Alpha virt. eigenvalues --   -0.06699  -0.05445  -0.04070  -0.03626  -0.03346
 Alpha virt. eigenvalues --   -0.02382  -0.02175  -0.01356  -0.01309  -0.00841
 Alpha virt. eigenvalues --   -0.00704  -0.00274   0.00274   0.00566   0.00669

  Beta  occ. eigenvalues --  -38.44850 -38.44779 -38.44504 -38.44502 -38.44282
  Beta  occ. eigenvalues --  -38.44056 -38.43545  -2.20651  -2.20478  -2.20297
  Beta  occ. eigenvalues --   -2.20289  -2.20115  -2.19830  -2.19341  -1.14429
  Beta  occ. eigenvalues --   -1.14317  -1.14277  -1.14184  -1.14180  -1.14144
  Beta  occ. eigenvalues --   -1.13996  -1.13984  -1.13982  -1.13973  -1.13924
  Beta  occ. eigenvalues --   -1.13897  -1.13780  -1.13766  -1.13735  -1.13513
  Beta  occ. eigenvalues --   -1.13507  -1.13477  -1.13023  -1.13004  -1.12986
  Beta  occ. eigenvalues --   -0.15523  -0.13390  -0.12345
  Beta virt. eigenvalues --   -0.07998  -0.06803  -0.04884  -0.03859  -0.03357
  Beta virt. eigenvalues --   -0.02973  -0.02163  -0.01794  -0.01107  -0.01066
  Beta virt. eigenvalues --   -0.00510  -0.00348  -0.00182   0.00437   0.00624

 Mulliken charges and spin densities:
               1          2
     1  Na   0.502790   0.458881
     2  Na  -0.857961   0.117485
     3  Na  -0.598974   0.140874
     4  Na  -0.392958   0.121947
     5  Na   0.102192   0.050721
     6  Na   0.524212   0.041632
     7  Na   0.720699   0.068460
 Sum of Mulliken charges =  -0.00000   1.00000

 Dipole moment (field-independent basis, Debye):
    X=              0.2455    Y=             -0.1657    Z=              0.0797  Tot=              0.3067
 Quadrupole moment (field-independent basis, Debye-Ang):
   XX=            -60.0396   YY=            -68.0355   ZZ=            -70.6803
   XY=             -0.1701   XZ=              0.0984   YZ=              1.9098

 Normal termination of Gaussian 16 at Sun Dec  3 21:25:12 2023.
