 Gaussian 16, Revision B.01,
 Gaussian 16:  ES64L-G16RevB.01 20-Dec-2017

 -------------------------
 #P B3LYP/6-311+g(d) force
 -------------------------

 -----
 DPGEN
 -----
 Symbolic Z-matrix:
 Charge =  0 Multiplicity = 2

                         Standard orientation:
 ---------------------------------------------------------------------
 Center     Atomic      Atomic             Coordinates (Angstroms)
 Number     Number       Type             X           Y           Z
 ---------------------------------------------------------------------
      1         11           0       -3.440878   -1.508602   -0.404766
      2         11           0        3.748867    0.917387   -1.013588
      3         11           0       -0.278379   -0.735254    1.957003
      4         11           0       -2.887350    2.434882   -0.150517
      5         11           0       -0.563713   -2.243003   -1.144598
      6         11           0        2.999283   -1.376657    0.602484
      7         11           0        0.422171    2.511247    0.153981
 ---------------------------------------------------------------------

 SCF Done:  E(UB3LYP) =  -1136.11755893     A.U. after   19 cycles

 The electronic state is 2-A.
 Alpha  occ. eigenvalues --  -38.44499 -38.44408 -38.44266 -38.44155 -38.44151
 Alpha  occ. eigenvalues --  -38.44087 -38.43850  -2.20351  -2.20236  -2.20114
 Alpha  occ. eigenvalues --   -2.19987  -2.19942  -2.19920  -2.19636  -1.14126
 Alpha  occ. eigenvalues --   -1.14007  -1.13987  -1.13952  -1.13900  -1.13891
 Alpha  occ. eigenvalues --   -1.13775  -1.13738  -1.13730  -1.13643  -1.13612
 Alpha  occ. eigenvalues --   -1.13609  -1.13599  -1.13583  -1.13579  -1.13566
 Alpha  occ. eigenvalues --   -1.13566  -1.13549  -1.13325  -1.13314  -1.13250
 Alpha  occ. eigenvalues --   -0.17261  -0.13909  -0.12183  -0.10695
 Alpha virt. eigenvalues --   -0.06519  -0.06079  -0.04101  -0.03703  -0.02910
 Alpha virt. eigenvalues --   -0.02371  -0.02161  -0.01760  -0.00880  -0.00390
 Alpha virt. eigenvalues --   -0.00224   0.00166   0.00363   0.00528   0.00622

  Beta  occ. eigenvalues --  -38.44489 -38.44404 -38.44176 -38.44153 -38.44115
  Beta  occ. eigenvalues --  -38.44030 -38.43847  -2.20340  -2.20233  -2.19949
  Beta  occ. eigenvalues --   -2.19924  -2.19912  -2.19836  -2.19631  -1.14093
  Beta  occ. eigenvalues --   -1.14005  -1.13955  -1.13947  -1.13900  -1.13862
  Beta  occ. eigenvalues --   -1.13666  -1.13626  -1.13610  -1.13602  -1.13589
  Beta  occ. eigenvalues --   -1.13576  -1.13572  -1.13568  -1.13554  -1.13516
  Beta  occ. eigenvalues --   -1.13494  -1.13478  -1.13322  -1.13298  -1.13249
  Beta  occ. eigenvalues --   -0.16648  -0.13328  -0.12059
  Beta virt. eigenvalues --   -0.07159  -0.06346  -0.05843  -0.03723  -0.03339
  Beta virt. eigenvalues --   -0.02352  -0.02079  -0.01942  -0.01403  -0.00720
  Beta virt. eigenvalues --   -0.00224  -0.00048   0.00317   0.00456   0.00608

 Mulliken charges and spin densities:
               1          2
     1  Na   0.131721   0.200976
     2  Na   0.068462   0.353796
     3  Na  -0.301041   0.508005
     4  Na   0.098633  -0.048479
     5  Na  -0.013709   0.023455
     6  Na   0.325286   0.021847
     7  Na  -0.309353  -0.059600
 Sum of Mulliken charges =  -0.00000   1.00000

 Dipole moment (field-independent basis, Debye):
    X=             -0.3671    Y=             -0.4613    Z=              0.1252  Tot=              0.6027
 Quadrupole moment (field-independent basis, Debye-Ang):
   XX=            -60.2616   YY=            -71.6391   ZZ=            -69.6538
   XY=             -2.5316   XZ=             -1.4136   YZ=             -1.3533

 Normal termination of Gaussian 16 at Sun Dec  3 15:20:39 2023.
