 Gaussian 16, Revision B.01,
 Gaussian 16:  ES64L-G16RevB.01 20-Dec-2017

 -------------------------
 #P B3LYP/6-311+g(d) force
 -------------------------

 -----
 DPGEN
 -----
 Symbolic Z-matrix:
 Charge =  0 Multiplicity = 2

                         Standard orientation:
 ---------------------------------------------------------------------
 Center     Atomic      Atomic             Coordinates (Angstroms)
 Number     Number       Type             X           Y           Z
 ---------------------------------------------------------------------
      1         11           0        3.101485    0.547131    0.211651
      2         11           0        0.310286    3.401229   -0.217095
      3         11           0       -0.584987    0.171505    2.195827
      4         11           0        1.786151   -2.518277   -0.292650
      5         11           0       -3.214049    0.594966   -0.448177
      6         11           0        0.170106    0.179380   -1.435590
      7         11           0       -1.568991   -2.375933   -0.013967
 ---------------------------------------------------------------------

 SCF Done:  E(UB3LYP) =  -1136.13405809     A.U. after   20 cycles

 The electronic state is 2-A.
 Alpha  occ. eigenvalues --  -38.44307 -38.44276 -38.44122 -38.43638 -38.43487
 Alpha  occ. eigenvalues --  -38.43354 -38.43026  -2.20113  -2.20085  -2.19888
 Alpha  occ. eigenvalues --   -2.19487  -2.19366  -2.19212  -2.18998  -1.13786
 Alpha  occ. eigenvalues --   -1.13769  -1.13765  -1.13757  -1.13754  -1.13714
 Alpha  occ. eigenvalues --   -1.13569  -1.13541  -1.13529  -1.13152  -1.13112
 Alpha  occ. eigenvalues --   -1.13106  -1.13058  -1.13029  -1.13004  -1.12895
 Alpha  occ. eigenvalues --   -1.12864  -1.12852  -1.12694  -1.12634  -1.12625
 Alpha  occ. eigenvalues --   -0.18250  -0.12931  -0.12381  -0.10487
 Alpha virt. eigenvalues --   -0.06071  -0.05165  -0.04863  -0.03113  -0.02778
 Alpha virt. eigenvalues --   -0.02435  -0.01634  -0.01421  -0.00634  -0.00476
 Alpha virt. eigenvalues --   -0.00019   0.00327   0.00744   0.00799   0.00855

  Beta  occ. eigenvalues --  -38.44298 -38.44274 -38.44122 -38.43533 -38.43479
  Beta  occ. eigenvalues --  -38.43351 -38.42980  -2.20098  -2.20084  -2.19890
  Beta  occ. eigenvalues --   -2.19356  -2.19293  -2.19208  -2.18915  -1.13767
  Beta  occ. eigenvalues --   -1.13765  -1.13749  -1.13745  -1.13741  -1.13716
  Beta  occ. eigenvalues --   -1.13559  -1.13542  -1.13531  -1.13065  -1.13019
  Beta  occ. eigenvalues --   -1.13006  -1.12992  -1.12973  -1.12955  -1.12886
  Beta  occ. eigenvalues --   -1.12853  -1.12847  -1.12631  -1.12571  -1.12564
  Beta  occ. eigenvalues --   -0.17559  -0.12732  -0.12184
  Beta virt. eigenvalues --   -0.06558  -0.06051  -0.05055  -0.04844  -0.02384
  Beta virt. eigenvalues --   -0.02074  -0.01545  -0.01453  -0.01293  -0.00647
  Beta virt. eigenvalues --   -0.00507   0.00154   0.00376   0.00752   0.00845

 Mulliken charges and spin densities:
               1          2
     1  Na   0.095163   0.029858
     2  Na  -0.021813  -0.075398
     3  Na  -0.578687   0.699543
     4  Na   0.114325   0.022107
     5  Na   0.149099  -0.024297
     6  Na  -0.169606   0.203818
     7  Na   0.411519   0.144368
 Sum of Mulliken charges =  -0.00000   1.00000

 Dipole moment (field-independent basis, Debye):
    X=             -0.0643    Y=              0.4157    Z=              0.1047  Tot=              0.4335
 Quadrupole moment (field-independent basis, Debye-Ang):
   XX=            -56.6546   YY=            -59.9930   ZZ=            -76.0342
   XY=             -0.5404   XZ=              1.8869   YZ=              0.2437

 Normal termination of Gaussian 16 at Fri Dec  8 03:29:41 2023.
