 Gaussian 16, Revision B.01,
 Gaussian 16:  ES64L-G16RevB.01 20-Dec-2017

 -------------------------
 #P B3LYP/6-311+g(d) force
 -------------------------

 -----
 DPGEN
 -----
 Symbolic Z-matrix:
 Charge =  0 Multiplicity = 2

                         Standard orientation:
 ---------------------------------------------------------------------
 Center     Atomic      Atomic             Coordinates (Angstroms)
 Number     Number       Type             X           Y           Z
 ---------------------------------------------------------------------
      1         11           0       -1.198923    0.513347    1.837942
      2         11           0       -3.253332   -0.174863   -0.921899
      3         11           0        0.500941   -0.330530   -1.562189
      4         11           0       -1.399210   -2.617103    0.756035
      5         11           0       -0.613149    2.736499   -0.551328
      6         11           0        3.455117   -1.534377   -0.423320
      7         11           0        2.508557    1.407027    0.864760
 ---------------------------------------------------------------------

 SCF Done:  E(UB3LYP) =  -1136.13148723     A.U. after   21 cycles

 The electronic state is 2-A.
 Alpha  occ. eigenvalues --  -38.44764 -38.44147 -38.43895 -38.43744 -38.43599
 Alpha  occ. eigenvalues --  -38.43557 -38.42782  -2.20581  -2.19974  -2.19700
 Alpha  occ. eigenvalues --   -2.19636  -2.19464  -2.19427  -2.18641  -1.14258
 Alpha  occ. eigenvalues --   -1.14231  -1.14208  -1.13655  -1.13645  -1.13599
 Alpha  occ. eigenvalues --   -1.13379  -1.13354  -1.13349  -1.13326  -1.13292
 Alpha  occ. eigenvalues --   -1.13239  -1.13169  -1.13122  -1.13112  -1.13076
 Alpha  occ. eigenvalues --   -1.13065  -1.13034  -1.12325  -1.12311  -1.12265
 Alpha  occ. eigenvalues --   -0.18117  -0.13521  -0.11752  -0.10786
 Alpha virt. eigenvalues --   -0.06254  -0.05310  -0.04312  -0.03456  -0.02862
 Alpha virt. eigenvalues --   -0.02459  -0.01968  -0.01050  -0.00600  -0.00172
 Alpha virt. eigenvalues --   -0.00105   0.00299   0.00480   0.00776   0.00804

  Beta  occ. eigenvalues --  -38.44741 -38.44132 -38.43895 -38.43695 -38.43579
  Beta  occ. eigenvalues --  -38.43491 -38.42775  -2.20540  -2.19946  -2.19702
  Beta  occ. eigenvalues --   -2.19548  -2.19392  -2.19344  -2.18631  -1.14222
  Beta  occ. eigenvalues --   -1.14205  -1.14170  -1.13633  -1.13623  -1.13579
  Beta  occ. eigenvalues --   -1.13369  -1.13352  -1.13350  -1.13265  -1.13235
  Beta  occ. eigenvalues --   -1.13172  -1.13109  -1.13049  -1.13042  -1.13039
  Beta  occ. eigenvalues --   -1.13029  -1.12963  -1.12317  -1.12302  -1.12239
  Beta  occ. eigenvalues --   -0.17426  -0.13336  -0.11524
  Beta virt. eigenvalues --   -0.06993  -0.06074  -0.05134  -0.04173  -0.02960
  Beta virt. eigenvalues --   -0.02269  -0.01883  -0.01486  -0.00956  -0.00461
  Beta virt. eigenvalues --   -0.00130   0.00032   0.00353   0.00601   0.00815

 Mulliken charges and spin densities:
               1          2
     1  Na   0.205668   0.492293
     2  Na   0.190038   0.084411
     3  Na   0.014846   0.366961
     4  Na  -0.315494  -0.009057
     5  Na   0.013872   0.073162
     6  Na   0.211293  -0.006581
     7  Na  -0.320223  -0.001189
 Sum of Mulliken charges =  -0.00000   1.00000

 Dipole moment (field-independent basis, Debye):
    X=             -0.1357    Y=             -0.1561    Z=             -0.0067  Tot=              0.2069
 Quadrupole moment (field-independent basis, Debye-Ang):
   XX=            -54.3551   YY=            -67.2309   ZZ=            -72.2404
   XY=             -1.0204   XZ=              3.6789   YZ=             -0.4249

 Normal termination of Gaussian 16 at Tue Dec  5 11:40:06 2023.
