 Gaussian 16, Revision B.01,
 Gaussian 16:  ES64L-G16RevB.01 20-Dec-2017

 -------------------------
 #P B3LYP/6-311+g(d) force
 -------------------------

 -----
 DPGEN
 -----
 Symbolic Z-matrix:
 Charge =  0 Multiplicity = 2

                         Standard orientation:
 ---------------------------------------------------------------------
 Center     Atomic      Atomic             Coordinates (Angstroms)
 Number     Number       Type             X           Y           Z
 ---------------------------------------------------------------------
      1         11           0       -3.334536   -0.897386    0.010358
      2         11           0        0.045810   -2.691798   -0.239933
      3         11           0       -1.705944    2.547641   -0.181139
      4         11           0        0.057759   -0.011439    2.136162
      5         11           0       -0.177407    0.007272   -1.471446
      6         11           0        2.924404   -1.104154   -0.124808
      7         11           0        2.189914    2.149865   -0.129193
 ---------------------------------------------------------------------

 SCF Done:  E(UB3LYP) =  -1136.13415921     A.U. after   19 cycles

 The electronic state is 2-A.
 Alpha  occ. eigenvalues --  -38.44666 -38.43883 -38.43779 -38.43661 -38.43579
 Alpha  occ. eigenvalues --  -38.43116 -38.43062  -2.20439  -2.19747  -2.19593
 Alpha  occ. eigenvalues --   -2.19492  -2.19449  -2.19084  -2.19020  -1.14116
 Alpha  occ. eigenvalues --   -1.14086  -1.14084  -1.13418  -1.13413  -1.13403
 Alpha  occ. eigenvalues --   -1.13301  -1.13256  -1.13212  -1.13169  -1.13154
 Alpha  occ. eigenvalues --   -1.13126  -1.13116  -1.13070  -1.13061  -1.12909
 Alpha  occ. eigenvalues --   -1.12754  -1.12685  -1.12665  -1.12632  -1.12615
 Alpha  occ. eigenvalues --   -0.18593  -0.13079  -0.12283  -0.10579
 Alpha virt. eigenvalues --   -0.06056  -0.05339  -0.04383  -0.03088  -0.02696
 Alpha virt. eigenvalues --   -0.02505  -0.01898  -0.01199  -0.00497  -0.00291
 Alpha virt. eigenvalues --   -0.00025   0.00314   0.00733   0.00820   0.00893

  Beta  occ. eigenvalues --  -38.44667 -38.43879 -38.43775 -38.43657 -38.43474
  Beta  occ. eigenvalues --  -38.43105 -38.43008  -2.20442  -2.19742  -2.19588
  Beta  occ. eigenvalues --   -2.19487  -2.19254  -2.19012  -2.18981  -1.14103
  Beta  occ. eigenvalues --   -1.14092  -1.14088  -1.13417  -1.13412  -1.13375
  Beta  occ. eigenvalues --   -1.13291  -1.13239  -1.13212  -1.13162  -1.13133
  Beta  occ. eigenvalues --   -1.13126  -1.12989  -1.12934  -1.12923  -1.12865
  Beta  occ. eigenvalues --   -1.12681  -1.12638  -1.12626  -1.12597  -1.12578
  Beta  occ. eigenvalues --   -0.17868  -0.12884  -0.12040
  Beta virt. eigenvalues --   -0.06615  -0.06025  -0.05334  -0.04368  -0.02354
  Beta virt. eigenvalues --   -0.01928  -0.01802  -0.01390  -0.01136  -0.00554
  Beta virt. eigenvalues --   -0.00329   0.00134   0.00349   0.00789   0.00819

 Mulliken charges and spin densities:
               1          2
     1  Na   0.124673  -0.042666
     2  Na   0.412764   0.026975
     3  Na   0.100803  -0.076962
     4  Na  -0.632334   0.809033
     5  Na  -0.462969   0.264121
     6  Na   0.270945   0.044103
     7  Na   0.186117  -0.024603
 Sum of Mulliken charges =  -0.00000   1.00000

 Dipole moment (field-independent basis, Debye):
    X=             -0.4164    Y=              0.0882    Z=              0.2201  Tot=              0.4791
 Quadrupole moment (field-independent basis, Debye-Ang):
   XX=            -52.3284   YY=            -63.9921   ZZ=            -75.7556
   XY=              0.4045   XZ=             -0.6249   YZ=             -0.0329

 Normal termination of Gaussian 16 at Thu Dec  7 23:47:16 2023.
