 Gaussian 16, Revision B.01,
 Gaussian 16:  ES64L-G16RevB.01 20-Dec-2017

 -------------------------
 #P B3LYP/6-311+g(d) force
 -------------------------

 -----
 DPGEN
 -----
 Symbolic Z-matrix:
 Charge =  0 Multiplicity = 2

                         Standard orientation:
 ---------------------------------------------------------------------
 Center     Atomic      Atomic             Coordinates (Angstroms)
 Number     Number       Type             X           Y           Z
 ---------------------------------------------------------------------
      1         11           0       -2.647571    1.848867    0.435865
      2         11           0       -0.222637   -2.303831    0.167781
      3         11           0        3.375295   -1.492976    0.042200
      4         11           0        0.234359   -0.002012   -1.671197
      5         11           0        2.246602    2.472471   -0.750542
      6         11           0       -3.626178   -0.984836   -0.466428
      7         11           0        0.640131    0.462316    2.242322
 ---------------------------------------------------------------------

 SCF Done:  E(UB3LYP) =  -1136.11867316     A.U. after   23 cycles

 The electronic state is 2-A.
 Alpha  occ. eigenvalues --  -38.45645 -38.44570 -38.44416 -38.44087 -38.44064
 Alpha  occ. eigenvalues --  -38.43308 -38.43043  -2.21390  -2.20379  -2.20209
 Alpha  occ. eigenvalues --   -2.19974  -2.19912  -2.19102  -2.18923  -1.15071
 Alpha  occ. eigenvalues --   -1.15039  -1.15024  -1.14095  -1.14041  -1.14008
 Alpha  occ. eigenvalues --   -1.13873  -1.13855  -1.13841  -1.13713  -1.13617
 Alpha  occ. eigenvalues --   -1.13584  -1.13576  -1.13533  -1.13524  -1.12782
 Alpha  occ. eigenvalues --   -1.12747  -1.12741  -1.12662  -1.12589  -1.12498
 Alpha  occ. eigenvalues --   -0.17845  -0.13466  -0.11331  -0.10884
 Alpha virt. eigenvalues --   -0.06951  -0.05671  -0.03866  -0.03197  -0.02900
 Alpha virt. eigenvalues --   -0.02691  -0.02422  -0.01528  -0.00619  -0.00288
 Alpha virt. eigenvalues --   -0.00057   0.00168   0.00473   0.00578   0.00696

  Beta  occ. eigenvalues --  -38.45646 -38.44569 -38.44410 -38.44009 -38.43988
  Beta  occ. eigenvalues --  -38.43291 -38.43033  -2.21394  -2.20376  -2.20201
  Beta  occ. eigenvalues --   -2.19873  -2.19729  -2.19074  -2.18909  -1.15062
  Beta  occ. eigenvalues --   -1.15042  -1.15028  -1.14094  -1.14036  -1.14004
  Beta  occ. eigenvalues --   -1.13857  -1.13851  -1.13835  -1.13638  -1.13546
  Beta  occ. eigenvalues --   -1.13503  -1.13460  -1.13409  -1.13391  -1.12752
  Beta  occ. eigenvalues --   -1.12732  -1.12718  -1.12651  -1.12553  -1.12489
  Beta  occ. eigenvalues --   -0.17155  -0.13320  -0.11061
  Beta virt. eigenvalues --   -0.07041  -0.06806  -0.05561  -0.03630  -0.02829
  Beta virt. eigenvalues --   -0.02492  -0.02072  -0.01654  -0.01402  -0.00590
  Beta virt. eigenvalues --   -0.00097  -0.00055   0.00201   0.00649   0.00678

 Mulliken charges and spin densities:
               1          2
     1  Na   0.015415   0.069507
     2  Na   0.177307   0.095018
     3  Na   0.153387  -0.042335
     4  Na  -0.083109   0.360212
     5  Na  -0.089949  -0.020921
     6  Na   0.173609  -0.030559
     7  Na  -0.346659   0.569078
 Sum of Mulliken charges =  -0.00000   1.00000

 Dipole moment (field-independent basis, Debye):
    X=              0.3581    Y=             -0.4294    Z=              0.1242  Tot=              0.5727
 Quadrupole moment (field-independent basis, Debye-Ang):
   XX=            -47.2507   YY=            -71.6760   ZZ=            -74.0921
   XY=             -1.8989   XZ=              1.1970   YZ=              0.4284

 Normal termination of Gaussian 16 at Tue Dec  5 10:28:14 2023.
