 Gaussian 16, Revision B.01,
 Gaussian 16:  ES64L-G16RevB.01 20-Dec-2017

 -------------------------
 #P B3LYP/6-311+g(d) force
 -------------------------

 -----
 DPGEN
 -----
 Symbolic Z-matrix:
 Charge =  0 Multiplicity = 2

                         Standard orientation:
 ---------------------------------------------------------------------
 Center     Atomic      Atomic             Coordinates (Angstroms)
 Number     Number       Type             X           Y           Z
 ---------------------------------------------------------------------
      1         11           0       -0.087993    0.476316   -1.533379
      2         11           0       -3.182157   -1.005105   -0.177387
      3         11           0        3.115267    2.118192    0.002976
      4         11           0       -2.398966    2.550506    0.049050
      5         11           0       -0.102235   -2.619948   -0.199460
      6         11           0        2.816644   -1.393436   -0.105146
      7         11           0       -0.160560   -0.126526    1.963345
 ---------------------------------------------------------------------

 SCF Done:  E(UB3LYP) =  -1136.12733173     A.U. after   22 cycles

 The electronic state is 2-A.
 Alpha  occ. eigenvalues --  -38.44920 -38.44486 -38.44244 -38.44207 -38.43574
 Alpha  occ. eigenvalues --  -38.43434 -38.42571  -2.20728  -2.20237  -2.20089
 Alpha  occ. eigenvalues --   -2.19988  -2.19474  -2.19319  -2.18498  -1.14402
 Alpha  occ. eigenvalues --   -1.14387  -1.14362  -1.13909  -1.13904  -1.13881
 Alpha  occ. eigenvalues --   -1.13773  -1.13752  -1.13719  -1.13662  -1.13648
 Alpha  occ. eigenvalues --   -1.13631  -1.13188  -1.13124  -1.13079  -1.12999
 Alpha  occ. eigenvalues --   -1.12946  -1.12924  -1.12185  -1.12150  -1.12146
 Alpha  occ. eigenvalues --   -0.18281  -0.13408  -0.11844  -0.10226
 Alpha virt. eigenvalues --   -0.06584  -0.05950  -0.04185  -0.03207  -0.02454
 Alpha virt. eigenvalues --   -0.02290  -0.02123  -0.01545  -0.01037  -0.00262
 Alpha virt. eigenvalues --   -0.00057   0.00251   0.00608   0.00666   0.00749

  Beta  occ. eigenvalues --  -38.44913 -38.44492 -38.44240 -38.44205 -38.43521
  Beta  occ. eigenvalues --  -38.43336 -38.42559  -2.20716  -2.20250  -2.20084
  Beta  occ. eigenvalues --   -2.19989  -2.19379  -2.19138  -2.18482  -1.14383
  Beta  occ. eigenvalues --   -1.14368  -1.14358  -1.13915  -1.13908  -1.13890
  Beta  occ. eigenvalues --   -1.13772  -1.13728  -1.13720  -1.13659  -1.13636
  Beta  occ. eigenvalues --   -1.13633  -1.13120  -1.13046  -1.13010  -1.12878
  Beta  occ. eigenvalues --   -1.12817  -1.12796  -1.12178  -1.12142  -1.12093
  Beta  occ. eigenvalues --   -0.17545  -0.13235  -0.11657
  Beta virt. eigenvalues --   -0.06561  -0.06308  -0.05865  -0.04185  -0.02501
  Beta virt. eigenvalues --   -0.02078  -0.01795  -0.01533  -0.01100  -0.01068
  Beta virt. eigenvalues --   -0.00287   0.00125   0.00294   0.00644   0.00715

 Mulliken charges and spin densities:
               1          2
     1  Na  -0.190109   0.333683
     2  Na   0.287037   0.054225
     3  Na   0.058489  -0.075330
     4  Na  -0.025189  -0.079077
     5  Na   0.001712   0.063263
     6  Na   0.215396   0.029441
     7  Na  -0.347336   0.673795
 Sum of Mulliken charges =  -0.00000   1.00000

 Dipole moment (field-independent basis, Debye):
    X=             -0.3333    Y=              0.3466    Z=              0.0585  Tot=              0.4844
 Quadrupole moment (field-independent basis, Debye-Ang):
   XX=            -50.8575   YY=            -63.4882   ZZ=            -77.5524
   XY=              0.5338   XZ=              0.2497   YZ=              1.2686

 Normal termination of Gaussian 16 at Sat Dec  9 07:11:08 2023.
