 Gaussian 16, Revision B.01,
 Gaussian 16:  ES64L-G16RevB.01 20-Dec-2017

 -------------------------
 #P B3LYP/6-311+g(d) force
 -------------------------

 -----
 DPGEN
 -----
 Symbolic Z-matrix:
 Charge =  0 Multiplicity = 2

                         Standard orientation:
 ---------------------------------------------------------------------
 Center     Atomic      Atomic             Coordinates (Angstroms)
 Number     Number       Type             X           Y           Z
 ---------------------------------------------------------------------
      1         11           0        1.426366   -2.574355   -0.971489
      2         11           0       -0.258709   -0.454236   -1.498319
      3         11           0       -2.646625   -1.715411    0.848919
      4         11           0        0.813596    2.765405    0.124792
      5         11           0        0.245737   -0.520624    1.852775
      6         11           0       -2.547144    1.908299   -0.679406
      7         11           0        2.966780    0.590922    0.322729
 ---------------------------------------------------------------------

 SCF Done:  E(UB3LYP) =  -1136.12891547     A.U. after   20 cycles

 The electronic state is 2-A.
 Alpha  occ. eigenvalues --  -38.44186 -38.43850 -38.43848 -38.43718 -38.43714
 Alpha  occ. eigenvalues --  -38.43415 -38.43289  -2.20006  -2.19777  -2.19751
 Alpha  occ. eigenvalues --   -2.19603  -2.19525  -2.19436  -2.19149  -1.13702
 Alpha  occ. eigenvalues --   -1.13663  -1.13649  -1.13630  -1.13467  -1.13421
 Alpha  occ. eigenvalues --   -1.13399  -1.13347  -1.13342  -1.13307  -1.13262
 Alpha  occ. eigenvalues --   -1.13219  -1.13213  -1.13179  -1.13154  -1.13086
 Alpha  occ. eigenvalues --   -1.13029  -1.13009  -1.12824  -1.12812  -1.12778
 Alpha  occ. eigenvalues --   -0.18621  -0.12997  -0.12574  -0.11202
 Alpha virt. eigenvalues --   -0.05437  -0.05139  -0.04690  -0.03325  -0.02986
 Alpha virt. eigenvalues --   -0.02590  -0.01533  -0.01227  -0.00402  -0.00094
 Alpha virt. eigenvalues --    0.00032   0.00304   0.00801   0.00835   0.00869

  Beta  occ. eigenvalues --  -38.44153 -38.43812 -38.43776 -38.43712 -38.43699
  Beta  occ. eigenvalues --  -38.43359 -38.43291  -2.19948  -2.19684  -2.19646
  Beta  occ. eigenvalues --   -2.19593  -2.19499  -2.19336  -2.19155  -1.13645
  Beta  occ. eigenvalues --   -1.13609  -1.13597  -1.13592  -1.13383  -1.13337
  Beta  occ. eigenvalues --   -1.13321  -1.13301  -1.13296  -1.13287  -1.13226
  Beta  occ. eigenvalues --   -1.13207  -1.13185  -1.13163  -1.13136  -1.13013
  Beta  occ. eigenvalues --   -1.12966  -1.12933  -1.12830  -1.12814  -1.12766
  Beta  occ. eigenvalues --   -0.17994  -0.12690  -0.12211
  Beta virt. eigenvalues --   -0.07378  -0.05298  -0.05054  -0.04550  -0.02699
  Beta virt. eigenvalues --   -0.02393  -0.01634  -0.01367  -0.01046  -0.00325
  Beta virt. eigenvalues --   -0.00088   0.00127   0.00368   0.00847   0.00881

 Mulliken charges and spin densities:
               1          2
     1  Na   0.405893   0.074570
     2  Na  -0.330989   0.315276
     3  Na  -0.148233   0.084389
     4  Na  -0.326895   0.004633
     5  Na   0.019678   0.439124
     6  Na   0.107801   0.001856
     7  Na   0.272746   0.080151
 Sum of Mulliken charges =  -0.00000   1.00000

 Dipole moment (field-independent basis, Debye):
    X=             -0.1656    Y=             -0.3096    Z=              0.2941  Tot=              0.4580
 Quadrupole moment (field-independent basis, Debye-Ang):
   XX=            -57.4101   YY=            -64.0330   ZZ=            -72.9441
   XY=             -0.3228   XZ=             -0.4967   YZ=             -0.4293

 Normal termination of Gaussian 16 at Tue Dec  5 14:11:06 2023.
