 Gaussian 16, Revision B.01,
 Gaussian 16:  ES64L-G16RevB.01 20-Dec-2017

 -------------------------
 #P B3LYP/6-311+g(d) force
 -------------------------

 -----
 DPGEN
 -----
 Symbolic Z-matrix:
 Charge =  0 Multiplicity = 2

                         Standard orientation:
 ---------------------------------------------------------------------
 Center     Atomic      Atomic             Coordinates (Angstroms)
 Number     Number       Type             X           Y           Z
 ---------------------------------------------------------------------
      1         11           0        3.107148   -0.594148    0.136226
      2         11           0       -2.706677   -1.593709    0.168757
      3         11           0        0.074229    0.228262    2.133448
      4         11           0        1.454143    2.629406   -0.240423
      5         11           0       -2.471557    1.918681   -0.117446
      6         11           0        0.601872   -2.600526   -0.285335
      7         11           0       -0.059158    0.012034   -1.795227
 ---------------------------------------------------------------------

 SCF Done:  E(UB3LYP) =  -1136.13778658     A.U. after   19 cycles

 The electronic state is 2-A.
 Alpha  occ. eigenvalues --  -38.44022 -38.43962 -38.43922 -38.43807 -38.43529
 Alpha  occ. eigenvalues --  -38.43451 -38.42948  -2.19859  -2.19781  -2.19769
 Alpha  occ. eigenvalues --   -2.19629  -2.19406  -2.19349  -2.18856  -1.13538
 Alpha  occ. eigenvalues --   -1.13523  -1.13502  -1.13453  -1.13449  -1.13433
 Alpha  occ. eigenvalues --   -1.13411  -1.13404  -1.13396  -1.13298  -1.13290
 Alpha  occ. eigenvalues --   -1.13271  -1.13107  -1.13082  -1.13029  -1.13013
 Alpha  occ. eigenvalues --   -1.12992  -1.12977  -1.12553  -1.12504  -1.12478
 Alpha  occ. eigenvalues --   -0.18544  -0.12973  -0.12290  -0.10965
 Alpha virt. eigenvalues --   -0.05662  -0.05355  -0.04371  -0.03287  -0.02991
 Alpha virt. eigenvalues --   -0.02794  -0.01536  -0.01142  -0.00386  -0.00185
 Alpha virt. eigenvalues --   -0.00034   0.00371   0.00764   0.00859   0.00925

  Beta  occ. eigenvalues --  -38.44020 -38.43960 -38.43829 -38.43805 -38.43523
  Beta  occ. eigenvalues --  -38.43378 -38.42939  -2.19857  -2.19768  -2.19628
  Beta  occ. eigenvalues --   -2.19608  -2.19343  -2.19272  -2.18844  -1.13539
  Beta  occ. eigenvalues --   -1.13504  -1.13498  -1.13445  -1.13424  -1.13407
  Beta  occ. eigenvalues --   -1.13330  -1.13295  -1.13287  -1.13280  -1.13275
  Beta  occ. eigenvalues --   -1.13266  -1.13040  -1.13016  -1.12995  -1.12977
  Beta  occ. eigenvalues --   -1.12943  -1.12914  -1.12537  -1.12477  -1.12469
  Beta  occ. eigenvalues --   -0.17792  -0.12775  -0.12044
  Beta virt. eigenvalues --   -0.07040  -0.05637  -0.05308  -0.04342  -0.02507
  Beta virt. eigenvalues --   -0.02180  -0.01751  -0.01437  -0.01074  -0.00454
  Beta virt. eigenvalues --   -0.00215   0.00100   0.00386   0.00818   0.00864

 Mulliken charges and spin densities:
               1          2
     1  Na   0.144209  -0.012334
     2  Na   0.058198  -0.026551
     3  Na  -0.523898   0.752872
     4  Na   0.083212  -0.121275
     5  Na   0.081826  -0.119531
     6  Na   0.268135   0.006515
     7  Na  -0.111682   0.520303
 Sum of Mulliken charges =  -0.00000   1.00000

 Dipole moment (field-independent basis, Debye):
    X=             -0.0896    Y=              0.2598    Z=              0.2091  Tot=              0.3454
 Quadrupole moment (field-independent basis, Debye-Ang):
   XX=            -56.0855   YY=            -64.8648   ZZ=            -73.0961
   XY=              0.1243   XZ=             -0.1823   YZ=             -0.6744

 Normal termination of Gaussian 16 at Wed Nov 29 15:47:58 2023.
