 Gaussian 16, Revision B.01,
 Gaussian 16:  ES64L-G16RevB.01 20-Dec-2017

 -------------------------
 #P B3LYP/6-311+g(d) force
 -------------------------

 -----
 DPGEN
 -----
 Symbolic Z-matrix:
 Charge =  0 Multiplicity = 2

                         Standard orientation:
 ---------------------------------------------------------------------
 Center     Atomic      Atomic             Coordinates (Angstroms)
 Number     Number       Type             X           Y           Z
 ---------------------------------------------------------------------
      1         11           0       -2.295141    2.299292   -0.507026
      2         11           0        0.369434   -0.067910   -1.501074
      3         11           0       -2.990374   -1.301452   -0.263685
      4         11           0        0.349161   -2.935668    0.138068
      5         11           0        2.010073    2.813727    0.201890
      6         11           0       -0.600740    0.178011    2.115728
      7         11           0        3.157586   -0.986000   -0.183901
 ---------------------------------------------------------------------

 SCF Done:  E(UB3LYP) =  -1136.13235888     A.U. after   20 cycles

 The electronic state is 2-A.
 Alpha  occ. eigenvalues --  -38.44226 -38.44220 -38.44191 -38.44183 -38.43569
 Alpha  occ. eigenvalues --  -38.43396 -38.43331  -2.20012  -2.20008  -2.19981
 Alpha  occ. eigenvalues --   -2.19966  -2.19412  -2.19262  -2.19243  -1.13709
 Alpha  occ. eigenvalues --   -1.13685  -1.13673  -1.13668  -1.13657  -1.13650
 Alpha  occ. eigenvalues --   -1.13644  -1.13638  -1.13637  -1.13617  -1.13613
 Alpha  occ. eigenvalues --   -1.13612  -1.13079  -1.13042  -1.13024  -1.12989
 Alpha  occ. eigenvalues --   -1.12934  -1.12908  -1.12896  -1.12870  -1.12862
 Alpha  occ. eigenvalues --   -0.17928  -0.12978  -0.12174  -0.10311
 Alpha virt. eigenvalues --   -0.05987  -0.05551  -0.04951  -0.03086  -0.02763
 Alpha virt. eigenvalues --   -0.02320  -0.01677  -0.01477  -0.00874  -0.00635
 Alpha virt. eigenvalues --   -0.00034   0.00315   0.00699   0.00753   0.00787

  Beta  occ. eigenvalues --  -38.44219 -38.44212 -38.44189 -38.44177 -38.43471
  Beta  occ. eigenvalues --  -38.43391 -38.43286  -2.20010  -2.19984  -2.19974
  Beta  occ. eigenvalues --   -2.19966  -2.19238  -2.19230  -2.19181  -1.13701
  Beta  occ. eigenvalues --   -1.13665  -1.13657  -1.13653  -1.13641  -1.13638
  Beta  occ. eigenvalues --   -1.13635  -1.13633  -1.13624  -1.13617  -1.13614
  Beta  occ. eigenvalues --   -1.13602  -1.12970  -1.12948  -1.12918  -1.12896
  Beta  occ. eigenvalues --   -1.12891  -1.12880  -1.12860  -1.12833  -1.12818
  Beta  occ. eigenvalues --   -0.17262  -0.12738  -0.12001
  Beta virt. eigenvalues --   -0.06505  -0.05933  -0.05456  -0.04864  -0.02406
  Beta virt. eigenvalues --   -0.02089  -0.01580  -0.01400  -0.01296  -0.00900
  Beta virt. eigenvalues --   -0.00662   0.00137   0.00370   0.00734   0.00815

 Mulliken charges and spin densities:
               1          2
     1  Na   0.028732   0.012593
     2  Na   0.060056   0.290075
     3  Na   0.158416   0.017930
     4  Na   0.075630  -0.019487
     5  Na  -0.087930  -0.063458
     6  Na  -0.441258   0.785169
     7  Na   0.206354  -0.022823
 Sum of Mulliken charges =  -0.00000   1.00000

 Dipole moment (field-independent basis, Debye):
    X=              0.0285    Y=              0.1114    Z=              0.0204  Tot=              0.1168
 Quadrupole moment (field-independent basis, Debye-Ang):
   XX=            -55.3763   YY=            -60.5777   ZZ=            -76.5866
   XY=              0.3232   XZ=              1.8381   YZ=             -0.3461

 Normal termination of Gaussian 16 at Thu Dec  7 04:21:00 2023.
