 Gaussian 16, Revision B.01,
 Gaussian 16:  ES64L-G16RevB.01 20-Dec-2017

 -------------------------
 #P B3LYP/6-311+g(d) force
 -------------------------

 -----
 DPGEN
 -----
 Symbolic Z-matrix:
 Charge =  0 Multiplicity = 2

                         Standard orientation:
 ---------------------------------------------------------------------
 Center     Atomic      Atomic             Coordinates (Angstroms)
 Number     Number       Type             X           Y           Z
 ---------------------------------------------------------------------
      1         11           0        0.332910   -0.002936   -1.558962
      2         11           0       -2.196983   -2.032244   -0.359372
      3         11           0        0.774462    2.725893   -0.170084
      4         11           0       -0.414104   -0.180744    2.278881
      5         11           0       -3.145576    1.516264   -0.174374
      6         11           0        1.290529   -2.381443   -0.150084
      7         11           0        3.358761    0.355210    0.133994
 ---------------------------------------------------------------------

 SCF Done:  E(UB3LYP) =  -1136.13070803     A.U. after   19 cycles

 The electronic state is 2-A.
 Alpha  occ. eigenvalues --  -38.44469 -38.44462 -38.43937 -38.43712 -38.43431
 Alpha  occ. eigenvalues --  -38.43399 -38.43105  -2.20282  -2.20223  -2.19774
 Alpha  occ. eigenvalues --   -2.19548  -2.19411  -2.19269  -2.19018  -1.13949
 Alpha  occ. eigenvalues --   -1.13941  -1.13928  -1.13900  -1.13880  -1.13864
 Alpha  occ. eigenvalues --   -1.13428  -1.13401  -1.13391  -1.13241  -1.13213
 Alpha  occ. eigenvalues --   -1.13189  -1.13173  -1.13127  -1.13010  -1.12934
 Alpha  occ. eigenvalues --   -1.12923  -1.12871  -1.12699  -1.12660  -1.12620
 Alpha  occ. eigenvalues --   -0.18414  -0.13089  -0.12120  -0.10776
 Alpha virt. eigenvalues --   -0.06177  -0.05306  -0.04242  -0.03316  -0.02754
 Alpha virt. eigenvalues --   -0.02680  -0.01909  -0.01203  -0.00415  -0.00252
 Alpha virt. eigenvalues --   -0.00069   0.00297   0.00710   0.00839   0.00869

  Beta  occ. eigenvalues --  -38.44470 -38.44461 -38.43830 -38.43704 -38.43426
  Beta  occ. eigenvalues --  -38.43344 -38.43096  -2.20282  -2.20227  -2.19576
  Beta  occ. eigenvalues --   -2.19537  -2.19312  -2.19262  -2.19006  -1.13946
  Beta  occ. eigenvalues --   -1.13931  -1.13929  -1.13890  -1.13885  -1.13868
  Beta  occ. eigenvalues --   -1.13297  -1.13265  -1.13251  -1.13222  -1.13186
  Beta  occ. eigenvalues --   -1.13175  -1.13127  -1.13071  -1.12946  -1.12908
  Beta  occ. eigenvalues --   -1.12895  -1.12869  -1.12681  -1.12622  -1.12617
  Beta  occ. eigenvalues --   -0.17700  -0.12914  -0.11894
  Beta virt. eigenvalues --   -0.06804  -0.06110  -0.05298  -0.04208  -0.02564
  Beta virt. eigenvalues --   -0.01974  -0.01842  -0.01593  -0.01149  -0.00450
  Beta virt. eigenvalues --   -0.00291   0.00108   0.00335   0.00784   0.00845

 Mulliken charges and spin densities:
               1          2
     1  Na  -0.197894   0.241829
     2  Na   0.258444   0.000036
     3  Na   0.100475  -0.069616
     4  Na  -0.697893   0.770758
     5  Na  -0.009104  -0.070441
     6  Na   0.410465   0.081771
     7  Na   0.135507   0.045663
 Sum of Mulliken charges =  -0.00000   1.00000

 Dipole moment (field-independent basis, Debye):
    X=             -0.0178    Y=              0.1646    Z=              0.2398  Tot=              0.2914
 Quadrupole moment (field-independent basis, Debye-Ang):
   XX=            -52.3120   YY=            -66.3965   ZZ=            -74.4490
   XY=             -0.1158   XZ=              1.7407   YZ=              0.4343

 Normal termination of Gaussian 16 at Thu Dec  7 11:59:44 2023.
