 Gaussian 16, Revision B.01,
 Gaussian 16:  ES64L-G16RevB.01 20-Dec-2017

 -------------------------
 #P B3LYP/6-311+g(d) force
 -------------------------

 -----
 DPGEN
 -----
 Symbolic Z-matrix:
 Charge =  0 Multiplicity = 2

                         Standard orientation:
 ---------------------------------------------------------------------
 Center     Atomic      Atomic             Coordinates (Angstroms)
 Number     Number       Type             X           Y           Z
 ---------------------------------------------------------------------
      1         11           0        1.602771    2.388463   -0.217765
      2         11           0       -1.834092    2.589670   -0.454878
      3         11           0       -0.265009    0.353035    2.279518
      4         11           0       -0.190266   -0.302484   -1.282119
      5         11           0        0.385017   -3.018468   -0.092059
      6         11           0        3.409154   -0.633324   -0.124724
      7         11           0       -3.107575   -1.376893   -0.107973
 ---------------------------------------------------------------------

 SCF Done:  E(UB3LYP) =  -1136.13249391     A.U. after   19 cycles

 The electronic state is 2-A.
 Alpha  occ. eigenvalues --  -38.44472 -38.44071 -38.44045 -38.43800 -38.43590
 Alpha  occ. eigenvalues --  -38.43538 -38.42988  -2.20256  -2.19870  -2.19849
 Alpha  occ. eigenvalues --   -2.19619  -2.19433  -2.19388  -2.18994  -1.13939
 Alpha  occ. eigenvalues --   -1.13913  -1.13891  -1.13616  -1.13527  -1.13523
 Alpha  occ. eigenvalues --   -1.13510  -1.13494  -1.13463  -1.13299  -1.13273
 Alpha  occ. eigenvalues --   -1.13261  -1.13092  -1.13078  -1.13062  -1.13050
 Alpha  occ. eigenvalues --   -1.13039  -1.13008  -1.12690  -1.12652  -1.12609
 Alpha  occ. eigenvalues --   -0.18130  -0.12715  -0.12536  -0.10415
 Alpha virt. eigenvalues --   -0.05987  -0.05340  -0.04895  -0.02874  -0.02740
 Alpha virt. eigenvalues --   -0.02452  -0.01791  -0.01404  -0.00735  -0.00541
 Alpha virt. eigenvalues --   -0.00039   0.00288   0.00730   0.00776   0.00836

  Beta  occ. eigenvalues --  -38.44471 -38.44072 -38.44042 -38.43789 -38.43531
  Beta  occ. eigenvalues --  -38.43474 -38.42951  -2.20255  -2.19867  -2.19853
  Beta  occ. eigenvalues --   -2.19602  -2.19379  -2.19218  -2.18929  -1.13930
  Beta  occ. eigenvalues --   -1.13904  -1.13893  -1.13611  -1.13518  -1.13513
  Beta  occ. eigenvalues --   -1.13510  -1.13497  -1.13465  -1.13282  -1.13254
  Beta  occ. eigenvalues --   -1.13247  -1.13074  -1.13028  -1.13007  -1.12941
  Beta  occ. eigenvalues --   -1.12902  -1.12897  -1.12629  -1.12605  -1.12562
  Beta  occ. eigenvalues --   -0.17457  -0.12530  -0.12347
  Beta virt. eigenvalues --   -0.06415  -0.05979  -0.05304  -0.04825  -0.02137
  Beta virt. eigenvalues --   -0.02082  -0.01728  -0.01383  -0.01287  -0.00756
  Beta virt. eigenvalues --   -0.00574   0.00154   0.00348   0.00758   0.00819

 Mulliken charges and spin densities:
               1          2
     1  Na   0.267608   0.068856
     2  Na   0.275549   0.045058
     3  Na  -0.583644   0.767071
     4  Na  -0.427608   0.095449
     5  Na   0.254681   0.028868
     6  Na   0.038994   0.002522
     7  Na   0.174419  -0.007823
 Sum of Mulliken charges =  -0.00000   1.00000

 Dipole moment (field-independent basis, Debye):
    X=             -0.3128    Y=             -0.2711    Z=              0.1119  Tot=              0.4288
 Quadrupole moment (field-independent basis, Debye-Ang):
   XX=            -54.4102   YY=            -60.6295   ZZ=            -76.9897
   XY=             -0.2649   XZ=              0.2962   YZ=             -1.4022

 Normal termination of Gaussian 16 at Thu Dec  7 02:34:21 2023.
