 Gaussian 16, Revision B.01,
 Gaussian 16:  ES64L-G16RevB.01 20-Dec-2017

 -------------------------
 #P B3LYP/6-311+g(d) force
 -------------------------

 -----
 DPGEN
 -----
 Symbolic Z-matrix:
 Charge =  0 Multiplicity = 2

                         Standard orientation:
 ---------------------------------------------------------------------
 Center     Atomic      Atomic             Coordinates (Angstroms)
 Number     Number       Type             X           Y           Z
 ---------------------------------------------------------------------
      1         11           0       -3.258194   -1.592974   -0.336451
      2         11           0        0.903108    2.899299   -0.002250
      3         11           0        2.872874    0.542307   -0.079252
      4         11           0       -2.400146    1.685809    0.075789
      5         11           0       -0.093391   -0.649103    2.049763
      6         11           0        1.917654   -2.803561   -0.211863
      7         11           0        0.058095   -0.081776   -1.495736
 ---------------------------------------------------------------------

 SCF Done:  E(UB3LYP) =  -1136.13194362     A.U. after   20 cycles

 The electronic state is 2-A.
 Alpha  occ. eigenvalues --  -38.44569 -38.44051 -38.44011 -38.43806 -38.43505
 Alpha  occ. eigenvalues --  -38.43368 -38.43019  -2.20345  -2.19954  -2.19855
 Alpha  occ. eigenvalues --   -2.19613  -2.19355  -2.19324  -2.18895  -1.14012
 Alpha  occ. eigenvalues --   -1.14006  -1.13985  -1.13667  -1.13619  -1.13582
 Alpha  occ. eigenvalues --   -1.13546  -1.13523  -1.13479  -1.13282  -1.13269
 Alpha  occ. eigenvalues --   -1.13259  -1.13047  -1.13005  -1.12983  -1.12965
 Alpha  occ. eigenvalues --   -1.12956  -1.12951  -1.12580  -1.12546  -1.12532
 Alpha  occ. eigenvalues --   -0.18374  -0.13327  -0.12227  -0.10344
 Alpha virt. eigenvalues --   -0.06185  -0.05477  -0.04545  -0.03206  -0.02746
 Alpha virt. eigenvalues --   -0.02212  -0.01881  -0.01405  -0.00717  -0.00316
 Alpha virt. eigenvalues --   -0.00015   0.00308   0.00703   0.00766   0.00839

  Beta  occ. eigenvalues --  -38.44564 -38.44043 -38.44006 -38.43805 -38.43406
  Beta  occ. eigenvalues --  -38.43317 -38.43017  -2.20338  -2.19943  -2.19849
  Beta  occ. eigenvalues --   -2.19613  -2.19232  -2.19173  -2.18893  -1.14005
  Beta  occ. eigenvalues --   -1.13991  -1.13981  -1.13660  -1.13596  -1.13568
  Beta  occ. eigenvalues --   -1.13542  -1.13498  -1.13476  -1.13279  -1.13264
  Beta  occ. eigenvalues --   -1.13252  -1.12963  -1.12899  -1.12888  -1.12883
  Beta  occ. eigenvalues --   -1.12853  -1.12837  -1.12582  -1.12544  -1.12512
  Beta  occ. eigenvalues --   -0.17680  -0.13105  -0.12030
  Beta virt. eigenvalues --   -0.06486  -0.06132  -0.05377  -0.04529  -0.02471
  Beta virt. eigenvalues --   -0.02000  -0.01783  -0.01397  -0.01186  -0.00751
  Beta virt. eigenvalues --   -0.00324   0.00158   0.00353   0.00732   0.00819

 Mulliken charges and spin densities:
               1          2
     1  Na   0.114118  -0.012336
     2  Na  -0.115653   0.036574
     3  Na   0.400811   0.145256
     4  Na   0.224414   0.113691
     5  Na  -0.530040   0.594201
     6  Na   0.188331  -0.023588
     7  Na  -0.281980   0.146201
 Sum of Mulliken charges =  -0.00000   1.00000

 Dipole moment (field-independent basis, Debye):
    X=             -0.3978    Y=             -0.5131    Z=              0.0477  Tot=              0.6509
 Quadrupole moment (field-independent basis, Debye-Ang):
   XX=            -55.6604   YY=            -60.6329   ZZ=            -76.5301
   XY=              0.4680   XZ=              0.3350   YZ=              1.4573

 Normal termination of Gaussian 16 at Thu Dec  7 09:16:26 2023.
