 Gaussian 16, Revision B.01,
 Gaussian 16:  ES64L-G16RevB.01 20-Dec-2017

 -------------------------
 #P B3LYP/6-311+g(d) force
 -------------------------

 -----
 DPGEN
 -----
 Symbolic Z-matrix:
 Charge =  0 Multiplicity = 2

                         Standard orientation:
 ---------------------------------------------------------------------
 Center     Atomic      Atomic             Coordinates (Angstroms)
 Number     Number       Type             X           Y           Z
 ---------------------------------------------------------------------
      1         11           0       -2.424822   -1.937939   -0.171891
      2         11           0        3.053473    0.392025    0.063572
      3         11           0       -2.920954    1.334220    0.189461
      4         11           0        0.084048   -0.124743    1.722274
      5         11           0        0.524454    2.739337   -0.208188
      6         11           0        0.132695   -0.212903   -1.678840
      7         11           0        1.551107   -2.189997    0.083613
 ---------------------------------------------------------------------

 SCF Done:  E(UB3LYP) =  -1136.13130808     A.U. after   19 cycles

 The electronic state is 2-A.
 Alpha  occ. eigenvalues --  -38.44293 -38.44259 -38.43811 -38.43335 -38.43267
 Alpha  occ. eigenvalues --  -38.43110 -38.42888  -2.20177  -2.20108  -2.19652
 Alpha  occ. eigenvalues --   -2.19326  -2.19267  -2.19133  -2.18753  -1.13896
 Alpha  occ. eigenvalues --   -1.13827  -1.13814  -1.13781  -1.13773  -1.13748
 Alpha  occ. eigenvalues --   -1.13328  -1.13312  -1.13289  -1.13143  -1.13045
 Alpha  occ. eigenvalues --   -1.12940  -1.12934  -1.12866  -1.12845  -1.12799
 Alpha  occ. eigenvalues --   -1.12745  -1.12730  -1.12436  -1.12418  -1.12379
 Alpha  occ. eigenvalues --   -0.19259  -0.13624  -0.12220  -0.10643
 Alpha virt. eigenvalues --   -0.06006  -0.05292  -0.04206  -0.03337  -0.02575
 Alpha virt. eigenvalues --   -0.02238  -0.01815  -0.01108  -0.00233  -0.00182
 Alpha virt. eigenvalues --    0.00022   0.00342   0.00758   0.00887   0.00918

  Beta  occ. eigenvalues --  -38.44291 -38.44251 -38.43808 -38.43320 -38.43189
  Beta  occ. eigenvalues --  -38.43030 -38.42882  -2.20168  -2.20107  -2.19648
  Beta  occ. eigenvalues --   -2.19305  -2.19126  -2.18989  -2.18745  -1.13895
  Beta  occ. eigenvalues --   -1.13814  -1.13780  -1.13776  -1.13764  -1.13750
  Beta  occ. eigenvalues --   -1.13320  -1.13296  -1.13289  -1.13109  -1.12973
  Beta  occ. eigenvalues --   -1.12924  -1.12847  -1.12771  -1.12752  -1.12705
  Beta  occ. eigenvalues --   -1.12648  -1.12625  -1.12428  -1.12392  -1.12374
  Beta  occ. eigenvalues --   -0.18514  -0.13370  -0.11942
  Beta virt. eigenvalues --   -0.06698  -0.05960  -0.05289  -0.04205  -0.02523
  Beta virt. eigenvalues --   -0.01816  -0.01726  -0.01186  -0.01058  -0.00286
  Beta virt. eigenvalues --   -0.00215   0.00156   0.00366   0.00808   0.00878

 Mulliken charges and spin densities:
               1          2
     1  Na   0.161122  -0.104440
     2  Na   0.287017   0.024313
     3  Na  -0.095378  -0.072416
     4  Na  -0.486542   0.599814
     5  Na  -0.026709  -0.106155
     6  Na  -0.443034   0.672882
     7  Na   0.603524  -0.013997
 Sum of Mulliken charges =  -0.00000   1.00000

 Dipole moment (field-independent basis, Debye):
    X=             -0.3098    Y=              0.0660    Z=              0.0494  Tot=              0.3206
 Quadrupole moment (field-independent basis, Debye-Ang):
   XX=            -52.0694   YY=            -65.2404   ZZ=            -75.3046
   XY=              0.2413   XZ=              0.0104   YZ=              0.0817

 Normal termination of Gaussian 16 at Tue Dec  5 14:23:38 2023.
