 Gaussian 16, Revision B.01,
 Gaussian 16:  ES64L-G16RevB.01 20-Dec-2017

 -------------------------
 #P B3LYP/6-311+g(d) force
 -------------------------

 -----
 DPGEN
 -----
 Symbolic Z-matrix:
 Charge =  0 Multiplicity = 2

                         Standard orientation:
 ---------------------------------------------------------------------
 Center     Atomic      Atomic             Coordinates (Angstroms)
 Number     Number       Type             X           Y           Z
 ---------------------------------------------------------------------
      1         11           0        1.847079   -2.257071    0.655007
      2         11           0        1.738012    1.301402   -0.864979
      3         11           0       -1.606628    0.636695   -1.465633
      4         11           0       -1.429401   -1.512285    0.953594
      5         11           0       -4.558652   -0.781255   -0.423892
      6         11           0       -0.500971    2.908686    1.556252
      7         11           0        4.510562   -0.296171   -0.410349
 ---------------------------------------------------------------------

 SCF Done:  E(UB3LYP) =  -1136.12059605     A.U. after   22 cycles

 The electronic state is 2-A.
 Alpha  occ. eigenvalues --  -38.44803 -38.44449 -38.43890 -38.43704 -38.43686
 Alpha  occ. eigenvalues --  -38.43632 -38.43617  -2.20656  -2.20201  -2.19711
 Alpha  occ. eigenvalues --   -2.19561  -2.19542  -2.19490  -2.19447  -1.14377
 Alpha  occ. eigenvalues --   -1.14339  -1.14240  -1.13877  -1.13872  -1.13811
 Alpha  occ. eigenvalues --   -1.13369  -1.13364  -1.13332  -1.13268  -1.13254
 Alpha  occ. eigenvalues --   -1.13219  -1.13200  -1.13189  -1.13188  -1.13175
 Alpha  occ. eigenvalues --   -1.13157  -1.13122  -1.13106  -1.13056  -1.13047
 Alpha  occ. eigenvalues --   -0.17287  -0.13945  -0.11910  -0.10825
 Alpha virt. eigenvalues --   -0.07015  -0.05054  -0.04331  -0.03398  -0.02822
 Alpha virt. eigenvalues --   -0.02753  -0.01889  -0.01305  -0.01098  -0.00536
 Alpha virt. eigenvalues --   -0.00252   0.00051   0.00434   0.00656   0.00699

  Beta  occ. eigenvalues --  -38.44795 -38.44440 -38.43845 -38.43659 -38.43640
  Beta  occ. eigenvalues --  -38.43618 -38.43576  -2.20642  -2.20185  -2.19626
  Beta  occ. eigenvalues --   -2.19483  -2.19468  -2.19457  -2.19376  -1.14360
  Beta  occ. eigenvalues --   -1.14332  -1.14225  -1.13866  -1.13860  -1.13801
  Beta  occ. eigenvalues --   -1.13309  -1.13304  -1.13280  -1.13218  -1.13216
  Beta  occ. eigenvalues --   -1.13169  -1.13167  -1.13143  -1.13130  -1.13119
  Beta  occ. eigenvalues --   -1.13099  -1.13078  -1.13050  -1.13025  -1.12969
  Beta  occ. eigenvalues --   -0.16762  -0.13456  -0.11492
  Beta virt. eigenvalues --   -0.07284  -0.06826  -0.04813  -0.03849  -0.03100
  Beta virt. eigenvalues --   -0.02620  -0.02508  -0.01476  -0.01032  -0.00742
  Beta virt. eigenvalues --   -0.00351  -0.00150   0.00219   0.00613   0.00757

 Mulliken charges and spin densities:
               1          2
     1  Na  -0.213280   0.042409
     2  Na  -0.476880   0.185537
     3  Na   0.146956   0.027011
     4  Na  -0.337265   0.229360
     5  Na   0.468605   0.225949
     6  Na   0.042020   0.062320
     7  Na   0.369843   0.227412
 Sum of Mulliken charges =  -0.00000   1.00000

 Dipole moment (field-independent basis, Debye):
    X=             -0.6044    Y=              0.6271    Z=              0.5346  Tot=              1.0219
 Quadrupole moment (field-independent basis, Debye-Ang):
   XX=            -60.3168   YY=            -73.0117   ZZ=            -64.9136
   XY=             -1.9423   XZ=             -1.4169   YZ=              2.2915

 Normal termination of Gaussian 16 at Tue Nov 28 19:25:28 2023.
