 Gaussian 16, Revision B.01,
 Gaussian 16:  ES64L-G16RevB.01 20-Dec-2017

 -------------------------
 #P B3LYP/6-311+g(d) force
 -------------------------

 -----
 DPGEN
 -----
 Symbolic Z-matrix:
 Charge =  0 Multiplicity = 2

                         Standard orientation:
 ---------------------------------------------------------------------
 Center     Atomic      Atomic             Coordinates (Angstroms)
 Number     Number       Type             X           Y           Z
 ---------------------------------------------------------------------
      1         11           0       -4.440318    0.352151    0.504959
      2         11           0       -1.940366   -2.679173    0.335075
      3         11           0       -1.956157    1.041998   -0.636439
      4         11           0        0.604836    4.091792   -0.693558
      5         11           0        2.788431    1.952761    1.105467
      6         11           0        1.496404   -3.532105   -0.567004
      7         11           0        3.447170   -1.227426   -0.048501
 ---------------------------------------------------------------------

 SCF Done:  E(UB3LYP) =  -1136.11098879     A.U. after   22 cycles

 The electronic state is 2-A.
 Alpha  occ. eigenvalues --  -38.45255 -38.45121 -38.44592 -38.44499 -38.43931
 Alpha  occ. eigenvalues --  -38.43629 -38.43620  -2.21029  -2.20961  -2.20369
 Alpha  occ. eigenvalues --   -2.20361  -2.19739  -2.19460  -2.19418  -1.14754
 Alpha  occ. eigenvalues --   -1.14714  -1.14705  -1.14625  -1.14617  -1.14581
 Alpha  occ. eigenvalues --   -1.14047  -1.14040  -1.14027  -1.13991  -1.13989
 Alpha  occ. eigenvalues --   -1.13954  -1.13465  -1.13408  -1.13383  -1.13110
 Alpha  occ. eigenvalues --   -1.13104  -1.13084  -1.13074  -1.13066  -1.13041
 Alpha  occ. eigenvalues --   -0.16161  -0.14066  -0.13151  -0.10431
 Alpha virt. eigenvalues --   -0.07082  -0.05477  -0.04107  -0.03737  -0.03079
 Alpha virt. eigenvalues --   -0.02502  -0.02038  -0.01672  -0.01409  -0.00752
 Alpha virt. eigenvalues --   -0.00289  -0.00055   0.00290   0.00445   0.00654

  Beta  occ. eigenvalues --  -38.45205 -38.45112 -38.44586 -38.44451 -38.43938
  Beta  occ. eigenvalues --  -38.43578 -38.43574  -2.20951  -2.20938  -2.20355
  Beta  occ. eigenvalues --   -2.20280  -2.19754  -2.19381  -2.19315  -1.14718
  Beta  occ. eigenvalues --   -1.14655  -1.14647  -1.14617  -1.14576  -1.14536
  Beta  occ. eigenvalues --   -1.14049  -1.14036  -1.13966  -1.13955  -1.13927
  Beta  occ. eigenvalues --   -1.13899  -1.13470  -1.13421  -1.13374  -1.13055
  Beta  occ. eigenvalues --   -1.13051  -1.13037  -1.13003  -1.12994  -1.12977
  Beta  occ. eigenvalues --   -0.15732  -0.13584  -0.12550
  Beta virt. eigenvalues --   -0.07144  -0.06915  -0.05127  -0.03835  -0.03420
  Beta virt. eigenvalues --   -0.02668  -0.02301  -0.01754  -0.01428  -0.01249
  Beta virt. eigenvalues --   -0.00465  -0.00013   0.00189   0.00349   0.00487

 Mulliken charges and spin densities:
               1          2
     1  Na   1.749592   0.274930
     2  Na   0.079941   0.349221
     3  Na  -2.029146   0.018695
     4  Na   0.075145   0.222793
     5  Na   0.465793   0.003861
     6  Na   0.397060  -0.028250
     7  Na  -0.738385   0.158750
 Sum of Mulliken charges =  -0.00000   1.00000

 Dipole moment (field-independent basis, Debye):
    X=             -1.6812    Y=             -0.2423    Z=              0.3553  Tot=              1.7353
 Quadrupole moment (field-independent basis, Debye-Ang):
   XX=            -62.4656   YY=            -67.9364   ZZ=            -69.6162
   XY=              1.7007   XZ=             -1.9668   YZ=             -0.0469

 Normal termination of Gaussian 16 at Sun Dec  3 17:42:11 2023.
