 Gaussian 16, Revision B.01,
 Gaussian 16:  ES64L-G16RevB.01 20-Dec-2017

 -------------------------
 #P B3LYP/6-311+g(d) force
 -------------------------

 -----
 DPGEN
 -----
 Symbolic Z-matrix:
 Charge =  0 Multiplicity = 2

                         Standard orientation:
 ---------------------------------------------------------------------
 Center     Atomic      Atomic             Coordinates (Angstroms)
 Number     Number       Type             X           Y           Z
 ---------------------------------------------------------------------
      1         11           0        4.019694   -1.258016   -1.035347
      2         11           0        1.367567   -2.835183    0.981998
      3         11           0        0.598823    3.273269    1.048728
      4         11           0       -1.714437   -2.650087    0.165282
      5         11           0       -2.826214    1.987833   -0.602471
      6         11           0        3.411767    1.843994   -0.234583
      7         11           0       -4.857200   -0.361812   -0.323607
 ---------------------------------------------------------------------

 SCF Done:  E(UB3LYP) =  -1136.11194255     A.U. after   20 cycles

 The electronic state is 2-A.
 Alpha  occ. eigenvalues --  -38.45212 -38.44614 -38.44464 -38.44462 -38.44447
 Alpha  occ. eigenvalues --  -38.43988 -38.43745  -2.20985  -2.20403  -2.20279
 Alpha  occ. eigenvalues --   -2.20267  -2.20253  -2.19784  -2.19535  -1.14667
 Alpha  occ. eigenvalues --   -1.14651  -1.14642  -1.14084  -1.14072  -1.14024
 Alpha  occ. eigenvalues --   -1.13989  -1.13938  -1.13925  -1.13924  -1.13919
 Alpha  occ. eigenvalues --   -1.13913  -1.13899  -1.13892  -1.13861  -1.13458
 Alpha  occ. eigenvalues --   -1.13449  -1.13418  -1.13188  -1.13179  -1.13168
 Alpha  occ. eigenvalues --   -0.15718  -0.14230  -0.12995  -0.11066
 Alpha virt. eigenvalues --   -0.07078  -0.05004  -0.04372  -0.03615  -0.03459
 Alpha virt. eigenvalues --   -0.02581  -0.01941  -0.01678  -0.01253  -0.00857
 Alpha virt. eigenvalues --   -0.00381  -0.00360  -0.00030   0.00538   0.00678

  Beta  occ. eigenvalues --  -38.45203 -38.44574 -38.44459 -38.44407 -38.44397
  Beta  occ. eigenvalues --  -38.43973 -38.43686  -2.20975  -2.20334  -2.20254
  Beta  occ. eigenvalues --   -2.20193  -2.20156  -2.19763  -2.19426  -1.14663
  Beta  occ. eigenvalues --   -1.14649  -1.14602  -1.14032  -1.14027  -1.13964
  Beta  occ. eigenvalues --   -1.13947  -1.13939  -1.13898  -1.13870  -1.13862
  Beta  occ. eigenvalues --   -1.13845  -1.13844  -1.13823  -1.13795  -1.13440
  Beta  occ. eigenvalues --   -1.13438  -1.13383  -1.13113  -1.13107  -1.13095
  Beta  occ. eigenvalues --   -0.15174  -0.13559  -0.12218
  Beta virt. eigenvalues --   -0.07907  -0.07198  -0.04603  -0.03832  -0.03411
  Beta virt. eigenvalues --   -0.03110  -0.02360  -0.01720  -0.01557  -0.00883
  Beta virt. eigenvalues --   -0.00710  -0.00147  -0.00043   0.00150   0.00518

 Mulliken charges and spin densities:
               1          2
     1  Na   0.413868   0.269861
     2  Na  -0.167392  -0.049731
     3  Na   0.003709   0.267559
     4  Na  -0.183481   0.190376
     5  Na  -0.359279   0.089151
     6  Na  -0.198620   0.049190
     7  Na   0.491196   0.183594
 Sum of Mulliken charges =  -0.00000   1.00000

 Dipole moment (field-independent basis, Debye):
    X=             -0.7893    Y=             -0.3841    Z=             -0.2977  Tot=              0.9269
 Quadrupole moment (field-independent basis, Debye-Ang):
   XX=            -58.1104   YY=            -70.0971   ZZ=            -70.9542
   XY=              0.5634   XZ=             -0.2701   YZ=              0.3803

 Normal termination of Gaussian 16 at Sun Dec  3 17:53:22 2023.
