 Gaussian 16, Revision B.01,
 Gaussian 16:  ES64L-G16RevB.01 20-Dec-2017

 -------------------------
 #P B3LYP/6-311+g(d) force
 -------------------------

 -----
 DPGEN
 -----
 Symbolic Z-matrix:
 Charge =  0 Multiplicity = 2

                         Standard orientation:
 ---------------------------------------------------------------------
 Center     Atomic      Atomic             Coordinates (Angstroms)
 Number     Number       Type             X           Y           Z
 ---------------------------------------------------------------------
      1         11           0       -0.336219    0.188264    2.091859
      2         11           0        0.152334   -0.266918   -1.557987
      3         11           0       -3.047853   -0.891204   -0.464807
      4         11           0       -1.585416    2.369781   -0.143496
      5         11           0       -0.021510   -2.810367    0.322542
      6         11           0        1.666084    2.250530   -0.060129
      7         11           0        3.172579   -0.840085   -0.187982
 ---------------------------------------------------------------------

 SCF Done:  E(UB3LYP) =  -1136.13878509     A.U. after   20 cycles

 The electronic state is 2-A.
 Alpha  occ. eigenvalues --  -38.43982 -38.43948 -38.43583 -38.43457 -38.43279
 Alpha  occ. eigenvalues --  -38.43252 -38.43108  -2.19807  -2.19768  -2.19485
 Alpha  occ. eigenvalues --   -2.19316  -2.19173  -2.19142  -2.19118  -1.13485
 Alpha  occ. eigenvalues --   -1.13459  -1.13447  -1.13446  -1.13429  -1.13408
 Alpha  occ. eigenvalues --   -1.13155  -1.13123  -1.13105  -1.13039  -1.12982
 Alpha  occ. eigenvalues --   -1.12923  -1.12913  -1.12841  -1.12835  -1.12811
 Alpha  occ. eigenvalues --   -1.12804  -1.12785  -1.12741  -1.12739  -1.12720
 Alpha  occ. eigenvalues --   -0.18816  -0.12934  -0.12588  -0.10848
 Alpha virt. eigenvalues --   -0.05663  -0.04947  -0.04669  -0.03061  -0.03021
 Alpha virt. eigenvalues --   -0.02577  -0.01625  -0.01030  -0.00326  -0.00147
 Alpha virt. eigenvalues --   -0.00020   0.00340   0.00817   0.00888   0.00917

  Beta  occ. eigenvalues --  -38.43970 -38.43947 -38.43483 -38.43447 -38.43274
  Beta  occ. eigenvalues --  -38.43246 -38.43054  -2.19787  -2.19769  -2.19303
  Beta  occ. eigenvalues --   -2.19300  -2.19167  -2.19134  -2.19019  -1.13460
  Beta  occ. eigenvalues --   -1.13444  -1.13438  -1.13430  -1.13428  -1.13406
  Beta  occ. eigenvalues --   -1.13046  -1.13023  -1.12992  -1.12979  -1.12937
  Beta  occ. eigenvalues --   -1.12918  -1.12900  -1.12835  -1.12807  -1.12798
  Beta  occ. eigenvalues --   -1.12772  -1.12736  -1.12723  -1.12679  -1.12647
  Beta  occ. eigenvalues --   -0.18090  -0.12683  -0.12350
  Beta virt. eigenvalues --   -0.06911  -0.05606  -0.04954  -0.04610  -0.02344
  Beta virt. eigenvalues --   -0.02213  -0.01566  -0.01464  -0.00975  -0.00335
  Beta virt. eigenvalues --   -0.00196   0.00122   0.00374   0.00874   0.00888

 Mulliken charges and spin densities:
               1          2
     1  Na  -0.498163   0.667131
     2  Na  -0.425825   0.390356
     3  Na   0.182508   0.000221
     4  Na   0.254330   0.010995
     5  Na   0.132059   0.004341
     6  Na   0.181107  -0.030412
     7  Na   0.173984  -0.042633
 Sum of Mulliken charges =  -0.00000   1.00000

 Dipole moment (field-independent basis, Debye):
    X=             -0.0272    Y=             -0.2095    Z=              0.1538  Tot=              0.2613
 Quadrupole moment (field-independent basis, Debye-Ang):
   XX=            -55.8108   YY=            -63.6779   ZZ=            -73.7552
   XY=             -0.2775   XZ=              1.1250   YZ=             -0.7928

 Normal termination of Gaussian 16 at Thu Dec  7 19:13:48 2023.
