 Gaussian 16, Revision B.01,
 Gaussian 16:  ES64L-G16RevB.01 20-Dec-2017

 -------------------------
 #P B3LYP/6-311+g(d) force
 -------------------------

 -----
 DPGEN
 -----
 Symbolic Z-matrix:
 Charge =  0 Multiplicity = 2

                         Standard orientation:
 ---------------------------------------------------------------------
 Center     Atomic      Atomic             Coordinates (Angstroms)
 Number     Number       Type             X           Y           Z
 ---------------------------------------------------------------------
      1         11           0        0.228963    0.498709    2.195977
      2         11           0        0.145858   -0.069769   -1.746842
      3         11           0       -3.212934   -0.563641    0.254666
      4         11           0       -0.721269   -2.565191   -0.173583
      5         11           0       -1.210281    2.519953   -0.459378
      6         11           0        2.690645   -1.781125    0.059385
      7         11           0        2.079017    1.961064   -0.130225
 ---------------------------------------------------------------------

 SCF Done:  E(UB3LYP) =  -1136.13592607     A.U. after   19 cycles

 The electronic state is 2-A.
 Alpha  occ. eigenvalues --  -38.44067 -38.43797 -38.43698 -38.43608 -38.43468
 Alpha  occ. eigenvalues --  -38.43455 -38.43257  -2.19931  -2.19612  -2.19509
 Alpha  occ. eigenvalues --   -2.19500  -2.19464  -2.19331  -2.19151  -1.13594
 Alpha  occ. eigenvalues --   -1.13565  -1.13548  -1.13298  -1.13271  -1.13254
 Alpha  occ. eigenvalues --   -1.13245  -1.13191  -1.13181  -1.13172  -1.13159
 Alpha  occ. eigenvalues --   -1.13152  -1.13133  -1.13117  -1.13067  -1.12989
 Alpha  occ. eigenvalues --   -1.12980  -1.12944  -1.12837  -1.12804  -1.12755
 Alpha  occ. eigenvalues --   -0.18713  -0.12841  -0.12544  -0.11141
 Alpha virt. eigenvalues --   -0.05353  -0.05245  -0.04508  -0.03277  -0.03071
 Alpha virt. eigenvalues --   -0.02919  -0.01401  -0.01103  -0.00212  -0.00084
 Alpha virt. eigenvalues --   -0.00017   0.00358   0.00803   0.00893   0.00933

  Beta  occ. eigenvalues --  -38.43970 -38.43797 -38.43698 -38.43600 -38.43442
  Beta  occ. eigenvalues --  -38.43397 -38.43251  -2.19752  -2.19612  -2.19511
  Beta  occ. eigenvalues --   -2.19490  -2.19336  -2.19312  -2.19144  -1.13478
  Beta  occ. eigenvalues --   -1.13438  -1.13421  -1.13300  -1.13258  -1.13256
  Beta  occ. eigenvalues --   -1.13215  -1.13176  -1.13174  -1.13154  -1.13138
  Beta  occ. eigenvalues --   -1.13117  -1.13081  -1.13073  -1.12995  -1.12957
  Beta  occ. eigenvalues --   -1.12936  -1.12930  -1.12815  -1.12782  -1.12755
  Beta  occ. eigenvalues --   -0.17962  -0.12610  -0.12327
  Beta virt. eigenvalues --   -0.07175  -0.05266  -0.05247  -0.04461  -0.02473
  Beta virt. eigenvalues --   -0.02331  -0.01835  -0.01320  -0.01035  -0.00252
  Beta virt. eigenvalues --   -0.00099   0.00106   0.00379   0.00852   0.00904

 Mulliken charges and spin densities:
               1          2
     1  Na  -0.696165   0.766308
     2  Na  -0.116274   0.338068
     3  Na  -0.067106  -0.017622
     4  Na   0.179440  -0.011223
     5  Na   0.263610   0.016554
     6  Na   0.047513  -0.068123
     7  Na   0.388983  -0.023962
 Sum of Mulliken charges =  -0.00000   1.00000

 Dipole moment (field-independent basis, Debye):
    X=              0.1102    Y=              0.1563    Z=              0.2864  Tot=              0.3444
 Quadrupole moment (field-independent basis, Debye-Ang):
   XX=            -57.9532   YY=            -64.7264   ZZ=            -72.0784
   XY=             -0.9404   XZ=             -0.3133   YZ=             -1.1571

 Normal termination of Gaussian 16 at Tue Dec  5 12:14:41 2023.
