 Gaussian 16, Revision B.01,
 Gaussian 16:  ES64L-G16RevB.01 20-Dec-2017

 -------------------------
 #P B3LYP/6-311+g(d) force
 -------------------------

 -----
 DPGEN
 -----
 Symbolic Z-matrix:
 Charge =  0 Multiplicity = 2

                         Standard orientation:
 ---------------------------------------------------------------------
 Center     Atomic      Atomic             Coordinates (Angstroms)
 Number     Number       Type             X           Y           Z
 ---------------------------------------------------------------------
      1         11           0       -8.175842    0.482668   -0.541467
      2         11           0        8.782618   -0.043894    0.061515
      3         11           0        5.843862   -0.884021   -0.010362
      4         11           0        2.567318    0.667187   -0.608684
      5         11           0       -0.295809    1.573404    0.705076
      6         11           0       -6.134990   -1.016263    0.596497
      7         11           0       -2.587156   -0.779080   -0.202576
 ---------------------------------------------------------------------

 SCF Done:  E(UB3LYP) =  -1136.10568350     A.U. after   18 cycles

 The electronic state is 2-A.
 Alpha  occ. eigenvalues --  -38.44787 -38.44672 -38.44583 -38.44555 -38.44507
 Alpha  occ. eigenvalues --  -38.44066 -38.43850  -2.20590  -2.20525  -2.20390
 Alpha  occ. eigenvalues --   -2.20346  -2.20316  -2.19919  -2.19654  -1.14332
 Alpha  occ. eigenvalues --   -1.14245  -1.14243  -1.14202  -1.14138  -1.14134
 Alpha  occ. eigenvalues --   -1.14061  -1.14049  -1.14028  -1.14027  -1.14020
 Alpha  occ. eigenvalues --   -1.14003  -1.13967  -1.13965  -1.13902  -1.13574
 Alpha  occ. eigenvalues --   -1.13557  -1.13547  -1.13323  -1.13319  -1.13311
 Alpha  occ. eigenvalues --   -0.15440  -0.14412  -0.13175  -0.11102
 Alpha virt. eigenvalues --   -0.07138  -0.04838  -0.04337  -0.03448  -0.03019
 Alpha virt. eigenvalues --   -0.02874  -0.02386  -0.02054  -0.01601  -0.01016
 Alpha virt. eigenvalues --   -0.00682  -0.00360  -0.00066   0.00301   0.00414

  Beta  occ. eigenvalues --  -38.44704 -38.44620 -38.44573 -38.44535 -38.44437
  Beta  occ. eigenvalues --  -38.44069 -38.43858  -2.20437  -2.20428  -2.20384
  Beta  occ. eigenvalues --   -2.20300  -2.20184  -2.19931  -2.19673  -1.14274
  Beta  occ. eigenvalues --   -1.14142  -1.14138  -1.14110  -1.14072  -1.14068
  Beta  occ. eigenvalues --   -1.14050  -1.14050  -1.14004  -1.14002  -1.13966
  Beta  occ. eigenvalues --   -1.13964  -1.13878  -1.13876  -1.13835  -1.13571
  Beta  occ. eigenvalues --   -1.13570  -1.13521  -1.13337  -1.13336  -1.13291
  Beta  occ. eigenvalues --   -0.14785  -0.13799  -0.12744
  Beta virt. eigenvalues --   -0.08051  -0.06467  -0.04464  -0.04120  -0.03246
  Beta virt. eigenvalues --   -0.02835  -0.02672  -0.02223  -0.01882  -0.01219
  Beta virt. eigenvalues --   -0.00760  -0.00355  -0.00044   0.00095   0.00361

 Mulliken charges and spin densities:
               1          2
     1  Na   0.442899   0.234216
     2  Na   0.400690   0.169997
     3  Na  -0.280894  -0.005827
     4  Na  -0.345171   0.363017
     5  Na   0.314835  -0.084914
     6  Na  -0.213676  -0.000680
     7  Na  -0.318683   0.324193
 Sum of Mulliken charges =  -0.00000   1.00000

 Dipole moment (field-independent basis, Debye):
    X=             -0.2291    Y=              0.5645    Z=             -0.1897  Tot=              0.6381
 Quadrupole moment (field-independent basis, Debye-Ang):
   XX=            -54.3040   YY=            -67.7783   ZZ=            -71.7048
   XY=             -1.6333   XZ=              2.6037   YZ=              0.2844

 Normal termination of Gaussian 16 at Sun Dec  3 17:48:00 2023.
