 Gaussian 16, Revision B.01,
 Gaussian 16:  ES64L-G16RevB.01 20-Dec-2017

 -------------------------
 #P B3LYP/6-311+g(d) force
 -------------------------

 -----
 DPGEN
 -----
 Symbolic Z-matrix:
 Charge =  0 Multiplicity = 2

                         Standard orientation:
 ---------------------------------------------------------------------
 Center     Atomic      Atomic             Coordinates (Angstroms)
 Number     Number       Type             X           Y           Z
 ---------------------------------------------------------------------
      1         11           0       -3.220553   -0.300075   -0.061493
      2         11           0       -1.208719    2.671727   -0.172202
      3         11           0        0.299818   -0.089417   -1.746703
      4         11           0        2.635054    1.738168    0.018096
      5         11           0        0.017277    0.201563    1.901573
      6         11           0        2.454480   -1.870791    0.028067
      7         11           0       -0.977357   -2.351175    0.032662
 ---------------------------------------------------------------------

 SCF Done:  E(UB3LYP) =  -1136.13642679     A.U. after   19 cycles

 The electronic state is 2-A.
 Alpha  occ. eigenvalues --  -38.44195 -38.44130 -38.43735 -38.43472 -38.43358
 Alpha  occ. eigenvalues --  -38.43241 -38.42936  -2.20044  -2.19947  -2.19590
 Alpha  occ. eigenvalues --   -2.19300  -2.19290  -2.19218  -2.18891  -1.13752
 Alpha  occ. eigenvalues --   -1.13695  -1.13675  -1.13627  -1.13614  -1.13579
 Alpha  occ. eigenvalues --   -1.13276  -1.13251  -1.13228  -1.13003  -1.12983
 Alpha  occ. eigenvalues --   -1.12971  -1.12926  -1.12918  -1.12910  -1.12896
 Alpha  occ. eigenvalues --   -1.12852  -1.12826  -1.12571  -1.12541  -1.12518
 Alpha  occ. eigenvalues --   -0.18907  -0.13224  -0.12334  -0.10711
 Alpha virt. eigenvalues --   -0.05855  -0.05340  -0.04266  -0.03225  -0.02815
 Alpha virt. eigenvalues --   -0.02456  -0.01691  -0.01195  -0.00382  -0.00074
 Alpha virt. eigenvalues --   -0.00013   0.00349   0.00758   0.00868   0.00935

  Beta  occ. eigenvalues --  -38.44194 -38.44126 -38.43731 -38.43467 -38.43271
  Beta  occ. eigenvalues --  -38.43167 -38.42925  -2.20045  -2.19944  -2.19586
  Beta  occ. eigenvalues --   -2.19294  -2.19130  -2.19082  -2.18877  -1.13756
  Beta  occ. eigenvalues --   -1.13679  -1.13675  -1.13615  -1.13598  -1.13580
  Beta  occ. eigenvalues --   -1.13268  -1.13231  -1.13224  -1.12984  -1.12952
  Beta  occ. eigenvalues --   -1.12924  -1.12878  -1.12825  -1.12802  -1.12786
  Beta  occ. eigenvalues --   -1.12757  -1.12729  -1.12559  -1.12514  -1.12487
  Beta  occ. eigenvalues --   -0.18156  -0.12999  -0.12075
  Beta virt. eigenvalues --   -0.06782  -0.05831  -0.05323  -0.04264  -0.02431
  Beta virt. eigenvalues --   -0.02010  -0.01605  -0.01397  -0.01137  -0.00444
  Beta virt. eigenvalues --   -0.00119   0.00123   0.00370   0.00801   0.00875

 Mulliken charges and spin densities:
               1          2
     1  Na   0.004910  -0.057658
     2  Na   0.082275  -0.140841
     3  Na  -0.407237   0.657154
     4  Na   0.094432  -0.150050
     5  Na  -0.477726   0.732859
     6  Na   0.312345  -0.050545
     7  Na   0.391001   0.009080
 Sum of Mulliken charges =  -0.00000   1.00000

 Dipole moment (field-independent basis, Debye):
    X=              0.2280    Y=              0.2978    Z=              0.0618  Tot=              0.3801
 Quadrupole moment (field-independent basis, Debye-Ang):
   XX=            -53.4022   YY=            -64.7999   ZZ=            -74.5974
   XY=             -0.4186   XZ=              0.6636   YZ=             -0.6655

 Normal termination of Gaussian 16 at Thu Dec  7 02:32:58 2023.
