 Gaussian 16, Revision B.01,
 Gaussian 16:  ES64L-G16RevB.01 20-Dec-2017

 -------------------------
 #P B3LYP/6-311+g(d) force
 -------------------------

 -----
 DPGEN
 -----
 Symbolic Z-matrix:
 Charge =  0 Multiplicity = 2

                         Standard orientation:
 ---------------------------------------------------------------------
 Center     Atomic      Atomic             Coordinates (Angstroms)
 Number     Number       Type             X           Y           Z
 ---------------------------------------------------------------------
      1         11           0       -3.384461    1.282161   -0.747009
      2         11           0       -1.751839   -1.441871   -0.973763
      3         11           0       -2.127672   -0.397202    2.015552
      4         11           0        1.753490   -1.616990    0.917741
      5         11           0        0.323841    1.541695    0.179183
      6         11           0        3.504410    1.229835    0.399644
      7         11           0        1.682230   -0.597629   -1.791348
 ---------------------------------------------------------------------

 SCF Done:  E(UB3LYP) =  -1136.11716431     A.U. after   27 cycles

 The electronic state is 2-A.
 Alpha  occ. eigenvalues --  -38.44512 -38.44442 -38.43956 -38.43879 -38.43873
 Alpha  occ. eigenvalues --  -38.43818 -38.43276  -2.20384  -2.20287  -2.19878
 Alpha  occ. eigenvalues --   -2.19835  -2.19756  -2.19725  -2.19187  -1.14059
 Alpha  occ. eigenvalues --   -1.14046  -1.13994  -1.13969  -1.13932  -1.13900
 Alpha  occ. eigenvalues --   -1.13755  -1.13577  -1.13522  -1.13502  -1.13452
 Alpha  occ. eigenvalues --   -1.13443  -1.13418  -1.13405  -1.13390  -1.13388
 Alpha  occ. eigenvalues --   -1.13367  -1.13288  -1.12874  -1.12868  -1.12799
 Alpha  occ. eigenvalues --   -0.18882  -0.14845  -0.11106  -0.10666
 Alpha virt. eigenvalues --   -0.06754  -0.05487  -0.05088  -0.03064  -0.02595
 Alpha virt. eigenvalues --   -0.02165  -0.02109  -0.01135  -0.00769  -0.00159
 Alpha virt. eigenvalues --    0.00143   0.00256   0.00337   0.00559   0.00625

  Beta  occ. eigenvalues --  -38.44446 -38.44414 -38.43941 -38.43878 -38.43837
  Beta  occ. eigenvalues --  -38.43809 -38.43255  -2.20261  -2.20237  -2.19849
  Beta  occ. eigenvalues --   -2.19772  -2.19754  -2.19716  -2.19153  -1.13984
  Beta  occ. eigenvalues --   -1.13960  -1.13933  -1.13906  -1.13893  -1.13852
  Beta  occ. eigenvalues --   -1.13728  -1.13542  -1.13491  -1.13484  -1.13445
  Beta  occ. eigenvalues --   -1.13417  -1.13395  -1.13386  -1.13374  -1.13354
  Beta  occ. eigenvalues --   -1.13331  -1.13288  -1.12852  -1.12814  -1.12773
  Beta  occ. eigenvalues --   -0.18224  -0.14603  -0.10512
  Beta virt. eigenvalues --   -0.07314  -0.06479  -0.05195  -0.04543  -0.02793
  Beta virt. eigenvalues --   -0.02430  -0.01644  -0.01526  -0.01012  -0.00299
  Beta virt. eigenvalues --   -0.00037   0.00193   0.00354   0.00500   0.00648

 Mulliken charges and spin densities:
               1          2
     1  Na   0.325981  -0.051121
     2  Na  -0.004481   0.501794
     3  Na  -0.070851   0.161227
     4  Na  -0.285137   0.257032
     5  Na  -0.868374   0.392677
     6  Na   0.733820  -0.118986
     7  Na   0.169043  -0.142624
 Sum of Mulliken charges =  -0.00000   1.00000

 Dipole moment (field-independent basis, Debye):
    X=             -0.1182    Y=             -0.2000    Z=              0.1513  Tot=              0.2773
 Quadrupole moment (field-independent basis, Debye-Ang):
   XX=            -49.6213   YY=            -78.2935   ZZ=            -67.4919
   XY=             -1.7176   XZ=              0.6717   YZ=             -3.5821

 Normal termination of Gaussian 16 at Thu Dec  7 17:56:53 2023.
