 Gaussian 16, Revision B.01,
 Gaussian 16:  ES64L-G16RevB.01 20-Dec-2017

 -------------------------
 #P B3LYP/6-311+g(d) force
 -------------------------

 -----
 DPGEN
 -----
 Symbolic Z-matrix:
 Charge =  0 Multiplicity = 2

                         Standard orientation:
 ---------------------------------------------------------------------
 Center     Atomic      Atomic             Coordinates (Angstroms)
 Number     Number       Type             X           Y           Z
 ---------------------------------------------------------------------
      1         11           0       -4.078007    0.740524    0.150550
      2         11           0       -1.331330   -2.760603   -0.787068
      3         11           0       -0.204715   -0.024660    2.428754
      4         11           0       -0.026596    0.008677   -1.166893
      5         11           0        0.502642    3.598950   -0.736842
      6         11           0        2.982703    1.086881    0.196179
      7         11           0        2.155302   -2.649769   -0.084680
 ---------------------------------------------------------------------

 SCF Done:  E(UB3LYP) =  -1136.11797147     A.U. after   22 cycles

 The electronic state is 2-A.
 Alpha  occ. eigenvalues --  -38.44936 -38.44515 -38.44213 -38.44145 -38.44125
 Alpha  occ. eigenvalues --  -38.43965 -38.43540  -2.20629  -2.20311  -2.19984
 Alpha  occ. eigenvalues --   -2.19954  -2.19943  -2.19758  -2.19464  -1.14310
 Alpha  occ. eigenvalues --   -1.14304  -1.14262  -1.13964  -1.13945  -1.13909
 Alpha  occ. eigenvalues --   -1.13690  -1.13653  -1.13635  -1.13634  -1.13619
 Alpha  occ. eigenvalues --   -1.13609  -1.13606  -1.13558  -1.13548  -1.13437
 Alpha  occ. eigenvalues --   -1.13413  -1.13400  -1.13175  -1.13111  -1.13082
 Alpha  occ. eigenvalues --   -0.17433  -0.12694  -0.11823  -0.10650
 Alpha virt. eigenvalues --   -0.06603  -0.05531  -0.04963  -0.02833  -0.02815
 Alpha virt. eigenvalues --   -0.02552  -0.02046  -0.01710  -0.00898  -0.00788
 Alpha virt. eigenvalues --   -0.00182   0.00194   0.00495   0.00606   0.00694

  Beta  occ. eigenvalues --  -38.44951 -38.44400 -38.44186 -38.44142 -38.44099
  Beta  occ. eigenvalues --  -38.43964 -38.43513  -2.20658  -2.20097  -2.19939
  Beta  occ. eigenvalues --   -2.19934  -2.19908  -2.19758  -2.19419  -1.14327
  Beta  occ. eigenvalues --   -1.14322  -1.14282  -1.13820  -1.13801  -1.13754
  Beta  occ. eigenvalues --   -1.13655  -1.13631  -1.13614  -1.13606  -1.13600
  Beta  occ. eigenvalues --   -1.13583  -1.13571  -1.13544  -1.13518  -1.13435
  Beta  occ. eigenvalues --   -1.13412  -1.13388  -1.13126  -1.13077  -1.13050
  Beta  occ. eigenvalues --   -0.16777  -0.12368  -0.11749
  Beta virt. eigenvalues --   -0.06995  -0.06252  -0.05314  -0.04861  -0.02317
  Beta virt. eigenvalues --   -0.02252  -0.01982  -0.01574  -0.01518  -0.00908
  Beta virt. eigenvalues --   -0.00745   0.00005   0.00252   0.00608   0.00635

 Mulliken charges and spin densities:
               1          2
     1  Na  -0.069515  -0.056127
     2  Na   0.579934   0.084313
     3  Na  -0.458869   0.751547
     4  Na  -0.449520  -0.102338
     5  Na   0.258139   0.170967
     6  Na   0.121951   0.108718
     7  Na   0.017880   0.042920
 Sum of Mulliken charges =  -0.00000   1.00000

 Dipole moment (field-independent basis, Debye):
    X=              0.0677    Y=              0.0012    Z=              0.2187  Tot=              0.2289
 Quadrupole moment (field-independent basis, Debye-Ang):
   XX=            -57.5090   YY=            -59.8328   ZZ=            -75.8655
   XY=             -1.9434   XZ=              1.1539   YZ=             -0.3213

 Normal termination of Gaussian 16 at Tue Dec  5 15:57:28 2023.
