 Gaussian 16, Revision B.01,
 Gaussian 16:  ES64L-G16RevB.01 20-Dec-2017

 -------------------------
 #P B3LYP/6-311+g(d) force
 -------------------------

 -----
 DPGEN
 -----
 Symbolic Z-matrix:
 Charge =  0 Multiplicity = 2

                         Standard orientation:
 ---------------------------------------------------------------------
 Center     Atomic      Atomic             Coordinates (Angstroms)
 Number     Number       Type             X           Y           Z
 ---------------------------------------------------------------------
      1         11           0       -2.281839   -1.601933    0.219695
      2         11           0        0.479518   -0.258966    2.330962
      3         11           0       -2.293930    1.828426    0.375651
      4         11           0        1.141258    2.432614   -0.358738
      5         11           0        0.395552   -2.396975   -0.667990
      6         11           0       -0.770142    0.281596   -1.766883
      7         11           0        3.329583   -0.284761   -0.132697
 ---------------------------------------------------------------------

 SCF Done:  E(UB3LYP) =  -1136.13066128     A.U. after   19 cycles

 The electronic state is 2-A.
 Alpha  occ. eigenvalues --  -38.44467 -38.44080 -38.43595 -38.43529 -38.43473
 Alpha  occ. eigenvalues --  -38.43339 -38.43105  -2.20304  -2.19873  -2.19627
 Alpha  occ. eigenvalues --   -2.19423  -2.19410  -2.19197  -2.19044  -1.13959
 Alpha  occ. eigenvalues --   -1.13937  -1.13920  -1.13542  -1.13533  -1.13521
 Alpha  occ. eigenvalues --   -1.13365  -1.13329  -1.13284  -1.13163  -1.13080
 Alpha  occ. eigenvalues --   -1.13060  -1.13053  -1.13048  -1.13019  -1.12894
 Alpha  occ. eigenvalues --   -1.12858  -1.12803  -1.12728  -1.12682  -1.12639
 Alpha  occ. eigenvalues --   -0.18931  -0.12973  -0.12380  -0.11529
 Alpha virt. eigenvalues --   -0.05623  -0.04822  -0.04223  -0.03672  -0.03215
 Alpha virt. eigenvalues --   -0.03052  -0.01384  -0.00786  -0.00176   0.00006
 Alpha virt. eigenvalues --    0.00153   0.00371   0.00782   0.00871   0.00936

  Beta  occ. eigenvalues --  -38.44371 -38.44083 -38.43534 -38.43522 -38.43465
  Beta  occ. eigenvalues --  -38.43331 -38.43087  -2.20126  -2.19880  -2.19517
  Beta  occ. eigenvalues --   -2.19414  -2.19399  -2.19185  -2.19015  -1.13841
  Beta  occ. eigenvalues --   -1.13813  -1.13789  -1.13540  -1.13533  -1.13526
  Beta  occ. eigenvalues --   -1.13310  -1.13260  -1.13211  -1.13147  -1.13063
  Beta  occ. eigenvalues --   -1.13039  -1.13032  -1.13013  -1.13003  -1.12876
  Beta  occ. eigenvalues --   -1.12838  -1.12799  -1.12702  -1.12648  -1.12615
  Beta  occ. eigenvalues --   -0.18154  -0.12800  -0.12148
  Beta virt. eigenvalues --   -0.07510  -0.05500  -0.04804  -0.04152  -0.02909
  Beta virt. eigenvalues --   -0.02420  -0.02031  -0.01298  -0.00735  -0.00053
  Beta virt. eigenvalues --    0.00060   0.00121   0.00402   0.00890   0.00944

 Mulliken charges and spin densities:
               1          2
     1  Na   0.309538   0.171001
     2  Na  -0.749043   0.625820
     3  Na   0.148770   0.103232
     4  Na   0.086782  -0.056474
     5  Na   0.229882   0.017905
     6  Na  -0.051750   0.212429
     7  Na   0.025822  -0.073914
 Sum of Mulliken charges =  -0.00000   1.00000

 Dipole moment (field-independent basis, Debye):
    X=              0.2681    Y=              0.1219    Z=              0.4517  Tot=              0.5392
 Quadrupole moment (field-independent basis, Debye-Ang):
   XX=            -58.4154   YY=            -68.5813   ZZ=            -69.0558
   XY=             -0.5821   XZ=             -2.2053   YZ=              0.7673

 Normal termination of Gaussian 16 at Fri Dec  8 05:54:51 2023.
