 Gaussian 16, Revision B.01,
 Gaussian 16:  ES64L-G16RevB.01 20-Dec-2017

 -------------------------
 #P B3LYP/6-311+g(d) force
 -------------------------

 -----
 DPGEN
 -----
 Symbolic Z-matrix:
 Charge =  0 Multiplicity = 2

                         Standard orientation:
 ---------------------------------------------------------------------
 Center     Atomic      Atomic             Coordinates (Angstroms)
 Number     Number       Type             X           Y           Z
 ---------------------------------------------------------------------
      1         11           0        3.897172   -0.845243    0.721708
      2         11           0       -1.439219   -0.314311    2.419860
      3         11           0        1.447921   -2.414212   -0.989172
      4         11           0        0.372647    2.969474   -1.788324
      5         11           0        1.304159    2.005426    1.114981
      6         11           0       -4.127748   -0.215791    0.313261
      7         11           0       -1.454932   -1.185343   -1.792315
 ---------------------------------------------------------------------

 SCF Done:  E(UB3LYP) =  -1136.11135273     A.U. after   23 cycles

 The electronic state is 2-A.
 Alpha  occ. eigenvalues --  -38.45397 -38.45039 -38.44834 -38.44221 -38.44219
 Alpha  occ. eigenvalues --  -38.43305 -38.43186  -2.21177  -2.20811  -2.20605
 Alpha  occ. eigenvalues --   -2.20037  -2.20020  -2.19108  -2.18984  -1.14834
 Alpha  occ. eigenvalues --   -1.14823  -1.14797  -1.14481  -1.14473  -1.14455
 Alpha  occ. eigenvalues --   -1.14269  -1.14247  -1.14244  -1.13719  -1.13686
 Alpha  occ. eigenvalues --   -1.13668  -1.13657  -1.13655  -1.13652  -1.12792
 Alpha  occ. eigenvalues --   -1.12778  -1.12750  -1.12669  -1.12660  -1.12630
 Alpha  occ. eigenvalues --   -0.16612  -0.13209  -0.11970  -0.11551
 Alpha virt. eigenvalues --   -0.07106  -0.05438  -0.04045  -0.03530  -0.03223
 Alpha virt. eigenvalues --   -0.03068  -0.02398  -0.01133  -0.00745  -0.00253
 Alpha virt. eigenvalues --   -0.00148  -0.00022   0.00194   0.00379   0.00579

  Beta  occ. eigenvalues --  -38.45332 -38.45049 -38.44806 -38.44163 -38.44152
  Beta  occ. eigenvalues --  -38.43306 -38.43196  -2.21055  -2.20832  -2.20552
  Beta  occ. eigenvalues --   -2.19934  -2.19890  -2.19113  -2.19007  -1.14750
  Beta  occ. eigenvalues --   -1.14743  -1.14715  -1.14494  -1.14479  -1.14466
  Beta  occ. eigenvalues --   -1.14231  -1.14217  -1.14209  -1.13650  -1.13611
  Beta  occ. eigenvalues --   -1.13585  -1.13584  -1.13570  -1.13560  -1.12792
  Beta  occ. eigenvalues --   -1.12783  -1.12738  -1.12683  -1.12666  -1.12634
  Beta  occ. eigenvalues --   -0.15990  -0.12998  -0.11538
  Beta virt. eigenvalues --   -0.08141  -0.06716  -0.04883  -0.03639  -0.03284
  Beta virt. eigenvalues --   -0.02943  -0.02612  -0.02140  -0.00937  -0.00539
  Beta virt. eigenvalues --   -0.00129  -0.00034   0.00108   0.00241   0.00629

 Mulliken charges and spin densities:
               1          2
     1  Na  -0.083309   0.282824
     2  Na  -0.401184   0.472063
     3  Na   0.128955  -0.161815
     4  Na  -0.250124   0.474586
     5  Na   0.460519  -0.382696
     6  Na   0.420318  -0.061450
     7  Na  -0.275175   0.376486
 Sum of Mulliken charges =  -0.00000   1.00000

 Dipole moment (field-independent basis, Debye):
    X=             -0.9690    Y=              0.0192    Z=              0.3938  Tot=              1.0461
 Quadrupole moment (field-independent basis, Debye-Ang):
   XX=            -53.9351   YY=            -77.4909   ZZ=            -66.3989
   XY=             -0.9219   XZ=              3.5066   YZ=             -4.3191

 Normal termination of Gaussian 16 at Sun Dec  3 13:22:36 2023.
