 Gaussian 16, Revision B.01,
 Gaussian 16:  ES64L-G16RevB.01 20-Dec-2017

 -------------------------
 #P B3LYP/6-311+g(d) force
 -------------------------

 -----
 DPGEN
 -----
 Symbolic Z-matrix:
 Charge =  0 Multiplicity = 2

                         Standard orientation:
 ---------------------------------------------------------------------
 Center     Atomic      Atomic             Coordinates (Angstroms)
 Number     Number       Type             X           Y           Z
 ---------------------------------------------------------------------
      1         11           0        4.239088   -1.385573   -0.359757
      2         11           0        3.532031    2.390793    0.658378
      3         11           0       -2.189325   -2.891549    0.197555
      4         11           0        1.637837   -3.462138   -0.206433
      5         11           0       -4.510839   -0.656678    0.433857
      6         11           0       -3.304744    2.505157   -0.604646
      7         11           0        0.595952    3.499988   -0.118954
 ---------------------------------------------------------------------

 SCF Done:  E(UB3LYP) =  -1136.10585296     A.U. after   24 cycles

 The electronic state is 2-A.
 Alpha  occ. eigenvalues --  -38.45033 -38.44914 -38.44887 -38.44655 -38.44398
 Alpha  occ. eigenvalues --  -38.44380 -38.44307  -2.20807  -2.20699  -2.20647
 Alpha  occ. eigenvalues --   -2.20415  -2.20196  -2.20165  -2.20101  -1.14471
 Alpha  occ. eigenvalues --   -1.14462  -1.14442  -1.14385  -1.14373  -1.14351
 Alpha  occ. eigenvalues --   -1.14326  -1.14322  -1.14295  -1.14093  -1.14085
 Alpha  occ. eigenvalues --   -1.14054  -1.13850  -1.13842  -1.13821  -1.13817
 Alpha  occ. eigenvalues --   -1.13803  -1.13786  -1.13757  -1.13749  -1.13736
 Alpha  occ. eigenvalues --   -0.15355  -0.14058  -0.13389  -0.10976
 Alpha virt. eigenvalues --   -0.07949  -0.04850  -0.04626  -0.03587  -0.03482
 Alpha virt. eigenvalues --   -0.02497  -0.02254  -0.01919  -0.01330  -0.00998
 Alpha virt. eigenvalues --   -0.00832  -0.00317   0.00096   0.00377   0.00445

  Beta  occ. eigenvalues --  -38.44996 -38.44917 -38.44880 -38.44655 -38.44338
  Beta  occ. eigenvalues --  -38.44295 -38.44269  -2.20740  -2.20712  -2.20639
  Beta  occ. eigenvalues --   -2.20419  -2.20084  -2.20032  -2.20005  -1.14427
  Beta  occ. eigenvalues --   -1.14418  -1.14388  -1.14388  -1.14388  -1.14326
  Beta  occ. eigenvalues --   -1.14325  -1.14321  -1.14256  -1.14099  -1.14092
  Beta  occ. eigenvalues --   -1.14032  -1.13774  -1.13768  -1.13747  -1.13711
  Beta  occ. eigenvalues --   -1.13708  -1.13704  -1.13696  -1.13683  -1.13682
  Beta  occ. eigenvalues --   -0.14800  -0.13366  -0.12649
  Beta virt. eigenvalues --   -0.08102  -0.07838  -0.04273  -0.04190  -0.03414
  Beta virt. eigenvalues --   -0.03213  -0.02295  -0.02090  -0.01717  -0.01214
  Beta virt. eigenvalues --   -0.00621  -0.00496  -0.00122   0.00231   0.00452

 Mulliken charges and spin densities:
               1          2
     1  Na  -0.169926   0.138251
     2  Na   0.086361   0.099469
     3  Na  -0.132747   0.300447
     4  Na   0.194271   0.029590
     5  Na   0.215011  -0.057075
     6  Na  -0.063414   0.411859
     7  Na  -0.129557   0.077458
 Sum of Mulliken charges =  -0.00000   1.00000

 Dipole moment (field-independent basis, Debye):
    X=              0.3704    Y=             -0.1666    Z=              0.0278  Tot=              0.4071
 Quadrupole moment (field-independent basis, Debye-Ang):
   XX=            -55.8971   YY=            -70.3767   ZZ=            -73.8676
   XY=              0.5355   XZ=             -0.4258   YZ=             -0.5129

 Normal termination of Gaussian 16 at Sun Dec  3 14:05:43 2023.
