 Gaussian 16, Revision B.01,
 Gaussian 16:  ES64L-G16RevB.01 20-Dec-2017

 -------------------------
 #P B3LYP/6-311+g(d) force
 -------------------------

 -----
 DPGEN
 -----
 Symbolic Z-matrix:
 Charge =  0 Multiplicity = 2

                         Standard orientation:
 ---------------------------------------------------------------------
 Center     Atomic      Atomic             Coordinates (Angstroms)
 Number     Number       Type             X           Y           Z
 ---------------------------------------------------------------------
      1         11           0        0.429247   -1.709882    1.752689
      2         11           0        3.318127   -0.779322   -0.118613
      3         11           0        0.031620    0.958639   -0.009330
      4         11           0        3.407830    2.501517   -0.109637
      5         11           0       -3.787120    2.313763   -0.229836
      6         11           0       -0.305920   -2.379925   -1.733090
      7         11           0       -3.093785   -0.904790    0.447817
 ---------------------------------------------------------------------

 SCF Done:  E(UB3LYP) =  -1136.12040342     A.U. after   23 cycles

 The electronic state is 2-A.
 Alpha  occ. eigenvalues --  -38.45193 -38.44750 -38.44744 -38.44250 -38.44085
 Alpha  occ. eigenvalues --  -38.43121 -38.42891  -2.21006  -2.20596  -2.20559
 Alpha  occ. eigenvalues --   -2.20017  -2.19880  -2.18954  -2.18788  -1.14686
 Alpha  occ. eigenvalues --   -1.14667  -1.14640  -1.14328  -1.14278  -1.14243
 Alpha  occ. eigenvalues --   -1.14236  -1.14187  -1.14183  -1.13686  -1.13684
 Alpha  occ. eigenvalues --   -1.13652  -1.13548  -1.13538  -1.13519  -1.12618
 Alpha  occ. eigenvalues --   -1.12595  -1.12568  -1.12475  -1.12428  -1.12388
 Alpha  occ. eigenvalues --   -0.17661  -0.13806  -0.11902  -0.09989
 Alpha virt. eigenvalues --   -0.06825  -0.06366  -0.04453  -0.03067  -0.02656
 Alpha virt. eigenvalues --   -0.02509  -0.01948  -0.01710  -0.01479  -0.00441
 Alpha virt. eigenvalues --   -0.00233   0.00114   0.00207   0.00451   0.00615

  Beta  occ. eigenvalues --  -38.45187 -38.44745 -38.44730 -38.44255 -38.44083
  Beta  occ. eigenvalues --  -38.43038 -38.42824  -2.20997  -2.20575  -2.20552
  Beta  occ. eigenvalues --   -2.20027  -2.19877  -2.18799  -2.18664  -1.14668
  Beta  occ. eigenvalues --   -1.14656  -1.14637  -1.14279  -1.14267  -1.14233
  Beta  occ. eigenvalues --   -1.14215  -1.14184  -1.14178  -1.13693  -1.13689
  Beta  occ. eigenvalues --   -1.13658  -1.13546  -1.13533  -1.13518  -1.12510
  Beta  occ. eigenvalues --   -1.12486  -1.12466  -1.12388  -1.12342  -1.12296
  Beta  occ. eigenvalues --   -0.17082  -0.13676  -0.11682
  Beta virt. eigenvalues --   -0.06739  -0.06291  -0.06045  -0.04224  -0.02646
  Beta virt. eigenvalues --   -0.02536  -0.02067  -0.01835  -0.01415  -0.00911
  Beta virt. eigenvalues --   -0.00381   0.00106   0.00207   0.00419   0.00491

 Mulliken charges and spin densities:
               1          2
     1  Na   0.462365   0.238567
     2  Na   0.635309   0.152683
     3  Na  -2.415324   0.142912
     4  Na   0.425600  -0.067784
     5  Na   0.289618  -0.103997
     6  Na  -0.255900   0.434597
     7  Na   0.858331   0.203023
 Sum of Mulliken charges =  -0.00000   1.00000

 Dipole moment (field-independent basis, Debye):
    X=              0.2922    Y=              0.3581    Z=              0.3804  Tot=              0.5985
 Quadrupole moment (field-independent basis, Debye-Ang):
   XX=            -53.7859   YY=            -63.3131   ZZ=            -78.0191
   XY=             -1.5504   XZ=             -0.7559   YZ=             -2.8010

 Normal termination of Gaussian 16 at Tue Dec  5 20:35:51 2023.
