 Gaussian 16, Revision B.01,
 Gaussian 16:  ES64L-G16RevB.01 20-Dec-2017

 -------------------------
 #P B3LYP/6-311+g(d) force
 -------------------------

 -----
 DPGEN
 -----
 Symbolic Z-matrix:
 Charge =  0 Multiplicity = 2

                         Standard orientation:
 ---------------------------------------------------------------------
 Center     Atomic      Atomic             Coordinates (Angstroms)
 Number     Number       Type             X           Y           Z
 ---------------------------------------------------------------------
      1         11           0        1.668908   -2.789055    0.204406
      2         11           0       -0.915221    2.821189    0.124147
      3         11           0       -4.096614    0.744658   -0.758607
      4         11           0        2.644089    2.614747   -0.065733
      5         11           0       -1.499069   -2.278319   -0.945790
      6         11           0       -1.934360   -0.751390    1.736750
      7         11           0        4.132266   -0.361830   -0.295173
 ---------------------------------------------------------------------

 SCF Done:  E(UB3LYP) =  -1136.11497410     A.U. after   22 cycles

 The electronic state is 2-A.
 Alpha  occ. eigenvalues --  -38.45863 -38.44898 -38.44262 -38.44173 -38.44033
 Alpha  occ. eigenvalues --  -38.43761 -38.43452  -2.21669  -2.20730  -2.20043
 Alpha  occ. eigenvalues --   -2.19945  -2.19810  -2.19584  -2.19269  -1.15374
 Alpha  occ. eigenvalues --   -1.15337  -1.15276  -1.14416  -1.14398  -1.14345
 Alpha  occ. eigenvalues --   -1.13736  -1.13717  -1.13674  -1.13630  -1.13617
 Alpha  occ. eigenvalues --   -1.13561  -1.13492  -1.13481  -1.13453  -1.13243
 Alpha  occ. eigenvalues --   -1.13224  -1.13193  -1.12922  -1.12911  -1.12906
 Alpha  occ. eigenvalues --   -0.16757  -0.13812  -0.12786  -0.10058
 Alpha virt. eigenvalues --   -0.06758  -0.06647  -0.04253  -0.03347  -0.02696
 Alpha virt. eigenvalues --   -0.02436  -0.02269  -0.01697  -0.01240  -0.00844
 Alpha virt. eigenvalues --   -0.00436   0.00131   0.00267   0.00400   0.00629

  Beta  occ. eigenvalues --  -38.45853 -38.44891 -38.44262 -38.44138 -38.44030
  Beta  occ. eigenvalues --  -38.43675 -38.43399  -2.21652  -2.20722  -2.20048
  Beta  occ. eigenvalues --   -2.19884  -2.19808  -2.19423  -2.19170  -1.15363
  Beta  occ. eigenvalues --   -1.15321  -1.15252  -1.14410  -1.14395  -1.14323
  Beta  occ. eigenvalues --   -1.13745  -1.13724  -1.13645  -1.13590  -1.13575
  Beta  occ. eigenvalues --   -1.13505  -1.13494  -1.13481  -1.13420  -1.13132
  Beta  occ. eigenvalues --   -1.13113  -1.13089  -1.12854  -1.12847  -1.12841
  Beta  occ. eigenvalues --   -0.16341  -0.13220  -0.12258
  Beta virt. eigenvalues --   -0.06790  -0.06674  -0.06482  -0.03855  -0.02886
  Beta virt. eigenvalues --   -0.02408  -0.02121  -0.01884  -0.01551  -0.01062
  Beta virt. eigenvalues --   -0.00747  -0.00075   0.00289   0.00445   0.00484

 Mulliken charges and spin densities:
               1          2
     1  Na  -0.178349   0.053088
     2  Na  -0.259789   0.179641
     3  Na   0.304447   0.509222
     4  Na   0.036038  -0.058405
     5  Na   0.153626  -0.029014
     6  Na   0.024551   0.067031
     7  Na  -0.080525   0.278437
 Sum of Mulliken charges =  -0.00000   1.00000

 Dipole moment (field-independent basis, Debye):
    X=             -0.9955    Y=             -0.8550    Z=              0.4937  Tot=              1.4021
 Quadrupole moment (field-independent basis, Debye-Ang):
   XX=            -71.9446   YY=            -69.4505   ZZ=            -64.9998
   XY=              2.1967   XZ=             -1.1322   YZ=             -0.0660

 Normal termination of Gaussian 16 at Sun Dec  3 19:44:32 2023.
