 Gaussian 16, Revision B.01,
 Gaussian 16:  ES64L-G16RevB.01 20-Dec-2017

 -------------------------
 #P B3LYP/6-311+g(d) force
 -------------------------

 -----
 DPGEN
 -----
 Symbolic Z-matrix:
 Charge =  0 Multiplicity = 2

                         Standard orientation:
 ---------------------------------------------------------------------
 Center     Atomic      Atomic             Coordinates (Angstroms)
 Number     Number       Type             X           Y           Z
 ---------------------------------------------------------------------
      1         11           0        2.935151    1.282219   -0.542192
      2         11           0       -0.546350    2.654765    0.351688
      3         11           0       -3.679491    0.581117   -0.195307
      4         11           0        2.759487   -1.639031    0.346280
      5         11           0        0.335063   -0.251844    1.737247
      6         11           0       -2.139274   -2.147186   -0.039087
      7         11           0        0.335414   -0.480039   -1.658630
 ---------------------------------------------------------------------

 SCF Done:  E(UB3LYP) =  -1136.12230064     A.U. after   23 cycles

 The electronic state is 2-A.
 Alpha  occ. eigenvalues --  -38.45452 -38.44431 -38.44245 -38.44142 -38.43554
 Alpha  occ. eigenvalues --  -38.43298 -38.42477  -2.21239  -2.20314  -2.20158
 Alpha  occ. eigenvalues --   -2.20063  -2.19409  -2.19266  -2.18300  -1.14922
 Alpha  occ. eigenvalues --   -1.14903  -1.14866  -1.14055  -1.13989  -1.13931
 Alpha  occ. eigenvalues --   -1.13844  -1.13809  -1.13774  -1.13757  -1.13694
 Alpha  occ. eigenvalues --   -1.13676  -1.13081  -1.13074  -1.13056  -1.12942
 Alpha  occ. eigenvalues --   -1.12903  -1.12869  -1.11995  -1.11968  -1.11923
 Alpha  occ. eigenvalues --   -0.18696  -0.14111  -0.11486  -0.10636
 Alpha virt. eigenvalues --   -0.07038  -0.05448  -0.03739  -0.03652  -0.02576
 Alpha virt. eigenvalues --   -0.02353  -0.02238  -0.01374  -0.00453  -0.00204
 Alpha virt. eigenvalues --   -0.00076   0.00215   0.00539   0.00644   0.00772

  Beta  occ. eigenvalues --  -38.45453 -38.44406 -38.44229 -38.44092 -38.43552
  Beta  occ. eigenvalues --  -38.43206 -38.42470  -2.21240  -2.20272  -2.20134
  Beta  occ. eigenvalues --   -2.19972  -2.19409  -2.19097  -2.18291  -1.14927
  Beta  occ. eigenvalues --   -1.14897  -1.14866  -1.14035  -1.13945  -1.13888
  Beta  occ. eigenvalues --   -1.13818  -1.13778  -1.13736  -1.13692  -1.13628
  Beta  occ. eigenvalues --   -1.13611  -1.13082  -1.13071  -1.13039  -1.12832
  Beta  occ. eigenvalues --   -1.12780  -1.12746  -1.11984  -1.11949  -1.11920
  Beta  occ. eigenvalues --   -0.17987  -0.13859  -0.11241
  Beta virt. eigenvalues --   -0.06970  -0.06683  -0.05410  -0.03739  -0.02933
  Beta virt. eigenvalues --   -0.02405  -0.01666  -0.01415  -0.01194  -0.00466
  Beta virt. eigenvalues --   -0.00129   0.00061   0.00264   0.00706   0.00746

 Mulliken charges and spin densities:
               1          2
     1  Na  -0.021815   0.146177
     2  Na  -0.158806  -0.007420
     3  Na  -0.267392  -0.067480
     4  Na   0.511555   0.174115
     5  Na  -0.259176   0.397366
     6  Na   0.451449   0.121554
     7  Na  -0.255814   0.235688
 Sum of Mulliken charges =  -0.00000   1.00000

 Dipole moment (field-independent basis, Debye):
    X=             -0.2269    Y=             -0.1265    Z=             -0.1595  Tot=              0.3048
 Quadrupole moment (field-independent basis, Debye-Ang):
   XX=            -47.0602   YY=            -71.1577   ZZ=            -75.0295
   XY=             -1.2208   XZ=              0.4053   YZ=             -1.3455

 Normal termination of Gaussian 16 at Tue Dec  5 20:38:02 2023.
