 Gaussian 16, Revision B.01,
 Gaussian 16:  ES64L-G16RevB.01 20-Dec-2017

 -------------------------
 #P B3LYP/6-311+g(d) force
 -------------------------

 -----
 DPGEN
 -----
 Symbolic Z-matrix:
 Charge =  0 Multiplicity = 2

                         Standard orientation:
 ---------------------------------------------------------------------
 Center     Atomic      Atomic             Coordinates (Angstroms)
 Number     Number       Type             X           Y           Z
 ---------------------------------------------------------------------
      1         11           0        0.323149    0.011548    1.913750
      2         11           0       -0.776377   -2.852695    0.056426
      3         11           0       -1.431911    2.606873   -0.185179
      4         11           0       -3.013899   -0.317480    0.157568
      5         11           0        3.015174   -1.269123   -0.209506
      6         11           0        2.072299    2.091004   -0.026432
      7         11           0       -0.188435   -0.270128   -1.706626
 ---------------------------------------------------------------------

 SCF Done:  E(UB3LYP) =  -1136.13943869     A.U. after   19 cycles

 The electronic state is 2-A.
 Alpha  occ. eigenvalues --  -38.44189 -38.43896 -38.43669 -38.43461 -38.43353
 Alpha  occ. eigenvalues --  -38.43219 -38.43168  -2.19991  -2.19764  -2.19523
 Alpha  occ. eigenvalues --   -2.19323  -2.19267  -2.19132  -2.19072  -1.13665
 Alpha  occ. eigenvalues --   -1.13648  -1.13635  -1.13444  -1.13426  -1.13412
 Alpha  occ. eigenvalues --   -1.13217  -1.13191  -1.13150  -1.13042  -1.12990
 Alpha  occ. eigenvalues --   -1.12947  -1.12938  -1.12890  -1.12881  -1.12812
 Alpha  occ. eigenvalues --   -1.12774  -1.12752  -1.12733  -1.12720  -1.12713
 Alpha  occ. eigenvalues --   -0.18712  -0.13141  -0.12438  -0.10587
 Alpha virt. eigenvalues --   -0.05730  -0.05193  -0.04705  -0.03224  -0.02803
 Alpha virt. eigenvalues --   -0.02397  -0.01587  -0.01132  -0.00421  -0.00333
 Alpha virt. eigenvalues --    0.00002   0.00365   0.00808   0.00865   0.00889

  Beta  occ. eigenvalues --  -38.44185 -38.43891 -38.43664 -38.43455 -38.43267
  Beta  occ. eigenvalues --  -38.43214 -38.43098  -2.19987  -2.19758  -2.19517
  Beta  occ. eigenvalues --   -2.19316  -2.19108  -2.19067  -2.19005  -1.13650
  Beta  occ. eigenvalues --   -1.13641  -1.13634  -1.13440  -1.13415  -1.13395
  Beta  occ. eigenvalues --   -1.13207  -1.13164  -1.13151  -1.13029  -1.12957
  Beta  occ. eigenvalues --   -1.12946  -1.12837  -1.12778  -1.12770  -1.12751
  Beta  occ. eigenvalues --   -1.12723  -1.12715  -1.12703  -1.12666  -1.12648
  Beta  occ. eigenvalues --   -0.17981  -0.12914  -0.12195
  Beta virt. eigenvalues --   -0.06695  -0.05709  -0.05164  -0.04678  -0.02420
  Beta virt. eigenvalues --   -0.02042  -0.01503  -0.01351  -0.01058  -0.00482
  Beta virt. eigenvalues --   -0.00383   0.00139   0.00385   0.00837   0.00883

 Mulliken charges and spin densities:
               1          2
     1  Na  -0.353721   0.715723
     2  Na   0.175042  -0.123170
     3  Na   0.055193  -0.065010
     4  Na   0.186383   0.002824
     5  Na   0.071589  -0.122341
     6  Na   0.145873  -0.056321
     7  Na  -0.280359   0.648297
 Sum of Mulliken charges =  -0.00000   1.00000

 Dipole moment (field-independent basis, Debye):
    X=              0.2400    Y=             -0.1972    Z=              0.0653  Tot=              0.3175
 Quadrupole moment (field-independent basis, Debye-Ang):
   XX=            -55.9043   YY=            -61.9574   ZZ=            -75.1150
   XY=             -0.4871   XZ=             -1.2330   YZ=             -0.6119

 Normal termination of Gaussian 16 at Thu Dec  7 20:46:35 2023.
