 Gaussian 16, Revision B.01,
 Gaussian 16:  ES64L-G16RevB.01 20-Dec-2017

 -------------------------
 #P B3LYP/6-311+g(d) force
 -------------------------

 -----
 DPGEN
 -----
 Symbolic Z-matrix:
 Charge =  0 Multiplicity = 2

                         Standard orientation:
 ---------------------------------------------------------------------
 Center     Atomic      Atomic             Coordinates (Angstroms)
 Number     Number       Type             X           Y           Z
 ---------------------------------------------------------------------
      1         11           0       -1.327400   -1.415157    1.571949
      2         11           0       -3.828788   -0.390996   -0.966458
      3         11           0        0.101660   -1.117840   -1.311520
      4         11           0        3.281049   -1.388863   -0.707819
      5         11           0        1.356157    0.237727    1.904729
      6         11           0        1.557886    2.082899   -0.852723
      7         11           0       -1.140566    1.992230    0.361842
 ---------------------------------------------------------------------

 SCF Done:  E(UB3LYP) =  -1136.12653665     A.U. after   22 cycles

 The electronic state is 2-A.
 Alpha  occ. eigenvalues --  -38.44827 -38.44060 -38.43997 -38.43773 -38.43666
 Alpha  occ. eigenvalues --  -38.43164 -38.42602  -2.20598  -2.19965  -2.19947
 Alpha  occ. eigenvalues --   -2.19681  -2.19488  -2.19088  -2.18529  -1.14266
 Alpha  occ. eigenvalues --   -1.14257  -1.14211  -1.13745  -1.13643  -1.13594
 Alpha  occ. eigenvalues --   -1.13584  -1.13552  -1.13531  -1.13383  -1.13354
 Alpha  occ. eigenvalues --   -1.13304  -1.13153  -1.13132  -1.13117  -1.12821
 Alpha  occ. eigenvalues --   -1.12737  -1.12703  -1.12220  -1.12201  -1.12126
 Alpha  occ. eigenvalues --   -0.18828  -0.13412  -0.11795  -0.11394
 Alpha virt. eigenvalues --   -0.06432  -0.04643  -0.04386  -0.03280  -0.02821
 Alpha virt. eigenvalues --   -0.02693  -0.02160  -0.00982  -0.00659   0.00048
 Alpha virt. eigenvalues --    0.00163   0.00369   0.00408   0.00808   0.00849

  Beta  occ. eigenvalues --  -38.44800 -38.44000 -38.43927 -38.43750 -38.43661
  Beta  occ. eigenvalues --  -38.43142 -38.42595  -2.20548  -2.19859  -2.19824
  Beta  occ. eigenvalues --   -2.19642  -2.19480  -2.19048  -2.18520  -1.14229
  Beta  occ. eigenvalues --   -1.14221  -1.14181  -1.13652  -1.13564  -1.13518
  Beta  occ. eigenvalues --   -1.13500  -1.13463  -1.13432  -1.13347  -1.13317
  Beta  occ. eigenvalues --   -1.13279  -1.13143  -1.13124  -1.13111  -1.12796
  Beta  occ. eigenvalues --   -1.12705  -1.12672  -1.12215  -1.12166  -1.12121
  Beta  occ. eigenvalues --   -0.18058  -0.13160  -0.11242
  Beta virt. eigenvalues --   -0.07749  -0.06166  -0.04541  -0.03952  -0.03012
  Beta virt. eigenvalues --   -0.02148  -0.02106  -0.01803  -0.00807  -0.00376
  Beta virt. eigenvalues --    0.00129   0.00209   0.00426   0.00530   0.00837

 Mulliken charges and spin densities:
               1          2
     1  Na  -0.056632   0.049187
     2  Na   0.389349   0.057471
     3  Na  -0.475532   0.416354
     4  Na   0.075660  -0.028716
     5  Na   0.506886   0.235523
     6  Na   0.054353   0.031980
     7  Na  -0.494083   0.238201
 Sum of Mulliken charges =  -0.00000   1.00000

 Dipole moment (field-independent basis, Debye):
    X=             -0.4260    Y=             -0.1343    Z=             -0.0712  Tot=              0.4523
 Quadrupole moment (field-independent basis, Debye-Ang):
   XX=            -50.9730   YY=            -76.1512   ZZ=            -66.7143
   XY=              0.6264   XZ=              2.1550   YZ=             -2.2171

 Normal termination of Gaussian 16 at Tue Dec  5 11:43:28 2023.
