 Gaussian 16, Revision B.01,
 Gaussian 16:  ES64L-G16RevB.01 20-Dec-2017

 -------------------------
 #P B3LYP/6-311+g(d) force
 -------------------------

 -----
 DPGEN
 -----
 Symbolic Z-matrix:
 Charge =  0 Multiplicity = 2

                         Standard orientation:
 ---------------------------------------------------------------------
 Center     Atomic      Atomic             Coordinates (Angstroms)
 Number     Number       Type             X           Y           Z
 ---------------------------------------------------------------------
      1         11           0        3.125952   -0.486483   -0.235438
      2         11           0        0.163275   -0.085525   -1.634873
      3         11           0        0.540238   -0.303651    1.672331
      4         11           0        0.026326   -2.973074    0.197044
      5         11           0       -2.047441    2.107389    0.346050
      6         11           0       -3.044831   -0.919956   -0.287178
      7         11           0        1.236480    2.661300   -0.057935
 ---------------------------------------------------------------------

 SCF Done:  E(UB3LYP) =  -1136.13612996     A.U. after   21 cycles

 The electronic state is 2-A.
 Alpha  occ. eigenvalues --  -38.44282 -38.43953 -38.43675 -38.43493 -38.43448
 Alpha  occ. eigenvalues --  -38.43010 -38.43000  -2.20140  -2.19778  -2.19537
 Alpha  occ. eigenvalues --   -2.19363  -2.19307  -2.19006  -2.18993  -1.13824
 Alpha  occ. eigenvalues --   -1.13816  -1.13758  -1.13460  -1.13446  -1.13413
 Alpha  occ. eigenvalues --   -1.13262  -1.13200  -1.13146  -1.13067  -1.13033
 Alpha  occ. eigenvalues --   -1.13009  -1.12971  -1.12963  -1.12933  -1.12734
 Alpha  occ. eigenvalues --   -1.12645  -1.12631  -1.12621  -1.12617  -1.12606
 Alpha  occ. eigenvalues --   -0.18886  -0.13119  -0.12700  -0.10379
 Alpha virt. eigenvalues --   -0.05879  -0.05008  -0.04899  -0.03030  -0.02823
 Alpha virt. eigenvalues --   -0.02091  -0.01666  -0.01194  -0.00481  -0.00280
 Alpha virt. eigenvalues --    0.00036   0.00345   0.00818   0.00857   0.00905

  Beta  occ. eigenvalues --  -38.44271 -38.43949 -38.43666 -38.43488 -38.43443
  Beta  occ. eigenvalues --  -38.42936 -38.42929  -2.20125  -2.19773  -2.19524
  Beta  occ. eigenvalues --   -2.19356  -2.19299  -2.18870  -2.18864  -1.13816
  Beta  occ. eigenvalues --   -1.13778  -1.13747  -1.13459  -1.13426  -1.13412
  Beta  occ. eigenvalues --   -1.13245  -1.13169  -1.13141  -1.13064  -1.13010
  Beta  occ. eigenvalues --   -1.12997  -1.12967  -1.12942  -1.12926  -1.12644
  Beta  occ. eigenvalues --   -1.12551  -1.12536  -1.12531  -1.12516  -1.12505
  Beta  occ. eigenvalues --   -0.18190  -0.12879  -0.12419
  Beta virt. eigenvalues --   -0.06516  -0.05845  -0.04996  -0.04834  -0.02293
  Beta virt. eigenvalues --   -0.02047  -0.01584  -0.01128  -0.01084  -0.00514
  Beta virt. eigenvalues --   -0.00322   0.00168   0.00379   0.00816   0.00879

 Mulliken charges and spin densities:
               1          2
     1  Na   0.285327  -0.104098
     2  Na  -0.295166   0.615043
     3  Na  -0.217714   0.657912
     4  Na   0.130901  -0.128361
     5  Na  -0.058081  -0.009815
     6  Na   0.017460  -0.013868
     7  Na   0.137273  -0.016815
 Sum of Mulliken charges =  -0.00000   1.00000

 Dipole moment (field-independent basis, Debye):
    X=              0.2657    Y=             -0.2039    Z=             -0.0441  Tot=              0.3378
 Quadrupole moment (field-independent basis, Debye-Ang):
   XX=            -55.0131   YY=            -60.7903   ZZ=            -76.3380
   XY=              0.5340   XZ=             -0.6827   YZ=              0.6971

 Normal termination of Gaussian 16 at Tue Dec  5 12:05:49 2023.
