 Gaussian 16, Revision B.01,
 Gaussian 16:  ES64L-G16RevB.01 20-Dec-2017

 -------------------------
 #P B3LYP/6-311+g(d) force
 -------------------------

 -----
 DPGEN
 -----
 Symbolic Z-matrix:
 Charge =  0 Multiplicity = 2

                         Standard orientation:
 ---------------------------------------------------------------------
 Center     Atomic      Atomic             Coordinates (Angstroms)
 Number     Number       Type             X           Y           Z
 ---------------------------------------------------------------------
      1         11           0        4.382140    0.594728   -0.006285
      2         11           0        1.322101   -1.618629    1.500458
      3         11           0       -1.941893   -1.584540   -0.431369
      4         11           0        1.884848   -1.434674   -1.400707
      5         11           0       -2.051629    2.442789   -0.426192
      6         11           0        0.886419    2.113342    0.446410
      7         11           0       -4.481986   -0.513017    0.317686
 ---------------------------------------------------------------------

 SCF Done:  E(UB3LYP) =  -1136.11423537     A.U. after   21 cycles

 The electronic state is 2-A.
 Alpha  occ. eigenvalues --  -38.45298 -38.45263 -38.44212 -38.43984 -38.43558
 Alpha  occ. eigenvalues --  -38.43543 -38.42881  -2.21157  -2.21112  -2.20038
 Alpha  occ. eigenvalues --   -2.19852  -2.19405  -2.19375  -2.18717  -1.14986
 Alpha  occ. eigenvalues --   -1.14822  -1.14772  -1.14758  -1.14709  -1.14692
 Alpha  occ. eigenvalues --   -1.13696  -1.13668  -1.13647  -1.13636  -1.13472
 Alpha  occ. eigenvalues --   -1.13448  -1.13091  -1.13080  -1.13054  -1.13046
 Alpha  occ. eigenvalues --   -1.13016  -1.12992  -1.12400  -1.12387  -1.12342
 Alpha  occ. eigenvalues --   -0.17508  -0.14375  -0.11831  -0.10711
 Alpha virt. eigenvalues --   -0.06889  -0.05522  -0.04349  -0.03475  -0.03128
 Alpha virt. eigenvalues --   -0.02070  -0.02013  -0.01457  -0.00937  -0.00575
 Alpha virt. eigenvalues --   -0.00532   0.00003   0.00251   0.00526   0.00753

  Beta  occ. eigenvalues --  -38.45293 -38.45236 -38.44120 -38.43917 -38.43545
  Beta  occ. eigenvalues --  -38.43537 -38.42869  -2.21151  -2.21065  -2.19866
  Beta  occ. eigenvalues --   -2.19728  -2.19402  -2.19353  -2.18698  -1.14972
  Beta  occ. eigenvalues --   -1.14817  -1.14744  -1.14725  -1.14678  -1.14659
  Beta  occ. eigenvalues --   -1.13576  -1.13559  -1.13551  -1.13537  -1.13387
  Beta  occ. eigenvalues --   -1.13365  -1.13092  -1.13054  -1.13047  -1.13033
  Beta  occ. eigenvalues --   -1.12976  -1.12968  -1.12390  -1.12365  -1.12321
  Beta  occ. eigenvalues --   -0.17001  -0.13647  -0.11362
  Beta virt. eigenvalues --   -0.07313  -0.06732  -0.05497  -0.03625  -0.03317
  Beta virt. eigenvalues --   -0.02779  -0.01895  -0.01442  -0.01346  -0.00500
  Beta virt. eigenvalues --   -0.00454  -0.00137   0.00066   0.00352   0.00608

 Mulliken charges and spin densities:
               1          2
     1  Na   0.296518   0.516517
     2  Na   0.337117  -0.003134
     3  Na  -0.808504   0.092259
     4  Na   0.226431   0.042233
     5  Na   0.202353  -0.059388
     6  Na  -0.757337   0.090656
     7  Na   0.503421   0.320857
 Sum of Mulliken charges =  -0.00000   1.00000

 Dipole moment (field-independent basis, Debye):
    X=              0.6915    Y=             -0.9097    Z=              0.3080  Tot=              1.1835
 Quadrupole moment (field-independent basis, Debye-Ang):
   XX=            -64.8241   YY=            -77.8520   ZZ=            -61.2348
   XY=             -5.4007   XZ=              0.2929   YZ=             -0.8087

 Normal termination of Gaussian 16 at Sun Dec  3 18:47:45 2023.
