 Gaussian 16, Revision B.01,
 Gaussian 16:  ES64L-G16RevB.01 20-Dec-2017

 -------------------------
 #P B3LYP/6-311+g(d) force
 -------------------------

 -----
 DPGEN
 -----
 Symbolic Z-matrix:
 Charge =  0 Multiplicity = 2

                         Standard orientation:
 ---------------------------------------------------------------------
 Center     Atomic      Atomic             Coordinates (Angstroms)
 Number     Number       Type             X           Y           Z
 ---------------------------------------------------------------------
      1         11           0        0.599923    2.549295   -0.298266
      2         11           0        0.876034   -1.002644    1.691952
      3         11           0       -2.035113    0.855938    1.546977
      4         11           0        3.594107   -0.006372    0.099328
      5         11           0        1.286091   -1.087124   -1.514558
      6         11           0       -2.039422   -1.960834   -0.184103
      7         11           0       -2.281620    0.651741   -1.341330
 ---------------------------------------------------------------------

 SCF Done:  E(UB3LYP) =  -1136.12260058     A.U. after   21 cycles

 The electronic state is 2-A.
 Alpha  occ. eigenvalues --  -38.44927 -38.44155 -38.44038 -38.43994 -38.43833
 Alpha  occ. eigenvalues --  -38.43108 -38.42732  -2.20784  -2.20132  -2.19952
 Alpha  occ. eigenvalues --   -2.19941  -2.19752  -2.19043  -2.18540  -1.14499
 Alpha  occ. eigenvalues --   -1.14448  -1.14395  -1.13957  -1.13810  -1.13745
 Alpha  occ. eigenvalues --   -1.13654  -1.13606  -1.13595  -1.13572  -1.13557
 Alpha  occ. eigenvalues --   -1.13517  -1.13424  -1.13383  -1.13370  -1.12745
 Alpha  occ. eigenvalues --   -1.12679  -1.12659  -1.12231  -1.12218  -1.12159
 Alpha  occ. eigenvalues --   -0.18981  -0.14199  -0.11519  -0.11313
 Alpha virt. eigenvalues --   -0.06381  -0.04878  -0.04567  -0.03357  -0.02892
 Alpha virt. eigenvalues --   -0.02616  -0.01936  -0.00557  -0.00449  -0.00070
 Alpha virt. eigenvalues --    0.00251   0.00369   0.00401   0.00838   0.00870

  Beta  occ. eigenvalues --  -38.44926 -38.44120 -38.44001 -38.43951 -38.43771
  Beta  occ. eigenvalues --  -38.43098 -38.42728  -2.20784  -2.20070  -2.19885
  Beta  occ. eigenvalues --   -2.19864  -2.19639  -2.19029  -2.18535  -1.14494
  Beta  occ. eigenvalues --   -1.14441  -1.14398  -1.13917  -1.13752  -1.13701
  Beta  occ. eigenvalues --   -1.13609  -1.13540  -1.13540  -1.13523  -1.13507
  Beta  occ. eigenvalues --   -1.13457  -1.13353  -1.13295  -1.13285  -1.12734
  Beta  occ. eigenvalues --   -1.12657  -1.12634  -1.12226  -1.12201  -1.12159
  Beta  occ. eigenvalues --   -0.18225  -0.14042  -0.11118
  Beta virt. eigenvalues --   -0.07509  -0.06218  -0.04635  -0.04053  -0.03273
  Beta virt. eigenvalues --   -0.02005  -0.01920  -0.01778  -0.00476  -0.00133
  Beta virt. eigenvalues --   -0.00024   0.00320   0.00419   0.00535   0.00907

 Mulliken charges and spin densities:
               1          2
     1  Na  -0.491903  -0.065384
     2  Na  -0.317372   0.302962
     3  Na   0.136738   0.212683
     4  Na   0.554820  -0.012119
     5  Na  -0.303628   0.211797
     6  Na   0.302825  -0.010924
     7  Na   0.118520   0.360985
 Sum of Mulliken charges =  -0.00000   1.00000

 Dipole moment (field-independent basis, Debye):
    X=              1.0077    Y=             -0.1215    Z=              0.0718  Tot=              1.0176
 Quadrupole moment (field-independent basis, Debye-Ang):
   XX=            -52.2401   YY=            -76.2239   ZZ=            -67.2083
   XY=              0.9596   XZ=              0.2692   YZ=              0.3687

 Normal termination of Gaussian 16 at Thu Dec  7 15:23:23 2023.
