 Gaussian 16, Revision B.01,
 Gaussian 16:  ES64L-G16RevB.01 20-Dec-2017

 -------------------------
 #P B3LYP/6-311+g(d) force
 -------------------------

 -----
 DPGEN
 -----
 Symbolic Z-matrix:
 Charge =  0 Multiplicity = 2

                         Standard orientation:
 ---------------------------------------------------------------------
 Center     Atomic      Atomic             Coordinates (Angstroms)
 Number     Number       Type             X           Y           Z
 ---------------------------------------------------------------------
      1         11           0       -0.268054    0.045447    2.096794
      2         11           0       -2.168566   -1.876612    0.063737
      3         11           0        1.204294   -2.759463   -0.232709
      4         11           0       -2.765590    1.547254   -0.235350
      5         11           0        1.126064    3.015330   -0.095388
      6         11           0        3.062520    0.047582    0.040741
      7         11           0       -0.190667   -0.019538   -1.637825
 ---------------------------------------------------------------------

 SCF Done:  E(UB3LYP) =  -1136.13841817     A.U. after   19 cycles

 The electronic state is 2-A.
 Alpha  occ. eigenvalues --  -38.43990 -38.43817 -38.43814 -38.43669 -38.43592
 Alpha  occ. eigenvalues --  -38.43296 -38.43193  -2.19816  -2.19642  -2.19601
 Alpha  occ. eigenvalues --   -2.19545  -2.19488  -2.19167  -2.19152  -1.13503
 Alpha  occ. eigenvalues --   -1.13474  -1.13453  -1.13318  -1.13314  -1.13298
 Alpha  occ. eigenvalues --   -1.13277  -1.13254  -1.13235  -1.13234  -1.13189
 Alpha  occ. eigenvalues --   -1.13182  -1.13163  -1.13130  -1.13104  -1.12868
 Alpha  occ. eigenvalues --   -1.12836  -1.12806  -1.12796  -1.12791  -1.12768
 Alpha  occ. eigenvalues --   -0.18560  -0.12957  -0.12442  -0.10732
 Alpha virt. eigenvalues --   -0.05645  -0.05123  -0.04896  -0.03135  -0.02857
 Alpha virt. eigenvalues --   -0.02609  -0.01431  -0.01230  -0.00507  -0.00374
 Alpha virt. eigenvalues --   -0.00013   0.00358   0.00822   0.00844   0.00877

  Beta  occ. eigenvalues --  -38.43983 -38.43816 -38.43815 -38.43583 -38.43570
  Beta  occ. eigenvalues --  -38.43291 -38.43129  -2.19808  -2.19642  -2.19604
  Beta  occ. eigenvalues --   -2.19476  -2.19362  -2.19147  -2.19052  -1.13490
  Beta  occ. eigenvalues --   -1.13453  -1.13451  -1.13317  -1.13305  -1.13294
  Beta  occ. eigenvalues --   -1.13265  -1.13257  -1.13238  -1.13196  -1.13128
  Beta  occ. eigenvalues --   -1.13103  -1.13076  -1.13034  -1.13026  -1.12837
  Beta  occ. eigenvalues --   -1.12797  -1.12784  -1.12767  -1.12710  -1.12695
  Beta  occ. eigenvalues --   -0.17824  -0.12738  -0.12222
  Beta virt. eigenvalues --   -0.06783  -0.05653  -0.05056  -0.04868  -0.02349
  Beta virt. eigenvalues --   -0.02111  -0.01536  -0.01349  -0.01150  -0.00557
  Beta virt. eigenvalues --   -0.00428   0.00134   0.00386   0.00832   0.00867

 Mulliken charges and spin densities:
               1          2
     1  Na  -0.499110   0.748745
     2  Na   0.443908   0.060184
     3  Na   0.129263  -0.023087
     4  Na   0.143974  -0.102058
     5  Na  -0.037693  -0.114538
     6  Na   0.024703  -0.045796
     7  Na  -0.205044   0.476550
 Sum of Mulliken charges =  -0.00000   1.00000

 Dipole moment (field-independent basis, Debye):
    X=             -0.1470    Y=              0.2539    Z=              0.1283  Tot=              0.3202
 Quadrupole moment (field-independent basis, Debye-Ang):
   XX=            -58.3568   YY=            -60.4678   ZZ=            -74.7057
   XY=             -0.7167   XZ=              0.3019   YZ=             -0.1142

 Normal termination of Gaussian 16 at Thu Dec  7 11:10:40 2023.
