 Gaussian 16, Revision B.01,
 Gaussian 16:  ES64L-G16RevB.01 20-Dec-2017

 -------------------------
 #P B3LYP/6-311+g(d) force
 -------------------------

 -----
 DPGEN
 -----
 Symbolic Z-matrix:
 Charge =  0 Multiplicity = 2

                         Standard orientation:
 ---------------------------------------------------------------------
 Center     Atomic      Atomic             Coordinates (Angstroms)
 Number     Number       Type             X           Y           Z
 ---------------------------------------------------------------------
      1         11           0        7.304814   -0.345842   -0.276824
      2         11           0       -2.673066   -0.815660    2.070485
      3         11           0        0.468112   -0.590911    0.229973
      4         11           0       -1.695801    1.820346   -0.421061
      5         11           0       -5.034204    0.708272   -0.184345
      6         11           0        4.457054    0.697544    0.246812
      7         11           0       -2.826910   -1.473749   -1.665039
 ---------------------------------------------------------------------

 SCF Done:  E(UB3LYP) =  -1136.10498991     A.U. after   31 cycles

 The electronic state is 2-A.
 Alpha  occ. eigenvalues --  -38.46584 -38.46445 -38.44249 -38.43482 -38.43470
 Alpha  occ. eigenvalues --  -38.43461 -38.42807  -2.22412  -2.22253  -2.20113
 Alpha  occ. eigenvalues --   -2.19308  -2.19272  -2.19252  -2.18641  -1.16096
 Alpha  occ. eigenvalues --   -1.16067  -1.16035  -1.15935  -1.15886  -1.15870
 Alpha  occ. eigenvalues --   -1.13791  -1.13743  -1.13702  -1.13023  -1.12996
 Alpha  occ. eigenvalues --   -1.12958  -1.12953  -1.12934  -1.12933  -1.12909
 Alpha  occ. eigenvalues --   -1.12906  -1.12813  -1.12325  -1.12301  -1.12290
 Alpha  occ. eigenvalues --   -0.18010  -0.13017  -0.11443  -0.10978
 Alpha virt. eigenvalues --   -0.08276  -0.05870  -0.03749  -0.03202  -0.02883
 Alpha virt. eigenvalues --   -0.02529  -0.02301  -0.02037  -0.01823  -0.01610
 Alpha virt. eigenvalues --   -0.00486  -0.00011   0.00014   0.00352   0.00509

  Beta  occ. eigenvalues --  -38.46568 -38.46399 -38.44137 -38.43485 -38.43464
  Beta  occ. eigenvalues --  -38.43461 -38.42804  -2.22384  -2.22170  -2.19906
  Beta  occ. eigenvalues --   -2.19301  -2.19276  -2.19251  -2.18640  -1.16053
  Beta  occ. eigenvalues --   -1.16048  -1.16018  -1.15859  -1.15832  -1.15811
  Beta  occ. eigenvalues --   -1.13650  -1.13606  -1.13551  -1.13025  -1.12996
  Beta  occ. eigenvalues --   -1.12957  -1.12936  -1.12935  -1.12918  -1.12909
  Beta  occ. eigenvalues --   -1.12906  -1.12815  -1.12329  -1.12296  -1.12273
  Beta  occ. eigenvalues --   -0.17248  -0.12996  -0.11276
  Beta virt. eigenvalues --   -0.08013  -0.06901  -0.05853  -0.03638  -0.02805
  Beta virt. eigenvalues --   -0.02439  -0.02379  -0.01793  -0.01574  -0.01390
  Beta virt. eigenvalues --   -0.01204  -0.00477   0.00016   0.00224   0.00413

 Mulliken charges and spin densities:
               1          2
     1  Na   0.092192  -0.009168
     2  Na   0.006326   0.513871
     3  Na  -0.359993   0.063783
     4  Na   0.100887   0.132974
     5  Na   0.255981   0.121661
     6  Na  -0.316742  -0.038922
     7  Na   0.221349   0.215802
 Sum of Mulliken charges =  -0.00000   1.00000

 Dipole moment (field-independent basis, Debye):
    X=             -2.2223    Y=              0.0108    Z=             -0.8847  Tot=              2.3920
 Quadrupole moment (field-independent basis, Debye-Ang):
   XX=            -74.3388   YY=            -57.3721   ZZ=            -76.1904
   XY=             -3.3623   XZ=              0.4412   YZ=              3.9323

 Normal termination of Gaussian 16 at Thu Dec  7 16:29:45 2023.
