 Gaussian 16, Revision B.01,
 Gaussian 16:  ES64L-G16RevB.01 20-Dec-2017

 -------------------------
 #P B3LYP/6-311+g(d) force
 -------------------------

 -----
 DPGEN
 -----
 Symbolic Z-matrix:
 Charge =  0 Multiplicity = 2

                         Standard orientation:
 ---------------------------------------------------------------------
 Center     Atomic      Atomic             Coordinates (Angstroms)
 Number     Number       Type             X           Y           Z
 ---------------------------------------------------------------------
      1         11           0        1.948614    1.520873   -1.078509
      2         11           0       -1.327244    2.824045    0.272707
      3         11           0       -3.810971    0.709833    0.501659
      4         11           0        4.509073   -0.490038   -1.144488
      5         11           0       -4.553857   -2.568498   -1.071505
      6         11           0       -0.066839   -0.175993    1.087593
      7         11           0        3.301224   -1.820222    1.432544
 ---------------------------------------------------------------------

 SCF Done:  E(UB3LYP) =  -1136.11186788     A.U. after   25 cycles

 The electronic state is 2-A.
 Alpha  occ. eigenvalues --  -38.44971 -38.44423 -38.44385 -38.44368 -38.44296
 Alpha  occ. eigenvalues --  -38.44202 -38.44118  -2.20810  -2.20263  -2.20236
 Alpha  occ. eigenvalues --   -2.20213  -2.20122  -2.19989  -2.19869  -1.14510
 Alpha  occ. eigenvalues --   -1.14471  -1.14414  -1.13962  -1.13951  -1.13939
 Alpha  occ. eigenvalues --   -1.13925  -1.13894  -1.13888  -1.13877  -1.13843
 Alpha  occ. eigenvalues --   -1.13816  -1.13781  -1.13757  -1.13731  -1.13683
 Alpha  occ. eigenvalues --   -1.13660  -1.13618  -1.13529  -1.13528  -1.13479
 Alpha  occ. eigenvalues --   -0.17112  -0.14495  -0.11603  -0.11003
 Alpha virt. eigenvalues --   -0.07453  -0.05613  -0.04140  -0.03953  -0.03001
 Alpha virt. eigenvalues --   -0.02833  -0.02006  -0.01459  -0.01306  -0.00726
 Alpha virt. eigenvalues --   -0.00212  -0.00131   0.00094   0.00316   0.00452

  Beta  occ. eigenvalues --  -38.44925 -38.44387 -38.44361 -38.44359 -38.44256
  Beta  occ. eigenvalues --  -38.44220 -38.44069  -2.20726  -2.20200  -2.20195
  Beta  occ. eigenvalues --   -2.20193  -2.20048  -2.20025  -2.19777  -1.14456
  Beta  occ. eigenvalues --   -1.14427  -1.14331  -1.13923  -1.13911  -1.13896
  Beta  occ. eigenvalues --   -1.13888  -1.13875  -1.13861  -1.13858  -1.13837
  Beta  occ. eigenvalues --   -1.13772  -1.13732  -1.13708  -1.13698  -1.13686
  Beta  occ. eigenvalues --   -1.13684  -1.13625  -1.13466  -1.13465  -1.13420
  Beta  occ. eigenvalues --   -0.16705  -0.14262  -0.11266
  Beta virt. eigenvalues --   -0.07435  -0.07075  -0.05140  -0.03910  -0.03773
  Beta virt. eigenvalues --   -0.02716  -0.02416  -0.01729  -0.01221  -0.00950
  Beta virt. eigenvalues --   -0.00521  -0.00029   0.00053   0.00167   0.00516

 Mulliken charges and spin densities:
               1          2
     1  Na   0.068111   0.238230
     2  Na   0.739589   0.083571
     3  Na   0.353200  -0.050744
     4  Na   0.060252   0.037573
     5  Na   0.119745   0.242545
     6  Na  -1.457791   0.455789
     7  Na   0.116894  -0.006964
 Sum of Mulliken charges =  -0.00000   1.00000

 Dipole moment (field-independent basis, Debye):
    X=              1.0199    Y=              0.6868    Z=              0.0774  Tot=              1.2320
 Quadrupole moment (field-independent basis, Debye-Ang):
   XX=            -68.6315   YY=            -62.7418   ZZ=            -71.3092
   XY=             -7.9607   XZ=             -0.7762   YZ=              2.7698

 Normal termination of Gaussian 16 at Tue Nov 28 19:06:53 2023.
