 Gaussian 16, Revision B.01,
 Gaussian 16:  ES64L-G16RevB.01 20-Dec-2017

 -------------------------
 #P B3LYP/6-311+g(d) force
 -------------------------

 -----
 DPGEN
 -----
 Symbolic Z-matrix:
 Charge =  0 Multiplicity = 2

                         Standard orientation:
 ---------------------------------------------------------------------
 Center     Atomic      Atomic             Coordinates (Angstroms)
 Number     Number       Type             X           Y           Z
 ---------------------------------------------------------------------
      1         11           0        0.128454    0.303849   -0.704360
      2         11           0        1.721750    2.772634    0.636381
      3         11           0       -1.297770   -2.111429    1.775815
      4         11           0       -1.927599    2.888807    0.068083
      5         11           0        0.991202   -3.266599   -0.459284
      6         11           0       -3.364370   -0.485696   -0.958996
      7         11           0        3.748332   -0.101566   -0.357639
 ---------------------------------------------------------------------

 SCF Done:  E(UB3LYP) =  -1136.12473370     A.U. after   21 cycles

 The electronic state is 2-A.
 Alpha  occ. eigenvalues --  -38.44693 -38.44326 -38.44065 -38.43805 -38.43706
 Alpha  occ. eigenvalues --  -38.43677 -38.43533  -2.20465  -2.20120  -2.19883
 Alpha  occ. eigenvalues --   -2.19594  -2.19520  -2.19509  -2.19455  -1.14149
 Alpha  occ. eigenvalues --   -1.14129  -1.14103  -1.13808  -1.13795  -1.13742
 Alpha  occ. eigenvalues --   -1.13549  -1.13515  -1.13512  -1.13263  -1.13252
 Alpha  occ. eigenvalues --   -1.13233  -1.13227  -1.13187  -1.13182  -1.13169
 Alpha  occ. eigenvalues --   -1.13156  -1.13144  -1.13113  -1.13093  -1.13060
 Alpha  occ. eigenvalues --   -0.17173  -0.13229  -0.12915  -0.09629
 Alpha virt. eigenvalues --   -0.06541  -0.05554  -0.04911  -0.03292  -0.02707
 Alpha virt. eigenvalues --   -0.02115  -0.01760  -0.01482  -0.01129  -0.00794
 Alpha virt. eigenvalues --   -0.00109   0.00224   0.00298   0.00532   0.00775

  Beta  occ. eigenvalues --  -38.44695 -38.44319 -38.44010 -38.43769 -38.43654
  Beta  occ. eigenvalues --  -38.43646 -38.43531  -2.20473  -2.20112  -2.19781
  Beta  occ. eigenvalues --   -2.19526  -2.19469  -2.19453  -2.19407  -1.14154
  Beta  occ. eigenvalues --   -1.14136  -1.14087  -1.13806  -1.13793  -1.13703
  Beta  occ. eigenvalues --   -1.13479  -1.13446  -1.13437  -1.13228  -1.13215
  Beta  occ. eigenvalues --   -1.13189  -1.13187  -1.13163  -1.13148  -1.13109
  Beta  occ. eigenvalues --   -1.13092  -1.13088  -1.13069  -1.13067  -1.13049
  Beta  occ. eigenvalues --   -0.16817  -0.12715  -0.12398
  Beta virt. eigenvalues --   -0.06505  -0.06436  -0.05306  -0.04546  -0.02873
  Beta virt. eigenvalues --   -0.02197  -0.01869  -0.01750  -0.01112  -0.00840
  Beta virt. eigenvalues --   -0.00671   0.00148   0.00326   0.00436   0.00581

 Mulliken charges and spin densities:
               1          2
     1  Na  -1.758608   0.229153
     2  Na   0.178980   0.107498
     3  Na  -0.170221   0.209650
     4  Na   0.322118  -0.004373
     5  Na   0.327653   0.016369
     6  Na   0.571126   0.240032
     7  Na   0.528952   0.201671
 Sum of Mulliken charges =  -0.00000   1.00000

 Dipole moment (field-independent basis, Debye):
    X=             -0.0072    Y=             -0.1714    Z=              0.3940  Tot=              0.4297
 Quadrupole moment (field-independent basis, Debye-Ang):
   XX=            -61.6741   YY=            -62.0948   ZZ=            -71.9081
   XY=             -1.8600   XZ=             -1.1540   YZ=              4.1806

 Normal termination of Gaussian 16 at Tue Dec  5 20:35:04 2023.
