 Gaussian 16, Revision B.01,
 Gaussian 16:  ES64L-G16RevB.01 20-Dec-2017

 -------------------------
 #P B3LYP/6-311+g(d) force
 -------------------------

 -----
 DPGEN
 -----
 Symbolic Z-matrix:
 Charge =  0 Multiplicity = 2

                         Standard orientation:
 ---------------------------------------------------------------------
 Center     Atomic      Atomic             Coordinates (Angstroms)
 Number     Number       Type             X           Y           Z
 ---------------------------------------------------------------------
      1         11           0       -2.045768    2.598965   -0.684015
      2         11           0        2.734549    2.279785    0.294211
      3         11           0       -3.233862   -0.951363    0.124089
      4         11           0       -0.036893    0.519796    2.103140
      5         11           0        0.151656   -0.043203   -1.642719
      6         11           0        2.741655   -1.748867   -0.503272
      7         11           0       -0.311338   -2.655113    0.308567
 ---------------------------------------------------------------------

 SCF Done:  E(UB3LYP) =  -1136.12936295     A.U. after   21 cycles

 The electronic state is 2-A.
 Alpha  occ. eigenvalues --  -38.44384 -38.44338 -38.44116 -38.44090 -38.43912
 Alpha  occ. eigenvalues --  -38.43623 -38.42936  -2.20129  -2.20127  -2.19916
 Alpha  occ. eigenvalues --   -2.19893  -2.19745  -2.19535  -2.18834  -1.13806
 Alpha  occ. eigenvalues --   -1.13802  -1.13793  -1.13782  -1.13772  -1.13766
 Alpha  occ. eigenvalues --   -1.13589  -1.13568  -1.13558  -1.13537  -1.13525
 Alpha  occ. eigenvalues --   -1.13520  -1.13436  -1.13412  -1.13369  -1.13233
 Alpha  occ. eigenvalues --   -1.13172  -1.13149  -1.12523  -1.12500  -1.12461
 Alpha  occ. eigenvalues --   -0.17938  -0.12822  -0.12136  -0.10752
 Alpha virt. eigenvalues --   -0.06175  -0.05520  -0.04477  -0.03077  -0.03012
 Alpha virt. eigenvalues --   -0.02530  -0.01829  -0.01533  -0.00734  -0.00278
 Alpha virt. eigenvalues --   -0.00085   0.00292   0.00660   0.00673   0.00747

  Beta  occ. eigenvalues --  -38.44381 -38.44337 -38.44090 -38.44005 -38.43901
  Beta  occ. eigenvalues --  -38.43570 -38.42928  -2.20130  -2.20124  -2.19847
  Beta  occ. eigenvalues --   -2.19758  -2.19727  -2.19437  -2.18822  -1.13808
  Beta  occ. eigenvalues --   -1.13789  -1.13782  -1.13779  -1.13771  -1.13762
  Beta  occ. eigenvalues --   -1.13526  -1.13511  -1.13495  -1.13483  -1.13446
  Beta  occ. eigenvalues --   -1.13415  -1.13402  -1.13397  -1.13357  -1.13164
  Beta  occ. eigenvalues --   -1.13108  -1.13073  -1.12518  -1.12488  -1.12432
  Beta  occ. eigenvalues --   -0.17267  -0.12565  -0.11854
  Beta virt. eigenvalues --   -0.07038  -0.06035  -0.05391  -0.04376  -0.02494
  Beta virt. eigenvalues --   -0.02311  -0.01766  -0.01567  -0.01361  -0.00746
  Beta virt. eigenvalues --   -0.00286   0.00060   0.00334   0.00696   0.00768

 Mulliken charges and spin densities:
               1          2
     1  Na   0.049019   0.048386
     2  Na  -0.068537  -0.045098
     3  Na   0.021492  -0.010579
     4  Na  -0.302682   0.560921
     5  Na  -0.078587   0.247121
     6  Na   0.351302   0.071302
     7  Na   0.027994   0.127947
 Sum of Mulliken charges =  -0.00000   1.00000

 Dipole moment (field-independent basis, Debye):
    X=              0.0072    Y=              0.2911    Z=              0.0900  Tot=              0.3048
 Quadrupole moment (field-independent basis, Debye-Ang):
   XX=            -54.7902   YY=            -64.4921   ZZ=            -74.2258
   XY=              0.1682   XZ=             -0.5710   YZ=             -1.0859

 Normal termination of Gaussian 16 at Thu Dec  7 11:57:57 2023.
