 Gaussian 16, Revision B.01,
 Gaussian 16:  ES64L-G16RevB.01 20-Dec-2017

 -------------------------
 #P B3LYP/6-311+g(d) force
 -------------------------

 -----
 DPGEN
 -----
 Symbolic Z-matrix:
 Charge =  0 Multiplicity = 2

                         Standard orientation:
 ---------------------------------------------------------------------
 Center     Atomic      Atomic             Coordinates (Angstroms)
 Number     Number       Type             X           Y           Z
 ---------------------------------------------------------------------
      1         11           0        4.311464   -1.483916   -0.711864
      2         11           0       -2.040804   -2.892390    0.216537
      3         11           0       -3.150779    2.546917    0.052969
      4         11           0        0.027132    2.957617    0.788247
      5         11           0       -5.101362   -0.803185   -0.766513
      6         11           0        4.054705    2.301420   -0.488481
      7         11           0        1.899643   -2.626463    0.909105
 ---------------------------------------------------------------------

 SCF Done:  E(UB3LYP) =  -1136.09924936     A.U. after   24 cycles

 The electronic state is 2-A.
 Alpha  occ. eigenvalues --  -38.45606 -38.45299 -38.45032 -38.44711 -38.44622
 Alpha  occ. eigenvalues --  -38.44173 -38.44134  -2.21298  -2.21074  -2.20792
 Alpha  occ. eigenvalues --   -2.20476  -2.20392  -2.19976  -2.19902  -1.15001
 Alpha  occ. eigenvalues --   -1.14990  -1.14925  -1.14774  -1.14748  -1.14712
 Alpha  occ. eigenvalues --   -1.14449  -1.14428  -1.14412  -1.14135  -1.14119
 Alpha  occ. eigenvalues --   -1.14096  -1.14066  -1.14064  -1.14025  -1.13637
 Alpha  occ. eigenvalues --   -1.13624  -1.13605  -1.13570  -1.13567  -1.13530
 Alpha  occ. eigenvalues --   -0.15249  -0.13956  -0.12780  -0.10988
 Alpha virt. eigenvalues --   -0.07953  -0.05124  -0.04813  -0.03554  -0.03491
 Alpha virt. eigenvalues --   -0.02479  -0.02153  -0.01756  -0.01661  -0.01225
 Alpha virt. eigenvalues --   -0.00711  -0.00445  -0.00002   0.00261   0.00476

  Beta  occ. eigenvalues --  -38.45631 -38.45310 -38.44949 -38.44644 -38.44600
  Beta  occ. eigenvalues --  -38.44128 -38.44108  -2.21348  -2.21098  -2.20638
  Beta  occ. eigenvalues --   -2.20357  -2.20349  -2.19891  -2.19859  -1.15038
  Beta  occ. eigenvalues --   -1.15027  -1.14936  -1.14784  -1.14769  -1.14706
  Beta  occ. eigenvalues --   -1.14344  -1.14325  -1.14305  -1.14049  -1.14044
  Beta  occ. eigenvalues --   -1.14037  -1.14034  -1.14013  -1.13979  -1.13584
  Beta  occ. eigenvalues --   -1.13565  -1.13552  -1.13543  -1.13541  -1.13482
  Beta  occ. eigenvalues --   -0.14767  -0.13293  -0.12079
  Beta virt. eigenvalues --   -0.08049  -0.07880  -0.04619  -0.04296  -0.03379
  Beta virt. eigenvalues --   -0.03301  -0.02273  -0.01936  -0.01559  -0.01300
  Beta virt. eigenvalues --   -0.00942  -0.00619  -0.00126   0.00190   0.00221

 Mulliken charges and spin densities:
               1          2
     1  Na   0.378640  -0.038571
     2  Na  -0.001235  -0.096245
     3  Na  -0.000146   0.081104
     4  Na  -0.191217   0.058232
     5  Na   0.221003   0.332659
     6  Na   0.158817   0.450326
     7  Na  -0.565861   0.212495
 Sum of Mulliken charges =  -0.00000   1.00000

 Dipole moment (field-independent basis, Debye):
    X=              0.1699    Y=             -0.3459    Z=             -0.2905  Tot=              0.4826
 Quadrupole moment (field-independent basis, Debye-Ang):
   XX=            -55.6387   YY=            -71.1617   ZZ=            -72.7542
   XY=             -2.5057   XZ=              0.0941   YZ=             -0.2107

 Normal termination of Gaussian 16 at Mon Dec  4 02:09:26 2023.
