 Gaussian 16, Revision B.01,
 Gaussian 16:  ES64L-G16RevB.01 20-Dec-2017

 -------------------------
 #P B3LYP/6-311+g(d) force
 -------------------------

 -----
 DPGEN
 -----
 Symbolic Z-matrix:
 Charge =  0 Multiplicity = 2

                         Standard orientation:
 ---------------------------------------------------------------------
 Center     Atomic      Atomic             Coordinates (Angstroms)
 Number     Number       Type             X           Y           Z
 ---------------------------------------------------------------------
      1         11           0       -1.537461   -1.366434   -1.248972
      2         11           0        3.510341    0.485484    1.209935
      3         11           0       -3.855682   -0.423753    0.972620
      4         11           0        1.999763    1.032736   -1.406248
      5         11           0       -0.069325    0.146383    1.678437
      6         11           0       -1.759713    2.220468   -0.741829
      7         11           0        1.712077   -2.094884   -0.463942
 ---------------------------------------------------------------------

 SCF Done:  E(UB3LYP) =  -1136.12082294     A.U. after   29 cycles

 The electronic state is 2-A.
 Alpha  occ. eigenvalues --  -38.45308 -38.44894 -38.44394 -38.44390 -38.43702
 Alpha  occ. eigenvalues --  -38.43002 -38.42586  -2.21108  -2.20741  -2.20275
 Alpha  occ. eigenvalues --   -2.20250  -2.19520  -2.18877  -2.18471  -1.14781
 Alpha  occ. eigenvalues --   -1.14758  -1.14722  -1.14444  -1.14393  -1.14356
 Alpha  occ. eigenvalues --   -1.14049  -1.13937  -1.13920  -1.13893  -1.13880
 Alpha  occ. eigenvalues --   -1.13834  -1.13195  -1.13189  -1.13131  -1.12567
 Alpha  occ. eigenvalues --   -1.12549  -1.12500  -1.12160  -1.12146  -1.12090
 Alpha  occ. eigenvalues --   -0.18365  -0.14420  -0.11126  -0.10695
 Alpha virt. eigenvalues --   -0.07062  -0.05294  -0.04938  -0.03093  -0.02872
 Alpha virt. eigenvalues --   -0.02305  -0.02195  -0.01310  -0.00744  -0.00274
 Alpha virt. eigenvalues --    0.00087   0.00212   0.00224   0.00584   0.00690

  Beta  occ. eigenvalues --  -38.45277 -38.44851 -38.44383 -38.44363 -38.43657
  Beta  occ. eigenvalues --  -38.42988 -38.42588  -2.21049  -2.20663  -2.20235
  Beta  occ. eigenvalues --   -2.20222  -2.19440  -2.18853  -2.18476  -1.14737
  Beta  occ. eigenvalues --   -1.14716  -1.14686  -1.14379  -1.14343  -1.14294
  Beta  occ. eigenvalues --   -1.14028  -1.13909  -1.13883  -1.13865  -1.13855
  Beta  occ. eigenvalues --   -1.13808  -1.13138  -1.13128  -1.13068  -1.12556
  Beta  occ. eigenvalues --   -1.12507  -1.12490  -1.12161  -1.12145  -1.12090
  Beta  occ. eigenvalues --   -0.17719  -0.14208  -0.10513
  Beta virt. eigenvalues --   -0.07406  -0.06814  -0.04880  -0.04578  -0.02846
  Beta virt. eigenvalues --   -0.02623  -0.01770  -0.01524  -0.00883  -0.00657
  Beta virt. eigenvalues --   -0.00230   0.00143   0.00241   0.00333   0.00703

 Mulliken charges and spin densities:
               1          2
     1  Na  -0.326676   0.178561
     2  Na   0.838081  -0.008601
     3  Na   0.669545   0.062573
     4  Na  -0.284623   0.150174
     5  Na  -0.690491   0.373406
     6  Na  -0.127676   0.132081
     7  Na  -0.078159   0.111807
 Sum of Mulliken charges =  -0.00000   1.00000

 Dipole moment (field-independent basis, Debye):
    X=             -0.5355    Y=              0.0807    Z=              0.5195  Tot=              0.7504
 Quadrupole moment (field-independent basis, Debye-Ang):
   XX=            -47.3728   YY=            -78.5505   ZZ=            -68.4149
   XY=              0.1957   XZ=             -0.9817   YZ=             -3.8986

 Normal termination of Gaussian 16 at Thu Dec  7 04:29:00 2023.
