 Gaussian 16, Revision B.01,
 Gaussian 16:  ES64L-G16RevB.01 20-Dec-2017

 -------------------------
 #P B3LYP/6-311+g(d) force
 -------------------------

 -----
 DPGEN
 -----
 Symbolic Z-matrix:
 Charge =  0 Multiplicity = 2

                         Standard orientation:
 ---------------------------------------------------------------------
 Center     Atomic      Atomic             Coordinates (Angstroms)
 Number     Number       Type             X           Y           Z
 ---------------------------------------------------------------------
      1         11           0        1.147831   -2.130889   -0.855731
      2         11           0       -2.851105   -1.604090    0.187878
      3         11           0        3.597040   -0.102528    0.449376
      4         11           0        1.299508    2.090985   -0.727414
      5         11           0       -1.020743   -0.071919   -1.607756
      6         11           0       -0.054311   -0.337967    2.235968
      7         11           0       -2.118220    2.156409    0.317679
 ---------------------------------------------------------------------

 SCF Done:  E(UB3LYP) =  -1136.12778693     A.U. after   20 cycles

 The electronic state is 2-A.
 Alpha  occ. eigenvalues --  -38.44589 -38.44572 -38.44265 -38.43539 -38.43408
 Alpha  occ. eigenvalues --  -38.43285 -38.43099  -2.20401  -2.20389  -2.20106
 Alpha  occ. eigenvalues --   -2.19400  -2.19333  -2.19262  -2.18955  -1.14060
 Alpha  occ. eigenvalues --   -1.14056  -1.14054  -1.14035  -1.14033  -1.14016
 Alpha  occ. eigenvalues --   -1.13846  -1.13752  -1.13724  -1.13189  -1.13057
 Alpha  occ. eigenvalues --   -1.13038  -1.13002  -1.12995  -1.12944  -1.12921
 Alpha  occ. eigenvalues --   -1.12883  -1.12863  -1.12653  -1.12619  -1.12565
 Alpha  occ. eigenvalues --   -0.18600  -0.13414  -0.11666  -0.11364
 Alpha virt. eigenvalues --   -0.06327  -0.05154  -0.03991  -0.03417  -0.03031
 Alpha virt. eigenvalues --   -0.02806  -0.01916  -0.00990  -0.00477  -0.00003
 Alpha virt. eigenvalues --    0.00148   0.00284   0.00517   0.00739   0.00841

  Beta  occ. eigenvalues --  -38.44590 -38.44478 -38.44263 -38.43516 -38.43403
  Beta  occ. eigenvalues --  -38.43223 -38.43087  -2.20392  -2.20226  -2.20107
  Beta  occ. eigenvalues --   -2.19361  -2.19257  -2.19220  -2.18936  -1.14060
  Beta  occ. eigenvalues --   -1.14047  -1.14033  -1.13944  -1.13914  -1.13890
  Beta  occ. eigenvalues --   -1.13840  -1.13739  -1.13722  -1.13138  -1.13019
  Beta  occ. eigenvalues --   -1.13001  -1.12976  -1.12926  -1.12906  -1.12881
  Beta  occ. eigenvalues --   -1.12870  -1.12804  -1.12630  -1.12595  -1.12557
  Beta  occ. eigenvalues --   -0.17839  -0.13277  -0.11421
  Beta virt. eigenvalues --   -0.07377  -0.06129  -0.05159  -0.03675  -0.02975
  Beta virt. eigenvalues --   -0.02141  -0.01941  -0.01796  -0.00934  -0.00323
  Beta virt. eigenvalues --    0.00079   0.00134   0.00323   0.00710   0.00801

 Mulliken charges and spin densities:
               1          2
     1  Na  -0.124450   0.059305
     2  Na   0.187952   0.040810
     3  Na   0.208750   0.013240
     4  Na  -0.239062   0.050100
     5  Na   0.309345   0.044278
     6  Na  -0.475830   0.687488
     7  Na   0.133295   0.104780
 Sum of Mulliken charges =  -0.00000   1.00000

 Dipole moment (field-independent basis, Debye):
    X=              0.1823    Y=             -0.2245    Z=              0.6887  Tot=              0.7470
 Quadrupole moment (field-independent basis, Debye-Ang):
   XX=            -51.8272   YY=            -71.7205   ZZ=            -70.6506
   XY=              0.3415   XZ=             -0.5084   YZ=              0.4854

 Normal termination of Gaussian 16 at Thu Dec  7 09:05:03 2023.
