 Gaussian 16, Revision B.01,
 Gaussian 16:  ES64L-G16RevB.01 20-Dec-2017

 -------------------------
 #P B3LYP/6-311+g(d) force
 -------------------------

 -----
 DPGEN
 -----
 Symbolic Z-matrix:
 Charge =  0 Multiplicity = 2

                         Standard orientation:
 ---------------------------------------------------------------------
 Center     Atomic      Atomic             Coordinates (Angstroms)
 Number     Number       Type             X           Y           Z
 ---------------------------------------------------------------------
      1         11           0       -0.178994   -2.510667   -0.033149
      2         11           0        2.101836    2.024547   -0.406950
      3         11           0       -3.054985   -1.053554    0.084358
      4         11           0        2.927453   -1.296734   -0.095799
      5         11           0       -0.655612    0.243869   -1.706523
      6         11           0       -1.624906    2.476246    0.368869
      7         11           0        0.485208    0.116293    1.789194
 ---------------------------------------------------------------------

 SCF Done:  E(UB3LYP) =  -1136.13621421     A.U. after   19 cycles

 The electronic state is 2-A.
 Alpha  occ. eigenvalues --  -38.44178 -38.43902 -38.43784 -38.43598 -38.43176
 Alpha  occ. eigenvalues --  -38.43170 -38.42955  -2.20029  -2.19753  -2.19638
 Alpha  occ. eigenvalues --   -2.19448  -2.19158  -2.19136  -2.18889  -1.13712
 Alpha  occ. eigenvalues --   -1.13692  -1.13664  -1.13424  -1.13417  -1.13411
 Alpha  occ. eigenvalues --   -1.13317  -1.13310  -1.13255  -1.13151  -1.13120
 Alpha  occ. eigenvalues --   -1.13066  -1.12860  -1.12816  -1.12795  -1.12777
 Alpha  occ. eigenvalues --   -1.12770  -1.12746  -1.12571  -1.12549  -1.12506
 Alpha  occ. eigenvalues --   -0.18949  -0.13292  -0.12482  -0.10579
 Alpha virt. eigenvalues --   -0.05721  -0.05432  -0.04340  -0.03254  -0.02851
 Alpha virt. eigenvalues --   -0.02249  -0.01644  -0.01195  -0.00324  -0.00080
 Alpha virt. eigenvalues --   -0.00001   0.00349   0.00779   0.00863   0.00928

  Beta  occ. eigenvalues --  -38.44177 -38.43900 -38.43772 -38.43587 -38.43110
  Beta  occ. eigenvalues --  -38.43092 -38.42945  -2.20029  -2.19751  -2.19619
  Beta  occ. eigenvalues --   -2.19432  -2.19036  -2.18994  -2.18876  -1.13710
  Beta  occ. eigenvalues --   -1.13685  -1.13656  -1.13422  -1.13420  -1.13389
  Beta  occ. eigenvalues --   -1.13305  -1.13272  -1.13246  -1.13138  -1.13084
  Beta  occ. eigenvalues --   -1.13059  -1.12780  -1.12724  -1.12711  -1.12683
  Beta  occ. eigenvalues --   -1.12674  -1.12642  -1.12556  -1.12516  -1.12487
  Beta  occ. eigenvalues --   -0.18227  -0.13075  -0.12215
  Beta virt. eigenvalues --   -0.06692  -0.05651  -0.05403  -0.04323  -0.02506
  Beta virt. eigenvalues --   -0.02061  -0.01560  -0.01244  -0.01122  -0.00361
  Beta virt. eigenvalues --   -0.00108   0.00141   0.00382   0.00825   0.00876

 Mulliken charges and spin densities:
               1          2
     1  Na   0.188004  -0.076222
     2  Na   0.151059  -0.028244
     3  Na   0.226057  -0.041322
     4  Na   0.076882  -0.016178
     5  Na  -0.335692   0.590615
     6  Na   0.078944  -0.097579
     7  Na  -0.385254   0.668930
 Sum of Mulliken charges =  -0.00000   1.00000

 Dipole moment (field-independent basis, Debye):
    X=             -0.0894    Y=              0.1810    Z=              0.0415  Tot=              0.2061
 Quadrupole moment (field-independent basis, Debye-Ang):
   XX=            -53.3522   YY=            -64.6033   ZZ=            -74.7466
   XY=             -0.2188   XZ=             -2.3233   YZ=              0.2070

 Normal termination of Gaussian 16 at Fri Dec  8 03:46:42 2023.
