 Gaussian 16, Revision B.01,
 Gaussian 16:  ES64L-G16RevB.01 20-Dec-2017

 -------------------------
 #P B3LYP/6-311+g(d) force
 -------------------------

 -----
 DPGEN
 -----
 Symbolic Z-matrix:
 Charge =  0 Multiplicity = 2

                         Standard orientation:
 ---------------------------------------------------------------------
 Center     Atomic      Atomic             Coordinates (Angstroms)
 Number     Number       Type             X           Y           Z
 ---------------------------------------------------------------------
      1         11           0       -0.314600    2.918349    0.521408
      2         11           0        1.767510   -2.537673   -0.741033
      3         11           0       -2.257143   -2.018965    0.288596
      4         11           0        0.277292    0.213644   -1.388713
      5         11           0       -3.176254    0.873986   -0.674077
      6         11           0        3.156209    1.250155   -0.276454
      7         11           0        0.546985   -0.699497    2.270273
 ---------------------------------------------------------------------

 SCF Done:  E(UB3LYP) =  -1136.13137828     A.U. after   20 cycles

 The electronic state is 2-A.
 Alpha  occ. eigenvalues --  -38.44698 -38.43867 -38.43861 -38.43853 -38.43721
 Alpha  occ. eigenvalues --  -38.43650 -38.43139  -2.20485  -2.19696  -2.19687
 Alpha  occ. eigenvalues --   -2.19669  -2.19552  -2.19451  -2.19115  -1.14178
 Alpha  occ. eigenvalues --   -1.14140  -1.14109  -1.13396  -1.13380  -1.13367
 Alpha  occ. eigenvalues --   -1.13347  -1.13334  -1.13329  -1.13310  -1.13299
 Alpha  occ. eigenvalues --   -1.13287  -1.13219  -1.13195  -1.13182  -1.13137
 Alpha  occ. eigenvalues --   -1.13120  -1.13072  -1.12804  -1.12758  -1.12748
 Alpha  occ. eigenvalues --   -0.17995  -0.13021  -0.12115  -0.10782
 Alpha virt. eigenvalues --   -0.06082  -0.05171  -0.04631  -0.03120  -0.03061
 Alpha virt. eigenvalues --   -0.02588  -0.01781  -0.01216  -0.00646  -0.00264
 Alpha virt. eigenvalues --   -0.00057   0.00329   0.00719   0.00744   0.00790

  Beta  occ. eigenvalues --  -38.44695 -38.43863 -38.43836 -38.43758 -38.43712
  Beta  occ. eigenvalues --  -38.43643 -38.43099  -2.20481  -2.19684  -2.19641
  Beta  occ. eigenvalues --   -2.19536  -2.19505  -2.19438  -2.19043  -1.14167
  Beta  occ. eigenvalues --   -1.14136  -1.14103  -1.13394  -1.13353  -1.13336
  Beta  occ. eigenvalues --   -1.13330  -1.13297  -1.13265  -1.13222  -1.13199
  Beta  occ. eigenvalues --   -1.13191  -1.13186  -1.13174  -1.13169  -1.13129
  Beta  occ. eigenvalues --   -1.13099  -1.13064  -1.12747  -1.12707  -1.12691
  Beta  occ. eigenvalues --   -0.17335  -0.12782  -0.11916
  Beta virt. eigenvalues --   -0.06893  -0.06052  -0.05070  -0.04458  -0.02552
  Beta virt. eigenvalues --   -0.02327  -0.01721  -0.01573  -0.01151  -0.00593
  Beta virt. eigenvalues --   -0.00272   0.00112   0.00381   0.00769   0.00805

 Mulliken charges and spin densities:
               1          2
     1  Na  -0.180446   0.135150
     2  Na   0.024973   0.014420
     3  Na  -0.034140   0.063748
     4  Na   0.311350   0.095605
     5  Na   0.160448   0.000990
     6  Na   0.041319   0.011167
     7  Na  -0.323505   0.678921
 Sum of Mulliken charges =  -0.00000   1.00000

 Dipole moment (field-independent basis, Debye):
    X=              0.5520    Y=              0.0553    Z=              0.1342  Tot=              0.5708
 Quadrupole moment (field-independent basis, Debye-Ang):
   XX=            -55.5894   YY=            -63.8645   ZZ=            -73.8452
   XY=              0.3375   XZ=              0.1635   YZ=              1.4930

 Normal termination of Gaussian 16 at Thu Dec  7 07:37:09 2023.
