 Gaussian 16, Revision B.01,
 Gaussian 16:  ES64L-G16RevB.01 20-Dec-2017

 -------------------------
 #P B3LYP/6-311+g(d) force
 -------------------------

 -----
 DPGEN
 -----
 Symbolic Z-matrix:
 Charge =  0 Multiplicity = 2

                         Standard orientation:
 ---------------------------------------------------------------------
 Center     Atomic      Atomic             Coordinates (Angstroms)
 Number     Number       Type             X           Y           Z
 ---------------------------------------------------------------------
      1         11           0       -2.901643   -1.580949    0.044397
      2         11           0       -2.543123    1.725759   -0.059938
      3         11           0        3.270599   -0.010434   -0.081647
      4         11           0        0.953143    2.727847   -0.393930
      5         11           0       -0.194851   -0.303342   -1.262349
      6         11           0        0.331921    0.066255    2.031487
      7         11           0        1.083955   -2.625136   -0.278019
 ---------------------------------------------------------------------

 SCF Done:  E(UB3LYP) =  -1136.13171545     A.U. after   19 cycles

 The electronic state is 2-A.
 Alpha  occ. eigenvalues --  -38.44558 -38.44231 -38.43918 -38.43493 -38.43292
 Alpha  occ. eigenvalues --  -38.43116 -38.42907  -2.20386  -2.20057  -2.19765
 Alpha  occ. eigenvalues --   -2.19395  -2.19192  -2.18994  -2.18962  -1.14056
 Alpha  occ. eigenvalues --   -1.14040  -1.14034  -1.13743  -1.13716  -1.13697
 Alpha  occ. eigenvalues --   -1.13450  -1.13424  -1.13393  -1.13246  -1.13030
 Alpha  occ. eigenvalues --   -1.12990  -1.12883  -1.12807  -1.12802  -1.12684
 Alpha  occ. eigenvalues --   -1.12657  -1.12619  -1.12607  -1.12591  -1.12574
 Alpha  occ. eigenvalues --   -0.18777  -0.13419  -0.12268  -0.10325
 Alpha virt. eigenvalues --   -0.06113  -0.05344  -0.04434  -0.03124  -0.02545
 Alpha virt. eigenvalues --   -0.02159  -0.01954  -0.01194  -0.00489  -0.00359
 Alpha virt. eigenvalues --    0.00001   0.00317   0.00739   0.00834   0.00872

  Beta  occ. eigenvalues --  -38.44554 -38.44230 -38.43915 -38.43482 -38.43190
  Beta  occ. eigenvalues --  -38.43106 -38.42860  -2.20382  -2.20058  -2.19762
  Beta  occ. eigenvalues --   -2.19379  -2.19005  -2.18947  -2.18911  -1.14040
  Beta  occ. eigenvalues --   -1.14035  -1.14026  -1.13743  -1.13708  -1.13695
  Beta  occ. eigenvalues --   -1.13445  -1.13405  -1.13396  -1.13225  -1.12992
  Beta  occ. eigenvalues --   -1.12982  -1.12762  -1.12679  -1.12669  -1.12652
  Beta  occ. eigenvalues --   -1.12591  -1.12587  -1.12584  -1.12551  -1.12521
  Beta  occ. eigenvalues --   -0.18070  -0.13212  -0.12011
  Beta virt. eigenvalues --   -0.06408  -0.06054  -0.05348  -0.04395  -0.02376
  Beta virt. eigenvalues --   -0.01882  -0.01789  -0.01143  -0.01094  -0.00536
  Beta virt. eigenvalues --   -0.00382   0.00169   0.00362   0.00786   0.00839

 Mulliken charges and spin densities:
               1          2
     1  Na   0.262298   0.004214
     2  Na   0.197973   0.008973
     3  Na   0.315364   0.049879
     4  Na   0.080720   0.023867
     5  Na  -0.726082   0.128838
     6  Na  -0.534457   0.752017
     7  Na   0.404184   0.032213
 Sum of Mulliken charges =  -0.00000   1.00000

 Dipole moment (field-independent basis, Debye):
    X=             -0.0178    Y=             -0.0762    Z=              0.2628  Tot=              0.2742
 Quadrupole moment (field-independent basis, Debye-Ang):
   XX=            -50.6776   YY=            -63.6629   ZZ=            -76.9007
   XY=              0.5215   XZ=             -1.0851   YZ=             -0.7873

 Normal termination of Gaussian 16 at Thu Dec  7 19:23:37 2023.
