 Gaussian 16, Revision B.01,
 Gaussian 16:  ES64L-G16RevB.01 20-Dec-2017

 -------------------------
 #P B3LYP/6-311+g(d) force
 -------------------------

 -----
 DPGEN
 -----
 Symbolic Z-matrix:
 Charge =  0 Multiplicity = 2

                         Standard orientation:
 ---------------------------------------------------------------------
 Center     Atomic      Atomic             Coordinates (Angstroms)
 Number     Number       Type             X           Y           Z
 ---------------------------------------------------------------------
      1         11           0       -0.886978    1.743198   -0.014107
      2         11           0        1.886818   -2.420807   -0.894570
      3         11           0       -3.806835    0.569108   -0.130319
      4         11           0       -1.225428   -1.545343   -0.958831
      5         11           0       -0.524157   -1.078298    1.701758
      6         11           0        2.423577   -0.021595    0.911185
      7         11           0        2.133003    2.753738   -0.615115
 ---------------------------------------------------------------------

 SCF Done:  E(UB3LYP) =  -1136.12045892     A.U. after   20 cycles

 The electronic state is 2-A.
 Alpha  occ. eigenvalues --  -38.44967 -38.44050 -38.43903 -38.43739 -38.43631
 Alpha  occ. eigenvalues --  -38.43420 -38.43351  -2.20796  -2.20023  -2.19841
 Alpha  occ. eigenvalues --   -2.19633  -2.19621  -2.19356  -2.19193  -1.14482
 Alpha  occ. eigenvalues --   -1.14451  -1.14422  -1.13900  -1.13690  -1.13602
 Alpha  occ. eigenvalues --   -1.13570  -1.13537  -1.13488  -1.13289  -1.13273
 Alpha  occ. eigenvalues --   -1.13259  -1.13248  -1.13221  -1.13176  -1.13057
 Alpha  occ. eigenvalues --   -1.13037  -1.12996  -1.12852  -1.12835  -1.12822
 Alpha  occ. eigenvalues --   -0.18864  -0.13862  -0.12559  -0.10395
 Alpha virt. eigenvalues --   -0.06512  -0.05370  -0.04455  -0.03389  -0.02718
 Alpha virt. eigenvalues --   -0.02307  -0.01789  -0.01167  -0.00541  -0.00170
 Alpha virt. eigenvalues --    0.00093   0.00225   0.00502   0.00658   0.00854

  Beta  occ. eigenvalues --  -38.44963 -38.44024 -38.43885 -38.43706 -38.43544
  Beta  occ. eigenvalues --  -38.43410 -38.43343  -2.20790  -2.19979  -2.19813
  Beta  occ. eigenvalues --   -2.19561  -2.19474  -2.19343  -2.19179  -1.14480
  Beta  occ. eigenvalues --   -1.14438  -1.14416  -1.13841  -1.13658  -1.13565
  Beta  occ. eigenvalues --   -1.13552  -1.13489  -1.13457  -1.13227  -1.13220
  Beta  occ. eigenvalues --   -1.13188  -1.13179  -1.13133  -1.13076  -1.13049
  Beta  occ. eigenvalues --   -1.12998  -1.12979  -1.12842  -1.12822  -1.12813
  Beta  occ. eigenvalues --   -0.18199  -0.13652  -0.12311
  Beta virt. eigenvalues --   -0.06623  -0.06353  -0.05248  -0.04167  -0.02786
  Beta virt. eigenvalues --   -0.02284  -0.02137  -0.01167  -0.00915  -0.00309
  Beta virt. eigenvalues --   -0.00100   0.00233   0.00304   0.00648   0.00710

 Mulliken charges and spin densities:
               1          2
     1  Na  -1.464327   0.032294
     2  Na  -0.156688   0.014898
     3  Na   0.968121  -0.007421
     4  Na  -0.296534   0.369488
     5  Na  -0.015786   0.137527
     6  Na   0.343623   0.493760
     7  Na   0.621593  -0.040546
 Sum of Mulliken charges =  -0.00000   1.00000

 Dipole moment (field-independent basis, Debye):
    X=             -1.0374    Y=             -0.0910    Z=              0.0527  Tot=              1.0428
 Quadrupole moment (field-independent basis, Debye-Ang):
   XX=            -50.2212   YY=            -69.2928   ZZ=            -73.9962
   XY=             -1.9461   XZ=             -0.5459   YZ=             -0.7411

 Normal termination of Gaussian 16 at Wed Dec  6 01:26:56 2023.
