 Gaussian 16, Revision B.01,
 Gaussian 16:  ES64L-G16RevB.01 20-Dec-2017

 -------------------------
 #P B3LYP/6-311+g(d) force
 -------------------------

 -----
 DPGEN
 -----
 Symbolic Z-matrix:
 Charge =  0 Multiplicity = 2

                         Standard orientation:
 ---------------------------------------------------------------------
 Center     Atomic      Atomic             Coordinates (Angstroms)
 Number     Number       Type             X           Y           Z
 ---------------------------------------------------------------------
      1         11           0       -1.484509   -0.554526    2.115882
      2         11           0        3.731623   -1.429292   -0.865285
      3         11           0        2.200514    0.476706    1.541095
      4         11           0        0.408486    3.039156   -0.207794
      5         11           0       -2.825089    1.134730   -0.950870
      6         11           0        0.157478   -0.175022   -1.362559
      7         11           0       -2.188503   -2.491751   -0.270469
 ---------------------------------------------------------------------

 SCF Done:  E(UB3LYP) =  -1136.12661253     A.U. after   22 cycles

 The electronic state is 2-A.
 Alpha  occ. eigenvalues --  -38.44504 -38.44229 -38.44045 -38.43874 -38.43790
 Alpha  occ. eigenvalues --  -38.43699 -38.43169  -2.20331  -2.20091  -2.19825
 Alpha  occ. eigenvalues --   -2.19709  -2.19632  -2.19620  -2.18974  -1.14031
 Alpha  occ. eigenvalues --   -1.13998  -1.13926  -1.13759  -1.13726  -1.13722
 Alpha  occ. eigenvalues --   -1.13491  -1.13482  -1.13463  -1.13394  -1.13368
 Alpha  occ. eigenvalues --   -1.13328  -1.13325  -1.13309  -1.13298  -1.13267
 Alpha  occ. eigenvalues --   -1.13253  -1.13238  -1.12656  -1.12637  -1.12607
 Alpha  occ. eigenvalues --   -0.17962  -0.13404  -0.11551  -0.11169
 Alpha virt. eigenvalues --   -0.06204  -0.05170  -0.04881  -0.03245  -0.02829
 Alpha virt. eigenvalues --   -0.02661  -0.01962  -0.01136  -0.00625  -0.00214
 Alpha virt. eigenvalues --    0.00018   0.00268   0.00351   0.00567   0.00695

  Beta  occ. eigenvalues --  -38.44484 -38.44152 -38.44022 -38.43846 -38.43790
  Beta  occ. eigenvalues --  -38.43659 -38.43170  -2.20295  -2.19949  -2.19782
  Beta  occ. eigenvalues --   -2.19660  -2.19636  -2.19549  -2.18978  -1.13992
  Beta  occ. eigenvalues --   -1.13973  -1.13906  -1.13668  -1.13629  -1.13617
  Beta  occ. eigenvalues --   -1.13460  -1.13453  -1.13433  -1.13361  -1.13334
  Beta  occ. eigenvalues --   -1.13315  -1.13280  -1.13274  -1.13267  -1.13255
  Beta  occ. eigenvalues --   -1.13217  -1.13183  -1.12659  -1.12631  -1.12608
  Beta  occ. eigenvalues --   -0.17285  -0.13181  -0.11327
  Beta virt. eigenvalues --   -0.07432  -0.06012  -0.04961  -0.04310  -0.03041
  Beta virt. eigenvalues --   -0.02294  -0.01928  -0.01730  -0.01056  -0.00296
  Beta virt. eigenvalues --   -0.00192   0.00159   0.00310   0.00451   0.00719

 Mulliken charges and spin densities:
               1          2
     1  Na  -0.330388   0.418395
     2  Na   0.035056   0.186616
     3  Na   0.168012   0.109863
     4  Na  -0.196851   0.076997
     5  Na   0.742193  -0.016087
     6  Na  -0.493615   0.122198
     7  Na   0.075593   0.102019
 Sum of Mulliken charges =  -0.00000   1.00000

 Dipole moment (field-independent basis, Debye):
    X=             -0.5820    Y=             -0.0857    Z=             -0.0490  Tot=              0.5903
 Quadrupole moment (field-independent basis, Debye-Ang):
   XX=            -57.0090   YY=            -67.9947   ZZ=            -69.6593
   XY=             -0.1408   XZ=              0.8489   YZ=              3.3501

 Normal termination of Gaussian 16 at Wed Nov 29 16:16:19 2023.
