 Gaussian 16, Revision B.01,
 Gaussian 16:  ES64L-G16RevB.01 20-Dec-2017

 -------------------------
 #P B3LYP/6-311+g(d) force
 -------------------------

 -----
 DPGEN
 -----
 Symbolic Z-matrix:
 Charge =  0 Multiplicity = 2

                         Standard orientation:
 ---------------------------------------------------------------------
 Center     Atomic      Atomic             Coordinates (Angstroms)
 Number     Number       Type             X           Y           Z
 ---------------------------------------------------------------------
      1         11           0       -3.213378    1.408445   -0.178881
      2         11           0       -0.120783    0.225234    2.064732
      3         11           0       -2.235101   -2.248386   -0.136939
      4         11           0        1.761135   -2.641006   -0.096794
      5         11           0        1.027653    3.030809   -0.284833
      6         11           0        3.035929    0.340800   -0.157260
      7         11           0       -0.255455   -0.115896   -1.210026
 ---------------------------------------------------------------------

 SCF Done:  E(UB3LYP) =  -1136.13144832     A.U. after   20 cycles

 The electronic state is 2-A.
 Alpha  occ. eigenvalues --  -38.44817 -38.44338 -38.43828 -38.43652 -38.43549
 Alpha  occ. eigenvalues --  -38.43177 -38.42952  -2.20585  -2.20158  -2.19697
 Alpha  occ. eigenvalues --   -2.19465  -2.19381  -2.19056  -2.18970  -1.14263
 Alpha  occ. eigenvalues --   -1.14236  -1.14224  -1.13876  -1.13814  -1.13766
 Alpha  occ. eigenvalues --   -1.13381  -1.13363  -1.13351  -1.13137  -1.13118
 Alpha  occ. eigenvalues --   -1.13107  -1.13056  -1.13037  -1.13019  -1.12773
 Alpha  occ. eigenvalues --   -1.12666  -1.12663  -1.12654  -1.12618  -1.12583
 Alpha  occ. eigenvalues --   -0.18322  -0.13224  -0.12236  -0.10084
 Alpha virt. eigenvalues --   -0.06221  -0.05447  -0.04785  -0.02967  -0.02500
 Alpha virt. eigenvalues --   -0.02084  -0.01933  -0.01461  -0.00739  -0.00672
 Alpha virt. eigenvalues --   -0.00004   0.00292   0.00683   0.00751   0.00833

  Beta  occ. eigenvalues --  -38.44813 -38.44332 -38.43822 -38.43647 -38.43547
  Beta  occ. eigenvalues --  -38.43067 -38.42917  -2.20581  -2.20151  -2.19687
  Beta  occ. eigenvalues --   -2.19458  -2.19379  -2.18908  -2.18851  -1.14249
  Beta  occ. eigenvalues --   -1.14229  -1.14223  -1.13869  -1.13791  -1.13765
  Beta  occ. eigenvalues --   -1.13377  -1.13355  -1.13327  -1.13126  -1.13110
  Beta  occ. eigenvalues --   -1.13097  -1.13053  -1.13029  -1.13012  -1.12667
  Beta  occ. eigenvalues --   -1.12578  -1.12555  -1.12542  -1.12520  -1.12516
  Beta  occ. eigenvalues --   -0.17640  -0.12992  -0.12041
  Beta virt. eigenvalues --   -0.06220  -0.06174  -0.05367  -0.04765  -0.02248
  Beta virt. eigenvalues --   -0.01860  -0.01810  -0.01393  -0.01053  -0.00756
  Beta virt. eigenvalues --   -0.00695   0.00173   0.00361   0.00709   0.00811

 Mulliken charges and spin densities:
               1          2
     1  Na   0.152515  -0.017405
     2  Na  -0.445316   0.722522
     3  Na   0.365579   0.044124
     4  Na   0.256828   0.048873
     5  Na   0.222347   0.034448
     6  Na   0.292917   0.084843
     7  Na  -0.844870   0.082596
 Sum of Mulliken charges =  -0.00000   1.00000

 Dipole moment (field-independent basis, Debye):
    X=             -0.6984    Y=              0.0675    Z=              0.1408  Tot=              0.7156
 Quadrupole moment (field-independent basis, Debye-Ang):
   XX=            -53.7617   YY=            -59.0366   ZZ=            -78.1869
   XY=             -0.9131   XZ=             -0.0969   YZ=             -0.8118

 Normal termination of Gaussian 16 at Sat Dec  9 07:09:18 2023.
