 Gaussian 16, Revision B.01,
 Gaussian 16:  ES64L-G16RevB.01 20-Dec-2017

 -------------------------
 #P B3LYP/6-311+g(d) force
 -------------------------

 -----
 DPGEN
 -----
 Symbolic Z-matrix:
 Charge =  0 Multiplicity = 2

                         Standard orientation:
 ---------------------------------------------------------------------
 Center     Atomic      Atomic             Coordinates (Angstroms)
 Number     Number       Type             X           Y           Z
 ---------------------------------------------------------------------
      1         11           0       -2.780911    1.477700   -0.933328
      2         11           0       -0.764044    3.421450    0.563462
      3         11           0        3.492737   -0.097101    1.370812
      4         11           0       -4.779660   -1.447593    0.144413
      5         11           0        5.947358   -1.044716   -0.886629
      6         11           0        0.859028    0.633956   -0.529514
      7         11           0       -1.974509   -2.943695    0.270784
 ---------------------------------------------------------------------

 SCF Done:  E(UB3LYP) =  -1136.11389610     A.U. after   19 cycles

 The electronic state is 2-A.
 Alpha  occ. eigenvalues --  -38.44629 -38.44397 -38.44189 -38.44138 -38.44134
 Alpha  occ. eigenvalues --  -38.44047 -38.43910  -2.20409  -2.20216  -2.19974
 Alpha  occ. eigenvalues --   -2.19972  -2.19940  -2.19888  -2.19696  -1.14077
 Alpha  occ. eigenvalues --   -1.14061  -1.14057  -1.13904  -1.13875  -1.13869
 Alpha  occ. eigenvalues --   -1.13658  -1.13631  -1.13620  -1.13619  -1.13604
 Alpha  occ. eigenvalues --   -1.13600  -1.13587  -1.13585  -1.13581  -1.13558
 Alpha  occ. eigenvalues --   -1.13551  -1.13494  -1.13372  -1.13363  -1.13338
 Alpha  occ. eigenvalues --   -0.16252  -0.13735  -0.12598  -0.10328
 Alpha virt. eigenvalues --   -0.06427  -0.05957  -0.04677  -0.03613  -0.02885
 Alpha virt. eigenvalues --   -0.02348  -0.02047  -0.01589  -0.01050  -0.00828
 Alpha virt. eigenvalues --   -0.00412  -0.00317   0.00088   0.00238   0.00540

  Beta  occ. eigenvalues --  -38.44604 -38.44398 -38.44134 -38.44101 -38.44096
  Beta  occ. eigenvalues --  -38.44005 -38.43924  -2.20360  -2.20221  -2.19933
  Beta  occ. eigenvalues --   -2.19901  -2.19808  -2.19808  -2.19727  -1.14044
  Beta  occ. eigenvalues --   -1.14029  -1.14021  -1.13900  -1.13878  -1.13863
  Beta  occ. eigenvalues --   -1.13606  -1.13599  -1.13587  -1.13578  -1.13576
  Beta  occ. eigenvalues --   -1.13526  -1.13516  -1.13506  -1.13504  -1.13493
  Beta  occ. eigenvalues --   -1.13483  -1.13455  -1.13398  -1.13376  -1.13322
  Beta  occ. eigenvalues --   -0.15789  -0.13341  -0.12263
  Beta virt. eigenvalues --   -0.07148  -0.05846  -0.05544  -0.04364  -0.03346
  Beta virt. eigenvalues --   -0.02637  -0.02266  -0.01830  -0.01206  -0.00981
  Beta virt. eigenvalues --   -0.00446  -0.00214  -0.00048   0.00275   0.00442

 Mulliken charges and spin densities:
               1          2
     1  Na   0.197215   0.412113
     2  Na   0.604300   0.085885
     3  Na   0.252932  -0.023458
     4  Na   0.140836   0.003858
     5  Na   0.095901   0.447281
     6  Na  -1.328420  -0.083541
     7  Na   0.037236   0.157862
 Sum of Mulliken charges =  -0.00000   1.00000

 Dipole moment (field-independent basis, Debye):
    X=             -1.0165    Y=              0.4937    Z=              0.3381  Tot=              1.1795
 Quadrupole moment (field-independent basis, Debye-Ang):
   XX=            -70.1783   YY=            -65.3861   ZZ=            -66.4734
   XY=              1.2057   XZ=             -1.6093   YZ=              3.6147

 Normal termination of Gaussian 16 at Tue Nov 28 22:46:11 2023.
