 Gaussian 16, Revision B.01,
 Gaussian 16:  ES64L-G16RevB.01 20-Dec-2017

 -------------------------
 #P B3LYP/6-311+g(d) force
 -------------------------

 -----
 DPGEN
 -----
 Symbolic Z-matrix:
 Charge =  0 Multiplicity = 2

                         Standard orientation:
 ---------------------------------------------------------------------
 Center     Atomic      Atomic             Coordinates (Angstroms)
 Number     Number       Type             X           Y           Z
 ---------------------------------------------------------------------
      1         11           0       -1.796012    3.262030    0.469131
      2         11           0       -2.902386   -2.860857   -0.337008
      3         11           0        0.092991   -2.438580   -0.606627
      4         11           0        3.099880   -2.122159    1.495540
      5         11           0        3.479314    0.296413   -1.015010
      6         11           0        1.964982    3.141273   -0.204504
      7         11           0       -3.938769    0.721880    0.198478
 ---------------------------------------------------------------------

 SCF Done:  E(UB3LYP) =  -1136.11356556     A.U. after   20 cycles

 The electronic state is 2-A.
 Alpha  occ. eigenvalues --  -38.44901 -38.44804 -38.44705 -38.44436 -38.44085
 Alpha  occ. eigenvalues --  -38.44005 -38.43707  -2.20694  -2.20581  -2.20511
 Alpha  occ. eigenvalues --   -2.20242  -2.19856  -2.19799  -2.19543  -1.14381
 Alpha  occ. eigenvalues --   -1.14372  -1.14324  -1.14255  -1.14248  -1.14204
 Alpha  occ. eigenvalues --   -1.14202  -1.14181  -1.14164  -1.13892  -1.13887
 Alpha  occ. eigenvalues --   -1.13853  -1.13533  -1.13528  -1.13492  -1.13459
 Alpha  occ. eigenvalues --   -1.13455  -1.13422  -1.13220  -1.13183  -1.13162
 Alpha  occ. eigenvalues --   -0.15930  -0.13950  -0.13236  -0.10785
 Alpha virt. eigenvalues --   -0.06981  -0.05626  -0.04018  -0.03307  -0.03156
 Alpha virt. eigenvalues --   -0.02491  -0.02289  -0.01907  -0.01258  -0.00928
 Alpha virt. eigenvalues --   -0.00199  -0.00039   0.00108   0.00468   0.00591

  Beta  occ. eigenvalues --  -38.44888 -38.44769 -38.44688 -38.44363 -38.44073
  Beta  occ. eigenvalues --  -38.43954 -38.43669  -2.20676  -2.20521  -2.20486
  Beta  occ. eigenvalues --   -2.20106  -2.19838  -2.19707  -2.19475  -1.14374
  Beta  occ. eigenvalues --   -1.14360  -1.14274  -1.14217  -1.14207  -1.14189
  Beta  occ. eigenvalues --   -1.14169  -1.14147  -1.14111  -1.13798  -1.13793
  Beta  occ. eigenvalues --   -1.13765  -1.13523  -1.13517  -1.13460  -1.13396
  Beta  occ. eigenvalues --   -1.13392  -1.13359  -1.13167  -1.13137  -1.13120
  Beta  occ. eigenvalues --   -0.15420  -0.13201  -0.12529
  Beta virt. eigenvalues --   -0.07578  -0.07109  -0.05220  -0.03788  -0.02958
  Beta virt. eigenvalues --   -0.02760  -0.02196  -0.02050  -0.01669  -0.01090
  Beta virt. eigenvalues --   -0.00691   0.00047   0.00194   0.00284   0.00492

 Mulliken charges and spin densities:
               1          2
     1  Na   0.254384  -0.012570
     2  Na   0.331264   0.020887
     3  Na  -1.114039   0.181353
     4  Na   0.535435   0.349078
     5  Na   0.545503   0.048090
     6  Na  -0.409165   0.217117
     7  Na  -0.143382   0.196046
 Sum of Mulliken charges =  -0.00000   1.00000

 Dipole moment (field-independent basis, Debye):
    X=              0.3415    Y=             -0.5440    Z=              0.2598  Tot=              0.6928
 Quadrupole moment (field-independent basis, Debye-Ang):
   XX=            -59.9844   YY=            -71.0162   ZZ=            -69.2456
   XY=              1.5073   XZ=             -0.3941   YZ=             -0.1116

 Normal termination of Gaussian 16 at Sun Dec  3 12:04:54 2023.
