 Gaussian 16, Revision B.01,
 Gaussian 16:  ES64L-G16RevB.01 20-Dec-2017

 -------------------------
 #P B3LYP/6-311+g(d) force
 -------------------------

 -----
 DPGEN
 -----
 Symbolic Z-matrix:
 Charge =  0 Multiplicity = 2

                         Standard orientation:
 ---------------------------------------------------------------------
 Center     Atomic      Atomic             Coordinates (Angstroms)
 Number     Number       Type             X           Y           Z
 ---------------------------------------------------------------------
      1         11           0        2.785558    1.574504    0.075594
      2         11           0       -0.933312    2.978579   -0.137183
      3         11           0       -0.079332   -0.124865    2.101748
      4         11           0       -0.778240   -2.719054   -0.203762
      5         11           0       -3.478743   -0.165270   -0.019749
      6         11           0       -0.013423    0.179611   -1.647973
      7         11           0        2.497491   -1.723503   -0.168676
 ---------------------------------------------------------------------

 SCF Done:  E(UB3LYP) =  -1136.13603550     A.U. after   19 cycles

 The electronic state is 2-A.
 Alpha  occ. eigenvalues --  -38.44757 -38.44046 -38.43721 -38.43667 -38.43560
 Alpha  occ. eigenvalues --  -38.43209 -38.43206  -2.20515  -2.19860  -2.19527
 Alpha  occ. eigenvalues --   -2.19515  -2.19422  -2.19153  -2.19073  -1.14193
 Alpha  occ. eigenvalues --   -1.14165  -1.14158  -1.13539  -1.13527  -1.13498
 Alpha  occ. eigenvalues --   -1.13215  -1.13196  -1.13181  -1.13152  -1.13142
 Alpha  occ. eigenvalues --   -1.13139  -1.13098  -1.13077  -1.13072  -1.12853
 Alpha  occ. eigenvalues --   -1.12813  -1.12771  -1.12739  -1.12730  -1.12693
 Alpha  occ. eigenvalues --   -0.18315  -0.12873  -0.12308  -0.10578
 Alpha virt. eigenvalues --   -0.06165  -0.05111  -0.04685  -0.03089  -0.02808
 Alpha virt. eigenvalues --   -0.02549  -0.01867  -0.01152  -0.00639  -0.00393
 Alpha virt. eigenvalues --   -0.00035   0.00332   0.00749   0.00806   0.00873

  Beta  occ. eigenvalues --  -38.44759 -38.44043 -38.43718 -38.43569 -38.43554
  Beta  occ. eigenvalues --  -38.43201 -38.43143  -2.20519  -2.19858  -2.19513
  Beta  occ. eigenvalues --   -2.19416  -2.19344  -2.19062  -2.19039  -1.14182
  Beta  occ. eigenvalues --   -1.14170  -1.14162  -1.13539  -1.13505  -1.13500
  Beta  occ. eigenvalues --   -1.13205  -1.13167  -1.13142  -1.13096  -1.13074
  Beta  occ. eigenvalues --   -1.13068  -1.13051  -1.13024  -1.13009  -1.12796
  Beta  occ. eigenvalues --   -1.12744  -1.12712  -1.12695  -1.12684  -1.12676
  Beta  occ. eigenvalues --   -0.17582  -0.12692  -0.12073
  Beta virt. eigenvalues --   -0.06656  -0.06138  -0.05108  -0.04633  -0.02355
  Beta virt. eigenvalues --   -0.02042  -0.01777  -0.01470  -0.01072  -0.00696
  Beta virt. eigenvalues --   -0.00445   0.00117   0.00358   0.00780   0.00825

 Mulliken charges and spin densities:
               1          2
     1  Na   0.134408  -0.041758
     2  Na  -0.000117  -0.141067
     3  Na  -0.518841   0.819568
     4  Na   0.219933  -0.030511
     5  Na   0.050079  -0.098292
     6  Na  -0.124196   0.479014
     7  Na   0.238734   0.013046
 Sum of Mulliken charges =  -0.00000   1.00000

 Dipole moment (field-independent basis, Debye):
    X=             -0.3502    Y=              0.2094    Z=              0.1252  Tot=              0.4268
 Quadrupole moment (field-independent basis, Debye-Ang):
   XX=            -53.6363   YY=            -63.3492   ZZ=            -75.5534
   XY=              0.2245   XZ=              0.0756   YZ=              0.8341

 Normal termination of Gaussian 16 at Fri Dec  8 02:59:21 2023.
