 Gaussian 16, Revision B.01,
 Gaussian 16:  ES64L-G16RevB.01 20-Dec-2017

 -------------------------
 #P B3LYP/6-311+g(d) force
 -------------------------

 -----
 DPGEN
 -----
 Symbolic Z-matrix:
 Charge =  0 Multiplicity = 2

                         Standard orientation:
 ---------------------------------------------------------------------
 Center     Atomic      Atomic             Coordinates (Angstroms)
 Number     Number       Type             X           Y           Z
 ---------------------------------------------------------------------
      1         11           0       -3.281840    0.147871   -0.218055
      2         11           0        2.250332   -1.998057   -0.198601
      3         11           0        0.388225   -0.033928    1.827122
      4         11           0        2.914328    1.459741   -0.079384
      5         11           0        0.081332    0.078921   -1.826909
      6         11           0       -1.433797   -2.040875    0.276863
      7         11           0       -0.918580    2.386328    0.218965
 ---------------------------------------------------------------------

 SCF Done:  E(UB3LYP) =  -1136.13054126     A.U. after   20 cycles

 The electronic state is 2-A.
 Alpha  occ. eigenvalues --  -38.44572 -38.44399 -38.43585 -38.43573 -38.43361
 Alpha  occ. eigenvalues --  -38.43040 -38.42942  -2.20458  -2.20215  -2.19535
 Alpha  occ. eigenvalues --   -2.19445  -2.19356  -2.18996  -2.18848  -1.14191
 Alpha  occ. eigenvalues --   -1.14094  -1.14090  -1.13894  -1.13874  -1.13851
 Alpha  occ. eigenvalues --   -1.13236  -1.13190  -1.13153  -1.13128  -1.13098
 Alpha  occ. eigenvalues --   -1.13075  -1.13055  -1.13000  -1.12962  -1.12670
 Alpha  occ. eigenvalues --   -1.12648  -1.12621  -1.12541  -1.12519  -1.12454
 Alpha  occ. eigenvalues --   -0.19227  -0.13697  -0.11925  -0.10976
 Alpha virt. eigenvalues --   -0.06235  -0.05209  -0.03734  -0.03503  -0.02651
 Alpha virt. eigenvalues --   -0.02576  -0.01999  -0.01089  -0.00190  -0.00014
 Alpha virt. eigenvalues --    0.00112   0.00330   0.00739   0.00873   0.00909

  Beta  occ. eigenvalues --  -38.44570 -38.44396 -38.43579 -38.43497 -38.43273
  Beta  occ. eigenvalues --  -38.43027 -38.42932  -2.20457  -2.20213  -2.19438
  Beta  occ. eigenvalues --   -2.19395  -2.19197  -2.18979  -2.18833  -1.14194
  Beta  occ. eigenvalues --   -1.14095  -1.14071  -1.13880  -1.13867  -1.13851
  Beta  occ. eigenvalues --   -1.13154  -1.13121  -1.13101  -1.13071  -1.13065
  Beta  occ. eigenvalues --   -1.13030  -1.12954  -1.12886  -1.12853  -1.12659
  Beta  occ. eigenvalues --   -1.12621  -1.12587  -1.12533  -1.12473  -1.12449
  Beta  occ. eigenvalues --   -0.18468  -0.13459  -0.11646
  Beta virt. eigenvalues --   -0.07021  -0.06173  -0.05220  -0.03707  -0.02732
  Beta virt. eigenvalues --   -0.01912  -0.01848  -0.01488  -0.01044  -0.00201
  Beta virt. eigenvalues --    0.00069   0.00105   0.00347   0.00798   0.00888

 Mulliken charges and spin densities:
               1          2
     1  Na  -0.068950  -0.006107
     2  Na   0.161102  -0.066729
     3  Na  -0.488351   0.581659
     4  Na   0.103119  -0.121162
     5  Na  -0.645380   0.675103
     6  Na   0.568313   0.016762
     7  Na   0.370147  -0.079526
 Sum of Mulliken charges =  -0.00000   1.00000

 Dipole moment (field-independent basis, Debye):
    X=              0.3609    Y=              0.1988    Z=             -0.1686  Tot=              0.4452
 Quadrupole moment (field-independent basis, Debye-Ang):
   XX=            -50.4133   YY=            -69.3437   ZZ=            -73.2844
   XY=             -0.0526   XZ=             -0.0939   YZ=              0.2674

 Normal termination of Gaussian 16 at Thu Dec  7 02:57:45 2023.
