 Gaussian 16, Revision B.01,
 Gaussian 16:  ES64L-G16RevB.01 20-Dec-2017

 -------------------------
 #P B3LYP/6-311+g(d) force
 -------------------------

 -----
 DPGEN
 -----
 Symbolic Z-matrix:
 Charge =  0 Multiplicity = 2

                         Standard orientation:
 ---------------------------------------------------------------------
 Center     Atomic      Atomic             Coordinates (Angstroms)
 Number     Number       Type             X           Y           Z
 ---------------------------------------------------------------------
      1         11           0       -0.542475    0.566108    2.068166
      2         11           0        0.119305    0.531441   -1.564567
      3         11           0        2.187290   -2.393399   -0.212358
      4         11           0        0.211053    3.201454   -0.434286
      5         11           0       -3.718231    0.083825   -0.140841
      6         11           0       -1.243781   -2.613531   -0.116564
      7         11           0        2.986839    0.624103    0.400449
 ---------------------------------------------------------------------

 SCF Done:  E(UB3LYP) =  -1136.12807802     A.U. after   21 cycles

 The electronic state is 2-A.
 Alpha  occ. eigenvalues --  -38.44994 -38.44343 -38.43846 -38.43792 -38.43755
 Alpha  occ. eigenvalues --  -38.43361 -38.43360  -2.20739  -2.20181  -2.19654
 Alpha  occ. eigenvalues --   -2.19626  -2.19614  -2.19311  -2.19195  -1.14413
 Alpha  occ. eigenvalues --   -1.14399  -1.14375  -1.13869  -1.13844  -1.13810
 Alpha  occ. eigenvalues --   -1.13422  -1.13338  -1.13336  -1.13295  -1.13276
 Alpha  occ. eigenvalues --   -1.13272  -1.13240  -1.13232  -1.13225  -1.12972
 Alpha  occ. eigenvalues --   -1.12930  -1.12919  -1.12867  -1.12851  -1.12844
 Alpha  occ. eigenvalues --   -0.18014  -0.12894  -0.12539  -0.10431
 Alpha virt. eigenvalues --   -0.06463  -0.05050  -0.04879  -0.03133  -0.02836
 Alpha virt. eigenvalues --   -0.02429  -0.02068  -0.01241  -0.00712  -0.00449
 Alpha virt. eigenvalues --   -0.00038   0.00295   0.00683   0.00711   0.00807

  Beta  occ. eigenvalues --  -38.44999 -38.44331 -38.43840 -38.43740 -38.43702
  Beta  occ. eigenvalues --  -38.43360 -38.43301  -2.20749  -2.20160  -2.19645
  Beta  occ. eigenvalues --   -2.19590  -2.19460  -2.19204  -2.19197  -1.14408
  Beta  occ. eigenvalues --   -1.14408  -1.14383  -1.13858  -1.13807  -1.13801
  Beta  occ. eigenvalues --   -1.13386  -1.13333  -1.13314  -1.13272  -1.13222
  Beta  occ. eigenvalues --   -1.13208  -1.13181  -1.13149  -1.13111  -1.12895
  Beta  occ. eigenvalues --   -1.12872  -1.12856  -1.12847  -1.12844  -1.12834
  Beta  occ. eigenvalues --   -0.17352  -0.12740  -0.12275
  Beta virt. eigenvalues --   -0.06648  -0.06328  -0.04927  -0.04842  -0.02452
  Beta virt. eigenvalues --   -0.02183  -0.01991  -0.01378  -0.01161  -0.00733
  Beta virt. eigenvalues --   -0.00445   0.00132   0.00344   0.00713   0.00808

 Mulliken charges and spin densities:
               1          2
     1  Na  -0.316895   0.605563
     2  Na  -0.014353   0.323134
     3  Na  -0.146884  -0.053874
     4  Na   0.199341  -0.017644
     5  Na   0.089758  -0.072078
     6  Na  -0.011346   0.038082
     7  Na   0.200380   0.176816
 Sum of Mulliken charges =  -0.00000   1.00000

 Dipole moment (field-independent basis, Debye):
    X=             -0.5858    Y=              0.3318    Z=              0.1220  Tot=              0.6842
 Quadrupole moment (field-independent basis, Debye-Ang):
   XX=            -54.5156   YY=            -62.6763   ZZ=            -76.3228
   XY=             -0.2083   XZ=              1.5690   YZ=              0.4452

 Normal termination of Gaussian 16 at Thu Dec  7 19:29:04 2023.
