 Gaussian 16, Revision B.01,
 Gaussian 16:  ES64L-G16RevB.01 20-Dec-2017

 -------------------------
 #P B3LYP/6-311+g(d) force
 -------------------------

 -----
 DPGEN
 -----
 Symbolic Z-matrix:
 Charge =  0 Multiplicity = 2

                         Standard orientation:
 ---------------------------------------------------------------------
 Center     Atomic      Atomic             Coordinates (Angstroms)
 Number     Number       Type             X           Y           Z
 ---------------------------------------------------------------------
      1         11           0        0.384117    0.226090    1.805986
      2         11           0       -0.689374   -2.808577    0.531582
      3         11           0       -1.493626    2.413800    0.175229
      4         11           0       -3.107882   -0.364769   -0.526178
      5         11           0        2.696326   -1.391165   -0.299772
      6         11           0        0.330066   -0.374561   -1.470264
      7         11           0        1.880372    2.299182   -0.216583
 ---------------------------------------------------------------------

 SCF Done:  E(UB3LYP) =  -1136.13423601     A.U. after   19 cycles

 The electronic state is 2-A.
 Alpha  occ. eigenvalues --  -38.44005 -38.43654 -38.43653 -38.43631 -38.43409
 Alpha  occ. eigenvalues --  -38.43151 -38.43075  -2.19905  -2.19537  -2.19507
 Alpha  occ. eigenvalues --   -2.19465  -2.19291  -2.19140  -2.19135  -1.13714
 Alpha  occ. eigenvalues --   -1.13543  -1.13497  -1.13234  -1.13215  -1.13197
 Alpha  occ. eigenvalues --   -1.13179  -1.13163  -1.13148  -1.13137  -1.13130
 Alpha  occ. eigenvalues --   -1.13092  -1.12987  -1.12950  -1.12914  -1.12856
 Alpha  occ. eigenvalues --   -1.12779  -1.12763  -1.12757  -1.12738  -1.12735
 Alpha  occ. eigenvalues --   -0.19071  -0.13020  -0.12832  -0.10631
 Alpha virt. eigenvalues --   -0.05461  -0.05110  -0.04830  -0.03038  -0.02983
 Alpha virt. eigenvalues --   -0.02209  -0.01383  -0.01253  -0.00347  -0.00144
 Alpha virt. eigenvalues --    0.00058   0.00348   0.00855   0.00898   0.00907

  Beta  occ. eigenvalues --  -38.43993 -38.43647 -38.43638 -38.43621 -38.43404
  Beta  occ. eigenvalues --  -38.43067 -38.43017  -2.19886  -2.19529  -2.19483
  Beta  occ. eigenvalues --   -2.19448  -2.19286  -2.19036  -2.18980  -1.13690
  Beta  occ. eigenvalues --   -1.13515  -1.13480  -1.13230  -1.13189  -1.13183
  Beta  occ. eigenvalues --   -1.13150  -1.13139  -1.13139  -1.13124  -1.13106
  Beta  occ. eigenvalues --   -1.13080  -1.12973  -1.12936  -1.12904  -1.12773
  Beta  occ. eigenvalues --   -1.12702  -1.12676  -1.12659  -1.12652  -1.12621
  Beta  occ. eigenvalues --   -0.18375  -0.12720  -0.12579
  Beta virt. eigenvalues --   -0.06754  -0.05410  -0.05050  -0.04790  -0.02275
  Beta virt. eigenvalues --   -0.02250  -0.01297  -0.01211  -0.01171  -0.00326
  Beta virt. eigenvalues --   -0.00183   0.00168   0.00387   0.00860   0.00900

 Mulliken charges and spin densities:
               1          2
     1  Na  -0.132670   0.529283
     2  Na   0.045586   0.085101
     3  Na   0.038534   0.023479
     4  Na  -0.020421  -0.006516
     5  Na   0.368376  -0.021664
     6  Na  -0.429274   0.441398
     7  Na   0.129870  -0.051082
 Sum of Mulliken charges =  -0.00000   1.00000

 Dipole moment (field-independent basis, Debye):
    X=              0.2155    Y=             -0.0925    Z=              0.1440  Tot=              0.2752
 Quadrupole moment (field-independent basis, Debye-Ang):
   XX=            -57.7510   YY=            -60.1216   ZZ=            -74.8828
   XY=              0.5248   XZ=              0.0981   YZ=             -1.3405

 Normal termination of Gaussian 16 at Tue Dec  5 19:06:32 2023.
