 Gaussian 16, Revision B.01,
 Gaussian 16:  ES64L-G16RevB.01 20-Dec-2017

 -------------------------
 #P B3LYP/6-311+g(d) force
 -------------------------

 -----
 DPGEN
 -----
 Symbolic Z-matrix:
 Charge =  0 Multiplicity = 2

                         Standard orientation:
 ---------------------------------------------------------------------
 Center     Atomic      Atomic             Coordinates (Angstroms)
 Number     Number       Type             X           Y           Z
 ---------------------------------------------------------------------
      1         11           0       -0.243374   -1.895697   -0.869114
      2         11           0       -0.304854    1.897892    0.961886
      3         11           0       -2.579417    0.115044   -0.144514
      4         11           0       -0.383625    0.529590   -1.492414
      5         11           0       -0.524299   -0.724012    1.543286
      6         11           0        1.979307   -1.024260    0.729086
      7         11           0        2.056262    1.101442   -0.728214
 ---------------------------------------------------------------------

 SCF Done:  E(UB3LYP) =  -1136.04406136     A.U. after   21 cycles

 The electronic state is 2-A.
 Alpha  occ. eigenvalues --  -38.45242 -38.44812 -38.44483 -38.44433 -38.44170
 Alpha  occ. eigenvalues --  -38.43946 -38.43500  -2.21711  -2.21190  -2.20674
 Alpha  occ. eigenvalues --   -2.20565  -2.20308  -2.20178  -2.19667  -1.15684
 Alpha  occ. eigenvalues --   -1.15546  -1.15398  -1.15119  -1.14932  -1.14907
 Alpha  occ. eigenvalues --   -1.14771  -1.14300  -1.14237  -1.14198  -1.14115
 Alpha  occ. eigenvalues --   -1.13968  -1.13929  -1.13882  -1.13845  -1.13791
 Alpha  occ. eigenvalues --   -1.13755  -1.13629  -1.13376  -1.13302  -1.13196
 Alpha  occ. eigenvalues --   -0.22191  -0.14036  -0.13081  -0.12613
 Alpha virt. eigenvalues --   -0.05246  -0.04093  -0.03954  -0.03845  -0.03306
 Alpha virt. eigenvalues --   -0.03107  -0.01022  -0.00303  -0.00184   0.00320
 Alpha virt. eigenvalues --    0.00868   0.01066   0.01084   0.01270   0.01311

  Beta  occ. eigenvalues --  -38.45155 -38.44730 -38.44463 -38.44410 -38.44159
  Beta  occ. eigenvalues --  -38.43914 -38.43466  -2.21558  -2.21045  -2.20640
  Beta  occ. eigenvalues --   -2.20530  -2.20292  -2.20124  -2.19612  -1.15574
  Beta  occ. eigenvalues --   -1.15444  -1.15285  -1.15026  -1.14844  -1.14792
  Beta  occ. eigenvalues --   -1.14740  -1.14262  -1.14205  -1.14147  -1.14068
  Beta  occ. eigenvalues --   -1.13945  -1.13879  -1.13856  -1.13831  -1.13758
  Beta  occ. eigenvalues --   -1.13667  -1.13599  -1.13343  -1.13220  -1.13163
  Beta  occ. eigenvalues --   -0.21385  -0.13697  -0.12399
  Beta virt. eigenvalues --   -0.08590  -0.05246  -0.03851  -0.03688  -0.03117
  Beta virt. eigenvalues --   -0.02486  -0.02019  -0.00978  -0.00280  -0.00006
  Beta virt. eigenvalues --    0.00348   0.00887   0.01117   0.01123   0.01324

 Mulliken charges and spin densities:
               1          2
     1  Na   0.481324   0.212072
     2  Na   0.331519   0.240928
     3  Na   0.085048  -0.082226
     4  Na  -0.600648   0.275277
     5  Na  -0.574713   0.335599
     6  Na   0.069737   0.033132
     7  Na   0.207732  -0.014782
 Sum of Mulliken charges =  -0.00000   1.00000

 Dipole moment (field-independent basis, Debye):
    X=             -0.0186    Y=              0.1389    Z=              0.1761  Tot=              0.2250
 Quadrupole moment (field-independent basis, Debye-Ang):
   XX=            -60.7661   YY=            -72.3929   ZZ=            -65.8307
   XY=              0.0359   XZ=              0.0671   YZ=              0.8269

 Normal termination of Gaussian 16 at Fri Dec  8 19:38:43 2023.
