 Gaussian 16, Revision B.01,
 Gaussian 16:  ES64L-G16RevB.01 20-Dec-2017

 -------------------------
 #P B3LYP/6-311+g(d) force
 -------------------------

 -----
 DPGEN
 -----
 Symbolic Z-matrix:
 Charge =  0 Multiplicity = 2

                         Standard orientation:
 ---------------------------------------------------------------------
 Center     Atomic      Atomic             Coordinates (Angstroms)
 Number     Number       Type             X           Y           Z
 ---------------------------------------------------------------------
      1         11           0       -0.460863    2.974956    1.229240
      2         11           0        3.335828   -1.035325   -0.104076
      3         11           0       -2.770572    1.405572   -0.718474
      4         11           0       -1.337694   -0.923996    1.917861
      5         11           0        0.645140   -2.927089    0.667853
      6         11           0        2.567387    2.281383   -1.070002
      7         11           0       -1.979226   -1.775501   -1.922402
 ---------------------------------------------------------------------

 SCF Done:  E(UB3LYP) =  -1136.11994015     A.U. after   19 cycles

 The electronic state is 2-A.
 Alpha  occ. eigenvalues --  -38.44538 -38.44521 -38.44437 -38.44313 -38.44199
 Alpha  occ. eigenvalues --  -38.44198 -38.43715  -2.20357  -2.20342  -2.20241
 Alpha  occ. eigenvalues --   -2.20062  -2.19980  -2.19969  -2.19563  -1.14052
 Alpha  occ. eigenvalues --   -1.14004  -1.13999  -1.13991  -1.13983  -1.13954
 Alpha  occ. eigenvalues --   -1.13917  -1.13899  -1.13883  -1.13739  -1.13724
 Alpha  occ. eigenvalues --   -1.13703  -1.13650  -1.13645  -1.13639  -1.13635
 Alpha  occ. eigenvalues --   -1.13608  -1.13605  -1.13252  -1.13208  -1.13193
 Alpha  occ. eigenvalues --   -0.16905  -0.13028  -0.12777  -0.11064
 Alpha virt. eigenvalues --   -0.06413  -0.05807  -0.04465  -0.03786  -0.03396
 Alpha virt. eigenvalues --   -0.02458  -0.01242  -0.01060  -0.01027  -0.00729
 Alpha virt. eigenvalues --   -0.00408   0.00005   0.00087   0.00466   0.00711

  Beta  occ. eigenvalues --  -38.44466 -38.44456 -38.44421 -38.44302 -38.44198
  Beta  occ. eigenvalues --  -38.44177 -38.43702  -2.20257  -2.20217  -2.20190
  Beta  occ. eigenvalues --   -2.20041  -2.19969  -2.19941  -2.19541  -1.13982
  Beta  occ. eigenvalues --   -1.13927  -1.13920  -1.13909  -1.13896  -1.13892
  Beta  occ. eigenvalues --   -1.13872  -1.13850  -1.13825  -1.13724  -1.13711
  Beta  occ. eigenvalues --   -1.13687  -1.13645  -1.13637  -1.13623  -1.13610
  Beta  occ. eigenvalues --   -1.13599  -1.13578  -1.13224  -1.13191  -1.13181
  Beta  occ. eigenvalues --   -0.16299  -0.12782  -0.12385
  Beta virt. eigenvalues --   -0.07453  -0.06383  -0.05539  -0.03873  -0.03558
  Beta virt. eigenvalues --   -0.02802  -0.01850  -0.01193  -0.00962  -0.00950
  Beta virt. eigenvalues --   -0.00632  -0.00099   0.00204   0.00293   0.00561

 Mulliken charges and spin densities:
               1          2
     1  Na  -0.160597   0.094333
     2  Na  -0.028924  -0.049246
     3  Na   0.054473   0.085395
     4  Na   0.195507   0.226530
     5  Na   0.017345   0.165341
     6  Na  -0.069824   0.088937
     7  Na  -0.007980   0.388711
 Sum of Mulliken charges =  -0.00000   1.00000

 Dipole moment (field-independent basis, Debye):
    X=             -0.3408    Y=              0.0959    Z=             -0.1075  Tot=              0.3700
 Quadrupole moment (field-independent basis, Debye-Ang):
   XX=            -68.1607   YY=            -63.1544   ZZ=            -69.2038
   XY=             -1.9359   XZ=             -0.4496   YZ=              0.8493

 Normal termination of Gaussian 16 at Sun Dec  3 13:12:59 2023.
