 Gaussian 16, Revision B.01,
 Gaussian 16:  ES64L-G16RevB.01 20-Dec-2017

 -------------------------
 #P B3LYP/6-311+g(d) force
 -------------------------

 -----
 DPGEN
 -----
 Symbolic Z-matrix:
 Charge =  0 Multiplicity = 2

                         Standard orientation:
 ---------------------------------------------------------------------
 Center     Atomic      Atomic             Coordinates (Angstroms)
 Number     Number       Type             X           Y           Z
 ---------------------------------------------------------------------
      1         11           0        2.471801    1.410504   -0.505154
      2         11           0        0.365381   -0.546426   -1.994614
      3         11           0       -1.260285    2.351360   -0.604439
      4         11           0        2.639470   -1.995871    0.209897
      5         11           0       -3.286080   -0.694479   -0.310901
      6         11           0        0.344026    1.231730    2.301402
      7         11           0       -1.274312   -1.756817    0.903809
 ---------------------------------------------------------------------

 SCF Done:  E(UB3LYP) =  -1136.12240172     A.U. after   20 cycles

 The electronic state is 2-A.
 Alpha  occ. eigenvalues --  -38.44604 -38.44165 -38.44116 -38.44077 -38.43837
 Alpha  occ. eigenvalues --  -38.43735 -38.43308  -2.20508  -2.20064  -2.19956
 Alpha  occ. eigenvalues --   -2.19932  -2.19780  -2.19538  -2.19136  -1.14530
 Alpha  occ. eigenvalues --   -1.14104  -1.14088  -1.13769  -1.13724  -1.13679
 Alpha  occ. eigenvalues --   -1.13627  -1.13613  -1.13600  -1.13580  -1.13567
 Alpha  occ. eigenvalues --   -1.13532  -1.13389  -1.13380  -1.13353  -1.13203
 Alpha  occ. eigenvalues --   -1.13192  -1.13188  -1.12818  -1.12802  -1.12763
 Alpha  occ. eigenvalues --   -0.18449  -0.13354  -0.11726  -0.11644
 Alpha virt. eigenvalues --   -0.05812  -0.05322  -0.03973  -0.03638  -0.03487
 Alpha virt. eigenvalues --   -0.02926  -0.01543  -0.01038  -0.00303  -0.00066
 Alpha virt. eigenvalues --    0.00207   0.00375   0.00518   0.00696   0.00870

  Beta  occ. eigenvalues --  -38.44605 -38.44102 -38.44070 -38.44034 -38.43813
  Beta  occ. eigenvalues --  -38.43734 -38.43295  -2.20511  -2.19949  -2.19922
  Beta  occ. eigenvalues --   -2.19803  -2.19739  -2.19538  -2.19116  -1.14526
  Beta  occ. eigenvalues --   -1.14098  -1.14088  -1.13706  -1.13645  -1.13597
  Beta  occ. eigenvalues --   -1.13588  -1.13563  -1.13535  -1.13507  -1.13481
  Beta  occ. eigenvalues --   -1.13461  -1.13364  -1.13337  -1.13324  -1.13199
  Beta  occ. eigenvalues --   -1.13189  -1.13184  -1.12799  -1.12774  -1.12750
  Beta  occ. eigenvalues --   -0.17672  -0.13188  -0.11551
  Beta virt. eigenvalues --   -0.07679  -0.05670  -0.05208  -0.03483  -0.03153
  Beta virt. eigenvalues --   -0.02922  -0.02003  -0.01472  -0.00951  -0.00129
  Beta virt. eigenvalues --   -0.00028   0.00220   0.00409   0.00715   0.00809

 Mulliken charges and spin densities:
               1          2
     1  Na   0.245995  -0.055561
     2  Na  -0.264900   0.577333
     3  Na   0.014015  -0.019405
     4  Na   0.118015  -0.044711
     5  Na   0.223073  -0.031525
     6  Na  -0.259342   0.449434
     7  Na  -0.076855   0.124435
 Sum of Mulliken charges =  -0.00000   1.00000

 Dipole moment (field-independent basis, Debye):
    X=              0.2555    Y=              0.2322    Z=             -0.1050  Tot=              0.3609
 Quadrupole moment (field-independent basis, Debye-Ang):
   XX=            -57.6375   YY=            -71.9018   ZZ=            -67.4795
   XY=             -1.1832   XZ=              2.4017   YZ=             -1.8957

 Normal termination of Gaussian 16 at Thu Dec  7 22:49:40 2023.
