 Gaussian 16, Revision B.01,
 Gaussian 16:  ES64L-G16RevB.01 20-Dec-2017

 -------------------------
 #P B3LYP/6-311+g(d) force
 -------------------------

 -----
 DPGEN
 -----
 Symbolic Z-matrix:
 Charge =  0 Multiplicity = 2

                         Standard orientation:
 ---------------------------------------------------------------------
 Center     Atomic      Atomic             Coordinates (Angstroms)
 Number     Number       Type             X           Y           Z
 ---------------------------------------------------------------------
      1         11           0       -0.266127   -0.457798   -1.773877
      2         11           0        0.931589    2.926906    0.132759
      3         11           0       -2.381356    1.678584   -0.275212
      4         11           0        2.841961   -0.012210   -0.455404
      5         11           0       -2.625594   -1.618046    0.310204
      6         11           0        1.164706   -2.677414    0.201637
      7         11           0        0.334821    0.159979    1.859893
 ---------------------------------------------------------------------

 SCF Done:  E(UB3LYP) =  -1136.13981022     A.U. after   18 cycles

 The electronic state is 2-A.
 Alpha  occ. eigenvalues --  -38.43763 -38.43668 -38.43642 -38.43480 -38.43329
 Alpha  occ. eigenvalues --  -38.43324 -38.43286  -2.19603  -2.19537  -2.19524
 Alpha  occ. eigenvalues --   -2.19368  -2.19267  -2.19248  -2.19168  -1.13293
 Alpha  occ. eigenvalues --   -1.13274  -1.13248  -1.13242  -1.13216  -1.13209
 Alpha  occ. eigenvalues --   -1.13182  -1.13179  -1.13141  -1.13056  -1.13042
 Alpha  occ. eigenvalues --   -1.12988  -1.12950  -1.12915  -1.12908  -1.12889
 Alpha  occ. eigenvalues --   -1.12874  -1.12863  -1.12826  -1.12812  -1.12809
 Alpha  occ. eigenvalues --   -0.18873  -0.13098  -0.12562  -0.10813
 Alpha virt. eigenvalues --   -0.05273  -0.05142  -0.04869  -0.03280  -0.02973
 Alpha virt. eigenvalues --   -0.02491  -0.01288  -0.01148  -0.00278  -0.00226
 Alpha virt. eigenvalues --    0.00018   0.00376   0.00876   0.00889   0.00904

  Beta  occ. eigenvalues --  -38.43757 -38.43662 -38.43629 -38.43472 -38.43327
  Beta  occ. eigenvalues --  -38.43244 -38.43215  -2.19596  -2.19517  -2.19516
  Beta  occ. eigenvalues --   -2.19358  -2.19168  -2.19122  -2.19116  -1.13289
  Beta  occ. eigenvalues --   -1.13261  -1.13233  -1.13231  -1.13200  -1.13180
  Beta  occ. eigenvalues --   -1.13164  -1.13152  -1.13139  -1.13046  -1.13006
  Beta  occ. eigenvalues --   -1.12977  -1.12878  -1.12840  -1.12820  -1.12815
  Beta  occ. eigenvalues --   -1.12809  -1.12786  -1.12784  -1.12767  -1.12753
  Beta  occ. eigenvalues --   -0.18133  -0.12850  -0.12333
  Beta virt. eigenvalues --   -0.06897  -0.05253  -0.05114  -0.04807  -0.02481
  Beta virt. eigenvalues --   -0.02221  -0.01459  -0.01202  -0.01068  -0.00294
  Beta virt. eigenvalues --   -0.00271   0.00138   0.00400   0.00886   0.00903

 Mulliken charges and spin densities:
               1          2
     1  Na  -0.175991   0.506798
     2  Na   0.045207  -0.079064
     3  Na   0.048084  -0.074369
     4  Na   0.193348   0.015820
     5  Na   0.045072  -0.053580
     6  Na   0.208272  -0.041016
     7  Na  -0.363992   0.725411
 Sum of Mulliken charges =  -0.00000   1.00000

 Dipole moment (field-independent basis, Debye):
    X=             -0.1297    Y=             -0.1152    Z=              0.0288  Tot=              0.1759
 Quadrupole moment (field-independent basis, Debye-Ang):
   XX=            -59.3020   YY=            -60.8511   ZZ=            -73.6964
   XY=              0.3530   XZ=             -1.3942   YZ=             -1.5975

 Normal termination of Gaussian 16 at Thu Dec  7 06:34:44 2023.
