 Gaussian 16, Revision B.01,
 Gaussian 16:  ES64L-G16RevB.01 20-Dec-2017

 -------------------------
 #P B3LYP/6-311+g(d) force
 -------------------------

 -----
 DPGEN
 -----
 Symbolic Z-matrix:
 Charge =  0 Multiplicity = 2

                         Standard orientation:
 ---------------------------------------------------------------------
 Center     Atomic      Atomic             Coordinates (Angstroms)
 Number     Number       Type             X           Y           Z
 ---------------------------------------------------------------------
      1         11           0        2.094613    1.902990    0.236235
      2         11           0        2.591804   -1.539922   -0.560109
      3         11           0       -1.162549    2.539699   -0.341501
      4         11           0       -0.336016   -2.589747    0.307444
      5         11           0        0.014742    0.207523    2.129068
      6         11           0       -3.182577   -0.655797   -0.188557
      7         11           0       -0.020018    0.135254   -1.582580
 ---------------------------------------------------------------------

 SCF Done:  E(UB3LYP) =  -1136.13589978     A.U. after   19 cycles

 The electronic state is 2-A.
 Alpha  occ. eigenvalues --  -38.43874 -38.43846 -38.43493 -38.43453 -38.43420
 Alpha  occ. eigenvalues --  -38.43207 -38.43148  -2.19789  -2.19656  -2.19399
 Alpha  occ. eigenvalues --   -2.19354  -2.19294  -2.19262  -2.19057  -1.13457
 Alpha  occ. eigenvalues --   -1.13427  -1.13406  -1.13333  -1.13311  -1.13303
 Alpha  occ. eigenvalues --   -1.13235  -1.13070  -1.13040  -1.13026  -1.13018
 Alpha  occ. eigenvalues --   -1.13002  -1.12961  -1.12951  -1.12924  -1.12912
 Alpha  occ. eigenvalues --   -1.12866  -1.12839  -1.12738  -1.12719  -1.12666
 Alpha  occ. eigenvalues --   -0.19098  -0.12778  -0.12769  -0.11210
 Alpha virt. eigenvalues --   -0.05375  -0.04874  -0.04538  -0.03203  -0.03077
 Alpha virt. eigenvalues --   -0.02838  -0.01418  -0.01017  -0.00150   0.00005
 Alpha virt. eigenvalues --    0.00097   0.00353   0.00873   0.00914   0.00969

  Beta  occ. eigenvalues --  -38.43847 -38.43772 -38.43482 -38.43444 -38.43409
  Beta  occ. eigenvalues --  -38.43144 -38.43139  -2.19660  -2.19601  -2.19384
  Beta  occ. eigenvalues --   -2.19341  -2.19276  -2.19150  -2.19045  -1.13337
  Beta  occ. eigenvalues --   -1.13329  -1.13310  -1.13304  -1.13288  -1.13275
  Beta  occ. eigenvalues --   -1.13201  -1.13051  -1.13016  -1.13010  -1.12987
  Beta  occ. eigenvalues --   -1.12978  -1.12952  -1.12931  -1.12906  -1.12847
  Beta  occ. eigenvalues --   -1.12803  -1.12764  -1.12723  -1.12683  -1.12661
  Beta  occ. eigenvalues --   -0.18353  -0.12535  -0.12494
  Beta virt. eigenvalues --   -0.07223  -0.05347  -0.04841  -0.04505  -0.02363
  Beta virt. eigenvalues --   -0.02341  -0.01743  -0.01343  -0.00950  -0.00105
  Beta virt. eigenvalues --   -0.00005   0.00140   0.00372   0.00903   0.00930

 Mulliken charges and spin densities:
               1          2
     1  Na   0.358639   0.086420
     2  Na   0.099314  -0.000282
     3  Na   0.245467  -0.048437
     4  Na   0.244395   0.083155
     5  Na  -0.476913   0.592875
     6  Na  -0.024741  -0.074235
     7  Na  -0.446160   0.360503
 Sum of Mulliken charges =  -0.00000   1.00000

 Dipole moment (field-independent basis, Debye):
    X=             -0.1567    Y=              0.1332    Z=              0.2350  Tot=              0.3123
 Quadrupole moment (field-independent basis, Debye-Ang):
   XX=            -57.6631   YY=            -64.1487   ZZ=            -72.2165
   XY=              0.0595   XZ=             -0.2362   YZ=              0.0871

 Normal termination of Gaussian 16 at Thu Dec  7 04:44:16 2023.
