 Gaussian 16, Revision B.01,
 Gaussian 16:  ES64L-G16RevB.01 20-Dec-2017

 -------------------------
 #P B3LYP/6-311+g(d) force
 -------------------------

 -----
 DPGEN
 -----
 Symbolic Z-matrix:
 Charge =  0 Multiplicity = 2

                         Standard orientation:
 ---------------------------------------------------------------------
 Center     Atomic      Atomic             Coordinates (Angstroms)
 Number     Number       Type             X           Y           Z
 ---------------------------------------------------------------------
      1         11           0       -0.372985   -0.447505    2.094242
      2         11           0        0.636453   -0.571865   -1.889793
      3         11           0       -0.987769   -2.978484    0.063758
      4         11           0        2.001799    2.010577    0.594499
      5         11           0       -1.078105    2.724079   -0.455932
      6         11           0        3.242688   -0.952772   -0.154814
      7         11           0       -3.442081    0.215970   -0.251960
 ---------------------------------------------------------------------

 SCF Done:  E(UB3LYP) =  -1136.12979472     A.U. after   20 cycles

 The electronic state is 2-A.
 Alpha  occ. eigenvalues --  -38.44802 -38.44466 -38.43970 -38.43921 -38.43677
 Alpha  occ. eigenvalues --  -38.43498 -38.43168  -2.20567  -2.20295  -2.19821
 Alpha  occ. eigenvalues --   -2.19796  -2.19487  -2.19356  -2.18989  -1.14245
 Alpha  occ. eigenvalues --   -1.14226  -1.14199  -1.13996  -1.13953  -1.13930
 Alpha  occ. eigenvalues --   -1.13488  -1.13459  -1.13457  -1.13445  -1.13433
 Alpha  occ. eigenvalues --   -1.13425  -1.13163  -1.13151  -1.13114  -1.13030
 Alpha  occ. eigenvalues --   -1.13020  -1.12999  -1.12661  -1.12649  -1.12637
 Alpha  occ. eigenvalues --   -0.17941  -0.13054  -0.12227  -0.10885
 Alpha virt. eigenvalues --   -0.06371  -0.05071  -0.04489  -0.03498  -0.03076
 Alpha virt. eigenvalues --   -0.02709  -0.01889  -0.01018  -0.00625  -0.00254
 Alpha virt. eigenvalues --   -0.00087   0.00324   0.00616   0.00748   0.00799

  Beta  occ. eigenvalues --  -38.44796 -38.44462 -38.43882 -38.43856 -38.43673
  Beta  occ. eigenvalues --  -38.43484 -38.43163  -2.20557  -2.20292  -2.19675
  Beta  occ. eigenvalues --   -2.19658  -2.19483  -2.19331  -2.18982  -1.14232
  Beta  occ. eigenvalues --   -1.14218  -1.14193  -1.13984  -1.13943  -1.13926
  Beta  occ. eigenvalues --   -1.13387  -1.13373  -1.13345  -1.13343  -1.13341
  Beta  occ. eigenvalues --   -1.13329  -1.13150  -1.13134  -1.13113  -1.13017
  Beta  occ. eigenvalues --   -1.12997  -1.12971  -1.12656  -1.12639  -1.12626
  Beta  occ. eigenvalues --   -0.17247  -0.12837  -0.11981
  Beta virt. eigenvalues --   -0.07109  -0.06304  -0.04903  -0.04399  -0.02775
  Beta virt. eigenvalues --   -0.02357  -0.01856  -0.01741  -0.00933  -0.00660
  Beta virt. eigenvalues --   -0.00242   0.00073   0.00380   0.00736   0.00762

 Mulliken charges and spin densities:
               1          2
     1  Na  -0.035743   0.541851
     2  Na  -0.013250   0.561313
     3  Na  -0.009824  -0.167751
     4  Na  -0.097385   0.151180
     5  Na  -0.111173  -0.003960
     6  Na   0.293076  -0.078371
     7  Na  -0.025701  -0.004262
 Sum of Mulliken charges =  -0.00000   1.00000

 Dipole moment (field-independent basis, Debye):
    X=             -0.0718    Y=             -0.5282    Z=              0.0190  Tot=              0.5334
 Quadrupole moment (field-independent basis, Debye-Ang):
   XX=            -55.5401   YY=            -66.9748   ZZ=            -72.9555
   XY=              0.3210   XZ=              1.9398   YZ=              0.1388

 Normal termination of Gaussian 16 at Sun Dec  3 17:17:14 2023.
