 Gaussian 16, Revision B.01,
 Gaussian 16:  ES64L-G16RevB.01 20-Dec-2017

 -------------------------
 #P B3LYP/6-311+g(d) force
 -------------------------

 -----
 DPGEN
 -----
 Symbolic Z-matrix:
 Charge =  0 Multiplicity = 2

                         Standard orientation:
 ---------------------------------------------------------------------
 Center     Atomic      Atomic             Coordinates (Angstroms)
 Number     Number       Type             X           Y           Z
 ---------------------------------------------------------------------
      1         11           0       -0.375562   -2.631583    0.149565
      2         11           0       -1.400832    2.677936    0.259109
      3         11           0        2.595709   -1.560792   -0.187913
      4         11           0       -3.334711   -0.545222   -0.486813
      5         11           0        0.245481    0.389928   -1.393773
      6         11           0       -0.277352   -0.229144    1.629368
      7         11           0        2.547268    1.898877    0.030456
 ---------------------------------------------------------------------

 SCF Done:  E(UB3LYP) =  -1136.12860060     A.U. after   21 cycles

 The electronic state is 2-A.
 Alpha  occ. eigenvalues --  -38.44352 -38.44058 -38.43842 -38.43734 -38.43210
 Alpha  occ. eigenvalues --  -38.42985 -38.42948  -2.20148  -2.19902  -2.19678
 Alpha  occ. eigenvalues --   -2.19630  -2.19172  -2.19038  -2.18986  -1.13818
 Alpha  occ. eigenvalues --   -1.13798  -1.13783  -1.13613  -1.13561  -1.13526
 Alpha  occ. eigenvalues --   -1.13370  -1.13353  -1.13330  -1.13291  -1.13283
 Alpha  occ. eigenvalues --   -1.13273  -1.13063  -1.12835  -1.12783  -1.12764
 Alpha  occ. eigenvalues --   -1.12663  -1.12646  -1.12614  -1.12553  -1.12550
 Alpha  occ. eigenvalues --   -0.19044  -0.13233  -0.12668  -0.10108
 Alpha virt. eigenvalues --   -0.05967  -0.05377  -0.04575  -0.02992  -0.02663
 Alpha virt. eigenvalues --   -0.01916  -0.01704  -0.01308  -0.00517  -0.00240
 Alpha virt. eigenvalues --    0.00045   0.00303   0.00761   0.00800   0.00894

  Beta  occ. eigenvalues --  -38.44332 -38.44056 -38.43833 -38.43727 -38.43198
  Beta  occ. eigenvalues --  -38.42938 -38.42866  -2.20112  -2.19901  -2.19665
  Beta  occ. eigenvalues --   -2.19621  -2.19154  -2.18953  -2.18838  -1.13778
  Beta  occ. eigenvalues --   -1.13776  -1.13762  -1.13608  -1.13556  -1.13515
  Beta  occ. eigenvalues --   -1.13363  -1.13326  -1.13323  -1.13282  -1.13275
  Beta  occ. eigenvalues --   -1.13245  -1.13018  -1.12792  -1.12749  -1.12719
  Beta  occ. eigenvalues --   -1.12605  -1.12581  -1.12522  -1.12459  -1.12447
  Beta  occ. eigenvalues --   -0.18374  -0.12933  -0.12397
  Beta virt. eigenvalues --   -0.06360  -0.05807  -0.05350  -0.04550  -0.02304
  Beta virt. eigenvalues --   -0.01916  -0.01735  -0.01250  -0.00818  -0.00537
  Beta virt. eigenvalues --   -0.00261   0.00180   0.00365   0.00797   0.00832

 Mulliken charges and spin densities:
               1          2
     1  Na   0.501996   0.126918
     2  Na   0.008476  -0.051062
     3  Na   0.184247  -0.028058
     4  Na  -0.068067   0.109575
     5  Na  -0.658843   0.479926
     6  Na  -0.222804   0.418157
     7  Na   0.254996  -0.055456
 Sum of Mulliken charges =  -0.00000   1.00000

 Dipole moment (field-independent basis, Debye):
    X=             -0.0769    Y=              0.3787    Z=              0.0750  Tot=              0.3936
 Quadrupole moment (field-independent basis, Debye-Ang):
   XX=            -52.5262   YY=            -61.0939   ZZ=            -77.1308
   XY=             -0.1602   XZ=              1.2621   YZ=              1.5500

 Normal termination of Gaussian 16 at Tue Dec  5 13:48:54 2023.
