 Gaussian 16, Revision B.01,
 Gaussian 16:  ES64L-G16RevB.01 20-Dec-2017

 -------------------------
 #P B3LYP/6-311+g(d) force
 -------------------------

 -----
 DPGEN
 -----
 Symbolic Z-matrix:
 Charge =  0 Multiplicity = 2

                         Standard orientation:
 ---------------------------------------------------------------------
 Center     Atomic      Atomic             Coordinates (Angstroms)
 Number     Number       Type             X           Y           Z
 ---------------------------------------------------------------------
      1         11           0        0.378319   -2.413970   -0.087091
      2         11           0       -2.790866   -1.580709   -0.123127
      3         11           0        0.014418   -0.023575    1.906287
      4         11           0       -1.891491    2.117688    0.229252
      5         11           0        1.350363    2.518114   -0.129900
      6         11           0        3.110431   -0.913713   -0.011108
      7         11           0       -0.171172    0.296166   -1.784314
 ---------------------------------------------------------------------

 SCF Done:  E(UB3LYP) =  -1136.13594890     A.U. after   19 cycles

 The electronic state is 2-A.
 Alpha  occ. eigenvalues --  -38.43767 -38.43630 -38.43616 -38.43528 -38.43500
 Alpha  occ. eigenvalues --  -38.43355 -38.43046  -2.19603  -2.19515  -2.19465
 Alpha  occ. eigenvalues --   -2.19458  -2.19414  -2.19347  -2.19019  -1.13306
 Alpha  occ. eigenvalues --   -1.13258  -1.13255  -1.13240  -1.13207  -1.13166
 Alpha  occ. eigenvalues --   -1.13158  -1.13141  -1.13128  -1.13125  -1.13103
 Alpha  occ. eigenvalues --   -1.13099  -1.13065  -1.13043  -1.13021  -1.13016
 Alpha  occ. eigenvalues --   -1.12969  -1.12937  -1.12701  -1.12680  -1.12621
 Alpha  occ. eigenvalues --   -0.19141  -0.12956  -0.12702  -0.10949
 Alpha virt. eigenvalues --   -0.05332  -0.05206  -0.04488  -0.03198  -0.02947
 Alpha virt. eigenvalues --   -0.02609  -0.01481  -0.01149  -0.00150  -0.00015
 Alpha virt. eigenvalues --    0.00083   0.00349   0.00800   0.00909   0.00962

  Beta  occ. eigenvalues --  -38.43768 -38.43629 -38.43606 -38.43520 -38.43412
  Beta  occ. eigenvalues --  -38.43277 -38.43035  -2.19607  -2.19502  -2.19464
  Beta  occ. eigenvalues --   -2.19405  -2.19297  -2.19205  -2.19003  -1.13311
  Beta  occ. eigenvalues --   -1.13247  -1.13240  -1.13238  -1.13156  -1.13153
  Beta  occ. eigenvalues --   -1.13147  -1.13110  -1.13109  -1.13101  -1.13052
  Beta  occ. eigenvalues --   -1.13044  -1.13015  -1.12976  -1.12937  -1.12928
  Beta  occ. eigenvalues --   -1.12878  -1.12840  -1.12688  -1.12631  -1.12614
  Beta  occ. eigenvalues --   -0.18376  -0.12690  -0.12469
  Beta virt. eigenvalues --   -0.06983  -0.05300  -0.05194  -0.04483  -0.02333
  Beta virt. eigenvalues --   -0.02196  -0.01536  -0.01410  -0.01081  -0.00205
  Beta virt. eigenvalues --    0.00046   0.00114   0.00365   0.00837   0.00913

 Mulliken charges and spin densities:
               1          2
     1  Na   0.244145   0.011135
     2  Na   0.132214  -0.087241
     3  Na  -0.454074   0.683278
     4  Na   0.253607  -0.066232
     5  Na   0.221251  -0.092618
     6  Na   0.013256  -0.105023
     7  Na  -0.410398   0.656700
 Sum of Mulliken charges =  -0.00000   1.00000

 Dipole moment (field-independent basis, Debye):
    X=             -0.0364    Y=              0.2655    Z=              0.0681  Tot=              0.2765
 Quadrupole moment (field-independent basis, Debye-Ang):
   XX=            -56.1097   YY=            -64.0701   ZZ=            -73.3690
   XY=              0.7263   XZ=             -0.3475   YZ=              0.6399

 Normal termination of Gaussian 16 at Thu Dec  7 06:02:57 2023.
