 Gaussian 16, Revision B.01,
 Gaussian 16:  ES64L-G16RevB.01 20-Dec-2017

 -------------------------
 #P B3LYP/6-311+g(d) force
 -------------------------

 -----
 DPGEN
 -----
 Symbolic Z-matrix:
 Charge =  0 Multiplicity = 2

                         Standard orientation:
 ---------------------------------------------------------------------
 Center     Atomic      Atomic             Coordinates (Angstroms)
 Number     Number       Type             X           Y           Z
 ---------------------------------------------------------------------
      1         11           0       -0.211287    0.020216   -1.777017
      2         11           0        2.571935   -1.515433   -0.310892
      3         11           0       -3.069001   -0.393814   -0.328573
      4         11           0       -0.141858    0.111784    1.966223
      5         11           0       -0.762864    2.668438    0.086666
      6         11           0        2.111894    1.647144   -0.022158
      7         11           0       -0.498819   -2.538334    0.385752
 ---------------------------------------------------------------------

 SCF Done:  E(UB3LYP) =  -1136.13597318     A.U. after   17 cycles

 The electronic state is 2-A.
 Alpha  occ. eigenvalues --  -38.43777 -38.43680 -38.43392 -38.43348 -38.43292
 Alpha  occ. eigenvalues --  -38.43257 -38.43238  -2.19657  -2.19629  -2.19402
 Alpha  occ. eigenvalues --   -2.19247  -2.19227  -2.19185  -2.19169  -1.13348
 Alpha  occ. eigenvalues --   -1.13333  -1.13325  -1.13285  -1.13268  -1.13255
 Alpha  occ. eigenvalues --   -1.13101  -1.13060  -1.13031  -1.12998  -1.12950
 Alpha  occ. eigenvalues --   -1.12905  -1.12898  -1.12877  -1.12856  -1.12843
 Alpha  occ. eigenvalues --   -1.12841  -1.12824  -1.12817  -1.12760  -1.12754
 Alpha  occ. eigenvalues --   -0.19432  -0.13026  -0.12769  -0.11310
 Alpha virt. eigenvalues --   -0.05267  -0.04717  -0.04596  -0.03310  -0.03128
 Alpha virt. eigenvalues --   -0.02826  -0.01330  -0.00917  -0.00085   0.00120
 Alpha virt. eigenvalues --    0.00171   0.00363   0.00895   0.00965   0.00999

  Beta  occ. eigenvalues --  -38.43769 -38.43587 -38.43344 -38.43317 -38.43285
  Beta  occ. eigenvalues --  -38.43250 -38.43225  -2.19620  -2.19486  -2.19265
  Beta  occ. eigenvalues --   -2.19238  -2.19223  -2.19176  -2.19149  -1.13316
  Beta  occ. eigenvalues --   -1.13265  -1.13264  -1.13228  -1.13204  -1.13146
  Beta  occ. eigenvalues --   -1.13038  -1.12999  -1.12970  -1.12950  -1.12916
  Beta  occ. eigenvalues --   -1.12893  -1.12857  -1.12850  -1.12838  -1.12829
  Beta  occ. eigenvalues --   -1.12820  -1.12795  -1.12777  -1.12755  -1.12749
  Beta  occ. eigenvalues --   -0.18668  -0.12741  -0.12495
  Beta virt. eigenvalues --   -0.07327  -0.05232  -0.04711  -0.04583  -0.02462
  Beta virt. eigenvalues --   -0.02321  -0.01741  -0.01242  -0.00859   0.00013
  Beta virt. eigenvalues --    0.00088   0.00152   0.00378   0.00931   0.00950

 Mulliken charges and spin densities:
               1          2
     1  Na  -0.578159   0.621600
     2  Na   0.033066  -0.048849
     3  Na   0.150994  -0.092193
     4  Na  -0.474669   0.520700
     5  Na   0.318263  -0.072508
     6  Na   0.228128   0.023256
     7  Na   0.322378   0.047994
 Sum of Mulliken charges =  -0.00000   1.00000

 Dipole moment (field-independent basis, Debye):
    X=             -0.2940    Y=             -0.0129    Z=              0.0267  Tot=              0.2955
 Quadrupole moment (field-independent basis, Debye-Ang):
   XX=            -58.8787   YY=            -64.3510   ZZ=            -71.6271
   XY=             -0.6413   XZ=             -0.1488   YZ=             -0.0281

 Normal termination of Gaussian 16 at Fri Dec  8 05:45:10 2023.
