 Gaussian 16, Revision B.01,
 Gaussian 16:  ES64L-G16RevB.01 20-Dec-2017

 -------------------------
 #P B3LYP/6-311+g(d) force
 -------------------------

 -----
 DPGEN
 -----
 Symbolic Z-matrix:
 Charge =  0 Multiplicity = 2

                         Standard orientation:
 ---------------------------------------------------------------------
 Center     Atomic      Atomic             Coordinates (Angstroms)
 Number     Number       Type             X           Y           Z
 ---------------------------------------------------------------------
      1         11           0       -1.128399   -1.514409    0.913286
      2         11           0       -2.412516    1.614327    0.834800
      3         11           0       -0.119213    1.073142   -1.218589
      4         11           0       -4.309900   -0.580973   -0.935575
      5         11           0        2.880139   -1.716284   -1.224138
      6         11           0        3.410417    1.655055   -0.199428
      7         11           0        1.679472   -0.530859    1.829643
 ---------------------------------------------------------------------

 SCF Done:  E(UB3LYP) =  -1136.11167558     A.U. after   31 cycles

 The electronic state is 2-A.
 Alpha  occ. eigenvalues --  -38.45304 -38.44649 -38.44621 -38.44434 -38.43970
 Alpha  occ. eigenvalues --  -38.43555 -38.42451  -2.21107  -2.20523  -2.20438
 Alpha  occ. eigenvalues --   -2.20285  -2.19781  -2.19441  -2.18357  -1.14787
 Alpha  occ. eigenvalues --   -1.14738  -1.14716  -1.14252  -1.14172  -1.14163
 Alpha  occ. eigenvalues --   -1.14089  -1.14075  -1.14033  -1.13984  -1.13953
 Alpha  occ. eigenvalues --   -1.13879  -1.13477  -1.13423  -1.13417  -1.13140
 Alpha  occ. eigenvalues --   -1.13097  -1.13082  -1.12058  -1.12039  -1.11964
 Alpha  occ. eigenvalues --   -0.18055  -0.14714  -0.10760  -0.10517
 Alpha virt. eigenvalues --   -0.07250  -0.06024  -0.04656  -0.03171  -0.02864
 Alpha virt. eigenvalues --   -0.02286  -0.01982  -0.01347  -0.01088  -0.00815
 Alpha virt. eigenvalues --   -0.00105   0.00087   0.00278   0.00395   0.00545

  Beta  occ. eigenvalues --  -38.45245 -38.44632 -38.44534 -38.44420 -38.43962
  Beta  occ. eigenvalues --  -38.43558 -38.42441  -2.20997  -2.20496  -2.20275
  Beta  occ. eigenvalues --   -2.20264  -2.19768  -2.19450  -2.18343  -1.14712
  Beta  occ. eigenvalues --   -1.14667  -1.14635  -1.14227  -1.14155  -1.14116
  Beta  occ. eigenvalues --   -1.13979  -1.13962  -1.13947  -1.13933  -1.13929
  Beta  occ. eigenvalues --   -1.13879  -1.13471  -1.13412  -1.13398  -1.13137
  Beta  occ. eigenvalues --   -1.13097  -1.13079  -1.12045  -1.12006  -1.11961
  Beta  occ. eigenvalues --   -0.17479  -0.14173  -0.10406
  Beta virt. eigenvalues --   -0.07316  -0.06892  -0.05425  -0.04462  -0.02847
  Beta virt. eigenvalues --   -0.02750  -0.01773  -0.01699  -0.00944  -0.00797
  Beta virt. eigenvalues --   -0.00406   0.00023   0.00214   0.00335   0.00466

 Mulliken charges and spin densities:
               1          2
     1  Na  -0.536501  -0.007338
     2  Na   0.455006  -0.039596
     3  Na  -0.505519   0.113792
     4  Na   0.104320   0.418852
     5  Na  -0.159159   0.182738
     6  Na   0.303223   0.107206
     7  Na   0.338629   0.224346
 Sum of Mulliken charges =  -0.00000   1.00000

 Dipole moment (field-independent basis, Debye):
    X=              0.1894    Y=              0.0457    Z=             -0.0353  Tot=              0.1980
 Quadrupole moment (field-independent basis, Debye-Ang):
   XX=            -59.4579   YY=            -74.1829   ZZ=            -67.1538
   XY=             -1.6901   XZ=              0.7093   YZ=             11.4594

 Normal termination of Gaussian 16 at Wed Nov 29 16:20:37 2023.
