 Gaussian 16, Revision B.01,
 Gaussian 16:  ES64L-G16RevB.01 20-Dec-2017

 -------------------------
 #P B3LYP/6-311+g(d) force
 -------------------------

 -----
 DPGEN
 -----
 Symbolic Z-matrix:
 Charge =  0 Multiplicity = 2

                         Standard orientation:
 ---------------------------------------------------------------------
 Center     Atomic      Atomic             Coordinates (Angstroms)
 Number     Number       Type             X           Y           Z
 ---------------------------------------------------------------------
      1         11           0        3.906582   -0.923656    0.293444
      2         11           0       -4.385941    0.451440    0.157891
      3         11           0        0.543776   -0.688117    1.475042
      4         11           0        2.360252    2.145757   -0.310975
      5         11           0        1.043694   -0.829107   -1.256269
      6         11           0       -2.125095   -1.986809   -0.392384
      7         11           0       -1.343269    1.830491    0.033252
 ---------------------------------------------------------------------

 SCF Done:  E(UB3LYP) =  -1136.11717211     A.U. after   25 cycles

 The electronic state is 2-A.
 Alpha  occ. eigenvalues --  -38.45227 -38.44482 -38.43992 -38.43796 -38.43585
 Alpha  occ. eigenvalues --  -38.43503 -38.42825  -2.21184  -2.20490  -2.19871
 Alpha  occ. eigenvalues --   -2.19645  -2.19439  -2.19346  -2.18686  -1.15030
 Alpha  occ. eigenvalues --   -1.14812  -1.14762  -1.14190  -1.14132  -1.14072
 Alpha  occ. eigenvalues --   -1.13533  -1.13500  -1.13488  -1.13292  -1.13284
 Alpha  occ. eigenvalues --   -1.13278  -1.13136  -1.13098  -1.13060  -1.13049
 Alpha  occ. eigenvalues --   -1.13007  -1.12969  -1.12398  -1.12368  -1.12294
 Alpha  occ. eigenvalues --   -0.18699  -0.14664  -0.11250  -0.10727
 Alpha virt. eigenvalues --   -0.07121  -0.05538  -0.04178  -0.03243  -0.03143
 Alpha virt. eigenvalues --   -0.01976  -0.01685  -0.01224  -0.01023  -0.00564
 Alpha virt. eigenvalues --   -0.00477   0.00147   0.00377   0.00572   0.00667

  Beta  occ. eigenvalues --  -38.45205 -38.44461 -38.43920 -38.43712 -38.43574
  Beta  occ. eigenvalues --  -38.43501 -38.42813  -2.21150  -2.20458  -2.19736
  Beta  occ. eigenvalues --   -2.19488  -2.19424  -2.19346  -2.18670  -1.15003
  Beta  occ. eigenvalues --   -1.14775  -1.14737  -1.14172  -1.14073  -1.14053
  Beta  occ. eigenvalues --   -1.13440  -1.13417  -1.13392  -1.13189  -1.13178
  Beta  occ. eigenvalues --   -1.13176  -1.13129  -1.13084  -1.13054  -1.13015
  Beta  occ. eigenvalues --   -1.13012  -1.12937  -1.12390  -1.12346  -1.12263
  Beta  occ. eigenvalues --   -0.18111  -0.13869  -0.10992
  Beta virt. eigenvalues --   -0.07183  -0.06994  -0.05383  -0.03435  -0.03010
  Beta virt. eigenvalues --   -0.02895  -0.01659  -0.01439  -0.01167  -0.00535
  Beta virt. eigenvalues --   -0.00273  -0.00114   0.00219   0.00532   0.00651

 Mulliken charges and spin densities:
               1          2
     1  Na   0.484995   0.454493
     2  Na   0.271121   0.464542
     3  Na   0.004363  -0.087159
     4  Na  -0.177505  -0.046581
     5  Na   0.059505   0.090786
     6  Na   0.050824   0.155363
     7  Na  -0.693303  -0.031444
 Sum of Mulliken charges =  -0.00000   1.00000

 Dipole moment (field-independent basis, Debye):
    X=              0.7849    Y=             -0.4998    Z=              0.2930  Tot=              0.9755
 Quadrupole moment (field-independent basis, Debye-Ang):
   XX=            -66.1517   YY=            -76.2040   ZZ=            -61.7501
   XY=              2.8532   XZ=              0.3925   YZ=              0.2431

 Normal termination of Gaussian 16 at Tue Dec  5 22:43:18 2023.
