 Gaussian 16, Revision B.01,
 Gaussian 16:  ES64L-G16RevB.01 20-Dec-2017

 -------------------------
 #P B3LYP/6-311+g(d) force
 -------------------------

 -----
 DPGEN
 -----
 Symbolic Z-matrix:
 Charge =  0 Multiplicity = 2

                         Standard orientation:
 ---------------------------------------------------------------------
 Center     Atomic      Atomic             Coordinates (Angstroms)
 Number     Number       Type             X           Y           Z
 ---------------------------------------------------------------------
      1         11           0        0.037763    0.124771    1.942124
      2         11           0       -0.333027   -0.481144   -1.803586
      3         11           0        2.017836    2.208218   -0.209944
      4         11           0       -1.471684    2.208819   -0.242290
      5         11           0       -0.025741   -2.565110   -0.040805
      6         11           0       -3.159443   -0.484478    0.270472
      7         11           0        2.934296   -1.011075    0.084029
 ---------------------------------------------------------------------

 SCF Done:  E(UB3LYP) =  -1136.13301765     A.U. after   19 cycles

 The electronic state is 2-A.
 Alpha  occ. eigenvalues --  -38.44251 -38.44055 -38.43646 -38.43607 -38.43345
 Alpha  occ. eigenvalues --  -38.43167 -38.43134  -2.20103  -2.19903  -2.19651
 Alpha  occ. eigenvalues --   -2.19543  -2.19185  -2.19093  -2.19078  -1.13781
 Alpha  occ. eigenvalues --   -1.13764  -1.13742  -1.13573  -1.13570  -1.13554
 Alpha  occ. eigenvalues --   -1.13506  -1.13290  -1.13223  -1.13221  -1.13187
 Alpha  occ. eigenvalues --   -1.13152  -1.12851  -1.12848  -1.12841  -1.12766
 Alpha  occ. eigenvalues --   -1.12752  -1.12741  -1.12730  -1.12697  -1.12665
 Alpha  occ. eigenvalues --   -0.19129  -0.13310  -0.12370  -0.11022
 Alpha virt. eigenvalues --   -0.05853  -0.04989  -0.04238  -0.03369  -0.02978
 Alpha virt. eigenvalues --   -0.02609  -0.01739  -0.00873  -0.00093  -0.00050
 Alpha virt. eigenvalues --   -0.00012   0.00353   0.00819   0.00921   0.00950

  Beta  occ. eigenvalues --  -38.44245 -38.44054 -38.43568 -38.43522 -38.43342
  Beta  occ. eigenvalues --  -38.43157 -38.43123  -2.20095  -2.19903  -2.19509
  Beta  occ. eigenvalues --   -2.19388  -2.19183  -2.19077  -2.19064  -1.13779
  Beta  occ. eigenvalues --   -1.13740  -1.13731  -1.13570  -1.13564  -1.13545
  Beta  occ. eigenvalues --   -1.13418  -1.13192  -1.13123  -1.13120  -1.13076
  Beta  occ. eigenvalues --   -1.13037  -1.12849  -1.12844  -1.12827  -1.12754
  Beta  occ. eigenvalues --   -1.12734  -1.12700  -1.12692  -1.12677  -1.12660
  Beta  occ. eigenvalues --   -0.18369  -0.13085  -0.12101
  Beta virt. eigenvalues --   -0.07071  -0.05799  -0.04993  -0.04205  -0.02578
  Beta virt. eigenvalues --   -0.02150  -0.01645  -0.01552  -0.00819  -0.00125
  Beta virt. eigenvalues --   -0.00085   0.00108   0.00379   0.00871   0.00923

 Mulliken charges and spin densities:
               1          2
     1  Na  -0.525669   0.702836
     2  Na  -0.416033   0.586755
     3  Na  -0.027406  -0.075718
     4  Na   0.089687  -0.036765
     5  Na   0.513839  -0.071045
     6  Na   0.285832  -0.032195
     7  Na   0.079751  -0.073868
 Sum of Mulliken charges =  -0.00000   1.00000

 Dipole moment (field-independent basis, Debye):
    X=             -0.0904    Y=             -0.0603    Z=              0.1819  Tot=              0.2119
 Quadrupole moment (field-independent basis, Debye-Ang):
   XX=            -53.9827   YY=            -67.4384   ZZ=            -72.7375
   XY=              0.2432   XZ=             -0.9096   YZ=             -1.4944

 Normal termination of Gaussian 16 at Tue Dec  5 23:34:00 2023.
