 Gaussian 16, Revision B.01,
 Gaussian 16:  ES64L-G16RevB.01 20-Dec-2017

 -------------------------
 #P B3LYP/6-311+g(d) force
 -------------------------

 -----
 DPGEN
 -----
 Symbolic Z-matrix:
 Charge =  0 Multiplicity = 2

                         Standard orientation:
 ---------------------------------------------------------------------
 Center     Atomic      Atomic             Coordinates (Angstroms)
 Number     Number       Type             X           Y           Z
 ---------------------------------------------------------------------
      1         11           0        1.999914   -2.549027    0.163027
      2         11           0       -2.725734   -1.846877   -0.093803
      3         11           0       -0.058960   -0.916065   -1.461039
      4         11           0        2.988750    0.685604   -0.166051
      5         11           0       -2.750467    1.572244   -0.198002
      6         11           0       -0.235420    0.101276    2.053517
      7         11           0        0.781916    2.952846   -0.297648
 ---------------------------------------------------------------------

 SCF Done:  E(UB3LYP) =  -1136.13185658     A.U. after   20 cycles

 The electronic state is 2-A.
 Alpha  occ. eigenvalues --  -38.44450 -38.44335 -38.44037 -38.43923 -38.43440
 Alpha  occ. eigenvalues --  -38.43352 -38.43218  -2.20254  -2.20172  -2.19891
 Alpha  occ. eigenvalues --   -2.19766  -2.19304  -2.19298  -2.19043  -1.13929
 Alpha  occ. eigenvalues --   -1.13922  -1.13903  -1.13871  -1.13818  -1.13793
 Alpha  occ. eigenvalues --   -1.13579  -1.13553  -1.13548  -1.13477  -1.13407
 Alpha  occ. eigenvalues --   -1.13397  -1.12993  -1.12958  -1.12938  -1.12926
 Alpha  occ. eigenvalues --   -1.12925  -1.12920  -1.12720  -1.12702  -1.12683
 Alpha  occ. eigenvalues --   -0.18291  -0.13430  -0.12325  -0.10324
 Alpha virt. eigenvalues --   -0.06005  -0.05713  -0.04639  -0.03268  -0.02750
 Alpha virt. eigenvalues --   -0.02243  -0.01721  -0.01395  -0.00737  -0.00466
 Alpha virt. eigenvalues --   -0.00000   0.00326   0.00700   0.00745   0.00859

  Beta  occ. eigenvalues --  -38.44446 -38.44329 -38.44031 -38.43920 -38.43337
  Beta  occ. eigenvalues --  -38.43309 -38.43212  -2.20249  -2.20164  -2.19884
  Beta  occ. eigenvalues --   -2.19764  -2.19222  -2.19114  -2.19034  -1.13921
  Beta  occ. eigenvalues --   -1.13911  -1.13897  -1.13861  -1.13793  -1.13791
  Beta  occ. eigenvalues --   -1.13574  -1.13546  -1.13529  -1.13471  -1.13399
  Beta  occ. eigenvalues --   -1.13386  -1.12921  -1.12885  -1.12870  -1.12838
  Beta  occ. eigenvalues --   -1.12795  -1.12785  -1.12715  -1.12688  -1.12671
  Beta  occ. eigenvalues --   -0.17615  -0.13209  -0.12121
  Beta virt. eigenvalues --   -0.06483  -0.05965  -0.05638  -0.04572  -0.02506
  Beta virt. eigenvalues --   -0.02044  -0.01622  -0.01369  -0.01208  -0.00775
  Beta virt. eigenvalues --   -0.00476   0.00177   0.00386   0.00750   0.00793

 Mulliken charges and spin densities:
               1          2
     1  Na   0.344551   0.014051
     2  Na   0.283883   0.006586
     3  Na  -0.041347   0.230378
     4  Na   0.042771   0.047222
     5  Na  -0.017203   0.026592
     6  Na  -0.391609   0.672523
     7  Na  -0.221046   0.002647
 Sum of Mulliken charges =  -0.00000   1.00000

 Dipole moment (field-independent basis, Debye):
    X=             -0.4268    Y=             -0.3689    Z=              0.1068  Tot=              0.5742
 Quadrupole moment (field-independent basis, Debye-Ang):
   XX=            -54.5569   YY=            -62.7124   ZZ=            -76.6003
   XY=             -1.4228   XZ=              0.5490   YZ=             -2.0204

 Normal termination of Gaussian 16 at Thu Dec  7 22:51:22 2023.
