 Gaussian 16, Revision B.01,
 Gaussian 16:  ES64L-G16RevB.01 20-Dec-2017

 -------------------------
 #P B3LYP/6-311+g(d) force
 -------------------------

 -----
 DPGEN
 -----
 Symbolic Z-matrix:
 Charge =  0 Multiplicity = 2

                         Standard orientation:
 ---------------------------------------------------------------------
 Center     Atomic      Atomic             Coordinates (Angstroms)
 Number     Number       Type             X           Y           Z
 ---------------------------------------------------------------------
      1         11           0        2.549163    1.593449   -0.210326
      2         11           0       -0.213867    0.255936    1.963558
      3         11           0       -0.716945   -2.742893    0.155814
      4         11           0        0.292206    0.071045   -1.775309
      5         11           0        2.320482   -1.439184    0.193001
      6         11           0       -2.794579   -0.437286   -0.492859
      7         11           0       -1.436461    2.698934    0.166121
 ---------------------------------------------------------------------

 SCF Done:  E(UB3LYP) =  -1136.13663332     A.U. after   19 cycles

 The electronic state is 2-A.
 Alpha  occ. eigenvalues --  -38.43773 -38.43700 -38.43576 -38.43487 -38.43447
 Alpha  occ. eigenvalues --  -38.43435 -38.43004  -2.19663  -2.19592  -2.19509
 Alpha  occ. eigenvalues --   -2.19440  -2.19378  -2.19326  -2.18905  -1.13409
 Alpha  occ. eigenvalues --   -1.13345  -1.13290  -1.13284  -1.13261  -1.13229
 Alpha  occ. eigenvalues --   -1.13183  -1.13163  -1.13143  -1.13131  -1.13078
 Alpha  occ. eigenvalues --   -1.13055  -1.13025  -1.13009  -1.12998  -1.12991
 Alpha  occ. eigenvalues --   -1.12973  -1.12958  -1.12572  -1.12559  -1.12554
 Alpha  occ. eigenvalues --   -0.19165  -0.13258  -0.12497  -0.11141
 Alpha virt. eigenvalues --   -0.05343  -0.04989  -0.04562  -0.03419  -0.03002
 Alpha virt. eigenvalues --   -0.02737  -0.01266  -0.01052  -0.00164  -0.00007
 Alpha virt. eigenvalues --    0.00063   0.00374   0.00884   0.00923   0.00945

  Beta  occ. eigenvalues --  -38.43767 -38.43687 -38.43489 -38.43483 -38.43426
  Beta  occ. eigenvalues --  -38.43374 -38.43000  -2.19655  -2.19571  -2.19366
  Beta  occ. eigenvalues --   -2.19349  -2.19322  -2.19306  -2.18900  -1.13399
  Beta  occ. eigenvalues --   -1.13326  -1.13273  -1.13268  -1.13233  -1.13207
  Beta  occ. eigenvalues --   -1.13108  -1.13083  -1.13053  -1.13023  -1.13005
  Beta  occ. eigenvalues --   -1.13000  -1.12986  -1.12968  -1.12961  -1.12955
  Beta  occ. eigenvalues --   -1.12949  -1.12933  -1.12572  -1.12560  -1.12520
  Beta  occ. eigenvalues --   -0.18410  -0.12990  -0.12236
  Beta virt. eigenvalues --   -0.07196  -0.05324  -0.04936  -0.04545  -0.02595
  Beta virt. eigenvalues --   -0.02218  -0.01683  -0.01172  -0.00975  -0.00179
  Beta virt. eigenvalues --    0.00003   0.00119   0.00394   0.00910   0.00932

 Mulliken charges and spin densities:
               1          2
     1  Na   0.320312  -0.073700
     2  Na  -0.512503   0.644915
     3  Na   0.074001  -0.008905
     4  Na  -0.381581   0.458946
     5  Na   0.211858   0.055027
     6  Na   0.205929   0.030577
     7  Na   0.081984  -0.106860
 Sum of Mulliken charges =  -0.00000   1.00000

 Dipole moment (field-independent basis, Debye):
    X=              0.0065    Y=              0.3178    Z=              0.0638  Tot=              0.3242
 Quadrupole moment (field-independent basis, Debye-Ang):
   XX=            -59.9255   YY=            -62.7105   ZZ=            -72.2838
   XY=              0.4453   XZ=              1.2445   YZ=             -0.5893

 Normal termination of Gaussian 16 at Tue Dec  5 15:41:41 2023.
