 Gaussian 16, Revision B.01,
 Gaussian 16:  ES64L-G16RevB.01 20-Dec-2017

 -------------------------
 #P B3LYP/6-311+g(d) force
 -------------------------

 -----
 DPGEN
 -----
 Symbolic Z-matrix:
 Charge =  0 Multiplicity = 2

                         Standard orientation:
 ---------------------------------------------------------------------
 Center     Atomic      Atomic             Coordinates (Angstroms)
 Number     Number       Type             X           Y           Z
 ---------------------------------------------------------------------
      1         11           0       -0.054675    2.540696    0.527506
      2         11           0       -3.033884    1.110261   -0.437739
      3         11           0        3.445841    0.904691   -0.146128
      4         11           0        2.048709   -1.996433   -0.346988
      5         11           0       -0.234571    0.083083   -1.790183
      6         11           0       -2.054060   -2.163160    0.127686
      7         11           0       -0.117360   -0.479138    2.065845
 ---------------------------------------------------------------------

 SCF Done:  E(UB3LYP) =  -1136.13252915     A.U. after   21 cycles

 The electronic state is 2-A.
 Alpha  occ. eigenvalues --  -38.44643 -38.44197 -38.43870 -38.43751 -38.43592
 Alpha  occ. eigenvalues --  -38.43324 -38.42823  -2.20430  -2.20051  -2.19804
 Alpha  occ. eigenvalues --   -2.19658  -2.19446  -2.19186  -2.18687  -1.14108
 Alpha  occ. eigenvalues --   -1.14096  -1.14064  -1.13745  -1.13702  -1.13688
 Alpha  occ. eigenvalues --   -1.13487  -1.13442  -1.13426  -1.13323  -1.13299
 Alpha  occ. eigenvalues --   -1.13281  -1.13128  -1.13113  -1.13066  -1.12866
 Alpha  occ. eigenvalues --   -1.12845  -1.12815  -1.12383  -1.12355  -1.12301
 Alpha  occ. eigenvalues --   -0.18588  -0.13421  -0.11822  -0.11134
 Alpha virt. eigenvalues --   -0.06242  -0.05194  -0.03881  -0.03449  -0.02962
 Alpha virt. eigenvalues --   -0.02748  -0.01976  -0.01147  -0.00215  -0.00159
 Alpha virt. eigenvalues --   -0.00016   0.00308   0.00719   0.00770   0.00857

  Beta  occ. eigenvalues --  -38.44646 -38.44186 -38.43808 -38.43653 -38.43584
  Beta  occ. eigenvalues --  -38.43317 -38.42806  -2.20437  -2.20033  -2.19691
  Beta  occ. eigenvalues --   -2.19480  -2.19433  -2.19178  -2.18659  -1.14116
  Beta  occ. eigenvalues --   -1.14090  -1.14069  -1.13720  -1.13685  -1.13674
  Beta  occ. eigenvalues --   -1.13412  -1.13364  -1.13342  -1.13209  -1.13172
  Beta  occ. eigenvalues --   -1.13155  -1.13111  -1.13094  -1.13053  -1.12854
  Beta  occ. eigenvalues --   -1.12824  -1.12806  -1.12365  -1.12312  -1.12285
  Beta  occ. eigenvalues --   -0.17847  -0.13185  -0.11576
  Beta virt. eigenvalues --   -0.07204  -0.06133  -0.05203  -0.03800  -0.02747
  Beta virt. eigenvalues --   -0.02160  -0.01880  -0.01721  -0.01115  -0.00230
  Beta virt. eigenvalues --   -0.00088   0.00065   0.00341   0.00799   0.00851

 Mulliken charges and spin densities:
               1          2
     1  Na  -0.016787   0.032600
     2  Na   0.247729   0.037896
     3  Na  -0.102618  -0.077421
     4  Na   0.194299  -0.036531
     5  Na  -0.221338   0.485190
     6  Na   0.200323  -0.066972
     7  Na  -0.301609   0.625238
 Sum of Mulliken charges =  -0.00000   1.00000

 Dipole moment (field-independent basis, Debye):
    X=              0.1657    Y=              0.0445    Z=             -0.0789  Tot=              0.1889
 Quadrupole moment (field-independent basis, Debye-Ang):
   XX=            -52.3122   YY=            -69.5226   ZZ=            -72.3026
   XY=              0.9207   XZ=              0.3498   YZ=              0.8099

 Normal termination of Gaussian 16 at Tue Dec  5 10:35:16 2023.
