 Gaussian 16, Revision B.01,
 Gaussian 16:  ES64L-G16RevB.01 20-Dec-2017

 -------------------------
 #P B3LYP/6-311+g(d) force
 -------------------------

 -----
 DPGEN
 -----
 Symbolic Z-matrix:
 Charge =  0 Multiplicity = 2

                         Standard orientation:
 ---------------------------------------------------------------------
 Center     Atomic      Atomic             Coordinates (Angstroms)
 Number     Number       Type             X           Y           Z
 ---------------------------------------------------------------------
      1         11           0        3.252134    1.069162    0.305609
      2         11           0        0.651216    2.484638   -1.206894
      3         11           0       -2.069898    2.256414    0.370696
      4         11           0        0.217488   -0.443344    1.909063
      5         11           0       -3.832175   -0.927263   -0.292435
      6         11           0        2.916364   -2.201926   -0.545302
      7         11           0       -1.135129   -2.237682   -0.540738
 ---------------------------------------------------------------------

 SCF Done:  E(UB3LYP) =  -1136.11749903     A.U. after   23 cycles

 The electronic state is 2-A.
 Alpha  occ. eigenvalues --  -38.44902 -38.44607 -38.44365 -38.44208 -38.44084
 Alpha  occ. eigenvalues --  -38.43922 -38.43548  -2.20668  -2.20427  -2.20172
 Alpha  occ. eigenvalues --   -2.20046  -2.19926  -2.19746  -2.19412  -1.14345
 Alpha  occ. eigenvalues --   -1.14332  -1.14304  -1.14103  -1.14089  -1.14059
 Alpha  occ. eigenvalues --   -1.13881  -1.13830  -1.13810  -1.13808  -1.13686
 Alpha  occ. eigenvalues --   -1.13668  -1.13603  -1.13588  -1.13515  -1.13409
 Alpha  occ. eigenvalues --   -1.13397  -1.13391  -1.13077  -1.13046  -1.13012
 Alpha  occ. eigenvalues --   -0.17449  -0.13802  -0.12451  -0.10081
 Alpha virt. eigenvalues --   -0.06786  -0.06566  -0.03814  -0.03392  -0.03055
 Alpha virt. eigenvalues --   -0.02536  -0.02122  -0.01677  -0.01220  -0.00280
 Alpha virt. eigenvalues --   -0.00034   0.00172   0.00415   0.00504   0.00601

  Beta  occ. eigenvalues --  -38.44894 -38.44591 -38.44363 -38.44168 -38.44078
  Beta  occ. eigenvalues --  -38.43912 -38.43442  -2.20654  -2.20400  -2.20169
  Beta  occ. eigenvalues --   -2.19972  -2.19920  -2.19727  -2.19217  -1.14337
  Beta  occ. eigenvalues --   -1.14321  -1.14286  -1.14084  -1.14052  -1.14043
  Beta  occ. eigenvalues --   -1.13881  -1.13811  -1.13808  -1.13770  -1.13634
  Beta  occ. eigenvalues --   -1.13620  -1.13586  -1.13572  -1.13491  -1.13397
  Beta  occ. eigenvalues --   -1.13386  -1.13370  -1.12948  -1.12915  -1.12873
  Beta  occ. eigenvalues --   -0.16867  -0.13352  -0.12296
  Beta virt. eigenvalues --   -0.06644  -0.06503  -0.06380  -0.03706  -0.02840
  Beta virt. eigenvalues --   -0.02616  -0.02211  -0.01877  -0.01175  -0.01008
  Beta virt. eigenvalues --   -0.00242   0.00183   0.00286   0.00489   0.00614

 Mulliken charges and spin densities:
               1          2
     1  Na   0.170456   0.379245
     2  Na  -0.123100  -0.112180
     3  Na  -0.046391   0.152371
     4  Na  -0.093505   0.435080
     5  Na   0.449989  -0.002902
     6  Na   0.082958  -0.047818
     7  Na  -0.440408   0.196203
 Sum of Mulliken charges =  -0.00000   1.00000

 Dipole moment (field-independent basis, Debye):
    X=              0.3731    Y=             -0.0995    Z=              0.1187  Tot=              0.4040
 Quadrupole moment (field-independent basis, Debye-Ang):
   XX=            -59.0228   YY=            -68.5244   ZZ=            -72.3940
   XY=             -5.2675   XZ=             -0.8871   YZ=              2.8622

 Normal termination of Gaussian 16 at Mon Dec  4 01:26:29 2023.
