 Gaussian 16, Revision B.01,
 Gaussian 16:  ES64L-G16RevB.01 20-Dec-2017

 -------------------------
 #P B3LYP/6-311+g(d) force
 -------------------------

 -----
 DPGEN
 -----
 Symbolic Z-matrix:
 Charge =  0 Multiplicity = 2

                         Standard orientation:
 ---------------------------------------------------------------------
 Center     Atomic      Atomic             Coordinates (Angstroms)
 Number     Number       Type             X           Y           Z
 ---------------------------------------------------------------------
      1         11           0        2.531302   -2.335451    0.509341
      2         11           0        3.504200    0.805790   -0.604066
      3         11           0       -2.925662    1.326384   -0.448829
      4         11           0        0.021374   -0.770973   -1.794867
      5         11           0        0.520504    2.734508    0.414484
      6         11           0       -3.345993   -1.652366    0.024612
      7         11           0       -0.305725   -0.107893    1.899326
 ---------------------------------------------------------------------

 SCF Done:  E(UB3LYP) =  -1136.12209711     A.U. after   23 cycles

 The electronic state is 2-A.
 Alpha  occ. eigenvalues --  -38.45086 -38.45083 -38.44613 -38.44569 -38.43829
 Alpha  occ. eigenvalues --  -38.43550 -38.42269  -2.20870  -2.20865  -2.20458
 Alpha  occ. eigenvalues --   -2.20384  -2.19621  -2.19424  -2.18093  -1.14567
 Alpha  occ. eigenvalues --   -1.14544  -1.14531  -1.14508  -1.14501  -1.14471
 Alpha  occ. eigenvalues --   -1.14225  -1.14129  -1.14092  -1.14034  -1.14023
 Alpha  occ. eigenvalues --   -1.13984  -1.13291  -1.13279  -1.13265  -1.13100
 Alpha  occ. eigenvalues --   -1.13058  -1.13035  -1.11784  -1.11757  -1.11732
 Alpha  occ. eigenvalues --   -0.17791  -0.13848  -0.11336  -0.10531
 Alpha virt. eigenvalues --   -0.06961  -0.05880  -0.04104  -0.03493  -0.02615
 Alpha virt. eigenvalues --   -0.02565  -0.02435  -0.01449  -0.00830  -0.00334
 Alpha virt. eigenvalues --   -0.00103   0.00196   0.00403   0.00564   0.00642

  Beta  occ. eigenvalues --  -38.45064 -38.45043 -38.44603 -38.44575 -38.43819
  Beta  occ. eigenvalues --  -38.43456 -38.42267  -2.20825  -2.20795  -2.20442
  Beta  occ. eigenvalues --   -2.20398  -2.19604  -2.19250  -2.18093  -1.14513
  Beta  occ. eigenvalues --   -1.14506  -1.14481  -1.14475  -1.14474  -1.14418
  Beta  occ. eigenvalues --   -1.14227  -1.14111  -1.14074  -1.14035  -1.14025
  Beta  occ. eigenvalues --   -1.13986  -1.13282  -1.13261  -1.13243  -1.12984
  Beta  occ. eigenvalues --   -1.12938  -1.12906  -1.11779  -1.11751  -1.11726
  Beta  occ. eigenvalues --   -0.17131  -0.13637  -0.11150
  Beta virt. eigenvalues --   -0.06889  -0.06675  -0.05759  -0.03892  -0.03032
  Beta virt. eigenvalues --   -0.02408  -0.01911  -0.01660  -0.01236  -0.00823
  Beta virt. eigenvalues --   -0.00231  -0.00000   0.00256   0.00567   0.00658

 Mulliken charges and spin densities:
               1          2
     1  Na   0.032791  -0.014827
     2  Na   0.067142   0.124094
     3  Na   0.089899   0.085242
     4  Na  -0.146357   0.299433
     5  Na  -0.237008  -0.044127
     6  Na   0.218915  -0.055123
     7  Na  -0.025382   0.605308
 Sum of Mulliken charges =  -0.00000   1.00000

 Dipole moment (field-independent basis, Debye):
    X=             -0.2387    Y=             -0.4257    Z=             -0.3776  Tot=              0.6171
 Quadrupole moment (field-independent basis, Debye-Ang):
   XX=            -50.9016   YY=            -70.0670   ZZ=            -74.1491
   XY=              1.0161   XZ=             -0.2426   YZ=             -2.6781

 Normal termination of Gaussian 16 at Thu Dec  7 11:39:01 2023.
