 Gaussian 16, Revision B.01,
 Gaussian 16:  ES64L-G16RevB.01 20-Dec-2017

 -------------------------
 #P B3LYP/6-311+g(d) force
 -------------------------

 -----
 DPGEN
 -----
 Symbolic Z-matrix:
 Charge =  0 Multiplicity = 2

                         Standard orientation:
 ---------------------------------------------------------------------
 Center     Atomic      Atomic             Coordinates (Angstroms)
 Number     Number       Type             X           Y           Z
 ---------------------------------------------------------------------
      1         11           0       -1.655219    2.500993   -0.269967
      2         11           0       -3.019089   -0.942251   -0.045562
      3         11           0        3.130168   -1.156899   -0.122005
      4         11           0       -0.078318    0.198592    1.974025
      5         11           0       -0.299808   -2.558515    0.126075
      6         11           0        0.020745   -0.234687   -1.675529
      7         11           0        1.901522    2.192767    0.012962
 ---------------------------------------------------------------------

 SCF Done:  E(UB3LYP) =  -1136.13707984     A.U. after   19 cycles

 The electronic state is 2-A.
 Alpha  occ. eigenvalues --  -38.44027 -38.43998 -38.43626 -38.43428 -38.43408
 Alpha  occ. eigenvalues --  -38.43281 -38.43158  -2.19853  -2.19829  -2.19475
 Alpha  occ. eigenvalues --   -2.19351  -2.19275  -2.19243  -2.19105  -1.13538
 Alpha  occ. eigenvalues --   -1.13514  -1.13501  -1.13495  -1.13485  -1.13476
 Alpha  occ. eigenvalues --   -1.13167  -1.13156  -1.13096  -1.13081  -1.13025
 Alpha  occ. eigenvalues --   -1.12983  -1.12964  -1.12942  -1.12907  -1.12897
 Alpha  occ. eigenvalues --   -1.12876  -1.12861  -1.12760  -1.12740  -1.12699
 Alpha  occ. eigenvalues --   -0.18868  -0.13046  -0.12463  -0.10741
 Alpha virt. eigenvalues --   -0.05664  -0.05285  -0.04444  -0.03135  -0.02876
 Alpha virt. eigenvalues --   -0.02486  -0.01692  -0.01137  -0.00288  -0.00148
 Alpha virt. eigenvalues --   -0.00015   0.00342   0.00768   0.00883   0.00913

  Beta  occ. eigenvalues --  -38.44027 -38.43995 -38.43622 -38.43402 -38.43335
  Beta  occ. eigenvalues --  -38.43213 -38.43146  -2.19851  -2.19831  -2.19470
  Beta  occ. eigenvalues --   -2.19235  -2.19180  -2.19152  -2.19088  -1.13540
  Beta  occ. eigenvalues --   -1.13497  -1.13492  -1.13485  -1.13484  -1.13478
  Beta  occ. eigenvalues --   -1.13160  -1.13127  -1.13098  -1.13014  -1.12929
  Beta  occ. eigenvalues --   -1.12906  -1.12894  -1.12874  -1.12851  -1.12838
  Beta  occ. eigenvalues --   -1.12830  -1.12775  -1.12730  -1.12696  -1.12678
  Beta  occ. eigenvalues --   -0.18118  -0.12819  -0.12212
  Beta virt. eigenvalues --   -0.06800  -0.05621  -0.05293  -0.04421  -0.02341
  Beta virt. eigenvalues --   -0.02095  -0.01615  -0.01414  -0.01083  -0.00342
  Beta virt. eigenvalues --   -0.00184   0.00121   0.00363   0.00821   0.00871

 Mulliken charges and spin densities:
               1          2
     1  Na   0.059739  -0.091781
     2  Na   0.202651  -0.057691
     3  Na   0.099036  -0.084102
     4  Na  -0.429967   0.706851
     5  Na   0.381254  -0.012572
     6  Na  -0.423914   0.636716
     7  Na   0.111200  -0.097421
 Sum of Mulliken charges =  -0.00000   1.00000

 Dipole moment (field-independent basis, Debye):
    X=              0.0560    Y=              0.0939    Z=              0.0899  Tot=              0.1415
 Quadrupole moment (field-independent basis, Debye-Ang):
   XX=            -53.9258   YY=            -64.4298   ZZ=            -74.4363
   XY=             -0.3998   XZ=              0.2271   YZ=             -0.8546

 Normal termination of Gaussian 16 at Fri Dec  8 05:53:12 2023.
