 Gaussian 16, Revision B.01,
 Gaussian 16:  ES64L-G16RevB.01 20-Dec-2017

 -------------------------
 #P B3LYP/6-311+g(d) force
 -------------------------

 -----
 DPGEN
 -----
 Symbolic Z-matrix:
 Charge =  0 Multiplicity = 2

                         Standard orientation:
 ---------------------------------------------------------------------
 Center     Atomic      Atomic             Coordinates (Angstroms)
 Number     Number       Type             X           Y           Z
 ---------------------------------------------------------------------
      1         11           0        2.477249    1.502758    0.331839
      2         11           0       -0.103634   -0.116376   -2.052556
      3         11           0        2.369864   -1.533025   -0.331105
      4         11           0       -0.569903   -2.601715    0.266770
      5         11           0       -0.300313    0.120033    2.188643
      6         11           0       -3.115423   -0.188101   -0.107469
      7         11           0       -0.757840    2.816426   -0.296121
 ---------------------------------------------------------------------

 SCF Done:  E(UB3LYP) =  -1136.13779842     A.U. after   18 cycles

 The electronic state is 2-A.
 Alpha  occ. eigenvalues --  -38.44221 -38.44001 -38.43929 -38.43484 -38.43401
 Alpha  occ. eigenvalues --  -38.43216 -38.43102  -2.20102  -2.19918  -2.19747
 Alpha  occ. eigenvalues --   -2.19344  -2.19225  -2.19127  -2.19007  -1.13768
 Alpha  occ. eigenvalues --   -1.13731  -1.13723  -1.13590  -1.13553  -1.13546
 Alpha  occ. eigenvalues --   -1.13421  -1.13405  -1.13385  -1.13063  -1.13006
 Alpha  occ. eigenvalues --   -1.12989  -1.12909  -1.12887  -1.12852  -1.12826
 Alpha  occ. eigenvalues --   -1.12785  -1.12762  -1.12684  -1.12665  -1.12615
 Alpha  occ. eigenvalues --   -0.18786  -0.12821  -0.12410  -0.11567
 Alpha virt. eigenvalues --   -0.05465  -0.04714  -0.04501  -0.03460  -0.03313
 Alpha virt. eigenvalues --   -0.03240  -0.01277  -0.00851  -0.00182  -0.00019
 Alpha virt. eigenvalues --    0.00086   0.00407   0.00853   0.00891   0.00928

  Beta  occ. eigenvalues --  -38.44129 -38.43928 -38.43918 -38.43479 -38.43396
  Beta  occ. eigenvalues --  -38.43210 -38.43093  -2.19933  -2.19766  -2.19746
  Beta  occ. eigenvalues --   -2.19338  -2.19220  -2.19121  -2.18995  -1.13657
  Beta  occ. eigenvalues --   -1.13611  -1.13600  -1.13492  -1.13447  -1.13438
  Beta  occ. eigenvalues --   -1.13402  -1.13400  -1.13383  -1.13063  -1.12990
  Beta  occ. eigenvalues --   -1.12978  -1.12895  -1.12875  -1.12850  -1.12824
  Beta  occ. eigenvalues --   -1.12772  -1.12742  -1.12672  -1.12633  -1.12609
  Beta  occ. eigenvalues --   -0.17988  -0.12600  -0.12170
  Beta virt. eigenvalues --   -0.07610  -0.05442  -0.04638  -0.04438  -0.02653
  Beta virt. eigenvalues --   -0.02476  -0.02242  -0.01200  -0.00783  -0.00111
  Beta virt. eigenvalues --   -0.00024   0.00087   0.00424   0.00907   0.00947

 Mulliken charges and spin densities:
               1          2
     1  Na   0.076406  -0.005801
     2  Na  -0.357678   0.565822
     3  Na   0.222964   0.016120
     4  Na   0.287631   0.035362
     5  Na  -0.470838   0.581944
     6  Na   0.175292  -0.119265
     7  Na   0.066222  -0.074182
 Sum of Mulliken charges =  -0.00000   1.00000

 Dipole moment (field-independent basis, Debye):
    X=             -0.4195    Y=              0.1725    Z=              0.0645  Tot=              0.4582
 Quadrupole moment (field-independent basis, Debye-Ang):
   XX=            -60.7936   YY=            -66.3116   ZZ=            -69.0544
   XY=             -0.0480   XZ=              0.4510   YZ=             -0.2329

 Normal termination of Gaussian 16 at Mon Dec  4 02:39:12 2023.
