 Gaussian 16, Revision B.01,
 Gaussian 16:  ES64L-G16RevB.01 20-Dec-2017

 -------------------------
 #P B3LYP/6-311+g(d) force
 -------------------------

 -----
 DPGEN
 -----
 Symbolic Z-matrix:
 Charge =  0 Multiplicity = 2

                         Standard orientation:
 ---------------------------------------------------------------------
 Center     Atomic      Atomic             Coordinates (Angstroms)
 Number     Number       Type             X           Y           Z
 ---------------------------------------------------------------------
      1         11           0        2.146165   -2.970263    0.803053
      2         11           0       -0.819462    3.420992    0.892360
      3         11           0        4.031382   -0.062864   -0.374266
      4         11           0        2.528930    2.999723   -0.516009
      5         11           0       -3.885815    1.563530   -0.318479
      6         11           0       -3.605507   -1.857383   -0.121942
      7         11           0       -0.395692   -3.093734   -0.364717
 ---------------------------------------------------------------------

 SCF Done:  E(UB3LYP) =  -1136.10539758     A.U. after   23 cycles

 The electronic state is 2-A.
 Alpha  occ. eigenvalues --  -38.45444 -38.44797 -38.44781 -38.44657 -38.44311
 Alpha  occ. eigenvalues --  -38.44115 -38.43971  -2.21187  -2.20652  -2.20568
 Alpha  occ. eigenvalues --   -2.20421  -2.20176  -2.19894  -2.19781  -1.14874
 Alpha  occ. eigenvalues --   -1.14856  -1.14828  -1.14478  -1.14291  -1.14282
 Alpha  occ. eigenvalues --   -1.14234  -1.14225  -1.14200  -1.14102  -1.14089
 Alpha  occ. eigenvalues --   -1.14055  -1.13816  -1.13795  -1.13780  -1.13551
 Alpha  occ. eigenvalues --   -1.13541  -1.13514  -1.13434  -1.13430  -1.13413
 Alpha  occ. eigenvalues --   -0.15793  -0.13854  -0.13673  -0.10686
 Alpha virt. eigenvalues --   -0.07804  -0.04655  -0.04463  -0.03653  -0.03520
 Alpha virt. eigenvalues --   -0.02428  -0.02286  -0.01772  -0.01426  -0.00720
 Alpha virt. eigenvalues --   -0.00415  -0.00090   0.00054   0.00415   0.00652

  Beta  occ. eigenvalues --  -38.45445 -38.44777 -38.44730 -38.44653 -38.44278
  Beta  occ. eigenvalues --  -38.44046 -38.43919  -2.21194  -2.20621  -2.20476
  Beta  occ. eigenvalues --   -2.20419  -2.20117  -2.19766  -2.19683  -1.14884
  Beta  occ. eigenvalues --   -1.14866  -1.14797  -1.14423  -1.14274  -1.14261
  Beta  occ. eigenvalues --   -1.14173  -1.14166  -1.14129  -1.14106  -1.14090
  Beta  occ. eigenvalues --   -1.14017  -1.13769  -1.13757  -1.13737  -1.13463
  Beta  occ. eigenvalues --   -1.13455  -1.13430  -1.13368  -1.13363  -1.13349
  Beta  occ. eigenvalues --   -0.15293  -0.13140  -0.12933
  Beta virt. eigenvalues --   -0.07968  -0.07537  -0.04248  -0.04037  -0.03376
  Beta virt. eigenvalues --   -0.03069  -0.02219  -0.02121  -0.01615  -0.01291
  Beta virt. eigenvalues --   -0.00389  -0.00208   0.00103   0.00262   0.00461

 Mulliken charges and spin densities:
               1          2
     1  Na   0.378351   0.100914
     2  Na  -0.188605   0.337986
     3  Na   0.022706   0.238257
     4  Na   0.194912  -0.018708
     5  Na   0.006104  -0.013054
     6  Na   0.230952   0.251404
     7  Na  -0.644420   0.103201
 Sum of Mulliken charges =  -0.00000   1.00000

 Dipole moment (field-independent basis, Debye):
    X=              0.0663    Y=             -0.1446    Z=             -0.0821  Tot=              0.1790
 Quadrupole moment (field-independent basis, Debye-Ang):
   XX=            -61.6929   YY=            -67.8004   ZZ=            -71.5656
   XY=             -3.4291   XZ=              1.6348   YZ=             -1.3490

 Normal termination of Gaussian 16 at Sun Dec  3 14:01:52 2023.
