 Gaussian 16, Revision B.01,
 Gaussian 16:  ES64L-G16RevB.01 20-Dec-2017

 -------------------------
 #P B3LYP/6-311+g(d) force
 -------------------------

 -----
 DPGEN
 -----
 Symbolic Z-matrix:
 Charge =  0 Multiplicity = 2

                         Standard orientation:
 ---------------------------------------------------------------------
 Center     Atomic      Atomic             Coordinates (Angstroms)
 Number     Number       Type             X           Y           Z
 ---------------------------------------------------------------------
      1         11           0        1.321544   -2.211203    0.814788
      2         11           0        5.051676   -2.104392   -0.574725
      3         11           0        2.891603    0.970765   -0.157795
      4         11           0        1.752878    3.856688    0.148419
      5         11           0       -0.713757    0.520129    0.112228
      6         11           0       -3.543093   -0.814335   -0.067009
      7         11           0       -6.760852   -0.217653   -0.275905
 ---------------------------------------------------------------------

 SCF Done:  E(UB3LYP) =  -1136.11555773     A.U. after   22 cycles

 The electronic state is 2-A.
 Alpha  occ. eigenvalues --  -38.45219 -38.45104 -38.44524 -38.44287 -38.43893
 Alpha  occ. eigenvalues --  -38.43627 -38.43388  -2.20989  -2.20903  -2.20283
 Alpha  occ. eigenvalues --   -2.20148  -2.19712  -2.19499  -2.19201  -1.14684
 Alpha  occ. eigenvalues --   -1.14675  -1.14585  -1.14537  -1.14537  -1.14528
 Alpha  occ. eigenvalues --   -1.13949  -1.13948  -1.13889  -1.13836  -1.13822
 Alpha  occ. eigenvalues --   -1.13770  -1.13402  -1.13380  -1.13356  -1.13199
 Alpha  occ. eigenvalues --   -1.13193  -1.13128  -1.12858  -1.12851  -1.12812
 Alpha  occ. eigenvalues --   -0.16572  -0.14056  -0.12036  -0.11713
 Alpha virt. eigenvalues --   -0.06652  -0.05047  -0.04381  -0.03803  -0.02939
 Alpha virt. eigenvalues --   -0.02432  -0.02323  -0.01519  -0.01250  -0.00989
 Alpha virt. eigenvalues --   -0.00627  -0.00175   0.00064   0.00331   0.00687

  Beta  occ. eigenvalues --  -38.45203 -38.45014 -38.44487 -38.44242 -38.43903
  Beta  occ. eigenvalues --  -38.43609 -38.43366  -2.20962  -2.20734  -2.20213
  Beta  occ. eigenvalues --   -2.20068  -2.19738  -2.19468  -2.19161  -1.14669
  Beta  occ. eigenvalues --   -1.14657  -1.14546  -1.14422  -1.14421  -1.14417
  Beta  occ. eigenvalues --   -1.13901  -1.13898  -1.13846  -1.13797  -1.13770
  Beta  occ. eigenvalues --   -1.13692  -1.13418  -1.13405  -1.13323  -1.13178
  Beta  occ. eigenvalues --   -1.13164  -1.13102  -1.12826  -1.12824  -1.12790
  Beta  occ. eigenvalues --   -0.15980  -0.13310  -0.11710
  Beta virt. eigenvalues --   -0.08424  -0.06051  -0.04883  -0.04060  -0.03629
  Beta virt. eigenvalues --   -0.02559  -0.02185  -0.01861  -0.01412  -0.01031
  Beta virt. eigenvalues --   -0.00607  -0.00374   0.00028   0.00187   0.00395

 Mulliken charges and spin densities:
               1          2
     1  Na   0.050175  -0.012918
     2  Na   1.191495   0.157243
     3  Na  -0.816049   0.345458
     4  Na   0.273355   0.077212
     5  Na  -1.904893  -0.111925
     6  Na   0.126984   0.216517
     7  Na   1.078934   0.328412
 Sum of Mulliken charges =  -0.00000   1.00000

 Dipole moment (field-independent basis, Debye):
    X=             -0.4439    Y=             -0.5387    Z=              0.0888  Tot=              0.7037
 Quadrupole moment (field-independent basis, Debye-Ang):
   XX=            -50.9386   YY=            -65.2633   ZZ=            -72.7644
   XY=             -4.2521   XZ=             -1.3988   YZ=             -0.4682

 Normal termination of Gaussian 16 at Tue Nov 28 23:50:01 2023.
