 Gaussian 16, Revision B.01,
 Gaussian 16:  ES64L-G16RevB.01 20-Dec-2017

 -------------------------
 #P B3LYP/6-311+g(d) force
 -------------------------

 -----
 DPGEN
 -----
 Symbolic Z-matrix:
 Charge =  0 Multiplicity = 2

                         Standard orientation:
 ---------------------------------------------------------------------
 Center     Atomic      Atomic             Coordinates (Angstroms)
 Number     Number       Type             X           Y           Z
 ---------------------------------------------------------------------
      1         11           0        0.120312   -0.394732   -1.328986
      2         11           0       -1.623235    1.319221    0.473914
      3         11           0       -2.579910   -1.127849   -0.681986
      4         11           0       -0.639013   -1.199509    1.427814
      5         11           0        0.633092    2.213252   -0.691186
      6         11           0        1.398241    0.548028    1.264514
      7         11           0        2.690513   -1.358411   -0.464086
 ---------------------------------------------------------------------

 SCF Done:  E(UB3LYP) =  -1136.07089961     A.U. after   21 cycles

 The electronic state is 2-A.
 Alpha  occ. eigenvalues --  -38.44157 -38.44101 -38.44074 -38.44059 -38.43761
 Alpha  occ. eigenvalues --  -38.43643 -38.43498  -2.20366  -2.20280  -2.20200
 Alpha  occ. eigenvalues --   -2.20130  -2.20017  -2.19798  -2.19713  -1.14444
 Alpha  occ. eigenvalues --   -1.14297  -1.14236  -1.14082  -1.13993  -1.13974
 Alpha  occ. eigenvalues --   -1.13906  -1.13846  -1.13808  -1.13793  -1.13699
 Alpha  occ. eigenvalues --   -1.13677  -1.13667  -1.13606  -1.13591  -1.13525
 Alpha  occ. eigenvalues --   -1.13367  -1.13320  -1.13294  -1.13278  -1.13107
 Alpha  occ. eigenvalues --   -0.21429  -0.14075  -0.12394  -0.12316
 Alpha virt. eigenvalues --   -0.05473  -0.04402  -0.03863  -0.03563  -0.02884
 Alpha virt. eigenvalues --   -0.02756  -0.01296  -0.00588  -0.00198   0.00314
 Alpha virt. eigenvalues --    0.00751   0.00817   0.00966   0.01040   0.01128

  Beta  occ. eigenvalues --  -38.44141 -38.44065 -38.44034 -38.44004 -38.43690
  Beta  occ. eigenvalues --  -38.43626 -38.43476  -2.20268  -2.20188  -2.20151
  Beta  occ. eigenvalues --   -2.20020  -2.19992  -2.19768  -2.19681  -1.14355
  Beta  occ. eigenvalues --   -1.14232  -1.14187  -1.14022  -1.13925  -1.13906
  Beta  occ. eigenvalues --   -1.13862  -1.13778  -1.13758  -1.13743  -1.13657
  Beta  occ. eigenvalues --   -1.13610  -1.13599  -1.13574  -1.13561  -1.13468
  Beta  occ. eigenvalues --   -1.13334  -1.13275  -1.13248  -1.13207  -1.13089
  Beta  occ. eigenvalues --   -0.20575  -0.13813  -0.12155
  Beta virt. eigenvalues --   -0.07905  -0.05444  -0.04311  -0.03482  -0.03059
  Beta virt. eigenvalues --   -0.02155  -0.01603  -0.01236  -0.00532   0.00016
  Beta virt. eigenvalues --    0.00348   0.00775   0.00877   0.00970   0.01056

 Mulliken charges and spin densities:
               1          2
     1  Na  -1.091904   0.331506
     2  Na  -0.431927   0.368571
     3  Na   1.329253   0.005652
     4  Na  -0.115251   0.289446
     5  Na   0.680084  -0.014875
     6  Na  -0.128042  -0.019171
     7  Na  -0.242214   0.038871
 Sum of Mulliken charges =  -0.00000   1.00000

 Dipole moment (field-independent basis, Debye):
    X=              0.0876    Y=             -0.4070    Z=             -0.1860  Tot=              0.4560
 Quadrupole moment (field-independent basis, Debye-Ang):
   XX=            -57.2698   YY=            -70.5881   ZZ=            -67.8637
   XY=             -0.1304   XZ=              0.0976   YZ=              0.6145

 Normal termination of Gaussian 16 at Sat Dec  9 06:47:11 2023.
