 Gaussian 16, Revision B.01,
 Gaussian 16:  ES64L-G16RevB.01 20-Dec-2017

 -------------------------
 #P B3LYP/6-311+g(d) force
 -------------------------

 -----
 DPGEN
 -----
 Symbolic Z-matrix:
 Charge =  0 Multiplicity = 2

                         Standard orientation:
 ---------------------------------------------------------------------
 Center     Atomic      Atomic             Coordinates (Angstroms)
 Number     Number       Type             X           Y           Z
 ---------------------------------------------------------------------
      1         11           0        0.684774    1.433419   -1.025557
      2         11           0       -0.499199   -1.886207   -1.283267
      3         11           0       -2.024036    2.824724    0.513391
      4         11           0       -3.301625   -0.933899   -0.826685
      5         11           0        2.423796   -1.646740    0.810754
      6         11           0       -1.210851   -0.755656    2.083927
      7         11           0        3.927142    0.964359   -0.272563
 ---------------------------------------------------------------------

 SCF Done:  E(UB3LYP) =  -1136.11991454     A.U. after   21 cycles

 The electronic state is 2-A.
 Alpha  occ. eigenvalues --  -38.45118 -38.45014 -38.44214 -38.44105 -38.43714
 Alpha  occ. eigenvalues --  -38.43538 -38.43205  -2.20956  -2.20825  -2.20040
 Alpha  occ. eigenvalues --   -2.19937  -2.19556  -2.19440  -2.18983  -1.14667
 Alpha  occ. eigenvalues --   -1.14604  -1.14565  -1.14498  -1.14479  -1.14473
 Alpha  occ. eigenvalues --   -1.13711  -1.13683  -1.13648  -1.13609  -1.13598
 Alpha  occ. eigenvalues --   -1.13572  -1.13254  -1.13238  -1.13169  -1.13114
 Alpha  occ. eigenvalues --   -1.13099  -1.13060  -1.12653  -1.12647  -1.12627
 Alpha  occ. eigenvalues --   -0.17844  -0.13875  -0.11552  -0.10878
 Alpha virt. eigenvalues --   -0.07063  -0.05655  -0.03795  -0.03574  -0.02943
 Alpha virt. eigenvalues --   -0.02526  -0.02435  -0.01284  -0.00647  -0.00373
 Alpha virt. eigenvalues --    0.00010   0.00055   0.00275   0.00543   0.00759

  Beta  occ. eigenvalues --  -38.45088 -38.45012 -38.44134 -38.44085 -38.43697
  Beta  occ. eigenvalues --  -38.43502 -38.43203  -2.20905  -2.20822  -2.19901
  Beta  occ. eigenvalues --   -2.19891  -2.19525  -2.19378  -2.18981  -1.14623
  Beta  occ. eigenvalues --   -1.14563  -1.14527  -1.14494  -1.14477  -1.14468
  Beta  occ. eigenvalues --   -1.13610  -1.13586  -1.13584  -1.13574  -1.13540
  Beta  occ. eigenvalues --   -1.13532  -1.13233  -1.13206  -1.13150  -1.13074
  Beta  occ. eigenvalues --   -1.13057  -1.12991  -1.12652  -1.12642  -1.12623
  Beta  occ. eigenvalues --   -0.17226  -0.13642  -0.11342
  Beta virt. eigenvalues --   -0.07113  -0.06913  -0.05341  -0.03545  -0.03170
  Beta virt. eigenvalues --   -0.02639  -0.02179  -0.01606  -0.01126  -0.00497
  Beta virt. eigenvalues --   -0.00139   0.00046   0.00140   0.00408   0.00584

 Mulliken charges and spin densities:
               1          2
     1  Na  -0.949121   0.141666
     2  Na   0.236658   0.241515
     3  Na   0.292769  -0.024661
     4  Na   0.271401   0.056087
     5  Na   0.084643   0.185561
     6  Na  -0.319157   0.468882
     7  Na   0.382806  -0.069050
 Sum of Mulliken charges =  -0.00000   1.00000

 Dipole moment (field-independent basis, Debye):
    X=              0.4246    Y=             -0.2654    Z=              0.1728  Tot=              0.5297
 Quadrupole moment (field-independent basis, Debye-Ang):
   XX=            -47.1488   YY=            -74.6288   ZZ=            -72.5188
   XY=              0.9992   XZ=              0.0191   YZ=             -0.0485

 Normal termination of Gaussian 16 at Sun Dec  3 17:25:02 2023.
