 Gaussian 16, Revision B.01,
 Gaussian 16:  ES64L-G16RevB.01 20-Dec-2017

 -------------------------
 #P B3LYP/6-311+g(d) force
 -------------------------

 -----
 DPGEN
 -----
 Symbolic Z-matrix:
 Charge =  0 Multiplicity = 2

                         Standard orientation:
 ---------------------------------------------------------------------
 Center     Atomic      Atomic             Coordinates (Angstroms)
 Number     Number       Type             X           Y           Z
 ---------------------------------------------------------------------
      1         11           0        0.350679   -1.254998    1.336213
      2         11           0        5.658320   -0.008650    0.030332
      3         11           0        2.965254   -1.026272   -0.821282
      4         11           0        1.555523    1.973620   -0.019379
      5         11           0       -2.009413    1.746938    0.063790
      6         11           0       -2.938446   -1.518150   -0.506185
      7         11           0       -5.581917    0.087512   -0.083489
 ---------------------------------------------------------------------

 SCF Done:  E(UB3LYP) =  -1136.11824808     A.U. after   20 cycles

 The electronic state is 2-A.
 Alpha  occ. eigenvalues --  -38.44490 -38.44436 -38.44307 -38.43920 -38.43879
 Alpha  occ. eigenvalues --  -38.43858 -38.43629  -2.20339  -2.20255  -2.20136
 Alpha  occ. eigenvalues --   -2.19813  -2.19700  -2.19689  -2.19435  -1.14027
 Alpha  occ. eigenvalues --   -1.14017  -1.13972  -1.13954  -1.13919  -1.13843
 Alpha  occ. eigenvalues --   -1.13827  -1.13791  -1.13731  -1.13512  -1.13492
 Alpha  occ. eigenvalues --   -1.13470  -1.13366  -1.13356  -1.13348  -1.13346
 Alpha  occ. eigenvalues --   -1.13320  -1.13304  -1.13089  -1.13085  -1.13068
 Alpha  occ. eigenvalues --   -0.17048  -0.14476  -0.11432  -0.11095
 Alpha virt. eigenvalues --   -0.06017  -0.05604  -0.05201  -0.03162  -0.03069
 Alpha virt. eigenvalues --   -0.02392  -0.02177  -0.01283  -0.00972  -0.00616
 Alpha virt. eigenvalues --   -0.00197  -0.00026   0.00202   0.00431   0.00655

  Beta  occ. eigenvalues --  -38.44469 -38.44392 -38.44260 -38.43910 -38.43875
  Beta  occ. eigenvalues --  -38.43796 -38.43634  -2.20302  -2.20175  -2.20049
  Beta  occ. eigenvalues --   -2.19796  -2.19682  -2.19587  -2.19445  -1.14001
  Beta  occ. eigenvalues --   -1.13993  -1.13928  -1.13902  -1.13864  -1.13775
  Beta  occ. eigenvalues --   -1.13769  -1.13731  -1.13662  -1.13502  -1.13463
  Beta  occ. eigenvalues --   -1.13459  -1.13350  -1.13342  -1.13314  -1.13289
  Beta  occ. eigenvalues --   -1.13264  -1.13227  -1.13095  -1.13092  -1.13071
  Beta  occ. eigenvalues --   -0.16426  -0.14335  -0.11138
  Beta virt. eigenvalues --   -0.07344  -0.05891  -0.05173  -0.04812  -0.02984
  Beta virt. eigenvalues --   -0.02475  -0.02158  -0.01815  -0.01128  -0.00614
  Beta virt. eigenvalues --   -0.00427  -0.00031   0.00184   0.00362   0.00454

 Mulliken charges and spin densities:
               1          2
     1  Na  -0.140656   0.595091
     2  Na   0.413032  -0.034326
     3  Na  -0.246518  -0.050387
     4  Na  -0.200519   0.246215
     5  Na  -0.185708   0.237950
     6  Na  -0.198610   0.019464
     7  Na   0.558979  -0.014009
 Sum of Mulliken charges =  -0.00000   1.00000

 Dipole moment (field-independent basis, Debye):
    X=             -0.7399    Y=              0.2475    Z=              0.3261  Tot=              0.8456
 Quadrupole moment (field-independent basis, Debye-Ang):
   XX=            -62.1380   YY=            -69.2181   ZZ=            -69.2405
   XY=              1.1097   XZ=              1.9093   YZ=              1.8270

 Normal termination of Gaussian 16 at Wed Nov 29 02:05:19 2023.
