 Gaussian 16, Revision B.01,
 Gaussian 16:  ES64L-G16RevB.01 20-Dec-2017

 -------------------------
 #P B3LYP/6-311+g(d) force
 -------------------------

 -----
 DPGEN
 -----
 Symbolic Z-matrix:
 Charge =  0 Multiplicity = 2

                         Standard orientation:
 ---------------------------------------------------------------------
 Center     Atomic      Atomic             Coordinates (Angstroms)
 Number     Number       Type             X           Y           Z
 ---------------------------------------------------------------------
      1         11           0       -3.628899    1.050736    0.549086
      2         11           0       -0.240698   -0.482592    1.924139
      3         11           0       -2.958993   -1.879562   -0.579938
      4         11           0        2.804120    1.739004    0.073944
      5         11           0        0.975962   -0.937829   -1.485022
      6         11           0       -0.524664    1.866602   -0.904056
      7         11           0        3.573173   -1.356359    0.421847
 ---------------------------------------------------------------------

 SCF Done:  E(UB3LYP) =  -1136.11290345     A.U. after   31 cycles

 The electronic state is 2-A.
 Alpha  occ. eigenvalues --  -38.46093 -38.45199 -38.44480 -38.44433 -38.44146
 Alpha  occ. eigenvalues --  -38.43570 -38.42000  -2.21858  -2.21015  -2.20322
 Alpha  occ. eigenvalues --   -2.20232  -2.19994  -2.19494  -2.17894  -1.15564
 Alpha  occ. eigenvalues --   -1.15513  -1.15465  -1.14697  -1.14663  -1.14652
 Alpha  occ. eigenvalues --   -1.14007  -1.13994  -1.13968  -1.13905  -1.13883
 Alpha  occ. eigenvalues --   -1.13871  -1.13668  -1.13652  -1.13621  -1.13191
 Alpha  occ. eigenvalues --   -1.13130  -1.13102  -1.11600  -1.11552  -1.11513
 Alpha  occ. eigenvalues --   -0.18223  -0.14517  -0.10759  -0.10617
 Alpha virt. eigenvalues --   -0.07634  -0.06085  -0.04258  -0.03155  -0.02939
 Alpha virt. eigenvalues --   -0.02389  -0.02219  -0.01606  -0.00808  -0.00685
 Alpha virt. eigenvalues --   -0.00029   0.00138   0.00286   0.00506   0.00529

  Beta  occ. eigenvalues --  -38.46063 -38.45184 -38.44480 -38.44412 -38.44128
  Beta  occ. eigenvalues --  -38.43497 -38.41975  -2.21803  -2.20988  -2.20324
  Beta  occ. eigenvalues --   -2.20195  -2.19962  -2.19362  -2.17853  -1.15519
  Beta  occ. eigenvalues --   -1.15472  -1.15426  -1.14675  -1.14643  -1.14630
  Beta  occ. eigenvalues --   -1.14011  -1.13990  -1.13952  -1.13884  -1.13851
  Beta  occ. eigenvalues --   -1.13835  -1.13645  -1.13625  -1.13598  -1.13101
  Beta  occ. eigenvalues --   -1.13027  -1.13009  -1.11569  -1.11498  -1.11490
  Beta  occ. eigenvalues --   -0.17568  -0.14229  -0.10601
  Beta virt. eigenvalues --   -0.07356  -0.06929  -0.05958  -0.03697  -0.02997
  Beta virt. eigenvalues --   -0.02787  -0.01769  -0.01636  -0.01342  -0.00662
  Beta virt. eigenvalues --   -0.00411   0.00035   0.00149   0.00439   0.00577

 Mulliken charges and spin densities:
               1          2
     1  Na   0.635956   0.188647
     2  Na  -0.387232   0.199672
     3  Na  -0.131318   0.071289
     4  Na   0.052579   0.033015
     5  Na  -0.284067   0.281524
     6  Na  -0.401701   0.001907
     7  Na   0.515783   0.223946
 Sum of Mulliken charges =  -0.00000   1.00000

 Dipole moment (field-independent basis, Debye):
    X=             -0.3773    Y=              0.1017    Z=              0.6216  Tot=              0.7342
 Quadrupole moment (field-independent basis, Debye-Ang):
   XX=            -48.3188   YY=            -75.6645   ZZ=            -71.8967
   XY=              0.1260   XZ=              0.6542   YZ=              1.7741

 Normal termination of Gaussian 16 at Fri Dec  8 03:41:27 2023.
