 Gaussian 16, Revision B.01,
 Gaussian 16:  ES64L-G16RevB.01 20-Dec-2017

 -------------------------
 #P B3LYP/6-311+g(d) force
 -------------------------

 -----
 DPGEN
 -----
 Symbolic Z-matrix:
 Charge =  0 Multiplicity = 2

                         Standard orientation:
 ---------------------------------------------------------------------
 Center     Atomic      Atomic             Coordinates (Angstroms)
 Number     Number       Type             X           Y           Z
 ---------------------------------------------------------------------
      1         11           0        1.852926   -1.904040    0.675317
      2         11           0        2.189566    1.833539    0.647685
      3         11           0       -0.943520    3.346225   -0.302798
      4         11           0        4.547960   -0.730202   -0.674524
      5         11           0       -3.072353   -3.149219   -0.106247
      6         11           0       -3.855372    1.036226    0.123105
      7         11           0       -0.719208   -0.432529   -0.362537
 ---------------------------------------------------------------------

 SCF Done:  E(UB3LYP) =  -1136.12028191     A.U. after   22 cycles

 The electronic state is 2-A.
 Alpha  occ. eigenvalues --  -38.45028 -38.44694 -38.44479 -38.44128 -38.43748
 Alpha  occ. eigenvalues --  -38.43515 -38.43431  -2.20749  -2.20494  -2.20335
 Alpha  occ. eigenvalues --   -2.19927  -2.19591  -2.19336  -2.19298  -1.14437
 Alpha  occ. eigenvalues --   -1.14408  -1.14392  -1.14192  -1.14163  -1.14099
 Alpha  occ. eigenvalues --   -1.14052  -1.14013  -1.13944  -1.13592  -1.13581
 Alpha  occ. eigenvalues --   -1.13528  -1.13244  -1.13229  -1.13200  -1.13046
 Alpha  occ. eigenvalues --   -1.13025  -1.12985  -1.12958  -1.12945  -1.12916
 Alpha  occ. eigenvalues --   -0.17030  -0.14013  -0.12179  -0.10159
 Alpha virt. eigenvalues --   -0.06939  -0.05434  -0.04886  -0.03323  -0.02568
 Alpha virt. eigenvalues --   -0.02454  -0.02124  -0.01609  -0.01079  -0.00768
 Alpha virt. eigenvalues --   -0.00067   0.00067   0.00342   0.00447   0.00503

  Beta  occ. eigenvalues --  -38.45048 -38.44673 -38.44463 -38.44055 -38.43664
  Beta  occ. eigenvalues --  -38.43519 -38.43396  -2.20788  -2.20457  -2.20313
  Beta  occ. eigenvalues --   -2.19791  -2.19433  -2.19309  -2.19276  -1.14464
  Beta  occ. eigenvalues --   -1.14426  -1.14419  -1.14168  -1.14132  -1.14066
  Beta  occ. eigenvalues --   -1.14017  -1.13988  -1.13919  -1.13499  -1.13492
  Beta  occ. eigenvalues --   -1.13436  -1.13136  -1.13120  -1.13100  -1.13001
  Beta  occ. eigenvalues --   -1.12996  -1.12973  -1.12959  -1.12929  -1.12878
  Beta  occ. eigenvalues --   -0.16441  -0.13388  -0.11991
  Beta virt. eigenvalues --   -0.06833  -0.06628  -0.05130  -0.04662  -0.02777
  Beta virt. eigenvalues --   -0.02344  -0.02152  -0.01672  -0.01575  -0.01029
  Beta virt. eigenvalues --   -0.00384   0.00213   0.00295   0.00445   0.00562

 Mulliken charges and spin densities:
               1          2
     1  Na   0.009502   0.172659
     2  Na   0.369919   0.094843
     3  Na   0.337288  -0.047521
     4  Na   0.527548   0.463043
     5  Na   0.189349  -0.079694
     6  Na   0.539526   0.428844
     7  Na  -1.973132  -0.032174
 Sum of Mulliken charges =  -0.00000   1.00000

 Dipole moment (field-independent basis, Debye):
    X=             -0.2612    Y=             -0.4317    Z=              0.3467  Tot=              0.6122
 Quadrupole moment (field-independent basis, Debye-Ang):
   XX=            -66.7468   YY=            -60.2521   ZZ=            -70.8237
   XY=              7.6939   XZ=              0.1593   YZ=             -0.6966

 Normal termination of Gaussian 16 at Wed Nov 29 16:27:44 2023.
