 Gaussian 16, Revision B.01,
 Gaussian 16:  ES64L-G16RevB.01 20-Dec-2017

 -------------------------
 #P B3LYP/6-311+g(d) force
 -------------------------

 -----
 DPGEN
 -----
 Symbolic Z-matrix:
 Charge =  0 Multiplicity = 2

                         Standard orientation:
 ---------------------------------------------------------------------
 Center     Atomic      Atomic             Coordinates (Angstroms)
 Number     Number       Type             X           Y           Z
 ---------------------------------------------------------------------
      1         11           0       -1.362102    1.999094   -0.851575
      2         11           0       -1.483286   -2.192015    0.426877
      3         11           0        0.915915   -0.368985   -1.603365
      4         11           0        2.967853   -2.179558   -0.333421
      5         11           0       -3.741209   -0.192788    0.017981
      6         11           0        0.688380    0.266968    2.052876
      7         11           0        2.014450    2.667284    0.290627
 ---------------------------------------------------------------------

 SCF Done:  E(UB3LYP) =  -1136.12608280     A.U. after   19 cycles

 The electronic state is 2-A.
 Alpha  occ. eigenvalues --  -38.44326 -38.44112 -38.44045 -38.44025 -38.43866
 Alpha  occ. eigenvalues --  -38.43554 -38.43463  -2.20162  -2.19922  -2.19893
 Alpha  occ. eigenvalues --   -2.19889  -2.19687  -2.19411  -2.19400  -1.13888
 Alpha  occ. eigenvalues --   -1.13817  -1.13807  -1.13651  -1.13575  -1.13564
 Alpha  occ. eigenvalues --   -1.13558  -1.13551  -1.13547  -1.13538  -1.13507
 Alpha  occ. eigenvalues --   -1.13496  -1.13351  -1.13342  -1.13319  -1.13137
 Alpha  occ. eigenvalues --   -1.13075  -1.13057  -1.13043  -1.13016  -1.12995
 Alpha  occ. eigenvalues --   -0.18133  -0.13339  -0.12164  -0.10931
 Alpha virt. eigenvalues --   -0.06229  -0.05627  -0.04071  -0.03317  -0.02880
 Alpha virt. eigenvalues --   -0.02677  -0.01928  -0.01549  -0.00457  -0.00170
 Alpha virt. eigenvalues --   -0.00072   0.00223   0.00688   0.00728   0.00819

  Beta  occ. eigenvalues --  -38.44331 -38.44104 -38.44027 -38.43937 -38.43861
  Beta  occ. eigenvalues --  -38.43523 -38.43410  -2.20173  -2.19909  -2.19862
  Beta  occ. eigenvalues --   -2.19729  -2.19681  -2.19356  -2.19303  -1.13891
  Beta  occ. eigenvalues --   -1.13825  -1.13805  -1.13631  -1.13553  -1.13544
  Beta  occ. eigenvalues --   -1.13535  -1.13519  -1.13485  -1.13454  -1.13433
  Beta  occ. eigenvalues --   -1.13399  -1.13339  -1.13313  -1.13310  -1.13086
  Beta  occ. eigenvalues --   -1.13028  -1.12994  -1.12980  -1.12974  -1.12931
  Beta  occ. eigenvalues --   -0.17465  -0.13128  -0.11888
  Beta virt. eigenvalues --   -0.07151  -0.06019  -0.05427  -0.03986  -0.02727
  Beta virt. eigenvalues --   -0.02272  -0.01928  -0.01660  -0.01450  -0.00336
  Beta virt. eigenvalues --   -0.00095   0.00046   0.00267   0.00770   0.00814

 Mulliken charges and spin densities:
               1          2
     1  Na   0.201320   0.268204
     2  Na   0.205987   0.295730
     3  Na  -0.159001   0.092702
     4  Na   0.125500   0.017354
     5  Na  -0.223821  -0.149979
     6  Na  -0.217752   0.459579
     7  Na   0.067767   0.016410
 Sum of Mulliken charges =  -0.00000   1.00000

 Dipole moment (field-independent basis, Debye):
    X=              0.0970    Y=              0.0729    Z=              0.3062  Tot=              0.3294
 Quadrupole moment (field-independent basis, Debye-Ang):
   XX=            -54.1594   YY=            -66.5453   ZZ=            -73.9504
   XY=              0.2976   XZ=              0.9296   YZ=             -1.5916

 Normal termination of Gaussian 16 at Mon Dec  4 01:28:33 2023.
