 Gaussian 16, Revision B.01,
 Gaussian 16:  ES64L-G16RevB.01 20-Dec-2017

 -------------------------
 #P B3LYP/6-311+g(d) force
 -------------------------

 -----
 DPGEN
 -----
 Symbolic Z-matrix:
 Charge =  0 Multiplicity = 2

                         Standard orientation:
 ---------------------------------------------------------------------
 Center     Atomic      Atomic             Coordinates (Angstroms)
 Number     Number       Type             X           Y           Z
 ---------------------------------------------------------------------
      1         11           0        0.842185   -0.930597   -0.879336
      2         11           0        6.061024   -0.239607   -0.870822
      3         11           0        3.231578    0.572708    0.897839
      4         11           0        0.038499    2.175018    0.587594
      5         11           0       -2.408198   -0.383033   -0.925625
      6         11           0       -1.462218   -1.683578    1.728716
      7         11           0       -6.302871    0.489089   -0.538365
 ---------------------------------------------------------------------

 SCF Done:  E(UB3LYP) =  -1136.10028863     A.U. after   28 cycles

 The electronic state is 2-A.
 Alpha  occ. eigenvalues --  -38.46445 -38.45740 -38.44451 -38.44244 -38.44086
 Alpha  occ. eigenvalues --  -38.43586 -38.43553  -2.22269  -2.21611  -2.20313
 Alpha  occ. eigenvalues --   -2.19999  -2.19934  -2.19429  -2.19291  -1.15936
 Alpha  occ. eigenvalues --   -1.15916  -1.15880  -1.15326  -1.15252  -1.15236
 Alpha  occ. eigenvalues --   -1.14030  -1.13987  -1.13929  -1.13649  -1.13647
 Alpha  occ. eigenvalues --   -1.13605  -1.13595  -1.13573  -1.13543  -1.13132
 Alpha  occ. eigenvalues --   -1.13111  -1.13034  -1.12971  -1.12969  -1.12927
 Alpha  occ. eigenvalues --   -0.18012  -0.13516  -0.11514  -0.11044
 Alpha virt. eigenvalues --   -0.07588  -0.06593  -0.04145  -0.03580  -0.02975
 Alpha virt. eigenvalues --   -0.02675  -0.02190  -0.01777  -0.01435  -0.01245
 Alpha virt. eigenvalues --   -0.00614  -0.00109   0.00178   0.00254   0.00330

  Beta  occ. eigenvalues --  -38.46394 -38.45732 -38.44459 -38.44161 -38.44005
  Beta  occ. eigenvalues --  -38.43589 -38.43577  -2.22174  -2.21600  -2.20333
  Beta  occ. eigenvalues --   -2.19844  -2.19783  -2.19413  -2.19359  -1.15879
  Beta  occ. eigenvalues --   -1.15838  -1.15818  -1.15321  -1.15234  -1.15210
  Beta  occ. eigenvalues --   -1.14050  -1.13976  -1.13932  -1.13544  -1.13542
  Beta  occ. eigenvalues --   -1.13503  -1.13491  -1.13466  -1.13449  -1.13121
  Beta  occ. eigenvalues --   -1.13099  -1.13037  -1.13017  -1.13013  -1.12960
  Beta  occ. eigenvalues --   -0.17488  -0.13348  -0.10583
  Beta virt. eigenvalues --   -0.07930  -0.07331  -0.06161  -0.04018  -0.03164
  Beta virt. eigenvalues --   -0.02628  -0.02278  -0.01788  -0.01568  -0.01129
  Beta virt. eigenvalues --   -0.01063  -0.00420   0.00109   0.00226   0.00331

 Mulliken charges and spin densities:
               1          2
     1  Na   0.321466   0.704296
     2  Na  -0.011477  -0.159589
     3  Na  -0.018587  -0.111392
     4  Na  -0.036485   0.400873
     5  Na  -0.634721  -0.236274
     6  Na   0.174400   0.094804
     7  Na   0.205404   0.307282
 Sum of Mulliken charges =  -0.00000   1.00000

 Dipole moment (field-independent basis, Debye):
    X=             -0.3544    Y=             -0.6348    Z=              1.1265  Tot=              1.3407
 Quadrupole moment (field-independent basis, Debye-Ang):
   XX=            -84.3429   YY=            -72.9428   ZZ=            -60.5583
   XY=             -1.4173   XZ=             -5.8135   YZ=             -0.3318

 Normal termination of Gaussian 16 at Tue Nov 28 19:21:49 2023.
