 Gaussian 16, Revision B.01,
 Gaussian 16:  ES64L-G16RevB.01 20-Dec-2017

 -------------------------
 #P B3LYP/6-311+g(d) force
 -------------------------

 -----
 DPGEN
 -----
 Symbolic Z-matrix:
 Charge =  0 Multiplicity = 2

                         Standard orientation:
 ---------------------------------------------------------------------
 Center     Atomic      Atomic             Coordinates (Angstroms)
 Number     Number       Type             X           Y           Z
 ---------------------------------------------------------------------
      1         11           0       -3.564132   -1.310544    0.915138
      2         11           0        3.579392   -0.549566    1.574592
      3         11           0        3.066288    2.367751   -0.681049
      4         11           0       -0.210966    3.590914   -0.523271
      5         11           0       -3.495076    1.962900    0.360446
      6         11           0        1.808578   -3.182208   -0.362740
      7         11           0       -1.184085   -2.879247   -1.283117
 ---------------------------------------------------------------------

 SCF Done:  E(UB3LYP) =  -1136.10837813     A.U. after   22 cycles

 The electronic state is 2-A.
 Alpha  occ. eigenvalues --  -38.45075 -38.44885 -38.44730 -38.44690 -38.44156
 Alpha  occ. eigenvalues --  -38.44128 -38.44036  -2.20820  -2.20672  -2.20518
 Alpha  occ. eigenvalues --   -2.20461  -2.19945  -2.19902  -2.19855  -1.14506
 Alpha  occ. eigenvalues --   -1.14492  -1.14458  -1.14339  -1.14335  -1.14316
 Alpha  occ. eigenvalues --   -1.14210  -1.14189  -1.14159  -1.14135  -1.14120
 Alpha  occ. eigenvalues --   -1.14095  -1.13595  -1.13579  -1.13571  -1.13569
 Alpha  occ. eigenvalues --   -1.13558  -1.13526  -1.13514  -1.13504  -1.13486
 Alpha  occ. eigenvalues --   -0.15569  -0.13710  -0.13402  -0.10703
 Alpha virt. eigenvalues --   -0.07596  -0.04949  -0.04628  -0.03549  -0.03393
 Alpha virt. eigenvalues --   -0.02083  -0.02032  -0.01653  -0.01424  -0.01249
 Alpha virt. eigenvalues --   -0.00743  -0.00066   0.00037   0.00349   0.00722

  Beta  occ. eigenvalues --  -38.45075 -38.44860 -38.44714 -38.44678 -38.44082
  Beta  occ. eigenvalues --  -38.44076 -38.43992  -2.20825  -2.20628  -2.20497
  Beta  occ. eigenvalues --   -2.20444  -2.19816  -2.19795  -2.19778  -1.14514
  Beta  occ. eigenvalues --   -1.14499  -1.14429  -1.14311  -1.14306  -1.14273
  Beta  occ. eigenvalues --   -1.14188  -1.14180  -1.14126  -1.14113  -1.14112
  Beta  occ. eigenvalues --   -1.14064  -1.13510  -1.13501  -1.13492  -1.13479
  Beta  occ. eigenvalues --   -1.13473  -1.13467  -1.13460  -1.13454  -1.13426
  Beta  occ. eigenvalues --   -0.15069  -0.12970  -0.12714
  Beta virt. eigenvalues --   -0.07809  -0.07550  -0.04470  -0.04151  -0.03342
  Beta virt. eigenvalues --   -0.03079  -0.01926  -0.01789  -0.01539  -0.01153
  Beta virt. eigenvalues --   -0.01030  -0.00485   0.00179   0.00263   0.00334

 Mulliken charges and spin densities:
               1          2
     1  Na   0.023622   0.118035
     2  Na  -0.018249   0.386401
     3  Na   0.009696  -0.038294
     4  Na  -0.029513   0.235233
     5  Na   0.109689   0.061628
     6  Na   0.010585   0.058728
     7  Na  -0.105830   0.178270
 Sum of Mulliken charges =  -0.00000   1.00000

 Dipole moment (field-independent basis, Debye):
    X=             -0.3440    Y=             -0.1277    Z=              0.0769  Tot=              0.3749
 Quadrupole moment (field-independent basis, Debye-Ang):
   XX=            -63.4735   YY=            -67.7452   ZZ=            -70.0423
   XY=              0.1501   XZ=             -1.8039   YZ=             -1.7896

 Normal termination of Gaussian 16 at Sun Dec  3 18:13:26 2023.
