 Gaussian 16, Revision B.01,
 Gaussian 16:  ES64L-G16RevB.01 20-Dec-2017

 -------------------------
 #P B3LYP/6-311+g(d) force
 -------------------------

 -----
 DPGEN
 -----
 Symbolic Z-matrix:
 Charge =  0 Multiplicity = 2

                         Standard orientation:
 ---------------------------------------------------------------------
 Center     Atomic      Atomic             Coordinates (Angstroms)
 Number     Number       Type             X           Y           Z
 ---------------------------------------------------------------------
      1         11           0        2.727324    1.742841    0.245345
      2         11           0       -1.019744    2.716056   -0.182049
      3         11           0        0.433290   -0.161823   -1.593089
      4         11           0       -3.321575    0.042348   -0.215552
      5         11           0        2.510656   -1.846211   -0.133444
      6         11           0       -1.135596   -2.526239    0.191552
      7         11           0       -0.194356    0.033028    1.687238
 ---------------------------------------------------------------------

 SCF Done:  E(UB3LYP) =  -1136.13522250     A.U. after   20 cycles

 The electronic state is 2-A.
 Alpha  occ. eigenvalues --  -38.44372 -38.44173 -38.43942 -38.43380 -38.43193
 Alpha  occ. eigenvalues --  -38.43024 -38.42967  -2.20192  -2.19983  -2.19805
 Alpha  occ. eigenvalues --   -2.19221  -2.19096  -2.19026  -2.18952  -1.13859
 Alpha  occ. eigenvalues --   -1.13851  -1.13839  -1.13657  -1.13645  -1.13622
 Alpha  occ. eigenvalues --   -1.13531  -1.13452  -1.13423  -1.12915  -1.12898
 Alpha  occ. eigenvalues --   -1.12856  -1.12842  -1.12776  -1.12723  -1.12706
 Alpha  occ. eigenvalues --   -1.12655  -1.12628  -1.12617  -1.12566  -1.12546
 Alpha  occ. eigenvalues --   -0.18830  -0.13307  -0.12396  -0.10239
 Alpha virt. eigenvalues --   -0.05974  -0.05440  -0.04471  -0.03123  -0.02622
 Alpha virt. eigenvalues --   -0.01990  -0.01847  -0.01289  -0.00470  -0.00331
 Alpha virt. eigenvalues --    0.00026   0.00323   0.00753   0.00838   0.00880

  Beta  occ. eigenvalues --  -38.44368 -38.44167 -38.43935 -38.43373 -38.43182
  Beta  occ. eigenvalues --  -38.42958 -38.42888  -2.20187  -2.19975  -2.19795
  Beta  occ. eigenvalues --   -2.19213  -2.19080  -2.18907  -2.18808  -1.13854
  Beta  occ. eigenvalues --   -1.13840  -1.13830  -1.13642  -1.13634  -1.13616
  Beta  occ. eigenvalues --   -1.13514  -1.13426  -1.13421  -1.12909  -1.12871
  Beta  occ. eigenvalues --   -1.12835  -1.12829  -1.12729  -1.12702  -1.12643
  Beta  occ. eigenvalues --   -1.12567  -1.12548  -1.12523  -1.12466  -1.12444
  Beta  occ. eigenvalues --   -0.18134  -0.13062  -0.12120
  Beta virt. eigenvalues --   -0.06400  -0.05926  -0.05402  -0.04465  -0.02363
  Beta virt. eigenvalues --   -0.01878  -0.01745  -0.01223  -0.01002  -0.00514
  Beta virt. eigenvalues --   -0.00363   0.00161   0.00366   0.00809   0.00843

 Mulliken charges and spin densities:
               1          2
     1  Na   0.011019  -0.082137
     2  Na  -0.014150  -0.088966
     3  Na  -0.374457   0.649050
     4  Na  -0.013687  -0.019221
     5  Na   0.366780  -0.065127
     6  Na   0.310565  -0.057956
     7  Na  -0.286070   0.664357
 Sum of Mulliken charges =  -0.00000   1.00000

 Dipole moment (field-independent basis, Debye):
    X=              0.1051    Y=              0.1135    Z=              0.0339  Tot=              0.1583
 Quadrupole moment (field-independent basis, Debye-Ang):
   XX=            -51.3197   YY=            -62.7665   ZZ=            -76.9583
   XY=              0.2826   XZ=              1.6216   YZ=             -0.3048

 Normal termination of Gaussian 16 at Tue Dec  5 18:47:44 2023.
