 Gaussian 16, Revision B.01,
 Gaussian 16:  ES64L-G16RevB.01 20-Dec-2017

 -------------------------
 #P B3LYP/6-311+g(d) force
 -------------------------

 -----
 DPGEN
 -----
 Symbolic Z-matrix:
 Charge =  0 Multiplicity = 2

                         Standard orientation:
 ---------------------------------------------------------------------
 Center     Atomic      Atomic             Coordinates (Angstroms)
 Number     Number       Type             X           Y           Z
 ---------------------------------------------------------------------
      1         11           0        0.075182   -0.163741    1.844328
      2         11           0        2.636485    1.242797   -0.413297
      3         11           0       -1.226890   -2.711290    0.106669
      4         11           0       -3.326009    0.233796   -0.299729
      5         11           0       -0.189420    0.391987   -1.760999
      6         11           0       -0.267304    3.138740    0.565441
      7         11           0        2.297955   -2.132289   -0.042413
 ---------------------------------------------------------------------

 SCF Done:  E(UB3LYP) =  -1136.13868580     A.U. after   19 cycles

 The electronic state is 2-A.
 Alpha  occ. eigenvalues --  -38.44053 -38.43796 -38.43690 -38.43575 -38.43523
 Alpha  occ. eigenvalues --  -38.43433 -38.43388  -2.19843  -2.19608  -2.19526
 Alpha  occ. eigenvalues --   -2.19445  -2.19358  -2.19349  -2.19309  -1.13522
 Alpha  occ. eigenvalues --   -1.13493  -1.13486  -1.13282  -1.13264  -1.13250
 Alpha  occ. eigenvalues --   -1.13227  -1.13200  -1.13164  -1.13146  -1.13114
 Alpha  occ. eigenvalues --   -1.13076  -1.13039  -1.13027  -1.13010  -1.12991
 Alpha  occ. eigenvalues --   -1.12979  -1.12975  -1.12954  -1.12932  -1.12927
 Alpha  occ. eigenvalues --   -0.18417  -0.12819  -0.12543  -0.10658
 Alpha virt. eigenvalues --   -0.05581  -0.05145  -0.04980  -0.03089  -0.02977
 Alpha virt. eigenvalues --   -0.02417  -0.01494  -0.01334  -0.00482  -0.00392
 Alpha virt. eigenvalues --   -0.00005   0.00347   0.00801   0.00833   0.00868

  Beta  occ. eigenvalues --  -38.44047 -38.43779 -38.43686 -38.43561 -38.43521
  Beta  occ. eigenvalues --  -38.43355 -38.43321  -2.19834  -2.19579  -2.19522
  Beta  occ. eigenvalues --   -2.19425  -2.19358  -2.19205  -2.19186  -1.13503
  Beta  occ. eigenvalues --   -1.13487  -1.13482  -1.13253  -1.13236  -1.13232
  Beta  occ. eigenvalues --   -1.13215  -1.13188  -1.13141  -1.13138  -1.13094
  Beta  occ. eigenvalues --   -1.13053  -1.13020  -1.13015  -1.12980  -1.12936
  Beta  occ. eigenvalues --   -1.12895  -1.12880  -1.12851  -1.12849  -1.12835
  Beta  occ. eigenvalues --   -0.17718  -0.12555  -0.12293
  Beta virt. eigenvalues --   -0.06837  -0.05529  -0.05039  -0.04948  -0.02351
  Beta virt. eigenvalues --   -0.02279  -0.01464  -0.01361  -0.01204  -0.00512
  Beta virt. eigenvalues --   -0.00425   0.00121   0.00380   0.00814   0.00859

 Mulliken charges and spin densities:
               1          2
     1  Na  -0.135943   0.643050
     2  Na   0.302655   0.049797
     3  Na   0.039874  -0.091744
     4  Na   0.011984  -0.083045
     5  Na  -0.144839   0.551739
     6  Na  -0.027326   0.010304
     7  Na  -0.046404  -0.080101
 Sum of Mulliken charges =  -0.00000   1.00000

 Dipole moment (field-independent basis, Debye):
    X=             -0.2513    Y=              0.0814    Z=              0.0332  Tot=              0.2662
 Quadrupole moment (field-independent basis, Debye-Ang):
   XX=            -58.4467   YY=            -59.9222   ZZ=            -74.7293
   XY=             -0.7534   XZ=             -0.6773   YZ=              1.2165

 Normal termination of Gaussian 16 at Tue Dec  5 17:11:52 2023.
