 Gaussian 16, Revision B.01,
 Gaussian 16:  ES64L-G16RevB.01 20-Dec-2017

 -------------------------
 #P B3LYP/6-311+g(d) force
 -------------------------

 -----
 DPGEN
 -----
 Symbolic Z-matrix:
 Charge =  0 Multiplicity = 2

                         Standard orientation:
 ---------------------------------------------------------------------
 Center     Atomic      Atomic             Coordinates (Angstroms)
 Number     Number       Type             X           Y           Z
 ---------------------------------------------------------------------
      1         11           0       -2.729811   -1.157378   -0.221002
      2         11           0       -2.279817    1.937419    0.025595
      3         11           0        1.613994    2.688245    0.068934
      4         11           0        0.366711    0.386458   -1.504387
      5         11           0        2.888122   -0.563871    0.301038
      6         11           0       -0.474655   -0.395307    1.644242
      7         11           0        0.615457   -2.895566   -0.314421
 ---------------------------------------------------------------------

 SCF Done:  E(UB3LYP) =  -1136.13401952     A.U. after   19 cycles

 The electronic state is 2-A.
 Alpha  occ. eigenvalues --  -38.43923 -38.43915 -38.43883 -38.43714 -38.43347
 Alpha  occ. eigenvalues --  -38.42957 -38.42739  -2.19833  -2.19799  -2.19763
 Alpha  occ. eigenvalues --   -2.19563  -2.19219  -2.18966  -2.18775  -1.13583
 Alpha  occ. eigenvalues --   -1.13520  -1.13493  -1.13466  -1.13460  -1.13434
 Alpha  occ. eigenvalues --   -1.13428  -1.13416  -1.13359  -1.13281  -1.13209
 Alpha  occ. eigenvalues --   -1.13189  -1.12898  -1.12880  -1.12860  -1.12663
 Alpha  occ. eigenvalues --   -1.12600  -1.12567  -1.12458  -1.12402  -1.12394
 Alpha  occ. eigenvalues --   -0.19107  -0.13466  -0.12648  -0.10184
 Alpha virt. eigenvalues --   -0.05526  -0.05382  -0.04899  -0.03168  -0.02685
 Alpha virt. eigenvalues --   -0.01829  -0.01475  -0.01251  -0.00434  -0.00351
 Alpha virt. eigenvalues --    0.00059   0.00365   0.00846   0.00868   0.00891

  Beta  occ. eigenvalues --  -38.43914 -38.43907 -38.43877 -38.43712 -38.43338
  Beta  occ. eigenvalues --  -38.42886 -38.42676  -2.19822  -2.19786  -2.19755
  Beta  occ. eigenvalues --   -2.19561  -2.19206  -2.18835  -2.18661  -1.13577
  Beta  occ. eigenvalues --   -1.13508  -1.13484  -1.13435  -1.13432  -1.13424
  Beta  occ. eigenvalues --   -1.13420  -1.13385  -1.13357  -1.13274  -1.13193
  Beta  occ. eigenvalues --   -1.13190  -1.12891  -1.12857  -1.12840  -1.12573
  Beta  occ. eigenvalues --   -1.12505  -1.12473  -1.12373  -1.12319  -1.12310
  Beta  occ. eigenvalues --   -0.18397  -0.13206  -0.12410
  Beta virt. eigenvalues --   -0.06316  -0.05506  -0.05337  -0.04868  -0.02349
  Beta virt. eigenvalues --   -0.01962  -0.01386  -0.01191  -0.00883  -0.00468
  Beta virt. eigenvalues --   -0.00383   0.00200   0.00406   0.00864   0.00888

 Mulliken charges and spin densities:
               1          2
     1  Na   0.302791   0.033986
     2  Na   0.114014  -0.097805
     3  Na   0.124006  -0.087505
     4  Na  -0.389811   0.550068
     5  Na   0.121508   0.007017
     6  Na  -0.364788   0.596802
     7  Na   0.092280  -0.002564
 Sum of Mulliken charges =  -0.00000   1.00000

 Dipole moment (field-independent basis, Debye):
    X=             -0.0326    Y=              0.1218    Z=              0.0534  Tot=              0.1370
 Quadrupole moment (field-independent basis, Debye-Ang):
   XX=            -55.8901   YY=            -58.9337   ZZ=            -76.9861
   XY=             -0.1284   XZ=              1.9167   YZ=              1.8383

 Normal termination of Gaussian 16 at Tue Nov 28 23:39:15 2023.
