 Gaussian 16, Revision B.01,
 Gaussian 16:  ES64L-G16RevB.01 20-Dec-2017

 -------------------------
 #P B3LYP/6-311+g(d) force
 -------------------------

 -----
 DPGEN
 -----
 Symbolic Z-matrix:
 Charge =  0 Multiplicity = 2

                         Standard orientation:
 ---------------------------------------------------------------------
 Center     Atomic      Atomic             Coordinates (Angstroms)
 Number     Number       Type             X           Y           Z
 ---------------------------------------------------------------------
      1         11           0        2.462497   -1.628103    0.354397
      2         11           0       -2.947689    0.416147   -0.295727
      3         11           0        0.237765   -0.128534   -1.660998
      4         11           0       -1.394403   -2.500453   -0.311507
      5         11           0       -0.934019    2.524664    0.404402
      6         11           0       -0.043896   -0.258879    2.012455
      7         11           0        2.619745    1.575159   -0.503023
 ---------------------------------------------------------------------

 SCF Done:  E(UB3LYP) =  -1136.13470505     A.U. after   19 cycles

 The electronic state is 2-A.
 Alpha  occ. eigenvalues --  -38.43926 -38.43884 -38.43774 -38.43727 -38.43334
 Alpha  occ. eigenvalues --  -38.43142 -38.42975  -2.19833  -2.19758  -2.19661
 Alpha  occ. eigenvalues --   -2.19637  -2.19349  -2.19025  -2.18880  -1.13542
 Alpha  occ. eigenvalues --   -1.13487  -1.13478  -1.13468  -1.13437  -1.13395
 Alpha  occ. eigenvalues --   -1.13349  -1.13323  -1.13283  -1.13276  -1.13273
 Alpha  occ. eigenvalues --   -1.13256  -1.13031  -1.12996  -1.12968  -1.12701
 Alpha  occ. eigenvalues --   -1.12684  -1.12646  -1.12562  -1.12541  -1.12502
 Alpha  occ. eigenvalues --   -0.19122  -0.13461  -0.12235  -0.11208
 Alpha virt. eigenvalues --   -0.05532  -0.05160  -0.04170  -0.03517  -0.02932
 Alpha virt. eigenvalues --   -0.02748  -0.01489  -0.01009  -0.00146  -0.00028
 Alpha virt. eigenvalues --    0.00091   0.00363   0.00807   0.00904   0.00960

  Beta  occ. eigenvalues --  -38.43921 -38.43873 -38.43763 -38.43633 -38.43270
  Beta  occ. eigenvalues --  -38.43134 -38.42966  -2.19826  -2.19742  -2.19618
  Beta  occ. eigenvalues --   -2.19487  -2.19232  -2.19015  -2.18867  -1.13541
  Beta  occ. eigenvalues --   -1.13479  -1.13454  -1.13451  -1.13397  -1.13387
  Beta  occ. eigenvalues --   -1.13321  -1.13253  -1.13247  -1.13211  -1.13162
  Beta  occ. eigenvalues --   -1.13152  -1.12952  -1.12914  -1.12886  -1.12687
  Beta  occ. eigenvalues --   -1.12667  -1.12630  -1.12557  -1.12520  -1.12481
  Beta  occ. eigenvalues --   -0.18388  -0.13185  -0.11961
  Beta virt. eigenvalues --   -0.07261  -0.05481  -0.05120  -0.04162  -0.02707
  Beta virt. eigenvalues --   -0.02151  -0.01690  -0.01386  -0.00937  -0.00118
  Beta virt. eigenvalues --   -0.00025   0.00134   0.00390   0.00884   0.00900

 Mulliken charges and spin densities:
               1          2
     1  Na   0.215873  -0.000177
     2  Na   0.036275  -0.021138
     3  Na  -0.326111   0.387624
     4  Na   0.216443  -0.033459
     5  Na   0.191299   0.056046
     6  Na  -0.410528   0.607644
     7  Na   0.076748   0.003459
 Sum of Mulliken charges =  -0.00000   1.00000

 Dipole moment (field-independent basis, Debye):
    X=              0.2532    Y=             -0.1627    Z=              0.1168  Tot=              0.3229
 Quadrupole moment (field-independent basis, Debye-Ang):
   XX=            -56.6835   YY=            -65.7316   ZZ=            -72.2691
   XY=              0.3519   XZ=              0.7299   YZ=             -0.2603

 Normal termination of Gaussian 16 at Thu Dec  7 14:03:29 2023.
