 Gaussian 16, Revision B.01,
 Gaussian 16:  ES64L-G16RevB.01 20-Dec-2017

 -------------------------
 #P B3LYP/6-311+g(d) force
 -------------------------

 -----
 DPGEN
 -----
 Symbolic Z-matrix:
 Charge =  0 Multiplicity = 2

                         Standard orientation:
 ---------------------------------------------------------------------
 Center     Atomic      Atomic             Coordinates (Angstroms)
 Number     Number       Type             X           Y           Z
 ---------------------------------------------------------------------
      1         11           0       -0.321755   -0.551708   -1.122190
      2         11           0       -0.877976    1.513782    1.414890
      3         11           0       -3.295559    0.764864   -1.241721
      4         11           0        2.866649   -1.714217   -1.180522
      5         11           0        1.875794    2.550828   -0.422786
      6         11           0        1.958537   -0.444971    1.583932
      7         11           0       -2.205690   -2.118578    0.968396
 ---------------------------------------------------------------------

 SCF Done:  E(UB3LYP) =  -1136.12679232     A.U. after   21 cycles

 The electronic state is 2-A.
 Alpha  occ. eigenvalues --  -38.44556 -38.44380 -38.43986 -38.43825 -38.43297
 Alpha  occ. eigenvalues --  -38.43118 -38.43028  -2.20382  -2.20193  -2.19876
 Alpha  occ. eigenvalues --   -2.19619  -2.19135  -2.19107  -2.18924  -1.14064
 Alpha  occ. eigenvalues --   -1.14022  -1.13995  -1.13879  -1.13842  -1.13806
 Alpha  occ. eigenvalues --   -1.13566  -1.13548  -1.13493  -1.13295  -1.13267
 Alpha  occ. eigenvalues --   -1.13261  -1.12837  -1.12814  -1.12799  -1.12772
 Alpha  occ. eigenvalues --   -1.12762  -1.12710  -1.12626  -1.12584  -1.12520
 Alpha  occ. eigenvalues --   -0.18279  -0.13582  -0.11320  -0.10892
 Alpha virt. eigenvalues --   -0.06011  -0.05485  -0.04657  -0.03062  -0.02659
 Alpha virt. eigenvalues --   -0.02281  -0.01887  -0.01358  -0.00714  -0.00011
 Alpha virt. eigenvalues --    0.00182   0.00275   0.00389   0.00583   0.00731

  Beta  occ. eigenvalues --  -38.44514 -38.44344 -38.43960 -38.43825 -38.43281
  Beta  occ. eigenvalues --  -38.43090 -38.42999  -2.20304  -2.20127  -2.19830
  Beta  occ. eigenvalues --   -2.19621  -2.19107  -2.19060  -2.18875  -1.14001
  Beta  occ. eigenvalues --   -1.13971  -1.13943  -1.13837  -1.13787  -1.13758
  Beta  occ. eigenvalues --   -1.13534  -1.13494  -1.13465  -1.13290  -1.13270
  Beta  occ. eigenvalues --   -1.13260  -1.12793  -1.12783  -1.12777  -1.12745
  Beta  occ. eigenvalues --   -1.12724  -1.12678  -1.12595  -1.12519  -1.12490
  Beta  occ. eigenvalues --   -0.17569  -0.13327  -0.11160
  Beta virt. eigenvalues --   -0.07192  -0.05694  -0.05295  -0.04185  -0.02872
  Beta virt. eigenvalues --   -0.02180  -0.01864  -0.01415  -0.01115  -0.00402
  Beta virt. eigenvalues --    0.00090   0.00229   0.00342   0.00467   0.00708

 Mulliken charges and spin densities:
               1          2
     1  Na  -1.054532   0.238313
     2  Na   0.227743   0.299673
     3  Na   0.650222   0.071565
     4  Na   0.360133   0.011379
     5  Na  -0.222053  -0.014574
     6  Na   0.128012   0.168835
     7  Na  -0.089524   0.224808
 Sum of Mulliken charges =  -0.00000   1.00000

 Dipole moment (field-independent basis, Debye):
    X=             -0.5731    Y=              0.1567    Z=              0.0953  Tot=              0.6017
 Quadrupole moment (field-independent basis, Debye-Ang):
   XX=            -53.7767   YY=            -70.4820   ZZ=            -68.0285
   XY=              1.1951   XZ=             -0.5370   YZ=             -4.1307

 Normal termination of Gaussian 16 at Wed Nov 29 16:25:15 2023.
