 Gaussian 16, Revision B.01,
 Gaussian 16:  ES64L-G16RevB.01 20-Dec-2017

 -------------------------
 #P B3LYP/6-311+g(d) force
 -------------------------

 -----
 DPGEN
 -----
 Symbolic Z-matrix:
 Charge =  0 Multiplicity = 2

                         Standard orientation:
 ---------------------------------------------------------------------
 Center     Atomic      Atomic             Coordinates (Angstroms)
 Number     Number       Type             X           Y           Z
 ---------------------------------------------------------------------
      1         11           0        1.750240    1.344231    0.784144
      2         11           0       -1.137824   -0.455370    1.685758
      3         11           0       -1.857566   -2.846127   -0.214402
      4         11           0        1.217538   -1.620942    0.093236
      5         11           0        4.517146    0.013640   -0.871142
      6         11           0       -2.793703    0.182965   -1.332756
      7         11           0       -1.695832    3.381603   -0.144838
 ---------------------------------------------------------------------

 SCF Done:  E(UB3LYP) =  -1136.12511900     A.U. after   20 cycles

 The electronic state is 2-A.
 Alpha  occ. eigenvalues --  -38.44185 -38.44059 -38.43979 -38.43972 -38.43771
 Alpha  occ. eigenvalues --  -38.43652 -38.43625  -2.20151  -2.19902  -2.19862
 Alpha  occ. eigenvalues --   -2.19821  -2.19637  -2.19525  -2.19407  -1.13904
 Alpha  occ. eigenvalues --   -1.13812  -1.13761  -1.13642  -1.13573  -1.13519
 Alpha  occ. eigenvalues --   -1.13513  -1.13504  -1.13496  -1.13485  -1.13464
 Alpha  occ. eigenvalues --   -1.13431  -1.13337  -1.13307  -1.13221  -1.13191
 Alpha  occ. eigenvalues --   -1.13172  -1.13156  -1.13087  -1.13068  -1.13046
 Alpha  occ. eigenvalues --   -0.18085  -0.13806  -0.12183  -0.10769
 Alpha virt. eigenvalues --   -0.05880  -0.05422  -0.05004  -0.03666  -0.02598
 Alpha virt. eigenvalues --   -0.02199  -0.01761  -0.01237  -0.00908  -0.00601
 Alpha virt. eigenvalues --   -0.00162   0.00229   0.00471   0.00559   0.00687

  Beta  occ. eigenvalues --  -38.44130 -38.43993 -38.43962 -38.43925 -38.43756
  Beta  occ. eigenvalues --  -38.43658 -38.43613  -2.20055  -2.19888  -2.19738
  Beta  occ. eigenvalues --   -2.19722  -2.19615  -2.19505  -2.19419  -1.13835
  Beta  occ. eigenvalues --   -1.13726  -1.13697  -1.13622  -1.13557  -1.13476
  Beta  occ. eigenvalues --   -1.13433  -1.13431  -1.13428  -1.13420  -1.13390
  Beta  occ. eigenvalues --   -1.13355  -1.13322  -1.13279  -1.13189  -1.13179
  Beta  occ. eigenvalues --   -1.13162  -1.13118  -1.13096  -1.13069  -1.13054
  Beta  occ. eigenvalues --   -0.17429  -0.13203  -0.12083
  Beta virt. eigenvalues --   -0.07201  -0.05674  -0.05092  -0.04693  -0.03273
  Beta virt. eigenvalues --   -0.02200  -0.01818  -0.01417  -0.01080  -0.00727
  Beta virt. eigenvalues --   -0.00333   0.00106   0.00326   0.00547   0.00711

 Mulliken charges and spin densities:
               1          2
     1  Na  -0.198639  -0.004697
     2  Na  -0.515147   0.282409
     3  Na   0.744670   0.172642
     4  Na  -0.416289  -0.092747
     5  Na   0.340007   0.371247
     6  Na  -0.125725   0.332282
     7  Na   0.171123  -0.061136
 Sum of Mulliken charges =  -0.00000   1.00000

 Dipole moment (field-independent basis, Debye):
    X=              0.0525    Y=             -0.4374    Z=              0.1551  Tot=              0.4671
 Quadrupole moment (field-independent basis, Debye-Ang):
   XX=            -65.1039   YY=            -62.9004   ZZ=            -69.3206
   XY=              2.5038   XZ=             -2.6460   YZ=              1.5216

 Normal termination of Gaussian 16 at Tue Nov 28 21:01:12 2023.
