 Gaussian 16, Revision B.01,
 Gaussian 16:  ES64L-G16RevB.01 20-Dec-2017

 -------------------------
 #P B3LYP/6-311+g(d) force
 -------------------------

 -----
 DPGEN
 -----
 Symbolic Z-matrix:
 Charge =  0 Multiplicity = 2

                         Standard orientation:
 ---------------------------------------------------------------------
 Center     Atomic      Atomic             Coordinates (Angstroms)
 Number     Number       Type             X           Y           Z
 ---------------------------------------------------------------------
      1         11           0       -0.586118   -2.494213   -0.198457
      2         11           0       -0.038605    0.813775   -0.154977
      3         11           0        3.323596   -0.393221   -0.957999
      4         11           0        2.217731   -2.047036    1.380455
      5         11           0        2.681789    3.047035   -0.065477
      6         11           0       -3.691878    2.045116    0.754606
      7         11           0       -3.906516   -0.971457   -0.758152
 ---------------------------------------------------------------------

 SCF Done:  E(UB3LYP) =  -1136.11825883     A.U. after   23 cycles

 The electronic state is 2-A.
 Alpha  occ. eigenvalues --  -38.45089 -38.44911 -38.44407 -38.43695 -38.43585
 Alpha  occ. eigenvalues --  -38.43554 -38.43174  -2.20862  -2.20762  -2.20243
 Alpha  occ. eigenvalues --   -2.19508  -2.19470  -2.19348  -2.19045  -1.14551
 Alpha  occ. eigenvalues --   -1.14519  -1.14507  -1.14468  -1.14429  -1.14364
 Alpha  occ. eigenvalues --   -1.13971  -1.13919  -1.13829  -1.13155  -1.13151
 Alpha  occ. eigenvalues --   -1.13147  -1.13125  -1.13115  -1.13107  -1.13015
 Alpha  occ. eigenvalues --   -1.13007  -1.12975  -1.12729  -1.12714  -1.12646
 Alpha  occ. eigenvalues --   -0.17240  -0.14151  -0.12184  -0.10015
 Alpha virt. eigenvalues --   -0.06934  -0.05670  -0.04409  -0.03375  -0.03025
 Alpha virt. eigenvalues --   -0.02277  -0.02002  -0.01623  -0.00747  -0.00506
 Alpha virt. eigenvalues --   -0.00417   0.00065   0.00297   0.00461   0.00566

  Beta  occ. eigenvalues --  -38.45088 -38.44880 -38.44389 -38.43617 -38.43554
  Beta  occ. eigenvalues --  -38.43539 -38.43140  -2.20867  -2.20710  -2.20211
  Beta  occ. eigenvalues --   -2.19415  -2.19362  -2.19321  -2.18983  -1.14560
  Beta  occ. eigenvalues --   -1.14519  -1.14472  -1.14424  -1.14399  -1.14312
  Beta  occ. eigenvalues --   -1.13945  -1.13901  -1.13807  -1.13099  -1.13080
  Beta  occ. eigenvalues --   -1.13069  -1.13054  -1.13048  -1.13032  -1.12997
  Beta  occ. eigenvalues --   -1.12987  -1.12958  -1.12687  -1.12672  -1.12599
  Beta  occ. eigenvalues --   -0.16869  -0.13462  -0.11827
  Beta virt. eigenvalues --   -0.06769  -0.06593  -0.05516  -0.04087  -0.03140
  Beta virt. eigenvalues --   -0.02573  -0.01983  -0.01811  -0.01254  -0.00646
  Beta virt. eigenvalues --   -0.00232  -0.00161   0.00252   0.00402   0.00561

 Mulliken charges and spin densities:
               1          2
     1  Na   0.066419  -0.047611
     2  Na  -2.800804  -0.020132
     3  Na   0.758136   0.291366
     4  Na   0.833877   0.364044
     5  Na   0.436457  -0.026763
     6  Na   0.381004   0.434183
     7  Na   0.324911   0.004913
 Sum of Mulliken charges =  -0.00000   1.00000

 Dipole moment (field-independent basis, Debye):
    X=              0.3546    Y=             -0.4670    Z=             -0.3140  Tot=              0.6652
 Quadrupole moment (field-independent basis, Debye-Ang):
   XX=            -64.1315   YY=            -69.6282   ZZ=            -66.5930
   XY=              8.1049   XZ=              0.9728   YZ=              3.5155

 Normal termination of Gaussian 16 at Wed Dec  6 00:07:13 2023.
