 Gaussian 16, Revision B.01,
 Gaussian 16:  ES64L-G16RevB.01 20-Dec-2017

 -------------------------
 #P B3LYP/6-311+g(d) force
 -------------------------

 -----
 DPGEN
 -----
 Symbolic Z-matrix:
 Charge =  0 Multiplicity = 2

                         Standard orientation:
 ---------------------------------------------------------------------
 Center     Atomic      Atomic             Coordinates (Angstroms)
 Number     Number       Type             X           Y           Z
 ---------------------------------------------------------------------
      1         11           0        0.119667   -2.116327   -1.067553
      2         11           0        1.774532   -0.775639    1.485524
      3         11           0       -0.337468    3.674867    0.143571
      4         11           0       -0.173126    0.911345   -0.222076
      5         11           0        3.050975   -0.026376   -1.085433
      6         11           0       -1.285696   -1.150652    1.697220
      7         11           0       -3.148884   -0.517218   -0.951252
 ---------------------------------------------------------------------

 SCF Done:  E(UB3LYP) =  -1136.11450765     A.U. after   21 cycles

 The electronic state is 2-A.
 Alpha  occ. eigenvalues --  -38.44460 -38.44325 -38.43899 -38.43722 -38.43720
 Alpha  occ. eigenvalues --  -38.43282 -38.42173  -2.20301  -2.20204  -2.19848
 Alpha  occ. eigenvalues --   -2.19752  -2.19730  -2.19105  -2.18343  -1.13971
 Alpha  occ. eigenvalues --   -1.13960  -1.13940  -1.13921  -1.13852  -1.13813
 Alpha  occ. eigenvalues --   -1.13619  -1.13550  -1.13509  -1.13436  -1.13398
 Alpha  occ. eigenvalues --   -1.13396  -1.13336  -1.13315  -1.13295  -1.12913
 Alpha  occ. eigenvalues --   -1.12733  -1.12718  -1.12044  -1.12001  -1.11929
 Alpha  occ. eigenvalues --   -0.19387  -0.13347  -0.11776  -0.11497
 Alpha virt. eigenvalues --   -0.05966  -0.04962  -0.04191  -0.03299  -0.02666
 Alpha virt. eigenvalues --   -0.02298  -0.01766  -0.00906  -0.00620   0.00225
 Alpha virt. eigenvalues --    0.00259   0.00373   0.00482   0.00805   0.00906

  Beta  occ. eigenvalues --  -38.44436 -38.44299 -38.43865 -38.43670 -38.43657
  Beta  occ. eigenvalues --  -38.43290 -38.42154  -2.20257  -2.20156  -2.19788
  Beta  occ. eigenvalues --   -2.19664  -2.19618  -2.19120  -2.18315  -1.13938
  Beta  occ. eigenvalues --   -1.13929  -1.13910  -1.13888  -1.13812  -1.13775
  Beta  occ. eigenvalues --   -1.13572  -1.13482  -1.13430  -1.13390  -1.13341
  Beta  occ. eigenvalues --   -1.13317  -1.13266  -1.13248  -1.13185  -1.12922
  Beta  occ. eigenvalues --   -1.12740  -1.12729  -1.12020  -1.11939  -1.11917
  Beta  occ. eigenvalues --   -0.18559  -0.13119  -0.11651
  Beta virt. eigenvalues --   -0.07347  -0.05813  -0.04794  -0.03700  -0.03120
  Beta virt. eigenvalues --   -0.01847  -0.01676  -0.01617  -0.00790  -0.00222
  Beta virt. eigenvalues --    0.00250   0.00321   0.00438   0.00516   0.00838

 Mulliken charges and spin densities:
               1          2
     1  Na   0.107201   0.267680
     2  Na   0.116196   0.095225
     3  Na  -0.103792  -0.016435
     4  Na  -1.831639   0.285095
     5  Na   0.809670   0.167600
     6  Na   0.062221   0.094764
     7  Na   0.840143   0.106071
 Sum of Mulliken charges =  -0.00000   1.00000

 Dipole moment (field-independent basis, Debye):
    X=             -0.0971    Y=             -1.0006    Z=             -0.3619  Tot=              1.0684
 Quadrupole moment (field-independent basis, Debye-Ang):
   XX=            -54.5932   YY=            -69.3980   ZZ=            -67.4049
   XY=              1.3734   XZ=             -0.1225   YZ=              0.8825

 Normal termination of Gaussian 16 at Thu Dec  7 18:07:04 2023.
