 Gaussian 16, Revision B.01,
 Gaussian 16:  ES64L-G16RevB.01 20-Dec-2017

 -------------------------
 #P B3LYP/6-311+g(d) force
 -------------------------

 -----
 DPGEN
 -----
 Symbolic Z-matrix:
 Charge =  0 Multiplicity = 2

                         Standard orientation:
 ---------------------------------------------------------------------
 Center     Atomic      Atomic             Coordinates (Angstroms)
 Number     Number       Type             X           Y           Z
 ---------------------------------------------------------------------
      1         11           0        3.198849    0.857670   -0.592083
      2         11           0       -2.657757    1.418407   -0.456930
      3         11           0        0.844095    2.243992    1.218708
      4         11           0        2.383938   -2.008535   -0.405735
      5         11           0       -0.452812    0.057378   -1.454284
      6         11           0       -3.421563   -1.195602    0.061899
      7         11           0        0.105250   -1.373310    1.628424
 ---------------------------------------------------------------------

 SCF Done:  E(UB3LYP) =  -1136.11055183     A.U. after   23 cycles

 The electronic state is 2-A.
 Alpha  occ. eigenvalues --  -38.45309 -38.44866 -38.44670 -38.44633 -38.43405
 Alpha  occ. eigenvalues --  -38.43211 -38.42754  -2.21183  -2.20830  -2.20599
 Alpha  occ. eigenvalues --   -2.20547  -2.19314  -2.19112  -2.18606  -1.15018
 Alpha  occ. eigenvalues --   -1.14821  -1.14796  -1.14717  -1.14505  -1.14416
 Alpha  occ. eigenvalues --   -1.14247  -1.14209  -1.14201  -1.14181  -1.14174
 Alpha  occ. eigenvalues --   -1.14159  -1.13009  -1.12988  -1.12953  -1.12780
 Alpha  occ. eigenvalues --   -1.12726  -1.12725  -1.12272  -1.12261  -1.12237
 Alpha  occ. eigenvalues --   -0.18760  -0.14704  -0.11383  -0.10861
 Alpha virt. eigenvalues --   -0.06998  -0.05441  -0.04025  -0.03382  -0.03013
 Alpha virt. eigenvalues --   -0.02579  -0.02093  -0.01213  -0.00343  -0.00226
 Alpha virt. eigenvalues --    0.00125   0.00223   0.00465   0.00718   0.00746

  Beta  occ. eigenvalues --  -38.45305 -38.44841 -38.44645 -38.44619 -38.43392
  Beta  occ. eigenvalues --  -38.43139 -38.42716  -2.21178  -2.20785  -2.20576
  Beta  occ. eigenvalues --   -2.20504  -2.19295  -2.18978  -2.18538  -1.15014
  Beta  occ. eigenvalues --   -1.14814  -1.14775  -1.14689  -1.14454  -1.14388
  Beta  occ. eigenvalues --   -1.14217  -1.14195  -1.14162  -1.14155  -1.14144
  Beta  occ. eigenvalues --   -1.14121  -1.12989  -1.12963  -1.12930  -1.12694
  Beta  occ. eigenvalues --   -1.12643  -1.12622  -1.12231  -1.12207  -1.12184
  Beta  occ. eigenvalues --   -0.18120  -0.14293  -0.11204
  Beta virt. eigenvalues --   -0.07096  -0.06813  -0.05370  -0.03394  -0.03158
  Beta virt. eigenvalues --   -0.02576  -0.02226  -0.01256  -0.01183  -0.00284
  Beta virt. eigenvalues --    0.00020   0.00182   0.00259   0.00606   0.00764

 Mulliken charges and spin densities:
               1          2
     1  Na   0.001382   0.102464
     2  Na   0.592335   0.195632
     3  Na  -0.215337   0.109105
     4  Na   0.568576   0.180322
     5  Na  -0.485091  -0.012565
     6  Na   0.047496   0.053661
     7  Na  -0.509361   0.371381
 Sum of Mulliken charges =  -0.00000   1.00000

 Dipole moment (field-independent basis, Debye):
    X=             -0.9083    Y=             -0.1513    Z=              0.0246  Tot=              0.9211
 Quadrupole moment (field-independent basis, Debye-Ang):
   XX=            -51.2499   YY=            -73.1357   ZZ=            -71.9710
   XY=              2.0771   XZ=             -1.9236   YZ=              1.0242

 Normal termination of Gaussian 16 at Wed Dec  6 00:04:54 2023.
