 Gaussian 16, Revision B.01,
 Gaussian 16:  ES64L-G16RevB.01 20-Dec-2017

 -------------------------
 #P B3LYP/6-311+g(d) force
 -------------------------

 -----
 DPGEN
 -----
 Symbolic Z-matrix:
 Charge =  0 Multiplicity = 2

                         Standard orientation:
 ---------------------------------------------------------------------
 Center     Atomic      Atomic             Coordinates (Angstroms)
 Number     Number       Type             X           Y           Z
 ---------------------------------------------------------------------
      1         11           0       -0.157895   -1.813688   -0.483064
      2         11           0        0.086249    0.571227   -1.852376
      3         11           0       -1.350260    1.781840    0.168839
      4         11           0       -2.679274   -0.803643   -0.013677
      5         11           0        0.020542   -0.251921    2.013167
      6         11           0        2.466781   -1.067795   -0.042470
      7         11           0        1.613857    1.583981    0.209581
 ---------------------------------------------------------------------

 SCF Done:  E(UB3LYP) =  -1136.08652298     A.U. after   19 cycles

 The electronic state is 2-A.
 Alpha  occ. eigenvalues --  -38.44608 -38.44416 -38.44002 -38.43864 -38.43392
 Alpha  occ. eigenvalues --  -38.43348 -38.43140  -2.20811  -2.20519  -2.20014
 Alpha  occ. eigenvalues --   -2.19923  -2.19564  -2.19547  -2.19273  -1.14604
 Alpha  occ. eigenvalues --   -1.14530  -1.14426  -1.14258  -1.14164  -1.14129
 Alpha  occ. eigenvalues --   -1.13894  -1.13732  -1.13713  -1.13698  -1.13611
 Alpha  occ. eigenvalues --   -1.13511  -1.13259  -1.13195  -1.13183  -1.13155
 Alpha  occ. eigenvalues --   -1.13096  -1.13062  -1.12948  -1.12907  -1.12830
 Alpha  occ. eigenvalues --   -0.21471  -0.13947  -0.12693  -0.12348
 Alpha virt. eigenvalues --   -0.05329  -0.04198  -0.03918  -0.03835  -0.03167
 Alpha virt. eigenvalues --   -0.03123  -0.01227  -0.00377  -0.00203   0.00334
 Alpha virt. eigenvalues --    0.00725   0.00827   0.01050   0.01113   0.01205

  Beta  occ. eigenvalues --  -38.44517 -38.44317 -38.43999 -38.43857 -38.43375
  Beta  occ. eigenvalues --  -38.43320 -38.43125  -2.20648  -2.20340  -2.20012
  Beta  occ. eigenvalues --   -2.19915  -2.19527  -2.19519  -2.19253  -1.14510
  Beta  occ. eigenvalues --   -1.14403  -1.14308  -1.14149  -1.14031  -1.14003
  Beta  occ. eigenvalues --   -1.13885  -1.13729  -1.13712  -1.13695  -1.13578
  Beta  occ. eigenvalues --   -1.13465  -1.13249  -1.13157  -1.13111  -1.13086
  Beta  occ. eigenvalues --   -1.13075  -1.13045  -1.12930  -1.12847  -1.12824
  Beta  occ. eigenvalues --   -0.20583  -0.13593  -0.12091
  Beta virt. eigenvalues --   -0.08388  -0.05334  -0.04179  -0.03638  -0.02969
  Beta virt. eigenvalues --   -0.02360  -0.02101  -0.01148  -0.00347  -0.00023
  Beta virt. eigenvalues --    0.00357   0.00740   0.00817   0.01067   0.01148

 Mulliken charges and spin densities:
               1          2
     1  Na   0.058388   0.089130
     2  Na   0.172820   0.471294
     3  Na  -0.041396  -0.003988
     4  Na  -0.115887  -0.068076
     5  Na  -0.123181   0.537321
     6  Na  -0.015889  -0.051141
     7  Na   0.065145   0.025460
 Sum of Mulliken charges =  -0.00000   1.00000

 Dipole moment (field-independent basis, Debye):
    X=             -0.1213    Y=             -0.0706    Z=              0.3175  Tot=              0.3472
 Quadrupole moment (field-independent basis, Debye-Ang):
   XX=            -58.6173   YY=            -73.6223   ZZ=            -65.6203
   XY=             -0.2086   XZ=             -0.0227   YZ=              0.8978

 Normal termination of Gaussian 16 at Thu Dec  7 14:56:56 2023.
