 Gaussian 16, Revision B.01,
 Gaussian 16:  ES64L-G16RevB.01 20-Dec-2017

 -------------------------
 #P B3LYP/6-311+g(d) force
 -------------------------

 -----
 DPGEN
 -----
 Symbolic Z-matrix:
 Charge =  0 Multiplicity = 2

                         Standard orientation:
 ---------------------------------------------------------------------
 Center     Atomic      Atomic             Coordinates (Angstroms)
 Number     Number       Type             X           Y           Z
 ---------------------------------------------------------------------
      1         11           0       -2.782171    1.530571    1.280949
      2         11           0       -1.545344    0.982844   -1.080550
      3         11           0        0.683719   -1.069639    1.796085
      4         11           0        0.883343   -1.682330   -1.206275
      5         11           0       -2.826186   -1.732062   -0.438946
      6         11           0        3.909534   -0.092057    0.483821
      7         11           0        1.677105    2.062672   -0.835084
 ---------------------------------------------------------------------

 SCF Done:  E(UB3LYP) =  -1136.11514014     A.U. after   24 cycles

 The electronic state is 2-A.
 Alpha  occ. eigenvalues --  -38.45207 -38.44648 -38.44434 -38.44157 -38.43440
 Alpha  occ. eigenvalues --  -38.43319 -38.43247  -2.21008  -2.20481  -2.20274
 Alpha  occ. eigenvalues --   -2.20047  -2.19326  -2.19265  -2.19148  -1.14682
 Alpha  occ. eigenvalues --   -1.14662  -1.14637  -1.14203  -1.14130  -1.14089
 Alpha  occ. eigenvalues --   -1.13990  -1.13926  -1.13894  -1.13871  -1.13660
 Alpha  occ. eigenvalues --   -1.13633  -1.13042  -1.12988  -1.12922  -1.12919
 Alpha  occ. eigenvalues --   -1.12918  -1.12874  -1.12813  -1.12808  -1.12777
 Alpha  occ. eigenvalues --   -0.18335  -0.14236  -0.11242  -0.10878
 Alpha virt. eigenvalues --   -0.06913  -0.05263  -0.04536  -0.03271  -0.02706
 Alpha virt. eigenvalues --   -0.02430  -0.02198  -0.01146  -0.00675  -0.00165
 Alpha virt. eigenvalues --    0.00102   0.00200   0.00313   0.00603   0.00666

  Beta  occ. eigenvalues --  -38.45198 -38.44637 -38.44398 -38.44114 -38.43411
  Beta  occ. eigenvalues --  -38.43295 -38.43221  -2.20991  -2.20462  -2.20205
  Beta  occ. eigenvalues --   -2.19966  -2.19277  -2.19224  -2.19106  -1.14667
  Beta  occ. eigenvalues --   -1.14648  -1.14625  -1.14190  -1.14109  -1.14069
  Beta  occ. eigenvalues --   -1.13942  -1.13879  -1.13844  -1.13819  -1.13602
  Beta  occ. eigenvalues --   -1.13574  -1.13014  -1.12928  -1.12894  -1.12883
  Beta  occ. eigenvalues --   -1.12864  -1.12830  -1.12784  -1.12764  -1.12751
  Beta  occ. eigenvalues --   -0.17645  -0.13979  -0.10976
  Beta virt. eigenvalues --   -0.07194  -0.06717  -0.05150  -0.03865  -0.03071
  Beta virt. eigenvalues --   -0.02454  -0.02044  -0.01426  -0.01053  -0.00350
  Beta virt. eigenvalues --   -0.00074   0.00097   0.00256   0.00483   0.00684

 Mulliken charges and spin densities:
               1          2
     1  Na  -0.129696   0.381562
     2  Na   0.166517  -0.083926
     3  Na  -0.538711   0.322452
     4  Na  -0.086114   0.226062
     5  Na   0.306528   0.033810
     6  Na   0.674182   0.077510
     7  Na  -0.392706   0.042529
 Sum of Mulliken charges =  -0.00000   1.00000

 Dipole moment (field-independent basis, Debye):
    X=              0.6796    Y=             -0.8435    Z=              0.4829  Tot=              1.1859
 Quadrupole moment (field-independent basis, Debye-Ang):
   XX=            -48.9563   YY=            -75.9559   ZZ=            -69.4750
   XY=              2.5606   XZ=             -0.4340   YZ=              2.6043

 Normal termination of Gaussian 16 at Tue Dec  5 17:25:20 2023.
