 Gaussian 16, Revision B.01,
 Gaussian 16:  ES64L-G16RevB.01 20-Dec-2017

 -------------------------
 #P B3LYP/6-311+g(d) force
 -------------------------

 -----
 DPGEN
 -----
 Symbolic Z-matrix:
 Charge =  0 Multiplicity = 2

                         Standard orientation:
 ---------------------------------------------------------------------
 Center     Atomic      Atomic             Coordinates (Angstroms)
 Number     Number       Type             X           Y           Z
 ---------------------------------------------------------------------
      1         11           0        3.186008    1.909303   -0.232972
      2         11           0        3.272707   -1.556514   -1.194532
      3         11           0        1.577125   -3.411287    1.136145
      4         11           0       -2.331317   -2.486296    0.047632
      5         11           0       -2.361077    2.348794   -0.125051
      6         11           0        0.942486    3.411770    0.814035
      7         11           0       -4.285933   -0.215771   -0.445256
 ---------------------------------------------------------------------

 SCF Done:  E(UB3LYP) =  -1136.10516006     A.U. after   26 cycles

 The electronic state is 2-A.
 Alpha  occ. eigenvalues --  -38.45659 -38.45296 -38.44471 -38.44277 -38.44200
 Alpha  occ. eigenvalues --  -38.43881 -38.43656  -2.21454  -2.21052  -2.20282
 Alpha  occ. eigenvalues --   -2.20102  -2.20064  -2.19670  -2.19510  -1.15124
 Alpha  occ. eigenvalues --   -1.15116  -1.15091  -1.14737  -1.14722  -1.14692
 Alpha  occ. eigenvalues --   -1.13944  -1.13939  -1.13931  -1.13866  -1.13760
 Alpha  occ. eigenvalues --   -1.13743  -1.13737  -1.13704  -1.13696  -1.13323
 Alpha  occ. eigenvalues --   -1.13316  -1.13301  -1.13157  -1.13144  -1.13130
 Alpha  occ. eigenvalues --   -0.15943  -0.14240  -0.13335  -0.10353
 Alpha virt. eigenvalues --   -0.07831  -0.05007  -0.04221  -0.03699  -0.03384
 Alpha virt. eigenvalues --   -0.02297  -0.02153  -0.01964  -0.01182  -0.00987
 Alpha virt. eigenvalues --   -0.00402   0.00039   0.00146   0.00409   0.00671

  Beta  occ. eigenvalues --  -38.45617 -38.45299 -38.44411 -38.44289 -38.44185
  Beta  occ. eigenvalues --  -38.43827 -38.43612  -2.21381  -2.21062  -2.20171
  Beta  occ. eigenvalues --   -2.20129  -2.20040  -2.19568  -2.19427  -1.15073
  Beta  occ. eigenvalues --   -1.15071  -1.15016  -1.14749  -1.14733  -1.14667
  Beta  occ. eigenvalues --   -1.13873  -1.13870  -1.13861  -1.13857  -1.13783
  Beta  occ. eigenvalues --   -1.13740  -1.13706  -1.13691  -1.13664  -1.13253
  Beta  occ. eigenvalues --   -1.13246  -1.13236  -1.13113  -1.13086  -1.13074
  Beta  occ. eigenvalues --   -0.15442  -0.13757  -0.12717
  Beta virt. eigenvalues --   -0.07789  -0.07061  -0.04610  -0.03865  -0.03477
  Beta virt. eigenvalues --   -0.02980  -0.01983  -0.01945  -0.01819  -0.01080
  Beta virt. eigenvalues --   -0.00779  -0.00079   0.00207   0.00270   0.00488

 Mulliken charges and spin densities:
               1          2
     1  Na  -0.272332   0.150142
     2  Na   0.122486  -0.029067
     3  Na  -0.069645   0.283766
     4  Na  -0.552755   0.257279
     5  Na  -0.485506   0.309658
     6  Na   0.372071  -0.087298
     7  Na   0.885681   0.115520
 Sum of Mulliken charges =  -0.00000   1.00000

 Dipole moment (field-independent basis, Debye):
    X=             -0.6987    Y=             -0.6887    Z=             -0.2391  Tot=              1.0098
 Quadrupole moment (field-independent basis, Debye-Ang):
   XX=            -63.8984   YY=            -70.4350   ZZ=            -68.5377
   XY=             -1.2345   XZ=             -1.1100   YZ=              0.5413

 Normal termination of Gaussian 16 at Sun Dec  3 20:35:21 2023.
