 Gaussian 16, Revision B.01,
 Gaussian 16:  ES64L-G16RevB.01 20-Dec-2017

 -------------------------
 #P B3LYP/6-311+g(d) force
 -------------------------

 -----
 DPGEN
 -----
 Symbolic Z-matrix:
 Charge =  0 Multiplicity = 2

                         Standard orientation:
 ---------------------------------------------------------------------
 Center     Atomic      Atomic             Coordinates (Angstroms)
 Number     Number       Type             X           Y           Z
 ---------------------------------------------------------------------
      1         11           0       -0.269256    1.693307   -0.852376
      2         11           0       -2.389661    3.795371    0.323239
      3         11           0       -3.408231   -0.149898   -0.140051
      4         11           0       -2.595342   -3.814917    0.063147
      5         11           0        0.174243   -1.543778    0.031600
      6         11           0        2.971186    0.285639    1.156870
      7         11           0        5.517063   -0.265724   -0.582428
 ---------------------------------------------------------------------

 SCF Done:  E(UB3LYP) =  -1136.12089177     A.U. after   20 cycles

 The electronic state is 2-A.
 Alpha  occ. eigenvalues --  -38.45159 -38.44225 -38.44125 -38.43988 -38.43974
 Alpha  occ. eigenvalues --  -38.43725 -38.43529  -2.20926  -2.20018  -2.19898
 Alpha  occ. eigenvalues --   -2.19837  -2.19810  -2.19583  -2.19356  -1.14635
 Alpha  occ. eigenvalues --   -1.14616  -1.14498  -1.13707  -1.13677  -1.13648
 Alpha  occ. eigenvalues --   -1.13568  -1.13565  -1.13535  -1.13521  -1.13509
 Alpha  occ. eigenvalues --   -1.13469  -1.13440  -1.13435  -1.13431  -1.13280
 Alpha  occ. eigenvalues --   -1.13266  -1.13163  -1.13035  -1.13025  -1.12994
 Alpha  occ. eigenvalues --   -0.16761  -0.13663  -0.12596  -0.10549
 Alpha virt. eigenvalues --   -0.06394  -0.05448  -0.04826  -0.03478  -0.02797
 Alpha virt. eigenvalues --   -0.02404  -0.01869  -0.01687  -0.01006  -0.00847
 Alpha virt. eigenvalues --   -0.00491   0.00044   0.00307   0.00409   0.00488

  Beta  occ. eigenvalues --  -38.45135 -38.44209 -38.44114 -38.43948 -38.43895
  Beta  occ. eigenvalues --  -38.43679 -38.43532  -2.20881  -2.19988  -2.19878
  Beta  occ. eigenvalues --   -2.19793  -2.19636  -2.19503  -2.19370  -1.14605
  Beta  occ. eigenvalues --   -1.14582  -1.14463  -1.13687  -1.13657  -1.13625
  Beta  occ. eigenvalues --   -1.13554  -1.13548  -1.13507  -1.13506  -1.13480
  Beta  occ. eigenvalues --   -1.13379  -1.13360  -1.13321  -1.13316  -1.13226
  Beta  occ. eigenvalues --   -1.13209  -1.13102  -1.13049  -1.13033  -1.12949
  Beta  occ. eigenvalues --   -0.16154  -0.12901  -0.12478
  Beta virt. eigenvalues --   -0.07169  -0.06202  -0.05048  -0.04478  -0.03157
  Beta virt. eigenvalues --   -0.02511  -0.02286  -0.01755  -0.01387  -0.00703
  Beta virt. eigenvalues --   -0.00532  -0.00197   0.00218   0.00437   0.00514

 Mulliken charges and spin densities:
               1          2
     1  Na  -0.851037  -0.084674
     2  Na   0.606858   0.153907
     3  Na   0.185821   0.319233
     4  Na   0.751135   0.172672
     5  Na  -1.138730  -0.052999
     6  Na   0.336684   0.058174
     7  Na   0.109269   0.433686
 Sum of Mulliken charges =  -0.00000   1.00000

 Dipole moment (field-independent basis, Debye):
    X=             -1.2794    Y=              0.0713    Z=             -0.0175  Tot=              1.2815
 Quadrupole moment (field-independent basis, Debye-Ang):
   XX=            -71.0722   YY=            -59.1988   ZZ=            -68.8244
   XY=             -0.6472   XZ=             -3.6292   YZ=              2.1820

 Normal termination of Gaussian 16 at Wed Nov 29 00:15:27 2023.
