 Gaussian 16, Revision B.01,
 Gaussian 16:  ES64L-G16RevB.01 20-Dec-2017

 -------------------------
 #P B3LYP/6-311+g(d) force
 -------------------------

 -----
 DPGEN
 -----
 Symbolic Z-matrix:
 Charge =  0 Multiplicity = 2

                         Standard orientation:
 ---------------------------------------------------------------------
 Center     Atomic      Atomic             Coordinates (Angstroms)
 Number     Number       Type             X           Y           Z
 ---------------------------------------------------------------------
      1         11           0       -3.237335   -2.024689    0.759597
      2         11           0        0.049859   -0.227747    1.818818
      3         11           0        0.088935    2.547249   -0.433017
      4         11           0        3.961545   -1.655088   -0.594294
      5         11           0       -0.350318   -1.032695   -1.757710
      6         11           0       -3.224932    1.189989   -0.603838
      7         11           0        2.712246    1.202982    0.810444
 ---------------------------------------------------------------------

 SCF Done:  E(UB3LYP) =  -1136.11685970     A.U. after   24 cycles

 The electronic state is 2-A.
 Alpha  occ. eigenvalues --  -38.45480 -38.45204 -38.44585 -38.44149 -38.44048
 Alpha  occ. eigenvalues --  -38.43921 -38.42522  -2.21254  -2.21001  -2.20446
 Alpha  occ. eigenvalues --   -2.19906  -2.19842  -2.19812  -2.18386  -1.14951
 Alpha  occ. eigenvalues --   -1.14908  -1.14853  -1.14680  -1.14650  -1.14633
 Alpha  occ. eigenvalues --   -1.14132  -1.14085  -1.14069  -1.13586  -1.13569
 Alpha  occ. eigenvalues --   -1.13544  -1.13513  -1.13507  -1.13497  -1.13482
 Alpha  occ. eigenvalues --   -1.13473  -1.13411  -1.12069  -1.12052  -1.12033
 Alpha  occ. eigenvalues --   -0.17860  -0.13792  -0.11371  -0.10855
 Alpha virt. eigenvalues --   -0.07240  -0.05650  -0.04622  -0.03195  -0.02785
 Alpha virt. eigenvalues --   -0.02635  -0.02309  -0.01675  -0.00764  -0.00502
 Alpha virt. eigenvalues --   -0.00030   0.00049   0.00304   0.00413   0.00571

  Beta  occ. eigenvalues --  -38.45427 -38.45186 -38.44512 -38.44142 -38.44027
  Beta  occ. eigenvalues --  -38.43909 -38.42522  -2.21156  -2.20970  -2.20313
  Beta  occ. eigenvalues --   -2.19893  -2.19804  -2.19793  -2.18390  -1.14883
  Beta  occ. eigenvalues --   -1.14832  -1.14782  -1.14650  -1.14628  -1.14610
  Beta  occ. eigenvalues --   -1.14040  -1.13993  -1.13968  -1.13579  -1.13559
  Beta  occ. eigenvalues --   -1.13534  -1.13488  -1.13479  -1.13476  -1.13460
  Beta  occ. eigenvalues --   -1.13450  -1.13395  -1.12076  -1.12058  -1.12008
  Beta  occ. eigenvalues --   -0.17203  -0.13608  -0.11035
  Beta virt. eigenvalues --   -0.07353  -0.06963  -0.05437  -0.04128  -0.02922
  Beta virt. eigenvalues --   -0.02562  -0.02120  -0.01672  -0.01333  -0.00661
  Beta virt. eigenvalues --   -0.00378  -0.00007   0.00096   0.00448   0.00534

 Mulliken charges and spin densities:
               1          2
     1  Na   0.267817   0.013299
     2  Na  -0.391232   0.342315
     3  Na  -0.441876  -0.097390
     4  Na  -0.159806  -0.015127
     5  Na  -0.322844   0.456191
     6  Na   0.154265   0.126883
     7  Na   0.893676   0.173829
 Sum of Mulliken charges =  -0.00000   1.00000

 Dipole moment (field-independent basis, Debye):
    X=             -1.0297    Y=              0.0238    Z=             -0.1429  Tot=              1.0399
 Quadrupole moment (field-independent basis, Debye-Ang):
   XX=            -53.7471   YY=            -71.3155   ZZ=            -72.5739
   XY=              0.3427   XZ=              0.8846   YZ=             -0.0660

 Normal termination of Gaussian 16 at Fri Dec  8 01:13:19 2023.
