 Gaussian 16, Revision B.01,
 Gaussian 16:  ES64L-G16RevB.01 20-Dec-2017

 -------------------------
 #P B3LYP/6-311+g(d) force
 -------------------------

 -----
 DPGEN
 -----
 Symbolic Z-matrix:
 Charge =  0 Multiplicity = 2

                         Standard orientation:
 ---------------------------------------------------------------------
 Center     Atomic      Atomic             Coordinates (Angstroms)
 Number     Number       Type             X           Y           Z
 ---------------------------------------------------------------------
      1         11           0       -2.747506   -1.925076    0.305543
      2         11           0       -0.052436   -0.303248    1.980306
      3         11           0        1.189148   -2.929568   -0.541901
      4         11           0        3.297775   -0.003608    0.141483
      5         11           0       -0.276752    0.130943   -1.765677
      6         11           0        1.198681    2.981160    0.084058
      7         11           0       -2.608909    2.049397   -0.203813
 ---------------------------------------------------------------------

 SCF Done:  E(UB3LYP) =  -1136.13433308     A.U. after   19 cycles

 The electronic state is 2-A.
 Alpha  occ. eigenvalues --  -38.44254 -38.44178 -38.44040 -38.43811 -38.43781
 Alpha  occ. eigenvalues --  -38.43775 -38.43516  -2.20029  -2.19961  -2.19825
 Alpha  occ. eigenvalues --   -2.19619  -2.19593  -2.19576  -2.19395  -1.13707
 Alpha  occ. eigenvalues --   -1.13683  -1.13671  -1.13648  -1.13620  -1.13591
 Alpha  occ. eigenvalues --   -1.13504  -1.13485  -1.13470  -1.13295  -1.13276
 Alpha  occ. eigenvalues --   -1.13261  -1.13254  -1.13253  -1.13233  -1.13228
 Alpha  occ. eigenvalues --   -1.13226  -1.13209  -1.13079  -1.13027  -1.13016
 Alpha  occ. eigenvalues --   -0.17762  -0.12652  -0.12320  -0.10468
 Alpha virt. eigenvalues --   -0.05774  -0.05556  -0.05075  -0.03031  -0.02916
 Alpha virt. eigenvalues --   -0.02440  -0.01621  -0.01471  -0.00785  -0.00752
 Alpha virt. eigenvalues --   -0.00043   0.00337   0.00737   0.00750   0.00814

  Beta  occ. eigenvalues --  -38.44246 -38.44173 -38.44040 -38.43810 -38.43765
  Beta  occ. eigenvalues --  -38.43693 -38.43450  -2.20018  -2.19955  -2.19826
  Beta  occ. eigenvalues --   -2.19594  -2.19548  -2.19468  -2.19274  -1.13682
  Beta  occ. eigenvalues --   -1.13673  -1.13667  -1.13631  -1.13614  -1.13588
  Beta  occ. eigenvalues --   -1.13495  -1.13487  -1.13465  -1.13268  -1.13258
  Beta  occ. eigenvalues --   -1.13224  -1.13224  -1.13211  -1.13193  -1.13189
  Beta  occ. eigenvalues --   -1.13149  -1.13120  -1.12995  -1.12945  -1.12923
  Beta  occ. eigenvalues --   -0.17074  -0.12435  -0.12081
  Beta virt. eigenvalues --   -0.06708  -0.05716  -0.05496  -0.04950  -0.02343
  Beta virt. eigenvalues --   -0.02227  -0.01511  -0.01456  -0.01361  -0.00820
  Beta virt. eigenvalues --   -0.00792   0.00100   0.00375   0.00756   0.00807

 Mulliken charges and spin densities:
               1          2
     1  Na   0.046198  -0.059385
     2  Na  -0.148024   0.734041
     3  Na   0.033361   0.004934
     4  Na   0.009479  -0.051695
     5  Na   0.086457   0.590016
     6  Na  -0.083087  -0.103065
     7  Na   0.055616  -0.114846
 Sum of Mulliken charges =  -0.00000   1.00000

 Dipole moment (field-independent basis, Debye):
    X=             -0.2616    Y=             -0.0046    Z=              0.0681  Tot=              0.2704
 Quadrupole moment (field-independent basis, Debye-Ang):
   XX=            -56.6674   YY=            -60.4623   ZZ=            -75.8519
   XY=              0.1208   XZ=             -0.2538   YZ=              1.0761

 Normal termination of Gaussian 16 at Thu Dec  7 20:27:20 2023.
