 Gaussian 16, Revision B.01,
 Gaussian 16:  ES64L-G16RevB.01 20-Dec-2017

 -------------------------
 #P B3LYP/6-311+g(d) force
 -------------------------

 -----
 DPGEN
 -----
 Symbolic Z-matrix:
 Charge =  0 Multiplicity = 2

                         Standard orientation:
 ---------------------------------------------------------------------
 Center     Atomic      Atomic             Coordinates (Angstroms)
 Number     Number       Type             X           Y           Z
 ---------------------------------------------------------------------
      1         11           0        2.468204   -1.988486   -1.027962
      2         11           0       -3.644701   -1.121571   -0.717422
      3         11           0        0.462752   -1.558189    1.839653
      4         11           0       -0.586776   -0.554252   -0.992010
      5         11           0        0.263305    2.790197   -1.166588
      6         11           0       -1.524764    1.407024    1.588688
      7         11           0        2.561981    1.025278    0.475641
 ---------------------------------------------------------------------

 SCF Done:  E(UB3LYP) =  -1136.12897590     A.U. after   20 cycles

 The electronic state is 2-A.
 Alpha  occ. eigenvalues --  -38.44249 -38.44086 -38.44079 -38.43887 -38.43741
 Alpha  occ. eigenvalues --  -38.42921 -38.42823  -2.20045  -2.19939  -2.19922
 Alpha  occ. eigenvalues --   -2.19778  -2.19591  -2.18841  -2.18767  -1.13737
 Alpha  occ. eigenvalues --   -1.13687  -1.13670  -1.13629  -1.13623  -1.13613
 Alpha  occ. eigenvalues --   -1.13575  -1.13569  -1.13527  -1.13481  -1.13421
 Alpha  occ. eigenvalues --   -1.13371  -1.13267  -1.13238  -1.13211  -1.12559
 Alpha  occ. eigenvalues --   -1.12502  -1.12471  -1.12425  -1.12413  -1.12400
 Alpha  occ. eigenvalues --   -0.18424  -0.13004  -0.11873  -0.11190
 Alpha virt. eigenvalues --   -0.06002  -0.05143  -0.04226  -0.03286  -0.02839
 Alpha virt. eigenvalues --   -0.02487  -0.01870  -0.01124  -0.00535  -0.00011
 Alpha virt. eigenvalues --    0.00215   0.00280   0.00529   0.00669   0.00723

  Beta  occ. eigenvalues --  -38.44229 -38.44084 -38.44037 -38.43822 -38.43724
  Beta  occ. eigenvalues --  -38.42906 -38.42792  -2.20009  -2.19939  -2.19848
  Beta  occ. eigenvalues --   -2.19660  -2.19560  -2.18788  -2.18739  -1.13705
  Beta  occ. eigenvalues --   -1.13663  -1.13646  -1.13619  -1.13599  -1.13575
  Beta  occ. eigenvalues --   -1.13568  -1.13501  -1.13482  -1.13407  -1.13330
  Beta  occ. eigenvalues --   -1.13283  -1.13238  -1.13217  -1.13187  -1.12493
  Beta  occ. eigenvalues --   -1.12469  -1.12434  -1.12398  -1.12395  -1.12380
  Beta  occ. eigenvalues --   -0.17692  -0.12773  -0.11688
  Beta virt. eigenvalues --   -0.07317  -0.05811  -0.04866  -0.03972  -0.02867
  Beta virt. eigenvalues --   -0.02409  -0.01763  -0.01582  -0.00977  -0.00237
  Beta virt. eigenvalues --    0.00036   0.00309   0.00338   0.00624   0.00761

 Mulliken charges and spin densities:
               1          2
     1  Na   0.616925  -0.122821
     2  Na   0.034180   0.145041
     3  Na  -0.283665   0.427815
     4  Na  -0.704085   0.264491
     5  Na   0.124407  -0.070867
     6  Na   0.170052   0.166199
     7  Na   0.042186   0.190141
 Sum of Mulliken charges =  -0.00000   1.00000

 Dipole moment (field-independent basis, Debye):
    X=              0.0128    Y=             -0.1707    Z=              0.3610  Tot=              0.3996
 Quadrupole moment (field-independent basis, Debye-Ang):
   XX=            -56.1296   YY=            -68.6517   ZZ=            -67.5572
   XY=             -1.5941   XZ=             -1.0137   YZ=              1.0827

 Normal termination of Gaussian 16 at Wed Nov 29 16:45:25 2023.
