 Gaussian 16, Revision B.01,
 Gaussian 16:  ES64L-G16RevB.01 20-Dec-2017

 -------------------------
 #P B3LYP/6-311+g(d) force
 -------------------------

 -----
 DPGEN
 -----
 Symbolic Z-matrix:
 Charge =  0 Multiplicity = 2

                         Standard orientation:
 ---------------------------------------------------------------------
 Center     Atomic      Atomic             Coordinates (Angstroms)
 Number     Number       Type             X           Y           Z
 ---------------------------------------------------------------------
      1         11           0        1.737538    2.537408   -0.166262
      2         11           0       -0.130312   -0.119420    2.109286
      3         11           0        3.072954   -1.208055   -0.094888
      4         11           0        0.225937    0.153095   -1.534507
      5         11           0       -0.153262   -2.763909   -0.013106
      6         11           0       -1.640503    2.167160    0.179841
      7         11           0       -3.112352   -0.766280   -0.480364
 ---------------------------------------------------------------------

 SCF Done:  E(UB3LYP) =  -1136.13748454     A.U. after   18 cycles

 The electronic state is 2-A.
 Alpha  occ. eigenvalues --  -38.44164 -38.43770 -38.43627 -38.43576 -38.43378
 Alpha  occ. eigenvalues --  -38.43291 -38.43082  -2.19960  -2.19603  -2.19524
 Alpha  occ. eigenvalues --   -2.19425  -2.19246  -2.19204  -2.19095  -1.13639
 Alpha  occ. eigenvalues --   -1.13615  -1.13601  -1.13275  -1.13265  -1.13246
 Alpha  occ. eigenvalues --   -1.13196  -1.13165  -1.13148  -1.13135  -1.13077
 Alpha  occ. eigenvalues --   -1.13056  -1.12951  -1.12921  -1.12915  -1.12871
 Alpha  occ. eigenvalues --   -1.12854  -1.12816  -1.12768  -1.12722  -1.12702
 Alpha  occ. eigenvalues --   -0.18755  -0.12847  -0.12609  -0.10793
 Alpha virt. eigenvalues --   -0.05664  -0.05123  -0.04600  -0.03053  -0.02945
 Alpha virt. eigenvalues --   -0.02564  -0.01620  -0.01167  -0.00290  -0.00228
 Alpha virt. eigenvalues --   -0.00009   0.00335   0.00797   0.00872   0.00921

  Beta  occ. eigenvalues --  -38.44164 -38.43759 -38.43573 -38.43523 -38.43371
  Beta  occ. eigenvalues --  -38.43281 -38.43027  -2.19963  -2.19585  -2.19423
  Beta  occ. eigenvalues --   -2.19333  -2.19237  -2.19191  -2.18997  -1.13629
  Beta  occ. eigenvalues --   -1.13616  -1.13603  -1.13264  -1.13241  -1.13230
  Beta  occ. eigenvalues --   -1.13141  -1.13075  -1.13061  -1.13057  -1.13029
  Beta  occ. eigenvalues --   -1.13003  -1.12939  -1.12901  -1.12884  -1.12851
  Beta  occ. eigenvalues --   -1.12825  -1.12811  -1.12702  -1.12656  -1.12629
  Beta  occ. eigenvalues --   -0.18025  -0.12617  -0.12362
  Beta virt. eigenvalues --   -0.06850  -0.05636  -0.05081  -0.04569  -0.02306
  Beta virt. eigenvalues --   -0.02157  -0.01573  -0.01449  -0.01109  -0.00326
  Beta virt. eigenvalues --   -0.00256   0.00128   0.00365   0.00832   0.00886

 Mulliken charges and spin densities:
               1          2
     1  Na   0.166856  -0.076783
     2  Na  -0.452004   0.655203
     3  Na   0.049589  -0.093431
     4  Na  -0.413005   0.390278
     5  Na   0.195738  -0.004565
     6  Na   0.395888   0.104583
     7  Na   0.056940   0.024714
 Sum of Mulliken charges =  -0.00000   1.00000

 Dipole moment (field-independent basis, Debye):
    X=              0.3077    Y=             -0.1190    Z=              0.1618  Tot=              0.3675
 Quadrupole moment (field-independent basis, Debye-Ang):
   XX=            -55.5726   YY=            -63.0827   ZZ=            -74.2550
   XY=              0.4703   XZ=              1.0409   YZ=              0.6744

 Normal termination of Gaussian 16 at Tue Dec  5 12:48:27 2023.
