 Gaussian 16, Revision B.01,
 Gaussian 16:  ES64L-G16RevB.01 20-Dec-2017

 -------------------------
 #P B3LYP/6-311+g(d) force
 -------------------------

 -----
 DPGEN
 -----
 Symbolic Z-matrix:
 Charge =  0 Multiplicity = 2

                         Standard orientation:
 ---------------------------------------------------------------------
 Center     Atomic      Atomic             Coordinates (Angstroms)
 Number     Number       Type             X           Y           Z
 ---------------------------------------------------------------------
      1         11           0        1.013922    3.005811   -0.360735
      2         11           0        3.212408   -0.011027   -0.274885
      3         11           0        0.393172    0.442401    2.252955
      4         11           0        1.368690   -2.599462   -0.004887
      5         11           0       -0.268685    0.189656   -1.569982
      6         11           0       -2.067473   -2.101138   -0.130781
      7         11           0       -3.652033    1.073759    0.088315
 ---------------------------------------------------------------------

 SCF Done:  E(UB3LYP) =  -1136.12938625     A.U. after   21 cycles

 The electronic state is 2-A.
 Alpha  occ. eigenvalues --  -38.45109 -38.44632 -38.43851 -38.43760 -38.43494
 Alpha  occ. eigenvalues --  -38.43474 -38.42966  -2.20851  -2.20460  -2.19679
 Alpha  occ. eigenvalues --   -2.19601  -2.19395  -2.19305  -2.18828  -1.14526
 Alpha  occ. eigenvalues --   -1.14510  -1.14488  -1.14143  -1.14127  -1.14087
 Alpha  occ. eigenvalues --   -1.13333  -1.13321  -1.13303  -1.13300  -1.13266
 Alpha  occ. eigenvalues --   -1.13216  -1.13090  -1.13068  -1.13010  -1.12964
 Alpha  occ. eigenvalues --   -1.12956  -1.12938  -1.12507  -1.12485  -1.12477
 Alpha  occ. eigenvalues --   -0.18039  -0.13124  -0.12045  -0.10569
 Alpha virt. eigenvalues --   -0.06669  -0.05069  -0.04544  -0.03206  -0.02787
 Alpha virt. eigenvalues --   -0.02562  -0.02167  -0.01157  -0.00775  -0.00342
 Alpha virt. eigenvalues --   -0.00086   0.00276   0.00630   0.00709   0.00759

  Beta  occ. eigenvalues --  -38.45114 -38.44625 -38.43756 -38.43745 -38.43486
  Beta  occ. eigenvalues --  -38.43421 -38.42962  -2.20862  -2.20450  -2.19596
  Beta  occ. eigenvalues --   -2.19482  -2.19301  -2.19295  -2.18824  -1.14527
  Beta  occ. eigenvalues --   -1.14517  -1.14496  -1.14140  -1.14096  -1.14085
  Beta  occ. eigenvalues --   -1.13311  -1.13250  -1.13218  -1.13199  -1.13165
  Beta  occ. eigenvalues --   -1.13161  -1.13034  -1.13009  -1.12944  -1.12939
  Beta  occ. eigenvalues --   -1.12935  -1.12921  -1.12506  -1.12484  -1.12452
  Beta  occ. eigenvalues --   -0.17340  -0.12977  -0.11836
  Beta virt. eigenvalues --   -0.06705  -0.06526  -0.05006  -0.04516  -0.02557
  Beta virt. eigenvalues --   -0.02086  -0.01995  -0.01505  -0.01087  -0.00813
  Beta virt. eigenvalues --   -0.00371   0.00102   0.00323   0.00722   0.00780

 Mulliken charges and spin densities:
               1          2
     1  Na   0.043312  -0.046740
     2  Na   0.317684   0.068655
     3  Na  -0.568134   0.739339
     4  Na  -0.054629   0.027570
     5  Na   0.109752   0.222575
     6  Na   0.115126   0.040040
     7  Na   0.036888  -0.051441
 Sum of Mulliken charges =  -0.00000   1.00000

 Dipole moment (field-independent basis, Debye):
    X=             -0.4635    Y=              0.4292    Z=              0.0681  Tot=              0.6354
 Quadrupole moment (field-independent basis, Debye-Ang):
   XX=            -52.4004   YY=            -64.8847   ZZ=            -75.8484
   XY=             -1.3735   XZ=             -1.5636   YZ=             -0.3106

 Normal termination of Gaussian 16 at Thu Dec  7 06:11:05 2023.
