 Gaussian 16, Revision B.01,
 Gaussian 16:  ES64L-G16RevB.01 20-Dec-2017

 -------------------------
 #P B3LYP/6-311+g(d) force
 -------------------------

 -----
 DPGEN
 -----
 Symbolic Z-matrix:
 Charge =  0 Multiplicity = 2

                         Standard orientation:
 ---------------------------------------------------------------------
 Center     Atomic      Atomic             Coordinates (Angstroms)
 Number     Number       Type             X           Y           Z
 ---------------------------------------------------------------------
      1         11           0        3.928149    0.286696    0.095799
      2         11           0       -3.043209    0.846523    0.238345
      3         11           0       -1.849953   -2.443814   -0.137579
      4         11           0       -0.058921    2.749224   -0.297675
      5         11           0       -0.399643    0.354185   -1.786204
      6         11           0        1.468698   -1.881558   -0.364456
      7         11           0       -0.045121    0.088744    2.251770
 ---------------------------------------------------------------------

 SCF Done:  E(UB3LYP) =  -1136.12537630     A.U. after   21 cycles

 The electronic state is 2-A.
 Alpha  occ. eigenvalues --  -38.44980 -38.44648 -38.44451 -38.43707 -38.43266
 Alpha  occ. eigenvalues --  -38.43034 -38.42945  -2.20729  -2.20487  -2.20290
 Alpha  occ. eigenvalues --   -2.19705  -2.19149  -2.18934  -2.18794  -1.14405
 Alpha  occ. eigenvalues --   -1.14395  -1.14364  -1.14171  -1.14153  -1.14111
 Alpha  occ. eigenvalues --   -1.13949  -1.13919  -1.13904  -1.13477  -1.13356
 Alpha  occ. eigenvalues --   -1.13311  -1.12837  -1.12783  -1.12736  -1.12642
 Alpha  occ. eigenvalues --   -1.12608  -1.12555  -1.12458  -1.12447  -1.12441
 Alpha  occ. eigenvalues --   -0.18516  -0.12969  -0.12003  -0.11193
 Alpha virt. eigenvalues --   -0.06699  -0.04568  -0.04105  -0.03342  -0.03059
 Alpha virt. eigenvalues --   -0.02850  -0.02243  -0.01016  -0.00354  -0.00159
 Alpha virt. eigenvalues --    0.00074   0.00264   0.00472   0.00790   0.00814

  Beta  occ. eigenvalues --  -38.44989 -38.44639 -38.44351 -38.43633 -38.43256
  Beta  occ. eigenvalues --  -38.43022 -38.42943  -2.20747  -2.20475  -2.20105
  Beta  occ. eigenvalues --   -2.19571  -2.19134  -2.18916  -2.18793  -1.14418
  Beta  occ. eigenvalues --   -1.14401  -1.14376  -1.14157  -1.14126  -1.14107
  Beta  occ. eigenvalues --   -1.13826  -1.13790  -1.13770  -1.13389  -1.13261
  Beta  occ. eigenvalues --   -1.13218  -1.12810  -1.12753  -1.12731  -1.12627
  Beta  occ. eigenvalues --   -1.12576  -1.12546  -1.12457  -1.12442  -1.12427
  Beta  occ. eigenvalues --   -0.17733  -0.12849  -0.11750
  Beta virt. eigenvalues --   -0.07205  -0.06570  -0.04574  -0.04056  -0.02662
  Beta virt. eigenvalues --   -0.02177  -0.02053  -0.01908  -0.00982  -0.00376
  Beta virt. eigenvalues --   -0.00009   0.00069   0.00281   0.00681   0.00825

 Mulliken charges and spin densities:
               1          2
     1  Na   0.029375  -0.092059
     2  Na   0.269738   0.081125
     3  Na   0.101438  -0.033980
     4  Na   0.158627  -0.056324
     5  Na   0.038167   0.353457
     6  Na   0.001912   0.036279
     7  Na  -0.599258   0.711503
 Sum of Mulliken charges =  -0.00000   1.00000

 Dipole moment (field-independent basis, Debye):
    X=              0.1116    Y=              0.4302    Z=              0.4478  Tot=              0.6309
 Quadrupole moment (field-independent basis, Debye-Ang):
   XX=            -51.6059   YY=            -69.8603   ZZ=            -72.2185
   XY=              1.9556   XZ=             -0.2450   YZ=              0.8862

 Normal termination of Gaussian 16 at Thu Dec  7 03:39:40 2023.
