 Gaussian 16, Revision B.01,
 Gaussian 16:  ES64L-G16RevB.01 20-Dec-2017

 -------------------------
 #P B3LYP/6-311+g(d) force
 -------------------------

 -----
 DPGEN
 -----
 Symbolic Z-matrix:
 Charge =  0 Multiplicity = 2

                         Standard orientation:
 ---------------------------------------------------------------------
 Center     Atomic      Atomic             Coordinates (Angstroms)
 Number     Number       Type             X           Y           Z
 ---------------------------------------------------------------------
      1         11           0        2.924288   -1.693007    0.036191
      2         11           0        3.166408    2.145313    0.372337
      3         11           0       -0.456221   -0.532711    1.671759
      4         11           0       -3.081160    2.059559   -0.003214
      5         11           0        0.476594   -2.239660   -1.000702
      6         11           0       -3.091224   -1.685036   -0.003461
      7         11           0        0.061314    1.945541   -1.072909
 ---------------------------------------------------------------------

 SCF Done:  E(UB3LYP) =  -1136.11382802     A.U. after   21 cycles

 The electronic state is 2-A.
 Alpha  occ. eigenvalues --  -38.44714 -38.44668 -38.44596 -38.44199 -38.43886
 Alpha  occ. eigenvalues --  -38.43616 -38.43533  -2.20576  -2.20480  -2.20476
 Alpha  occ. eigenvalues --   -2.20007  -2.19678  -2.19478  -2.19445  -1.14332
 Alpha  occ. eigenvalues --   -1.14279  -1.14218  -1.14213  -1.14144  -1.14112
 Alpha  occ. eigenvalues --   -1.14107  -1.14103  -1.14067  -1.13674  -1.13670
 Alpha  occ. eigenvalues --   -1.13633  -1.13340  -1.13332  -1.13307  -1.13149
 Alpha  occ. eigenvalues --   -1.13134  -1.13120  -1.13101  -1.13076  -1.13062
 Alpha  occ. eigenvalues --   -0.17788  -0.13693  -0.12561  -0.09840
 Alpha virt. eigenvalues --   -0.06743  -0.06473  -0.03922  -0.03262  -0.03050
 Alpha virt. eigenvalues --   -0.02347  -0.02121  -0.01571  -0.01136  -0.00154
 Alpha virt. eigenvalues --   -0.00045   0.00115   0.00217   0.00448   0.00668

  Beta  occ. eigenvalues --  -38.44674 -38.44651 -38.44572 -38.44167 -38.43846
  Beta  occ. eigenvalues --  -38.43600 -38.43499  -2.20500  -2.20448  -2.20441
  Beta  occ. eigenvalues --   -2.19950  -2.19602  -2.19422  -2.19416  -1.14288
  Beta  occ. eigenvalues --   -1.14227  -1.14174  -1.14159  -1.14122  -1.14091
  Beta  occ. eigenvalues --   -1.14081  -1.14070  -1.14029  -1.13639  -1.13621
  Beta  occ. eigenvalues --   -1.13590  -1.13290  -1.13280  -1.13256  -1.13121
  Beta  occ. eigenvalues --   -1.13114  -1.13103  -1.13060  -1.13020  -1.13012
  Beta  occ. eigenvalues --   -0.17416  -0.13199  -0.12023
  Beta virt. eigenvalues --   -0.06672  -0.06424  -0.06344  -0.03730  -0.02695
  Beta virt. eigenvalues --   -0.02661  -0.02122  -0.01905  -0.01107  -0.00929
  Beta virt. eigenvalues --   -0.00022   0.00094   0.00221   0.00360   0.00605

 Mulliken charges and spin densities:
               1          2
     1  Na   0.025134   0.035499
     2  Na   0.130187   0.214100
     3  Na  -0.129176   0.276155
     4  Na   0.217791   0.107696
     5  Na   0.117401   0.172795
     6  Na   0.173875   0.133908
     7  Na  -0.535213   0.059847
 Sum of Mulliken charges =  -0.00000   1.00000

 Dipole moment (field-independent basis, Debye):
    X=             -0.7278    Y=             -0.4172    Z=              0.3554  Tot=              0.9111
 Quadrupole moment (field-independent basis, Debye-Ang):
   XX=            -53.5489   YY=            -74.4113   ZZ=            -71.2221
   XY=              1.5195   XZ=              2.3068   YZ=              2.1209

 Normal termination of Gaussian 16 at Tue Dec  5 11:16:30 2023.
