 Gaussian 16, Revision B.01,
 Gaussian 16:  ES64L-G16RevB.01 20-Dec-2017

 -------------------------
 #P B3LYP/6-311+g(d) force
 -------------------------

 -----
 DPGEN
 -----
 Symbolic Z-matrix:
 Charge =  0 Multiplicity = 2

                         Standard orientation:
 ---------------------------------------------------------------------
 Center     Atomic      Atomic             Coordinates (Angstroms)
 Number     Number       Type             X           Y           Z
 ---------------------------------------------------------------------
      1         11           0        1.019565   -0.635944    1.867421
      2         11           0       -0.183595   -0.236385   -1.544409
      3         11           0        2.385490    1.514659   -0.116461
      4         11           0       -2.070014   -1.744264    0.963488
      5         11           0        3.832110   -0.998204   -0.876366
      6         11           0       -1.240760    2.025049    0.936807
      7         11           0       -3.742795    0.075089   -1.230480
 ---------------------------------------------------------------------

 SCF Done:  E(UB3LYP) =  -1136.12211583     A.U. after   26 cycles

 The electronic state is 2-A.
 Alpha  occ. eigenvalues --  -38.44970 -38.44239 -38.44122 -38.43840 -38.43791
 Alpha  occ. eigenvalues --  -38.43377 -38.43069  -2.20826  -2.20129  -2.20063
 Alpha  occ. eigenvalues --   -2.19674  -2.19618  -2.19233  -2.18978  -1.14552
 Alpha  occ. eigenvalues --   -1.14507  -1.14421  -1.13820  -1.13777  -1.13769
 Alpha  occ. eigenvalues --   -1.13746  -1.13738  -1.13688  -1.13337  -1.13319
 Alpha  occ. eigenvalues --   -1.13293  -1.13289  -1.13275  -1.13250  -1.12918
 Alpha  occ. eigenvalues --   -1.12879  -1.12847  -1.12670  -1.12641  -1.12581
 Alpha  occ. eigenvalues --   -0.18605  -0.14324  -0.11502  -0.10763
 Alpha virt. eigenvalues --   -0.06823  -0.05125  -0.04842  -0.03137  -0.02740
 Alpha virt. eigenvalues --   -0.02516  -0.02127  -0.01205  -0.01008  -0.00178
 Alpha virt. eigenvalues --    0.00078   0.00287   0.00348   0.00613   0.00734

  Beta  occ. eigenvalues --  -38.44953 -38.44175 -38.44102 -38.43837 -38.43783
  Beta  occ. eigenvalues --  -38.43334 -38.43034  -2.20800  -2.20028  -2.20012
  Beta  occ. eigenvalues --   -2.19668  -2.19604  -2.19156  -2.18917  -1.14505
  Beta  occ. eigenvalues --   -1.14484  -1.14407  -1.13747  -1.13735  -1.13717
  Beta  occ. eigenvalues --   -1.13694  -1.13668  -1.13646  -1.13330  -1.13312
  Beta  occ. eigenvalues --   -1.13289  -1.13279  -1.13256  -1.13242  -1.12858
  Beta  occ. eigenvalues --   -1.12821  -1.12795  -1.12627  -1.12580  -1.12540
  Beta  occ. eigenvalues --   -0.17895  -0.14141  -0.10584
  Beta virt. eigenvalues --   -0.07514  -0.06630  -0.04827  -0.04416  -0.02718
  Beta virt. eigenvalues --   -0.02651  -0.01993  -0.01610  -0.00977  -0.00536
  Beta virt. eigenvalues --   -0.00087   0.00112   0.00362   0.00441   0.00706

 Mulliken charges and spin densities:
               1          2
     1  Na  -0.246721   0.294924
     2  Na  -0.906741   0.353295
     3  Na   0.653597   0.032679
     4  Na  -0.065940   0.034146
     5  Na   0.278984  -0.010549
     6  Na  -0.329512   0.210131
     7  Na   0.616333   0.085374
 Sum of Mulliken charges =  -0.00000   1.00000

 Dipole moment (field-independent basis, Debye):
    X=             -0.2430    Y=              0.2390    Z=              0.3854  Tot=              0.5145
 Quadrupole moment (field-independent basis, Debye-Ang):
   XX=            -56.5565   YY=            -67.0669   ZZ=            -74.8911
   XY=             -2.2225   XZ=             -0.1019   YZ=             -2.4387

 Normal termination of Gaussian 16 at Tue Dec  5 19:23:02 2023.
