 Gaussian 16, Revision B.01,
 Gaussian 16:  ES64L-G16RevB.01 20-Dec-2017

 -------------------------
 #P B3LYP/6-311+g(d) force
 -------------------------

 -----
 DPGEN
 -----
 Symbolic Z-matrix:
 Charge =  0 Multiplicity = 2

                         Standard orientation:
 ---------------------------------------------------------------------
 Center     Atomic      Atomic             Coordinates (Angstroms)
 Number     Number       Type             X           Y           Z
 ---------------------------------------------------------------------
      1         11           0        3.351654   -0.467635    0.800158
      2         11           0       -0.996579    2.887503    0.422784
      3         11           0        1.654233    0.662281   -1.676988
      4         11           0        0.152269    0.326902    1.995953
      5         11           0       -2.941416   -1.745892    0.674648
      6         11           0       -1.677089    0.504128   -1.502762
      7         11           0        0.456929   -2.167287   -0.713794
 ---------------------------------------------------------------------

 SCF Done:  E(UB3LYP) =  -1136.13145233     A.U. after   21 cycles

 The electronic state is 2-A.
 Alpha  occ. eigenvalues --  -38.44209 -38.44175 -38.44011 -38.43672 -38.43509
 Alpha  occ. eigenvalues --  -38.43460 -38.42780  -2.20097  -2.20015  -2.19935
 Alpha  occ. eigenvalues --   -2.19474  -2.19453  -2.19338  -2.18639  -1.13763
 Alpha  occ. eigenvalues --   -1.13750  -1.13728  -1.13718  -1.13662  -1.13655
 Alpha  occ. eigenvalues --   -1.13644  -1.13551  -1.13528  -1.13169  -1.13152
 Alpha  occ. eigenvalues --   -1.13135  -1.13112  -1.13108  -1.13061  -1.13038
 Alpha  occ. eigenvalues --   -1.13016  -1.12916  -1.12317  -1.12307  -1.12264
 Alpha  occ. eigenvalues --   -0.18684  -0.13129  -0.11905  -0.11711
 Alpha virt. eigenvalues --   -0.05798  -0.04714  -0.04420  -0.03405  -0.03210
 Alpha virt. eigenvalues --   -0.02997  -0.01645  -0.00862  -0.00559   0.00221
 Alpha virt. eigenvalues --    0.00325   0.00345   0.00661   0.00777   0.00852

  Beta  occ. eigenvalues --  -38.44163 -38.44130 -38.43955 -38.43664 -38.43472
  Beta  occ. eigenvalues --  -38.43444 -38.42779  -2.19995  -2.19952  -2.19834
  Beta  occ. eigenvalues --   -2.19460  -2.19388  -2.19314  -2.18641  -1.13701
  Beta  occ. eigenvalues --   -1.13673  -1.13659  -1.13637  -1.13632  -1.13600
  Beta  occ. eigenvalues --   -1.13570  -1.13479  -1.13463  -1.13151  -1.13118
  Beta  occ. eigenvalues --   -1.13107  -1.13095  -1.13066  -1.13030  -1.13001
  Beta  occ. eigenvalues --   -1.12973  -1.12906  -1.12315  -1.12299  -1.12262
  Beta  occ. eigenvalues --   -0.17850  -0.12980  -0.11535
  Beta virt. eigenvalues --   -0.07850  -0.05638  -0.04455  -0.04059  -0.03082
  Beta virt. eigenvalues --   -0.02406  -0.02272  -0.01543  -0.00701  -0.00302
  Beta virt. eigenvalues --    0.00250   0.00360   0.00441   0.00732   0.00865

 Mulliken charges and spin densities:
               1          2
     1  Na   0.230958  -0.025651
     2  Na  -0.313309  -0.042169
     3  Na   0.199944   0.220702
     4  Na  -0.164143   0.635076
     5  Na   0.050547  -0.068164
     6  Na   0.515329   0.159769
     7  Na  -0.519326   0.120437
 Sum of Mulliken charges =  -0.00000   1.00000

 Dipole moment (field-independent basis, Debye):
    X=              0.5538    Y=             -0.1894    Z=              0.2952  Tot=              0.6555
 Quadrupole moment (field-independent basis, Debye-Ang):
   XX=            -57.6115   YY=            -71.2395   ZZ=            -66.4412
   XY=             -0.2015   XZ=             -0.0714   YZ=             -1.6801

 Normal termination of Gaussian 16 at Wed Nov 29 17:01:01 2023.
