 Gaussian 16, Revision B.01,
 Gaussian 16:  ES64L-G16RevB.01 20-Dec-2017

 -------------------------
 #P B3LYP/6-311+g(d) force
 -------------------------

 -----
 DPGEN
 -----
 Symbolic Z-matrix:
 Charge =  0 Multiplicity = 2

                         Standard orientation:
 ---------------------------------------------------------------------
 Center     Atomic      Atomic             Coordinates (Angstroms)
 Number     Number       Type             X           Y           Z
 ---------------------------------------------------------------------
      1         11           0       -1.301594    2.632850   -0.155161
      2         11           0        0.174266    0.108631    2.282634
      3         11           0        0.057491    0.003180   -1.379728
      4         11           0       -3.465840   -0.489503   -0.349112
      5         11           0        2.222040    2.075433   -0.087109
      6         11           0       -0.418910   -2.834594    0.217542
      7         11           0        2.732547   -1.495998   -0.529066
 ---------------------------------------------------------------------

 SCF Done:  E(UB3LYP) =  -1136.13591661     A.U. after   19 cycles

 The electronic state is 2-A.
 Alpha  occ. eigenvalues --  -38.44207 -38.43852 -38.43710 -38.43630 -38.43621
 Alpha  occ. eigenvalues --  -38.43474 -38.43009  -2.19972  -2.19708  -2.19562
 Alpha  occ. eigenvalues --   -2.19473  -2.19469  -2.19315  -2.19038  -1.13651
 Alpha  occ. eigenvalues --   -1.13621  -1.13615  -1.13362  -1.13333  -1.13323
 Alpha  occ. eigenvalues --   -1.13270  -1.13211  -1.13199  -1.13192  -1.13159
 Alpha  occ. eigenvalues --   -1.13137  -1.13129  -1.13107  -1.13067  -1.13016
 Alpha  occ. eigenvalues --   -1.12984  -1.12931  -1.12725  -1.12682  -1.12654
 Alpha  occ. eigenvalues --   -0.18448  -0.12711  -0.12516  -0.10809
 Alpha virt. eigenvalues --   -0.05718  -0.05133  -0.04753  -0.02963  -0.02883
 Alpha virt. eigenvalues --   -0.02690  -0.01656  -0.01200  -0.00446  -0.00385
 Alpha virt. eigenvalues --   -0.00042   0.00309   0.00768   0.00844   0.00871

  Beta  occ. eigenvalues --  -38.44204 -38.43738 -38.43697 -38.43625 -38.43616
  Beta  occ. eigenvalues --  -38.43468 -38.42966  -2.19969  -2.19541  -2.19497
  Beta  occ. eigenvalues --   -2.19468  -2.19464  -2.19307  -2.18962  -1.13640
  Beta  occ. eigenvalues --   -1.13619  -1.13614  -1.13250  -1.13224  -1.13196
  Beta  occ. eigenvalues --   -1.13190  -1.13186  -1.13179  -1.13170  -1.13149
  Beta  occ. eigenvalues --   -1.13117  -1.13113  -1.13098  -1.13064  -1.13010
  Beta  occ. eigenvalues --   -1.12954  -1.12931  -1.12665  -1.12630  -1.12595
  Beta  occ. eigenvalues --   -0.17745  -0.12463  -0.12321
  Beta virt. eigenvalues --   -0.06836  -0.05659  -0.05111  -0.04685  -0.02221
  Beta virt. eigenvalues --   -0.02170  -0.01627  -0.01529  -0.01145  -0.00453
  Beta virt. eigenvalues --   -0.00416   0.00124   0.00357   0.00834   0.00852

 Mulliken charges and spin densities:
               1          2
     1  Na   0.163014   0.016069
     2  Na  -0.510132   0.701032
     3  Na  -0.476217   0.088119
     4  Na   0.024988  -0.005218
     5  Na   0.309149   0.054258
     6  Na   0.173136   0.079976
     7  Na   0.316062   0.065765
 Sum of Mulliken charges =  -0.00000   1.00000

 Dipole moment (field-independent basis, Debye):
    X=             -0.0741    Y=              0.0473    Z=              0.2271  Tot=              0.2436
 Quadrupole moment (field-independent basis, Debye-Ang):
   XX=            -55.9798   YY=            -62.2948   ZZ=            -74.5303
   XY=              0.3461   XZ=             -0.3002   YZ=             -0.0217

 Normal termination of Gaussian 16 at Thu Dec  7 15:08:02 2023.
