 Gaussian 16, Revision B.01,
 Gaussian 16:  ES64L-G16RevB.01 20-Dec-2017

 -------------------------
 #P B3LYP/6-311+g(d) force
 -------------------------

 -----
 DPGEN
 -----
 Symbolic Z-matrix:
 Charge =  0 Multiplicity = 2

                         Standard orientation:
 ---------------------------------------------------------------------
 Center     Atomic      Atomic             Coordinates (Angstroms)
 Number     Number       Type             X           Y           Z
 ---------------------------------------------------------------------
      1         11           0       -4.932013   -0.009866   -0.492102
      2         11           0        0.722251    3.821708    0.378844
      3         11           0        3.630691    1.476083    0.086510
      4         11           0        3.838924   -1.830219   -0.294124
      5         11           0       -2.010488   -1.784283    1.353593
      6         11           0        0.360024   -3.768882   -0.419574
      7         11           0       -1.609389    2.095460   -0.613147
 ---------------------------------------------------------------------

 SCF Done:  E(UB3LYP) =  -1136.11050324     A.U. after   19 cycles

 The electronic state is 2-A.
 Alpha  occ. eigenvalues --  -38.45237 -38.44817 -38.44661 -38.44524 -38.44357
 Alpha  occ. eigenvalues --  -38.44270 -38.43640  -2.20975  -2.20608  -2.20435
 Alpha  occ. eigenvalues --   -2.20303  -2.20125  -2.20041  -2.19469  -1.14667
 Alpha  occ. eigenvalues --   -1.14656  -1.14593  -1.14304  -1.14282  -1.14242
 Alpha  occ. eigenvalues --   -1.14114  -1.14108  -1.14060  -1.13956  -1.13949
 Alpha  occ. eigenvalues --   -1.13908  -1.13790  -1.13772  -1.13753  -1.13714
 Alpha  occ. eigenvalues --   -1.13706  -1.13668  -1.13147  -1.13114  -1.13093
 Alpha  occ. eigenvalues --   -0.15566  -0.13616  -0.13235  -0.10952
 Alpha virt. eigenvalues --   -0.06904  -0.05646  -0.04393  -0.03241  -0.03076
 Alpha virt. eigenvalues --   -0.02553  -0.02210  -0.01804  -0.01580  -0.00849
 Alpha virt. eigenvalues --   -0.00444  -0.00316   0.00252   0.00437   0.00496

  Beta  occ. eigenvalues --  -38.45230 -38.44801 -38.44630 -38.44443 -38.44309
  Beta  occ. eigenvalues --  -38.44249 -38.43612  -2.20968  -2.20585  -2.20381
  Beta  occ. eigenvalues --   -2.20151  -2.20037  -2.20005  -2.19418  -1.14665
  Beta  occ. eigenvalues --   -1.14653  -1.14562  -1.14285  -1.14270  -1.14203
  Beta  occ. eigenvalues --   -1.14080  -1.14072  -1.14005  -1.13852  -1.13845
  Beta  occ. eigenvalues --   -1.13810  -1.13731  -1.13712  -1.13694  -1.13692
  Beta  occ. eigenvalues --   -1.13681  -1.13627  -1.13104  -1.13080  -1.13063
  Beta  occ. eigenvalues --   -0.15107  -0.12818  -0.12556
  Beta virt. eigenvalues --   -0.07761  -0.07035  -0.05136  -0.04180  -0.02978
  Beta virt. eigenvalues --   -0.02702  -0.02273  -0.01949  -0.01534  -0.01391
  Beta virt. eigenvalues --   -0.00589  -0.00242  -0.00015   0.00372   0.00433

 Mulliken charges and spin densities:
               1          2
     1  Na   0.234905   0.366873
     2  Na   0.458450   0.097751
     3  Na  -0.076169   0.157690
     4  Na   0.095857   0.012895
     5  Na  -0.110541   0.016913
     6  Na  -0.018877   0.204687
     7  Na  -0.583626   0.143193
 Sum of Mulliken charges =  -0.00000   1.00000

 Dipole moment (field-independent basis, Debye):
    X=             -0.4817    Y=             -0.1567    Z=              0.0699  Tot=              0.5113
 Quadrupole moment (field-independent basis, Debye-Ang):
   XX=            -64.9897   YY=            -65.5034   ZZ=            -69.4901
   XY=              1.4931   XZ=              0.8161   YZ=              2.0257

 Normal termination of Gaussian 16 at Sun Dec  3 14:40:26 2023.
