 Gaussian 16, Revision B.01,
 Gaussian 16:  ES64L-G16RevB.01 20-Dec-2017

 -------------------------
 #P B3LYP/6-311+g(d) force
 -------------------------

 -----
 DPGEN
 -----
 Symbolic Z-matrix:
 Charge =  0 Multiplicity = 2

                         Standard orientation:
 ---------------------------------------------------------------------
 Center     Atomic      Atomic             Coordinates (Angstroms)
 Number     Number       Type             X           Y           Z
 ---------------------------------------------------------------------
      1         11           0        0.667375    2.549764    0.199626
      2         11           0       -2.767886    1.446687   -0.264677
      3         11           0       -0.136869   -0.136191    1.880246
      4         11           0        1.085477   -2.242667   -0.011687
      5         11           0       -2.447520   -1.703943   -0.002319
      6         11           0        3.507837    0.158067   -0.127772
      7         11           0        0.091586   -0.071718   -1.673418
 ---------------------------------------------------------------------

 SCF Done:  E(UB3LYP) =  -1136.13098975     A.U. after   20 cycles

 The electronic state is 2-A.
 Alpha  occ. eigenvalues --  -38.44935 -38.43940 -38.43596 -38.43470 -38.43317
 Alpha  occ. eigenvalues --  -38.42978 -38.42908  -2.20726  -2.19797  -2.19493
 Alpha  occ. eigenvalues --   -2.19488  -2.19303  -2.18943  -2.18783  -1.14397
 Alpha  occ. eigenvalues --   -1.14387  -1.14361  -1.13495  -1.13461  -1.13431
 Alpha  occ. eigenvalues --   -1.13261  -1.13170  -1.13158  -1.13148  -1.13127
 Alpha  occ. eigenvalues --   -1.13065  -1.13004  -1.12946  -1.12904  -1.12633
 Alpha  occ. eigenvalues --   -1.12602  -1.12514  -1.12479  -1.12459  -1.12384
 Alpha  occ. eigenvalues --   -0.19192  -0.13482  -0.12104  -0.10807
 Alpha virt. eigenvalues --   -0.06382  -0.04909  -0.03942  -0.03302  -0.02651
 Alpha virt. eigenvalues --   -0.02432  -0.02190  -0.01000  -0.00167  -0.00040
 Alpha virt. eigenvalues --    0.00037   0.00300   0.00778   0.00888   0.00905

  Beta  occ. eigenvalues --  -38.44935 -38.43933 -38.43590 -38.43402 -38.43222
  Beta  occ. eigenvalues --  -38.42965 -38.42899  -2.20729  -2.19788  -2.19485
  Beta  occ. eigenvalues --   -2.19365  -2.19130  -2.18926  -2.18771  -1.14395
  Beta  occ. eigenvalues --   -1.14380  -1.14364  -1.13492  -1.13439  -1.13420
  Beta  occ. eigenvalues --   -1.13192  -1.13154  -1.13127  -1.13114  -1.13060
  Beta  occ. eigenvalues --   -1.12979  -1.12894  -1.12822  -1.12783  -1.12614
  Beta  occ. eigenvalues --   -1.12545  -1.12505  -1.12472  -1.12419  -1.12381
  Beta  occ. eigenvalues --   -0.18444  -0.13237  -0.11818
  Beta virt. eigenvalues --   -0.06865  -0.06320  -0.04918  -0.03948  -0.02533
  Beta virt. eigenvalues --   -0.02092  -0.01833  -0.01354  -0.00966  -0.00181
  Beta virt. eigenvalues --   -0.00012   0.00101   0.00326   0.00820   0.00901

 Mulliken charges and spin densities:
               1          2
     1  Na   0.107940  -0.114773
     2  Na   0.082848  -0.028744
     3  Na  -0.514715   0.699019
     4  Na   0.515441  -0.081168
     5  Na   0.445646  -0.017469
     6  Na   0.007163  -0.090889
     7  Na  -0.644323   0.634023
 Sum of Mulliken charges =  -0.00000   1.00000

 Dipole moment (field-independent basis, Debye):
    X=              0.3738    Y=              0.1248    Z=              0.0377  Tot=              0.3959
 Quadrupole moment (field-independent basis, Debye-Ang):
   XX=            -49.1492   YY=            -68.6204   ZZ=            -74.1908
   XY=              0.5163   XZ=              0.3542   YZ=             -0.1235

 Normal termination of Gaussian 16 at Sat Dec  9 06:34:18 2023.
