 Gaussian 16, Revision B.01,
 Gaussian 16:  ES64L-G16RevB.01 20-Dec-2017

 -------------------------
 #P B3LYP/6-311+g(d) force
 -------------------------

 -----
 DPGEN
 -----
 Symbolic Z-matrix:
 Charge =  0 Multiplicity = 2

                         Standard orientation:
 ---------------------------------------------------------------------
 Center     Atomic      Atomic             Coordinates (Angstroms)
 Number     Number       Type             X           Y           Z
 ---------------------------------------------------------------------
      1         11           0       -0.235640   -2.456289   -0.168627
      2         11           0       -3.097270   -0.873185    0.126341
      3         11           0        3.019760   -1.137069   -0.068459
      4         11           0        1.505063    2.313387    0.399591
      5         11           0        0.562150    0.202902   -1.836012
      6         11           0       -1.789878    1.925470   -0.511366
      7         11           0        0.035815    0.024785    2.058532
 ---------------------------------------------------------------------

 SCF Done:  E(UB3LYP) =  -1136.13531825     A.U. after   19 cycles

 The electronic state is 2-A.
 Alpha  occ. eigenvalues --  -38.44089 -38.43926 -38.43849 -38.43574 -38.43241
 Alpha  occ. eigenvalues --  -38.43198 -38.42984  -2.19922  -2.19853  -2.19704
 Alpha  occ. eigenvalues --   -2.19567  -2.19153  -2.19104  -2.18894  -1.13609
 Alpha  occ. eigenvalues --   -1.13576  -1.13562  -1.13525  -1.13501  -1.13460
 Alpha  occ. eigenvalues --   -1.13394  -1.13362  -1.13351  -1.13250  -1.13219
 Alpha  occ. eigenvalues --   -1.13196  -1.12837  -1.12809  -1.12797  -1.12781
 Alpha  occ. eigenvalues --   -1.12760  -1.12703  -1.12591  -1.12572  -1.12498
 Alpha  occ. eigenvalues --   -0.19125  -0.13183  -0.12331  -0.11364
 Alpha virt. eigenvalues --   -0.05746  -0.04893  -0.04050  -0.03400  -0.03069
 Alpha virt. eigenvalues --   -0.02992  -0.01631  -0.00882  -0.00145   0.00104
 Alpha virt. eigenvalues --    0.00125   0.00354   0.00833   0.00938   0.00957

  Beta  occ. eigenvalues --  -38.44087 -38.43851 -38.43831 -38.43500 -38.43228
  Beta  occ. eigenvalues --  -38.43185 -38.42976  -2.19920  -2.19709  -2.19679
  Beta  occ. eigenvalues --   -2.19431  -2.19132  -2.19085  -2.18883  -1.13596
  Beta  occ. eigenvalues --   -1.13570  -1.13558  -1.13415  -1.13400  -1.13376
  Beta  occ. eigenvalues --   -1.13363  -1.13346  -1.13329  -1.13163  -1.13124
  Beta  occ. eigenvalues --   -1.13095  -1.12816  -1.12789  -1.12773  -1.12756
  Beta  occ. eigenvalues --   -1.12725  -1.12693  -1.12585  -1.12534  -1.12493
  Beta  occ. eigenvalues --   -0.18355  -0.12966  -0.12052
  Beta virt. eigenvalues --   -0.07369  -0.05688  -0.04881  -0.04035  -0.02639
  Beta virt. eigenvalues --   -0.02233  -0.01887  -0.01565  -0.00822  -0.00034
  Beta virt. eigenvalues --    0.00084   0.00119   0.00372   0.00895   0.00927

 Mulliken charges and spin densities:
               1          2
     1  Na   0.205018  -0.014792
     2  Na  -0.092696  -0.072456
     3  Na   0.221125  -0.095927
     4  Na   0.261388  -0.007440
     5  Na  -0.350175   0.473629
     6  Na   0.345789   0.047527
     7  Na  -0.590450   0.669460
 Sum of Mulliken charges =  -0.00000   1.00000

 Dipole moment (field-independent basis, Debye):
    X=              0.2957    Y=             -0.0925    Z=              0.1839  Tot=              0.3603
 Quadrupole moment (field-independent basis, Debye-Ang):
   XX=            -55.3407   YY=            -68.4006   ZZ=            -70.9957
   XY=             -0.0635   XZ=              0.6504   YZ=              0.0768

 Normal termination of Gaussian 16 at Tue Dec  5 15:50:42 2023.
