 Gaussian 16, Revision B.01,
 Gaussian 16:  ES64L-G16RevB.01 20-Dec-2017

 -------------------------
 #P B3LYP/6-311+g(d) force
 -------------------------

 -----
 DPGEN
 -----
 Symbolic Z-matrix:
 Charge =  0 Multiplicity = 2

                         Standard orientation:
 ---------------------------------------------------------------------
 Center     Atomic      Atomic             Coordinates (Angstroms)
 Number     Number       Type             X           Y           Z
 ---------------------------------------------------------------------
      1         11           0        0.674082    0.948475    0.749775
      2         11           0       -2.479188   -0.358887    1.693387
      3         11           0       -1.413871    2.988043   -0.570059
      4         11           0       -2.323173   -0.140084   -1.322506
      5         11           0       -0.839753   -2.747521   -0.345256
      6         11           0        2.473390   -1.923113   -0.227899
      7         11           0        3.908513    1.233088    0.022558
 ---------------------------------------------------------------------

 SCF Done:  E(UB3LYP) =  -1136.12339587     A.U. after   22 cycles

 The electronic state is 2-A.
 Alpha  occ. eigenvalues --  -38.45069 -38.44340 -38.44141 -38.43753 -38.43628
 Alpha  occ. eigenvalues --  -38.43527 -38.43119  -2.20861  -2.20154  -2.20080
 Alpha  occ. eigenvalues --   -2.19663  -2.19471  -2.19439  -2.18986  -1.14528
 Alpha  occ. eigenvalues --   -1.14522  -1.14497  -1.13843  -1.13828  -1.13810
 Alpha  occ. eigenvalues --   -1.13772  -1.13750  -1.13700  -1.13321  -1.13299
 Alpha  occ. eigenvalues --   -1.13251  -1.13202  -1.13133  -1.13116  -1.13104
 Alpha  occ. eigenvalues --   -1.13099  -1.13032  -1.12674  -1.12645  -1.12622
 Alpha  occ. eigenvalues --   -0.18129  -0.13989  -0.12408  -0.10084
 Alpha virt. eigenvalues --   -0.06853  -0.05586  -0.04628  -0.03141  -0.02581
 Alpha virt. eigenvalues --   -0.02382  -0.01790  -0.01167  -0.01127  -0.00515
 Alpha virt. eigenvalues --   -0.00254   0.00282   0.00425   0.00640   0.00796

  Beta  occ. eigenvalues --  -38.45068 -38.44333 -38.44108 -38.43667 -38.43603
  Beta  occ. eigenvalues --  -38.43514 -38.43108  -2.20859  -2.20142  -2.20022
  Beta  occ. eigenvalues --   -2.19503  -2.19426  -2.19417  -2.18968  -1.14524
  Beta  occ. eigenvalues --   -1.14519  -1.14496  -1.13836  -1.13818  -1.13757
  Beta  occ. eigenvalues --   -1.13745  -1.13711  -1.13656  -1.13207  -1.13195
  Beta  occ. eigenvalues --   -1.13180  -1.13143  -1.13110  -1.13076  -1.13069
  Beta  occ. eigenvalues --   -1.13067  -1.13017  -1.12663  -1.12636  -1.12583
  Beta  occ. eigenvalues --   -0.17578  -0.13792  -0.12093
  Beta virt. eigenvalues --   -0.06789  -0.06263  -0.05336  -0.04473  -0.02834
  Beta virt. eigenvalues --   -0.02198  -0.02014  -0.01159  -0.01011  -0.00827
  Beta virt. eigenvalues --   -0.00473   0.00094   0.00388   0.00562   0.00679

 Mulliken charges and spin densities:
               1          2
     1  Na  -1.083257   0.395660
     2  Na   0.390684   0.114723
     3  Na   0.226568   0.027828
     4  Na  -0.071774   0.255201
     5  Na   0.135468   0.293272
     6  Na   0.026276  -0.099540
     7  Na   0.376036   0.012856
 Sum of Mulliken charges =  -0.00000   1.00000

 Dipole moment (field-independent basis, Debye):
    X=              1.3539    Y=              0.4941    Z=             -0.1805  Tot=              1.4525
 Quadrupole moment (field-independent basis, Debye-Ang):
   XX=            -52.1871   YY=            -65.1403   ZZ=            -76.0103
   XY=              1.8149   XZ=             -0.5060   YZ=             -0.3088

 Normal termination of Gaussian 16 at Tue Dec  5 11:30:36 2023.
