 Gaussian 16, Revision B.01,
 Gaussian 16:  ES64L-G16RevB.01 20-Dec-2017

 -------------------------
 #P B3LYP/6-311+g(d) force
 -------------------------

 -----
 DPGEN
 -----
 Symbolic Z-matrix:
 Charge =  0 Multiplicity = 2

                         Standard orientation:
 ---------------------------------------------------------------------
 Center     Atomic      Atomic             Coordinates (Angstroms)
 Number     Number       Type             X           Y           Z
 ---------------------------------------------------------------------
      1         11           0       -2.157330    1.268646    1.015540
      2         11           0       -4.597068   -0.590052   -0.698123
      3         11           0       -0.692646   -1.030353   -0.482965
      4         11           0        1.489206   -3.134002    0.584554
      5         11           0        3.019923   -0.333434   -1.404621
      6         11           0        1.212684    3.129797   -0.620289
      7         11           0        1.725231    0.689399    1.605903
 ---------------------------------------------------------------------

 SCF Done:  E(UB3LYP) =  -1136.12513946     A.U. after   22 cycles

 The electronic state is 2-A.
 Alpha  occ. eigenvalues --  -38.44234 -38.44092 -38.44009 -38.43947 -38.43902
 Alpha  occ. eigenvalues --  -38.43897 -38.43612  -2.20100  -2.19878  -2.19842
 Alpha  occ. eigenvalues --   -2.19837  -2.19742  -2.19678  -2.19432  -1.13788
 Alpha  occ. eigenvalues --   -1.13773  -1.13721  -1.13612  -1.13540  -1.13539
 Alpha  occ. eigenvalues --   -1.13535  -1.13523  -1.13494  -1.13489  -1.13460
 Alpha  occ. eigenvalues --   -1.13427  -1.13413  -1.13398  -1.13359  -1.13329
 Alpha  occ. eigenvalues --   -1.13321  -1.13315  -1.13109  -1.13085  -1.13054
 Alpha  occ. eigenvalues --   -0.17649  -0.13486  -0.12096  -0.10207
 Alpha virt. eigenvalues --   -0.06327  -0.05453  -0.04922  -0.03240  -0.02683
 Alpha virt. eigenvalues --   -0.02343  -0.01810  -0.01417  -0.01081  -0.00449
 Alpha virt. eigenvalues --   -0.00153   0.00140   0.00308   0.00533   0.00725

  Beta  occ. eigenvalues --  -38.44208 -38.44043 -38.43943 -38.43937 -38.43897
  Beta  occ. eigenvalues --  -38.43889 -38.43604  -2.20056  -2.19833  -2.19786
  Beta  occ. eigenvalues --   -2.19720  -2.19707  -2.19681  -2.19418  -1.13762
  Beta  occ. eigenvalues --   -1.13708  -1.13694  -1.13600  -1.13522  -1.13476
  Beta  occ. eigenvalues --   -1.13472  -1.13460  -1.13432  -1.13426  -1.13405
  Beta  occ. eigenvalues --   -1.13399  -1.13388  -1.13363  -1.13335  -1.13326
  Beta  occ. eigenvalues --   -1.13301  -1.13280  -1.13101  -1.13064  -1.13046
  Beta  occ. eigenvalues --   -0.17062  -0.13046  -0.11929
  Beta virt. eigenvalues --   -0.06734  -0.06034  -0.05209  -0.04651  -0.02851
  Beta virt. eigenvalues --   -0.02304  -0.02142  -0.01339  -0.01239  -0.00820
  Beta virt. eigenvalues --   -0.00109   0.00037   0.00225   0.00408   0.00653

 Mulliken charges and spin densities:
               1          2
     1  Na   0.214126  -0.049755
     2  Na   0.135954   0.286270
     3  Na  -1.582132   0.090938
     4  Na   0.796721  -0.098114
     5  Na   0.143350   0.473848
     6  Na  -0.060735   0.029976
     7  Na   0.352716   0.266835
 Sum of Mulliken charges =  -0.00000   1.00000

 Dipole moment (field-independent basis, Debye):
    X=             -0.0394    Y=             -0.0311    Z=              0.4629  Tot=              0.4656
 Quadrupole moment (field-independent basis, Debye-Ang):
   XX=            -63.0468   YY=            -64.2305   ZZ=            -68.5119
   XY=             -2.4835   XZ=              3.2282   YZ=             -1.0238

 Normal termination of Gaussian 16 at Tue Dec  5 12:25:25 2023.
