 Gaussian 16, Revision B.01,
 Gaussian 16:  ES64L-G16RevB.01 20-Dec-2017

 -------------------------
 #P B3LYP/6-311+g(d) force
 -------------------------

 -----
 DPGEN
 -----
 Symbolic Z-matrix:
 Charge =  0 Multiplicity = 2

                         Standard orientation:
 ---------------------------------------------------------------------
 Center     Atomic      Atomic             Coordinates (Angstroms)
 Number     Number       Type             X           Y           Z
 ---------------------------------------------------------------------
      1         11           0        1.701108    2.492494   -0.148742
      2         11           0        3.027584   -1.010038   -0.058953
      3         11           0       -0.047461   -2.885955   -0.128249
      4         11           0       -1.619549    2.435010   -0.112814
      5         11           0       -2.934651   -0.882890    0.095261
      6         11           0       -0.205694   -0.159439   -1.738887
      7         11           0        0.078664    0.010819    2.092384
 ---------------------------------------------------------------------

 SCF Done:  E(UB3LYP) =  -1136.14075961     A.U. after   19 cycles

 The electronic state is 2-A.
 Alpha  occ. eigenvalues --  -38.43810 -38.43694 -38.43627 -38.43600 -38.43548
 Alpha  occ. eigenvalues --  -38.43433 -38.43303  -2.19610  -2.19570  -2.19475
 Alpha  occ. eigenvalues --   -2.19433  -2.19417  -2.19299  -2.19268  -1.13285
 Alpha  occ. eigenvalues --   -1.13272  -1.13259  -1.13238  -1.13203  -1.13190
 Alpha  occ. eigenvalues --   -1.13170  -1.13144  -1.13133  -1.13121  -1.13115
 Alpha  occ. eigenvalues --   -1.13102  -1.13076  -1.13073  -1.13024  -1.12995
 Alpha  occ. eigenvalues --   -1.12958  -1.12929  -1.12923  -1.12884  -1.12875
 Alpha  occ. eigenvalues --   -0.18632  -0.12770  -0.12637  -0.10842
 Alpha virt. eigenvalues --   -0.05384  -0.05122  -0.04921  -0.03102  -0.03034
 Alpha virt. eigenvalues --   -0.02693  -0.01351  -0.01153  -0.00377  -0.00317
 Alpha virt. eigenvalues --   -0.00026   0.00373   0.00834   0.00890   0.00893

  Beta  occ. eigenvalues --  -38.43810 -38.43623 -38.43598 -38.43597 -38.43541
  Beta  occ. eigenvalues --  -38.43428 -38.43234  -2.19612  -2.19471  -2.19430
  Beta  occ. eigenvalues --   -2.19408  -2.19392  -2.19293  -2.19143  -1.13273
  Beta  occ. eigenvalues --   -1.13268  -1.13262  -1.13168  -1.13134  -1.13129
  Beta  occ. eigenvalues --   -1.13117  -1.13114  -1.13102  -1.13085  -1.13080
  Beta  occ. eigenvalues --   -1.13070  -1.13054  -1.13042  -1.13024  -1.12977
  Beta  occ. eigenvalues --   -1.12933  -1.12922  -1.12852  -1.12800  -1.12788
  Beta  occ. eigenvalues --   -0.17884  -0.12529  -0.12429
  Beta virt. eigenvalues --   -0.06906  -0.05391  -0.05130  -0.04830  -0.02290
  Beta virt. eigenvalues --   -0.02256  -0.01626  -0.01270  -0.01077  -0.00436
  Beta virt. eigenvalues --   -0.00385   0.00116   0.00388   0.00866   0.00886

 Mulliken charges and spin densities:
               1          2
     1  Na   0.039910  -0.092268
     2  Na   0.020140  -0.107986
     3  Na   0.241176  -0.075533
     4  Na   0.183368  -0.050456
     5  Na   0.233916  -0.034141
     6  Na  -0.189058   0.549277
     7  Na  -0.529453   0.811107
 Sum of Mulliken charges =  -0.00000   1.00000

 Dipole moment (field-independent basis, Debye):
    X=              0.0641    Y=             -0.0701    Z=              0.1259  Tot=              0.1577
 Quadrupole moment (field-independent basis, Debye-Ang):
   XX=            -58.5039   YY=            -61.5830   ZZ=            -73.7953
   XY=              0.1658   XZ=             -0.6617   YZ=             -0.3828

 Normal termination of Gaussian 16 at Thu Dec  7 22:16:38 2023.
