 Gaussian 16, Revision B.01,
 Gaussian 16:  ES64L-G16RevB.01 20-Dec-2017

 -------------------------
 #P B3LYP/6-311+g(d) force
 -------------------------

 -----
 DPGEN
 -----
 Symbolic Z-matrix:
 Charge =  0 Multiplicity = 2

                         Standard orientation:
 ---------------------------------------------------------------------
 Center     Atomic      Atomic             Coordinates (Angstroms)
 Number     Number       Type             X           Y           Z
 ---------------------------------------------------------------------
      1         11           0       -0.309553    2.981224   -0.016793
      2         11           0       -2.211580   -2.360614    0.057526
      3         11           0       -2.850439    0.825897   -0.545620
      4         11           0        2.514066   -2.223178   -0.479533
      5         11           0       -0.140943   -0.382666    2.190269
      6         11           0        0.242020   -0.157484   -1.354148
      7         11           0        2.756429    1.316821    0.148300
 ---------------------------------------------------------------------

 SCF Done:  E(UB3LYP) =  -1136.13497207     A.U. after   19 cycles

 The electronic state is 2-A.
 Alpha  occ. eigenvalues --  -38.44153 -38.43946 -38.43910 -38.43811 -38.43733
 Alpha  occ. eigenvalues --  -38.43045 -38.43023  -2.19993  -2.19761  -2.19734
 Alpha  occ. eigenvalues --   -2.19662  -2.19607  -2.19052  -2.18872  -1.13689
 Alpha  occ. eigenvalues --   -1.13658  -1.13615  -1.13456  -1.13417  -1.13404
 Alpha  occ. eigenvalues --   -1.13400  -1.13391  -1.13387  -1.13322  -1.13292
 Alpha  occ. eigenvalues --   -1.13288  -1.13270  -1.13261  -1.13225  -1.12749
 Alpha  occ. eigenvalues --   -1.12694  -1.12689  -1.12539  -1.12534  -1.12519
 Alpha  occ. eigenvalues --   -0.18423  -0.13251  -0.12243  -0.10656
 Alpha virt. eigenvalues --   -0.05773  -0.05375  -0.04639  -0.03184  -0.02776
 Alpha virt. eigenvalues --   -0.02470  -0.01623  -0.01336  -0.00579  -0.00316
 Alpha virt. eigenvalues --   -0.00031   0.00320   0.00747   0.00800   0.00861

  Beta  occ. eigenvalues --  -38.44150 -38.43933 -38.43908 -38.43718 -38.43705
  Beta  occ. eigenvalues --  -38.43022 -38.43003  -2.19989  -2.19740  -2.19733
  Beta  occ. eigenvalues --   -2.19580  -2.19466  -2.18977  -2.18873  -1.13686
  Beta  occ. eigenvalues --   -1.13642  -1.13611  -1.13434  -1.13417  -1.13389
  Beta  occ. eigenvalues --   -1.13385  -1.13378  -1.13373  -1.13268  -1.13235
  Beta  occ. eigenvalues --   -1.13209  -1.13192  -1.13154  -1.13129  -1.12686
  Beta  occ. eigenvalues --   -1.12645  -1.12632  -1.12537  -1.12533  -1.12503
  Beta  occ. eigenvalues --   -0.17747  -0.13008  -0.12008
  Beta virt. eigenvalues --   -0.06780  -0.05699  -0.05278  -0.04594  -0.02469
  Beta virt. eigenvalues --   -0.02045  -0.01515  -0.01476  -0.01234  -0.00604
  Beta virt. eigenvalues --   -0.00329   0.00138   0.00372   0.00793   0.00851

 Mulliken charges and spin densities:
               1          2
     1  Na   0.013658   0.047579
     2  Na   0.234558   0.041761
     3  Na   0.311787   0.100942
     4  Na   0.238283   0.051266
     5  Na  -0.543615   0.682968
     6  Na  -0.451556   0.002913
     7  Na   0.196886   0.072573
 Sum of Mulliken charges =  -0.00000   1.00000

 Dipole moment (field-independent basis, Debye):
    X=              0.2167    Y=             -0.3404    Z=              0.2306  Tot=              0.4648
 Quadrupole moment (field-independent basis, Debye-Ang):
   XX=            -56.5950   YY=            -61.5083   ZZ=            -75.1113
   XY=              0.7324   XZ=              1.2129   YZ=              0.7079

 Normal termination of Gaussian 16 at Tue Dec  5 17:40:00 2023.
