 Gaussian 16, Revision B.01,
 Gaussian 16:  ES64L-G16RevB.01 20-Dec-2017

 -------------------------
 #P B3LYP/6-311+g(d) force
 -------------------------

 -----
 DPGEN
 -----
 Symbolic Z-matrix:
 Charge =  0 Multiplicity = 2

                         Standard orientation:
 ---------------------------------------------------------------------
 Center     Atomic      Atomic             Coordinates (Angstroms)
 Number     Number       Type             X           Y           Z
 ---------------------------------------------------------------------
      1         11           0       -2.120815    2.475446   -0.463178
      2         11           0        0.380360   -0.279535   -1.413179
      3         11           0        0.203864    0.125483    2.148122
      4         11           0        2.124808    2.607094   -0.114670
      5         11           0       -3.080160   -0.698096    0.187342
      6         11           0        2.954212   -1.262905   -0.064760
      7         11           0       -0.462267   -2.967488   -0.279677
 ---------------------------------------------------------------------

 SCF Done:  E(UB3LYP) =  -1136.13109382     A.U. after   19 cycles

 The electronic state is 2-A.
 Alpha  occ. eigenvalues --  -38.44463 -38.44287 -38.43962 -38.43860 -38.43592
 Alpha  occ. eigenvalues --  -38.43543 -38.43157  -2.20294  -2.20052  -2.19744
 Alpha  occ. eigenvalues --   -2.19680  -2.19441  -2.19402  -2.19152  -1.14013
 Alpha  occ. eigenvalues --   -1.13950  -1.13904  -1.13731  -1.13708  -1.13692
 Alpha  occ. eigenvalues --   -1.13427  -1.13417  -1.13385  -1.13348  -1.13339
 Alpha  occ. eigenvalues --   -1.13315  -1.13162  -1.13108  -1.13066  -1.13054
 Alpha  occ. eigenvalues --   -1.13045  -1.13020  -1.12832  -1.12786  -1.12763
 Alpha  occ. eigenvalues --   -0.18177  -0.12962  -0.12322  -0.10404
 Alpha virt. eigenvalues --   -0.06007  -0.05460  -0.04826  -0.03060  -0.02778
 Alpha virt. eigenvalues --   -0.02358  -0.01628  -0.01454  -0.00748  -0.00587
 Alpha virt. eigenvalues --   -0.00015   0.00321   0.00732   0.00779   0.00845

  Beta  occ. eigenvalues --  -38.44458 -38.44287 -38.43954 -38.43858 -38.43537
  Beta  occ. eigenvalues --  -38.43486 -38.43111  -2.20287  -2.20053  -2.19731
  Beta  occ. eigenvalues --   -2.19679  -2.19395  -2.19245  -2.19069  -1.14003
  Beta  occ. eigenvalues --   -1.13928  -1.13901  -1.13718  -1.13710  -1.13695
  Beta  occ. eigenvalues --   -1.13421  -1.13397  -1.13378  -1.13341  -1.13329
  Beta  occ. eigenvalues --   -1.13314  -1.13147  -1.13027  -1.13016  -1.12976
  Beta  occ. eigenvalues --   -1.12929  -1.12912  -1.12768  -1.12725  -1.12704
  Beta  occ. eigenvalues --   -0.17490  -0.12772  -0.12096
  Beta virt. eigenvalues --   -0.06514  -0.05996  -0.05380  -0.04756  -0.02339
  Beta virt. eigenvalues --   -0.02049  -0.01551  -0.01429  -0.01290  -0.00767
  Beta virt. eigenvalues --   -0.00618   0.00150   0.00370   0.00746   0.00834

 Mulliken charges and spin densities:
               1          2
     1  Na  -0.033991   0.018476
     2  Na  -0.258074   0.235886
     3  Na  -0.434705   0.760476
     4  Na  -0.020311  -0.053704
     5  Na   0.113544   0.039999
     6  Na   0.288329  -0.031060
     7  Na   0.345207   0.029927
 Sum of Mulliken charges =  -0.00000   1.00000

 Dipole moment (field-independent basis, Debye):
    X=              0.4484    Y=              0.0679    Z=              0.1451  Tot=              0.4762
 Quadrupole moment (field-independent basis, Debye-Ang):
   XX=            -55.8916   YY=            -60.0259   ZZ=            -76.7069
   XY=              0.5008   XZ=              0.1532   YZ=             -1.0669

 Normal termination of Gaussian 16 at Fri Dec  8 07:26:07 2023.
