 Gaussian 16, Revision B.01,
 Gaussian 16:  ES64L-G16RevB.01 20-Dec-2017

 -------------------------
 #P B3LYP/6-311+g(d) force
 -------------------------

 -----
 DPGEN
 -----
 Symbolic Z-matrix:
 Charge =  0 Multiplicity = 2

                         Standard orientation:
 ---------------------------------------------------------------------
 Center     Atomic      Atomic             Coordinates (Angstroms)
 Number     Number       Type             X           Y           Z
 ---------------------------------------------------------------------
      1         11           0       -1.409976   -2.196914   -1.068321
      2         11           0        2.401406   -2.841529   -0.524015
      3         11           0        4.489302   -0.182311    0.800832
      4         11           0        2.767581    2.755914   -0.004686
      5         11           0       -0.878585    2.484769   -0.504281
      6         11           0       -4.008436    1.493645   -0.151542
      7         11           0       -3.361293   -1.513573    1.452013
 ---------------------------------------------------------------------

 SCF Done:  E(UB3LYP) =  -1136.10697395     A.U. after   26 cycles

 The electronic state is 2-A.
 Alpha  occ. eigenvalues --  -38.45648 -38.45127 -38.44604 -38.44552 -38.44203
 Alpha  occ. eigenvalues --  -38.44108 -38.43616  -2.21448  -2.20900  -2.20379
 Alpha  occ. eigenvalues --   -2.20307  -2.19952  -2.19948  -2.19410  -1.15124
 Alpha  occ. eigenvalues --   -1.15112  -1.15076  -1.14597  -1.14573  -1.14512
 Alpha  occ. eigenvalues --   -1.14053  -1.14041  -1.14018  -1.13993  -1.13977
 Alpha  occ. eigenvalues --   -1.13933  -1.13632  -1.13616  -1.13604  -1.13587
 Alpha  occ. eigenvalues --   -1.13582  -1.13569  -1.13081  -1.13070  -1.13042
 Alpha  occ. eigenvalues --   -0.16196  -0.13994  -0.12602  -0.10437
 Alpha virt. eigenvalues --   -0.07722  -0.05373  -0.04548  -0.03437  -0.03355
 Alpha virt. eigenvalues --   -0.02393  -0.02126  -0.01802  -0.01257  -0.00885
 Alpha virt. eigenvalues --   -0.00347  -0.00101   0.00068   0.00200   0.00557

  Beta  occ. eigenvalues --  -38.45618 -38.45096 -38.44578 -38.44557 -38.44184
  Beta  occ. eigenvalues --  -38.44039 -38.43581  -2.21398  -2.20848  -2.20332
  Beta  occ. eigenvalues --   -2.20319  -2.19919  -2.19820  -2.19347  -1.15095
  Beta  occ. eigenvalues --   -1.15072  -1.15010  -1.14559  -1.14538  -1.14451
  Beta  occ. eigenvalues --   -1.14022  -1.14013  -1.14003  -1.13990  -1.13980
  Beta  occ. eigenvalues --   -1.13921  -1.13610  -1.13594  -1.13551  -1.13513
  Beta  occ. eigenvalues --   -1.13498  -1.13485  -1.13037  -1.13027  -1.12999
  Beta  occ. eigenvalues --   -0.15539  -0.13573  -0.11981
  Beta virt. eigenvalues --   -0.07909  -0.07183  -0.04893  -0.04204  -0.03083
  Beta virt. eigenvalues --   -0.03008  -0.02175  -0.01975  -0.01541  -0.00897
  Beta virt. eigenvalues --   -0.00629  -0.00343   0.00063   0.00188   0.00368

 Mulliken charges and spin densities:
               1          2
     1  Na  -0.469743   0.197929
     2  Na   0.035035   0.067715
     3  Na  -0.095515   0.098345
     4  Na   0.299284   0.223455
     5  Na  -0.528976  -0.000757
     6  Na   0.486383   0.050199
     7  Na   0.273532   0.363113
 Sum of Mulliken charges =  -0.00000   1.00000

 Dipole moment (field-independent basis, Debye):
    X=             -0.8862    Y=              0.0470    Z=              0.2126  Tot=              0.9126
 Quadrupole moment (field-independent basis, Debye-Ang):
   XX=            -56.0938   YY=            -72.6598   ZZ=            -70.3409
   XY=             -4.5785   XZ=              2.4878   YZ=             -0.3646

 Normal termination of Gaussian 16 at Sun Dec  3 13:36:01 2023.
