 Gaussian 16, Revision B.01,
 Gaussian 16:  ES64L-G16RevB.01 20-Dec-2017

 -------------------------
 #P B3LYP/6-311+g(d) force
 -------------------------

 -----
 DPGEN
 -----
 Symbolic Z-matrix:
 Charge =  0 Multiplicity = 2

                         Standard orientation:
 ---------------------------------------------------------------------
 Center     Atomic      Atomic             Coordinates (Angstroms)
 Number     Number       Type             X           Y           Z
 ---------------------------------------------------------------------
      1         11           0        0.386428    2.903848   -0.987923
      2         11           0        2.708551   -2.083150   -0.728854
      3         11           0       -3.790851   -0.909304   -0.655774
      4         11           0       -0.160122   -1.533705    1.661989
      5         11           0        2.303454    0.982934    0.705624
      6         11           0       -1.250404    1.244203    1.412943
      7         11           0       -0.197056   -0.604826   -1.408005
 ---------------------------------------------------------------------

 SCF Done:  E(UB3LYP) =  -1136.12981742     A.U. after   20 cycles

 The electronic state is 2-A.
 Alpha  occ. eigenvalues --  -38.44504 -38.43902 -38.43776 -38.43499 -38.43477
 Alpha  occ. eigenvalues --  -38.43426 -38.42963  -2.20260  -2.19831  -2.19676
 Alpha  occ. eigenvalues --   -2.19450  -2.19417  -2.19264  -2.18835  -1.13930
 Alpha  occ. eigenvalues --   -1.13924  -1.13875  -1.13604  -1.13488  -1.13411
 Alpha  occ. eigenvalues --   -1.13365  -1.13357  -1.13300  -1.13165  -1.13122
 Alpha  occ. eigenvalues --   -1.13105  -1.13066  -1.13057  -1.12992  -1.12927
 Alpha  occ. eigenvalues --   -1.12919  -1.12887  -1.12496  -1.12486  -1.12472
 Alpha  occ. eigenvalues --   -0.18703  -0.12799  -0.12116  -0.11299
 Alpha virt. eigenvalues --   -0.06088  -0.04840  -0.04177  -0.03227  -0.02918
 Alpha virt. eigenvalues --   -0.02574  -0.01977  -0.01061  -0.00534   0.00002
 Alpha virt. eigenvalues --    0.00242   0.00322   0.00597   0.00755   0.00814

  Beta  occ. eigenvalues --  -38.44485 -38.43835 -38.43769 -38.43455 -38.43433
  Beta  occ. eigenvalues --  -38.43417 -38.42947  -2.20225  -2.19713  -2.19666
  Beta  occ. eigenvalues --   -2.19369  -2.19343  -2.19249  -2.18806  -1.13904
  Beta  occ. eigenvalues --   -1.13896  -1.13855  -1.13519  -1.13385  -1.13364
  Beta  occ. eigenvalues --   -1.13336  -1.13313  -1.13300  -1.13105  -1.13064
  Beta  occ. eigenvalues --   -1.13040  -1.13005  -1.12986  -1.12947  -1.12914
  Beta  occ. eigenvalues --   -1.12897  -1.12877  -1.12473  -1.12466  -1.12448
  Beta  occ. eigenvalues --   -0.17936  -0.12546  -0.11952
  Beta virt. eigenvalues --   -0.07343  -0.05882  -0.04693  -0.03968  -0.02723
  Beta virt. eigenvalues --   -0.02490  -0.01813  -0.01619  -0.00976  -0.00233
  Beta virt. eigenvalues --    0.00018   0.00296   0.00392   0.00729   0.00778

 Mulliken charges and spin densities:
               1          2
     1  Na   0.139339  -0.225417
     2  Na   0.486614  -0.154614
     3  Na  -0.150167  -0.015018
     4  Na  -0.165265   0.144156
     5  Na  -0.103307   0.238527
     6  Na   0.359769   0.261365
     7  Na  -0.566984   0.751001
 Sum of Mulliken charges =  -0.00000   1.00000

 Dipole moment (field-independent basis, Debye):
    X=             -0.2310    Y=             -0.2144    Z=             -0.0120  Tot=              0.3155
 Quadrupole moment (field-independent basis, Debye-Ang):
   XX=            -55.8234   YY=            -67.6306   ZZ=            -69.0646
   XY=             -0.8956   XZ=              0.9177   YZ=             -0.5166

 Normal termination of Gaussian 16 at Fri Dec  8 01:47:00 2023.
