 Gaussian 16, Revision B.01,
 Gaussian 16:  ES64L-G16RevB.01 20-Dec-2017

 -------------------------
 #P B3LYP/6-311+g(d) force
 -------------------------

 -----
 DPGEN
 -----
 Symbolic Z-matrix:
 Charge =  0 Multiplicity = 2

                         Standard orientation:
 ---------------------------------------------------------------------
 Center     Atomic      Atomic             Coordinates (Angstroms)
 Number     Number       Type             X           Y           Z
 ---------------------------------------------------------------------
      1         11           0       -0.049395   -0.364494    1.846223
      2         11           0        1.950313    2.271936    0.149261
      3         11           0        0.507643    0.368131   -1.759223
      4         11           0       -1.616276    2.534650    0.010748
      5         11           0       -3.108812   -0.691623    0.001449
      6         11           0       -0.375524   -2.737727   -0.451132
      7         11           0        2.692051   -1.380873    0.202674
 ---------------------------------------------------------------------

 SCF Done:  E(UB3LYP) =  -1136.13951534     A.U. after   18 cycles

 The electronic state is 2-A.
 Alpha  occ. eigenvalues --  -38.43755 -38.43720 -38.43709 -38.43698 -38.43362
 Alpha  occ. eigenvalues --  -38.43298 -38.43229  -2.19587  -2.19573  -2.19567
 Alpha  occ. eigenvalues --   -2.19534  -2.19249  -2.19235  -2.19195  -1.13327
 Alpha  occ. eigenvalues --   -1.13256  -1.13245  -1.13244  -1.13239  -1.13237
 Alpha  occ. eigenvalues --   -1.13235  -1.13221  -1.13211  -1.13198  -1.13186
 Alpha  occ. eigenvalues --   -1.13152  -1.12967  -1.12927  -1.12897  -1.12872
 Alpha  occ. eigenvalues --   -1.12857  -1.12849  -1.12845  -1.12824  -1.12801
 Alpha  occ. eigenvalues --   -0.18792  -0.12859  -0.12785  -0.10665
 Alpha virt. eigenvalues --   -0.05398  -0.05292  -0.04821  -0.03117  -0.03012
 Alpha virt. eigenvalues --   -0.02403  -0.01358  -0.01172  -0.00393  -0.00287
 Alpha virt. eigenvalues --    0.00009   0.00369   0.00850   0.00880   0.00908

  Beta  occ. eigenvalues --  -38.43754 -38.43714 -38.43707 -38.43689 -38.43348
  Beta  occ. eigenvalues --  -38.43218 -38.43157  -2.19580  -2.19575  -2.19556
  Beta  occ. eigenvalues --   -2.19533  -2.19228  -2.19090  -2.19064  -1.13314
  Beta  occ. eigenvalues --   -1.13246  -1.13243  -1.13240  -1.13229  -1.13226
  Beta  occ. eigenvalues --   -1.13214  -1.13198  -1.13197  -1.13190  -1.13183
  Beta  occ. eigenvalues --   -1.13154  -1.12937  -1.12878  -1.12861  -1.12811
  Beta  occ. eigenvalues --   -1.12769  -1.12752  -1.12740  -1.12732  -1.12707
  Beta  occ. eigenvalues --   -0.18058  -0.12640  -0.12542
  Beta virt. eigenvalues --   -0.06753  -0.05404  -0.05258  -0.04748  -0.02338
  Beta virt. eigenvalues --   -0.02245  -0.01378  -0.01270  -0.01108  -0.00433
  Beta virt. eigenvalues --   -0.00325   0.00141   0.00398   0.00862   0.00903

 Mulliken charges and spin densities:
               1          2
     1  Na  -0.341008   0.734199
     2  Na   0.195375  -0.101463
     3  Na  -0.180310   0.617700
     4  Na  -0.040588  -0.128886
     5  Na  -0.039994  -0.086558
     6  Na   0.099551  -0.005885
     7  Na   0.306974  -0.029107
 Sum of Mulliken charges =  -0.00000   1.00000

 Dipole moment (field-independent basis, Debye):
    X=              0.0466    Y=              0.1185    Z=              0.0724  Tot=              0.1464
 Quadrupole moment (field-independent basis, Debye-Ang):
   XX=            -57.5374   YY=            -61.4016   ZZ=            -74.4900
   XY=             -0.2539   XZ=              1.1761   YZ=              1.5193

 Normal termination of Gaussian 16 at Fri Dec  8 00:19:20 2023.
