 Gaussian 16, Revision B.01,
 Gaussian 16:  ES64L-G16RevB.01 20-Dec-2017

 -------------------------
 #P B3LYP/6-311+g(d) force
 -------------------------

 -----
 DPGEN
 -----
 Symbolic Z-matrix:
 Charge =  0 Multiplicity = 2

                         Standard orientation:
 ---------------------------------------------------------------------
 Center     Atomic      Atomic             Coordinates (Angstroms)
 Number     Number       Type             X           Y           Z
 ---------------------------------------------------------------------
      1         11           0       -1.604101   -2.428739    0.038762
      2         11           0       -3.009338    0.662564   -0.021255
      3         11           0       -0.188564    2.819184    0.176498
      4         11           0       -0.121159    0.093101   -1.887983
      5         11           0        0.162821   -0.375480    1.932068
      6         11           0        2.193064   -1.818118   -0.265657
      7         11           0        2.567277    1.047489    0.027567
 ---------------------------------------------------------------------

 SCF Done:  E(UB3LYP) =  -1136.13702857     A.U. after   19 cycles

 The electronic state is 2-A.
 Alpha  occ. eigenvalues --  -38.44027 -38.43562 -38.43550 -38.43540 -38.43498
 Alpha  occ. eigenvalues --  -38.43408 -38.43007  -2.19863  -2.19508  -2.19498
 Alpha  occ. eigenvalues --   -2.19477  -2.19454  -2.19270  -2.18878  -1.13541
 Alpha  occ. eigenvalues --   -1.13526  -1.13504  -1.13383  -1.13213  -1.13183
 Alpha  occ. eigenvalues --   -1.13166  -1.13138  -1.13128  -1.13115  -1.13106
 Alpha  occ. eigenvalues --   -1.13082  -1.13073  -1.13065  -1.13022  -1.12940
 Alpha  occ. eigenvalues --   -1.12931  -1.12896  -1.12553  -1.12539  -1.12517
 Alpha  occ. eigenvalues --   -0.19169  -0.13300  -0.12416  -0.11129
 Alpha virt. eigenvalues --   -0.05540  -0.04962  -0.04465  -0.03439  -0.02981
 Alpha virt. eigenvalues --   -0.02731  -0.01369  -0.00934  -0.00132  -0.00035
 Alpha virt. eigenvalues --   -0.00019   0.00385   0.00840   0.00933   0.00965

  Beta  occ. eigenvalues --  -38.44026 -38.43552 -38.43532 -38.43466 -38.43417
  Beta  occ. eigenvalues --  -38.43403 -38.43003  -2.19863  -2.19497  -2.19465
  Beta  occ. eigenvalues --   -2.19343  -2.19306  -2.19265  -2.18873  -1.13534
  Beta  occ. eigenvalues --   -1.13515  -1.13509  -1.13378  -1.13179  -1.13130
  Beta  occ. eigenvalues --   -1.13121  -1.13076  -1.13062  -1.13025  -1.13021
  Beta  occ. eigenvalues --   -1.13018  -1.12996  -1.12981  -1.12962  -1.12921
  Beta  occ. eigenvalues --   -1.12901  -1.12896  -1.12551  -1.12520  -1.12508
  Beta  occ. eigenvalues --   -0.18391  -0.13045  -0.12168
  Beta virt. eigenvalues --   -0.07168  -0.05511  -0.04959  -0.04433  -0.02587
  Beta virt. eigenvalues --   -0.02181  -0.01675  -0.01280  -0.00871  -0.00180
  Beta virt. eigenvalues --   -0.00083   0.00106   0.00399   0.00891   0.00937

 Mulliken charges and spin densities:
               1          2
     1  Na   0.187512  -0.121077
     2  Na   0.038552  -0.095973
     3  Na   0.042587  -0.073081
     4  Na  -0.424526   0.610514
     5  Na  -0.490035   0.663441
     6  Na   0.411045  -0.019086
     7  Na   0.234866   0.035262
 Sum of Mulliken charges =  -0.00000   1.00000

 Dipole moment (field-independent basis, Debye):
    X=             -0.3627    Y=             -0.1241    Z=              0.0171  Tot=              0.3837
 Quadrupole moment (field-independent basis, Debye-Ang):
   XX=            -58.4032   YY=            -64.4532   ZZ=            -72.1338
   XY=             -0.4727   XZ=             -0.5019   YZ=              1.1008

 Normal termination of Gaussian 16 at Wed Nov 29 16:47:13 2023.
