 Gaussian 16, Revision B.01,
 Gaussian 16:  ES64L-G16RevB.01 20-Dec-2017

 -------------------------
 #P B3LYP/6-311+g(d) force
 -------------------------

 -----
 DPGEN
 -----
 Symbolic Z-matrix:
 Charge =  0 Multiplicity = 2

                         Standard orientation:
 ---------------------------------------------------------------------
 Center     Atomic      Atomic             Coordinates (Angstroms)
 Number     Number       Type             X           Y           Z
 ---------------------------------------------------------------------
      1         11           0        0.496215   -1.543027   -1.560930
      2         11           0        1.163237   -0.879903    1.990259
      3         11           0        1.735220    1.778038   -0.609196
      4         11           0       -1.212460    1.335511    1.447351
      5         11           0       -3.547395   -1.385936    0.278409
      6         11           0        4.475359   -0.320443   -0.336037
      7         11           0       -3.110177    1.015759   -1.209857
 ---------------------------------------------------------------------

 SCF Done:  E(UB3LYP) =  -1136.10639169     A.U. after   42 cycles

 The electronic state is 2-A.
 Alpha  occ. eigenvalues --  -38.45618 -38.45072 -38.44985 -38.44368 -38.44360
 Alpha  occ. eigenvalues --  -38.43462 -38.42073  -2.21368  -2.20832  -2.20820
 Alpha  occ. eigenvalues --   -2.20258  -2.20199  -2.19317  -2.17966  -1.15074
 Alpha  occ. eigenvalues --   -1.15035  -1.14961  -1.14600  -1.14505  -1.14505
 Alpha  occ. eigenvalues --   -1.14453  -1.14452  -1.14445  -1.13915  -1.13905
 Alpha  occ. eigenvalues --   -1.13890  -1.13875  -1.13845  -1.13791  -1.12993
 Alpha  occ. eigenvalues --   -1.12952  -1.12941  -1.11654  -1.11638  -1.11602
 Alpha  occ. eigenvalues --   -0.17743  -0.14291  -0.10871  -0.10588
 Alpha virt. eigenvalues --   -0.07710  -0.05551  -0.04505  -0.03346  -0.02972
 Alpha virt. eigenvalues --   -0.02508  -0.02319  -0.01578  -0.00936  -0.00479
 Alpha virt. eigenvalues --   -0.00177   0.00080   0.00174   0.00529   0.00619

  Beta  occ. eigenvalues --  -38.45583 -38.45061 -38.44983 -38.44345 -38.44314
  Beta  occ. eigenvalues --  -38.43409 -38.42067  -2.21306  -2.20817  -2.20812
  Beta  occ. eigenvalues --   -2.20214  -2.20113  -2.19221  -2.17957  -1.15024
  Beta  occ. eigenvalues --   -1.14980  -1.14921  -1.14593  -1.14494  -1.14479
  Beta  occ. eigenvalues --   -1.14453  -1.14441  -1.14435  -1.13890  -1.13860
  Beta  occ. eigenvalues --   -1.13847  -1.13837  -1.13787  -1.13725  -1.12921
  Beta  occ. eigenvalues --   -1.12889  -1.12872  -1.11645  -1.11609  -1.11599
  Beta  occ. eigenvalues --   -0.17115  -0.14034  -0.10414
  Beta virt. eigenvalues --   -0.07492  -0.07263  -0.04904  -0.04417  -0.03159
  Beta virt. eigenvalues --   -0.02776  -0.01981  -0.01736  -0.01101  -0.00762
  Beta virt. eigenvalues --   -0.00359  -0.00082   0.00160   0.00200   0.00647

 Mulliken charges and spin densities:
               1          2
     1  Na  -0.331512   0.238222
     2  Na  -0.230536   0.296479
     3  Na  -0.029104   0.159849
     4  Na   0.182161   0.234117
     5  Na   0.009965   0.109539
     6  Na   0.190623   0.007266
     7  Na   0.208402  -0.045471
 Sum of Mulliken charges =  -0.00000   1.00000

 Dipole moment (field-independent basis, Debye):
    X=              0.4132    Y=             -0.5639    Z=              0.0959  Tot=              0.7056
 Quadrupole moment (field-independent basis, Debye-Ang):
   XX=            -57.3710   YY=            -70.8587   ZZ=            -72.3092
   XY=             -0.9623   XZ=              1.4280   YZ=             -7.0363

 Normal termination of Gaussian 16 at Fri Dec  8 07:31:33 2023.
