 Gaussian 16, Revision B.01,
 Gaussian 16:  ES64L-G16RevB.01 20-Dec-2017

 -------------------------
 #P B3LYP/6-311+g(d) force
 -------------------------

 -----
 DPGEN
 -----
 Symbolic Z-matrix:
 Charge =  0 Multiplicity = 2

                         Standard orientation:
 ---------------------------------------------------------------------
 Center     Atomic      Atomic             Coordinates (Angstroms)
 Number     Number       Type             X           Y           Z
 ---------------------------------------------------------------------
      1         11           0       -0.212726    0.461918   -1.545235
      2         11           0       -1.312286   -2.612524   -0.703242
      3         11           0        0.193874   -0.170097    2.148530
      4         11           0       -3.041400    0.169336    0.306170
      5         11           0       -0.412498    3.224788    0.003061
      6         11           0        2.767607    0.951309   -0.417826
      7         11           0        2.017430   -2.024730    0.208541
 ---------------------------------------------------------------------

 SCF Done:  E(UB3LYP) =  -1136.13582541     A.U. after   20 cycles

 The electronic state is 2-A.
 Alpha  occ. eigenvalues --  -38.43979 -38.43866 -38.43857 -38.43779 -38.43457
 Alpha  occ. eigenvalues --  -38.43309 -38.43061  -2.19805  -2.19748  -2.19664
 Alpha  occ. eigenvalues --   -2.19651  -2.19309  -2.19209  -2.19060  -1.13484
 Alpha  occ. eigenvalues --   -1.13477  -1.13436  -1.13419  -1.13378  -1.13369
 Alpha  occ. eigenvalues --   -1.13365  -1.13358  -1.13320  -1.13308  -1.13295
 Alpha  occ. eigenvalues --   -1.13279  -1.13000  -1.12959  -1.12948  -1.12883
 Alpha  occ. eigenvalues --   -1.12862  -1.12837  -1.12736  -1.12698  -1.12685
 Alpha  occ. eigenvalues --   -0.18655  -0.12895  -0.12537  -0.10965
 Alpha virt. eigenvalues --   -0.05588  -0.05004  -0.04703  -0.03270  -0.03026
 Alpha virt. eigenvalues --   -0.02694  -0.01292  -0.01283  -0.00294  -0.00220
 Alpha virt. eigenvalues --    0.00021   0.00364   0.00839   0.00883   0.00914

  Beta  occ. eigenvalues --  -38.43975 -38.43858 -38.43769 -38.43766 -38.43439
  Beta  occ. eigenvalues --  -38.43302 -38.43009  -2.19798  -2.19668  -2.19637
  Beta  occ. eigenvalues --   -2.19563  -2.19279  -2.19201  -2.18965  -1.13479
  Beta  occ. eigenvalues --   -1.13456  -1.13431  -1.13365  -1.13354  -1.13319
  Beta  occ. eigenvalues --   -1.13297  -1.13295  -1.13281  -1.13271  -1.13245
  Beta  occ. eigenvalues --   -1.13232  -1.12972  -1.12935  -1.12926  -1.12871
  Beta  occ. eigenvalues --   -1.12847  -1.12818  -1.12672  -1.12629  -1.12614
  Beta  occ. eigenvalues --   -0.17925  -0.12665  -0.12304
  Beta virt. eigenvalues --   -0.07036  -0.05573  -0.04892  -0.04669  -0.02478
  Beta virt. eigenvalues --   -0.02316  -0.01651  -0.01211  -0.01194  -0.00287
  Beta virt. eigenvalues --   -0.00236   0.00137   0.00398   0.00841   0.00919

 Mulliken charges and spin densities:
               1          2
     1  Na  -0.085436   0.237437
     2  Na   0.103324   0.028773
     3  Na  -0.463075   0.657952
     4  Na   0.038480   0.047778
     5  Na  -0.025375  -0.042860
     6  Na   0.126154  -0.060923
     7  Na   0.305928   0.131844
 Sum of Mulliken charges =  -0.00000   1.00000

 Dipole moment (field-independent basis, Debye):
    X=             -0.1942    Y=              0.2947    Z=              0.2464  Tot=              0.4304
 Quadrupole moment (field-independent basis, Debye-Ang):
   XX=            -60.1712   YY=            -60.6017   ZZ=            -73.2234
   XY=             -0.1493   XZ=             -1.2580   YZ=              1.7252

 Normal termination of Gaussian 16 at Thu Dec  7 10:07:37 2023.
