 Gaussian 16, Revision B.01,
 Gaussian 16:  ES64L-G16RevB.01 20-Dec-2017

 -------------------------
 #P B3LYP/6-311+g(d) force
 -------------------------

 -----
 DPGEN
 -----
 Symbolic Z-matrix:
 Charge =  0 Multiplicity = 2

                         Standard orientation:
 ---------------------------------------------------------------------
 Center     Atomic      Atomic             Coordinates (Angstroms)
 Number     Number       Type             X           Y           Z
 ---------------------------------------------------------------------
      1         11           0       -4.938581    1.636491    0.062408
      2         11           0       -3.634792   -1.146447   -0.019864
      3         11           0       -0.420433   -1.962323   -0.061980
      4         11           0        0.456311    1.097466   -0.882401
      5         11           0        2.123233   -0.001650    2.266958
      6         11           0        3.560778    2.146649   -0.431701
      7         11           0        2.853484   -1.770187   -0.933420
 ---------------------------------------------------------------------

 SCF Done:  E(UB3LYP) =  -1136.10796052     A.U. after   38 cycles

 The electronic state is 2-A.
 Alpha  occ. eigenvalues --  -38.46458 -38.44732 -38.44517 -38.44179 -38.44075
 Alpha  occ. eigenvalues --  -38.43421 -38.42766  -2.22242  -2.20604  -2.20305
 Alpha  occ. eigenvalues --   -2.20013  -2.19916  -2.19237  -2.18648  -1.15919
 Alpha  occ. eigenvalues --   -1.15894  -1.15877  -1.14295  -1.14251  -1.14216
 Alpha  occ. eigenvalues --   -1.14010  -1.13957  -1.13952  -1.13677  -1.13665
 Alpha  occ. eigenvalues --   -1.13650  -1.13587  -1.13540  -1.13515  -1.12911
 Alpha  occ. eigenvalues --   -1.12897  -1.12874  -1.12348  -1.12302  -1.12290
 Alpha  occ. eigenvalues --   -0.17729  -0.14039  -0.11384  -0.10431
 Alpha virt. eigenvalues --   -0.07783  -0.06198  -0.03598  -0.03266  -0.02903
 Alpha virt. eigenvalues --   -0.02656  -0.02185  -0.02076  -0.01214  -0.00940
 Alpha virt. eigenvalues --   -0.00368  -0.00008   0.00220   0.00420   0.00542

  Beta  occ. eigenvalues --  -38.46455 -38.44678 -38.44511 -38.44180 -38.43969
  Beta  occ. eigenvalues --  -38.43411 -38.42760  -2.22240  -2.20507  -2.20294
  Beta  occ. eigenvalues --   -2.20015  -2.19718  -2.19222  -2.18640  -1.15897
  Beta  occ. eigenvalues --   -1.15884  -1.15884  -1.14217  -1.14183  -1.14147
  Beta  occ. eigenvalues --   -1.14003  -1.13949  -1.13944  -1.13679  -1.13664
  Beta  occ. eigenvalues --   -1.13649  -1.13449  -1.13407  -1.13377  -1.12903
  Beta  occ. eigenvalues --   -1.12880  -1.12853  -1.12343  -1.12297  -1.12267
  Beta  occ. eigenvalues --   -0.17062  -0.13885  -0.11143
  Beta virt. eigenvalues --   -0.07645  -0.06462  -0.06107  -0.03534  -0.02905
  Beta virt. eigenvalues --   -0.02846  -0.02373  -0.01542  -0.01344  -0.01154
  Beta virt. eigenvalues --   -0.00479  -0.00247   0.00008   0.00376   0.00509

 Mulliken charges and spin densities:
               1          2
     1  Na   0.044476   0.046293
     2  Na  -0.142689   0.000761
     3  Na  -0.267067   0.085881
     4  Na  -0.698726   0.249634
     5  Na  -0.222366   0.550243
     6  Na   0.417249   0.018127
     7  Na   0.869123   0.049061
 Sum of Mulliken charges =  -0.00000   1.00000

 Dipole moment (field-independent basis, Debye):
    X=              0.8502    Y=             -0.3335    Z=             -0.7502  Tot=              1.1820
 Quadrupole moment (field-independent basis, Debye-Ang):
   XX=            -56.8525   YY=            -67.3011   ZZ=            -75.2333
   XY=             -7.4172   XZ=             -6.3958   YZ=              3.1974

 Normal termination of Gaussian 16 at Thu Dec  7 10:57:20 2023.
