 Gaussian 16, Revision B.01,
 Gaussian 16:  ES64L-G16RevB.01 20-Dec-2017

 -------------------------
 #P B3LYP/6-311+g(d) force
 -------------------------

 -----
 DPGEN
 -----
 Symbolic Z-matrix:
 Charge =  0 Multiplicity = 2

                         Standard orientation:
 ---------------------------------------------------------------------
 Center     Atomic      Atomic             Coordinates (Angstroms)
 Number     Number       Type             X           Y           Z
 ---------------------------------------------------------------------
      1         11           0       -2.011937    2.988211   -0.230505
      2         11           0       -4.194356   -0.117092   -0.354814
      3         11           0       -1.609419   -2.844507   -0.274605
      4         11           0        2.092158    3.272236   -0.175118
      5         11           0       -0.667116   -0.553402    1.532531
      6         11           0        2.095778   -2.509711   -0.514514
      7         11           0        4.294892   -0.235735    0.017026
 ---------------------------------------------------------------------

 SCF Done:  E(UB3LYP) =  -1136.11143398     A.U. after   21 cycles

 The electronic state is 2-A.
 Alpha  occ. eigenvalues --  -38.45571 -38.44806 -38.44683 -38.44341 -38.44242
 Alpha  occ. eigenvalues --  -38.43994 -38.43718  -2.21380  -2.20530  -2.20408
 Alpha  occ. eigenvalues --   -2.20182  -2.20046  -2.19796  -2.19524  -1.15075
 Alpha  occ. eigenvalues --   -1.15034  -1.14994  -1.14230  -1.14206  -1.14155
 Alpha  occ. eigenvalues --   -1.14087  -1.14058  -1.14034  -1.13870  -1.13843
 Alpha  occ. eigenvalues --   -1.13801  -1.13737  -1.13728  -1.13677  -1.13460
 Alpha  occ. eigenvalues --   -1.13427  -1.13417  -1.13178  -1.13178  -1.13145
 Alpha  occ. eigenvalues --   -0.16550  -0.13608  -0.12667  -0.10182
 Alpha virt. eigenvalues --   -0.06945  -0.06386  -0.03902  -0.03749  -0.02958
 Alpha virt. eigenvalues --   -0.02601  -0.02297  -0.01739  -0.01146  -0.00978
 Alpha virt. eigenvalues --   -0.00280   0.00104   0.00347   0.00519   0.00589

  Beta  occ. eigenvalues --  -38.45544 -38.44810 -38.44650 -38.44330 -38.44228
  Beta  occ. eigenvalues --  -38.43918 -38.43664  -2.21330  -2.20542  -2.20347
  Beta  occ. eigenvalues --   -2.20165  -2.20027  -2.19653  -2.19428  -1.15041
  Beta  occ. eigenvalues --   -1.15001  -1.14959  -1.14242  -1.14219  -1.14133
  Beta  occ. eigenvalues --   -1.14046  -1.14018  -1.13989  -1.13854  -1.13833
  Beta  occ. eigenvalues --   -1.13778  -1.13727  -1.13720  -1.13623  -1.13363
  Beta  occ. eigenvalues --   -1.13328  -1.13323  -1.13114  -1.13111  -1.13074
  Beta  occ. eigenvalues --   -0.16148  -0.12783  -0.12224
  Beta virt. eigenvalues --   -0.06987  -0.06923  -0.06223  -0.03717  -0.03082
  Beta virt. eigenvalues --   -0.02604  -0.02279  -0.02066  -0.01579  -0.01031
  Beta virt. eigenvalues --   -0.00796   0.00063   0.00337   0.00409   0.00581

 Mulliken charges and spin densities:
               1          2
     1  Na  -0.099909   0.005961
     2  Na   0.023302   0.465810
     3  Na  -0.003556   0.044681
     4  Na  -0.111425   0.137789
     5  Na   0.179624  -0.020302
     6  Na  -0.037546   0.093099
     7  Na   0.049509   0.272962
 Sum of Mulliken charges =  -0.00000   1.00000

 Dipole moment (field-independent basis, Debye):
    X=             -0.5195    Y=             -0.6290    Z=              0.1524  Tot=              0.8299
 Quadrupole moment (field-independent basis, Debye-Ang):
   XX=            -70.8875   YY=            -64.1142   ZZ=            -69.4914
   XY=              6.4505   XZ=              1.0368   YZ=              2.0241

 Normal termination of Gaussian 16 at Sun Dec  3 16:03:37 2023.
