 Gaussian 16, Revision B.01,
 Gaussian 16:  ES64L-G16RevB.01 20-Dec-2017

 -------------------------
 #P B3LYP/6-311+g(d) force
 -------------------------

 -----
 DPGEN
 -----
 Symbolic Z-matrix:
 Charge =  0 Multiplicity = 2

                         Standard orientation:
 ---------------------------------------------------------------------
 Center     Atomic      Atomic             Coordinates (Angstroms)
 Number     Number       Type             X           Y           Z
 ---------------------------------------------------------------------
      1         11           0        0.285743   -0.615793    1.813862
      2         11           0       -2.807973   -1.500039   -0.186610
      3         11           0        3.406780    0.232460   -0.148112
      4         11           0        0.794597    2.948551   -0.232073
      5         11           0        1.109946   -2.741070   -0.034660
      6         11           0       -0.542879   -0.213765   -1.783655
      7         11           0       -2.246213    1.889656    0.571248
 ---------------------------------------------------------------------

 SCF Done:  E(UB3LYP) =  -1136.13205814     A.U. after   20 cycles

 The electronic state is 2-A.
 Alpha  occ. eigenvalues --  -38.44552 -38.44083 -38.43882 -38.43598 -38.43522
 Alpha  occ. eigenvalues --  -38.43428 -38.43420  -2.20317  -2.19936  -2.19753
 Alpha  occ. eigenvalues --   -2.19452  -2.19447  -2.19365  -2.19228  -1.13998
 Alpha  occ. eigenvalues --   -1.13969  -1.13957  -1.13664  -1.13584  -1.13563
 Alpha  occ. eigenvalues --   -1.13550  -1.13413  -1.13347  -1.13134  -1.13114
 Alpha  occ. eigenvalues --   -1.13105  -1.13094  -1.13072  -1.13041  -1.13028
 Alpha  occ. eigenvalues --   -1.12997  -1.12980  -1.12900  -1.12890  -1.12867
 Alpha  occ. eigenvalues --   -0.18398  -0.13018  -0.12510  -0.10546
 Alpha virt. eigenvalues --   -0.06038  -0.05138  -0.04803  -0.03299  -0.02861
 Alpha virt. eigenvalues --   -0.02369  -0.01725  -0.01124  -0.00568  -0.00414
 Alpha virt. eigenvalues --   -0.00011   0.00332   0.00771   0.00826   0.00844

  Beta  occ. eigenvalues --  -38.44551 -38.44075 -38.43873 -38.43583 -38.43447
  Beta  occ. eigenvalues --  -38.43419 -38.43355  -2.20317  -2.19925  -2.19742
  Beta  occ. eigenvalues --   -2.19425  -2.19310  -2.19232  -2.19227  -1.13990
  Beta  occ. eigenvalues --   -1.13968  -1.13957  -1.13644  -1.13561  -1.13554
  Beta  occ. eigenvalues --   -1.13523  -1.13384  -1.13344  -1.13116  -1.13083
  Beta  occ. eigenvalues --   -1.13073  -1.13018  -1.12977  -1.12944  -1.12939
  Beta  occ. eigenvalues --   -1.12905  -1.12896  -1.12885  -1.12876  -1.12865
  Beta  occ. eigenvalues --   -0.17701  -0.12793  -0.12265
  Beta virt. eigenvalues --   -0.06732  -0.05982  -0.05063  -0.04723  -0.02535
  Beta virt. eigenvalues --   -0.02163  -0.01648  -0.01384  -0.01042  -0.00610
  Beta virt. eigenvalues --   -0.00413   0.00131   0.00380   0.00786   0.00867

 Mulliken charges and spin densities:
               1          2
     1  Na  -0.107278   0.598334
     2  Na   0.382719  -0.058224
     3  Na  -0.142467  -0.073528
     4  Na  -0.116537  -0.077842
     5  Na   0.237338  -0.167075
     6  Na  -0.164586   0.709242
     7  Na  -0.089191   0.069094
 Sum of Mulliken charges =  -0.00000   1.00000

 Dipole moment (field-independent basis, Debye):
    X=              0.1918    Y=             -0.3240    Z=              0.0037  Tot=              0.3765
 Quadrupole moment (field-independent basis, Debye-Ang):
   XX=            -55.3183   YY=            -63.2837   ZZ=            -75.1649
   XY=              0.6080   XZ=             -2.0153   YZ=              0.8637

 Normal termination of Gaussian 16 at Thu Dec  7 06:18:13 2023.
