 Gaussian 16, Revision B.01,
 Gaussian 16:  ES64L-G16RevB.01 20-Dec-2017

 -------------------------
 #P B3LYP/6-311+g(d) force
 -------------------------

 -----
 DPGEN
 -----
 Symbolic Z-matrix:
 Charge =  0 Multiplicity = 2

                         Standard orientation:
 ---------------------------------------------------------------------
 Center     Atomic      Atomic             Coordinates (Angstroms)
 Number     Number       Type             X           Y           Z
 ---------------------------------------------------------------------
      1         11           0        1.755714    1.185117    1.034419
      2         11           0        4.653815   -0.261176   -0.949951
      3         11           0       -2.813049    1.065704   -0.107313
      4         11           0       -0.879119   -1.942978    1.397817
      5         11           0       -0.505575    3.652194   -0.183564
      6         11           0        2.198698   -2.124742   -0.274734
      7         11           0       -4.410484   -1.574119   -0.916674
 ---------------------------------------------------------------------

 SCF Done:  E(UB3LYP) =  -1136.12265473     A.U. after   19 cycles

 The electronic state is 2-A.
 Alpha  occ. eigenvalues --  -38.44768 -38.44443 -38.44353 -38.44305 -38.44081
 Alpha  occ. eigenvalues --  -38.43863 -38.42978  -2.20550  -2.20280  -2.20155
 Alpha  occ. eigenvalues --   -2.20152  -2.19886  -2.19692  -2.18769  -1.14251
 Alpha  occ. eigenvalues --   -1.14243  -1.14151  -1.13974  -1.13918  -1.13904
 Alpha  occ. eigenvalues --   -1.13841  -1.13826  -1.13822  -1.13805  -1.13770
 Alpha  occ. eigenvalues --   -1.13743  -1.13576  -1.13536  -1.13504  -1.13388
 Alpha  occ. eigenvalues --   -1.13367  -1.13290  -1.12439  -1.12435  -1.12411
 Alpha  occ. eigenvalues --   -0.16725  -0.14135  -0.12028  -0.11223
 Alpha virt. eigenvalues --   -0.06268  -0.05146  -0.04705  -0.03902  -0.02833
 Alpha virt. eigenvalues --   -0.02144  -0.01899  -0.01548  -0.00956  -0.00912
 Alpha virt. eigenvalues --   -0.00686   0.00027   0.00406   0.00500   0.00663

  Beta  occ. eigenvalues --  -38.44762 -38.44369 -38.44291 -38.44286 -38.44036
  Beta  occ. eigenvalues --  -38.43851 -38.42984  -2.20541  -2.20143  -2.20134
  Beta  occ. eigenvalues --   -2.20033  -2.19802  -2.19670  -2.18780  -1.14247
  Beta  occ. eigenvalues --   -1.14216  -1.14149  -1.13891  -1.13833  -1.13821
  Beta  occ. eigenvalues --   -1.13811  -1.13794  -1.13748  -1.13736  -1.13697
  Beta  occ. eigenvalues --   -1.13649  -1.13513  -1.13479  -1.13452  -1.13374
  Beta  occ. eigenvalues --   -1.13351  -1.13262  -1.12447  -1.12443  -1.12417
  Beta  occ. eigenvalues --   -0.16059  -0.13545  -0.11763
  Beta virt. eigenvalues --   -0.07686  -0.06120  -0.04741  -0.04335  -0.03695
  Beta virt. eigenvalues --   -0.02450  -0.01918  -0.01444  -0.01244  -0.00842
  Beta virt. eigenvalues --   -0.00734  -0.00319   0.00204   0.00530   0.00569

 Mulliken charges and spin densities:
               1          2
     1  Na  -0.484625   0.081750
     2  Na   0.399654   0.335800
     3  Na  -0.739636   0.205337
     4  Na   0.009065   0.176031
     5  Na   0.320985  -0.054483
     6  Na  -0.030020   0.135957
     7  Na   0.524577   0.119607
 Sum of Mulliken charges =  -0.00000   1.00000

 Dipole moment (field-independent basis, Debye):
    X=              0.8030    Y=             -0.8087    Z=             -0.2552  Tot=              1.1679
 Quadrupole moment (field-independent basis, Debye-Ang):
   XX=            -61.1759   YY=            -66.9016   ZZ=            -68.7428
   XY=              3.5445   XZ=              0.3387   YZ=              0.7100

 Normal termination of Gaussian 16 at Sun Dec  3 15:51:29 2023.
