 Gaussian 16, Revision B.01,
 Gaussian 16:  ES64L-G16RevB.01 20-Dec-2017

 -------------------------
 #P B3LYP/6-311+g(d) force
 -------------------------

 -----
 DPGEN
 -----
 Symbolic Z-matrix:
 Charge =  0 Multiplicity = 2

                         Standard orientation:
 ---------------------------------------------------------------------
 Center     Atomic      Atomic             Coordinates (Angstroms)
 Number     Number       Type             X           Y           Z
 ---------------------------------------------------------------------
      1         11           0       -0.065786    0.001730   -1.579041
      2         11           0       -1.159851   -2.992888   -0.152398
      3         11           0        2.382260   -1.821255   -0.153932
      4         11           0        0.113042   -0.042363    2.084436
      5         11           0        2.868443    1.564411   -0.062948
      6         11           0       -3.182016    0.210800    0.044538
      7         11           0       -0.956093    3.079565   -0.180655
 ---------------------------------------------------------------------

 SCF Done:  E(UB3LYP) =  -1136.13803034     A.U. after   19 cycles

 The electronic state is 2-A.
 Alpha  occ. eigenvalues --  -38.44180 -38.44012 -38.43845 -38.43747 -38.43641
 Alpha  occ. eigenvalues --  -38.43524 -38.43126  -2.19980  -2.19813  -2.19636
 Alpha  occ. eigenvalues --   -2.19595  -2.19445  -2.19383  -2.19071  -1.13661
 Alpha  occ. eigenvalues --   -1.13646  -1.13612  -1.13485  -1.13476  -1.13460
 Alpha  occ. eigenvalues --   -1.13317  -1.13296  -1.13284  -1.13273  -1.13263
 Alpha  occ. eigenvalues --   -1.13218  -1.13122  -1.13104  -1.13087  -1.13050
 Alpha  occ. eigenvalues --   -1.13005  -1.12997  -1.12765  -1.12705  -1.12693
 Alpha  occ. eigenvalues --   -0.18196  -0.12880  -0.12341  -0.10413
 Alpha virt. eigenvalues --   -0.05681  -0.05324  -0.05133  -0.03043  -0.02731
 Alpha virt. eigenvalues --   -0.02435  -0.01550  -0.01372  -0.00733  -0.00623
 Alpha virt. eigenvalues --   -0.00012   0.00345   0.00770   0.00813   0.00825

  Beta  occ. eigenvalues --  -38.44178 -38.44010 -38.43842 -38.43740 -38.43638
  Beta  occ. eigenvalues --  -38.43424 -38.43069  -2.19979  -2.19812  -2.19634
  Beta  occ. eigenvalues --   -2.19586  -2.19443  -2.19197  -2.18967  -1.13651
  Beta  occ. eigenvalues --   -1.13635  -1.13615  -1.13481  -1.13463  -1.13462
  Beta  occ. eigenvalues --   -1.13305  -1.13288  -1.13275  -1.13274  -1.13233
  Beta  occ. eigenvalues --   -1.13216  -1.13111  -1.13094  -1.13087  -1.12926
  Beta  occ. eigenvalues --   -1.12875  -1.12865  -1.12689  -1.12629  -1.12617
  Beta  occ. eigenvalues --   -0.17482  -0.12680  -0.12135
  Beta virt. eigenvalues --   -0.06502  -0.05676  -0.05342  -0.05035  -0.02275
  Beta virt. eigenvalues --   -0.02022  -0.01458  -0.01364  -0.01285  -0.00792
  Beta virt. eigenvalues --   -0.00678   0.00142   0.00378   0.00794   0.00823

 Mulliken charges and spin densities:
               1          2
     1  Na  -0.129893   0.485190
     2  Na   0.104687  -0.061152
     3  Na   0.251563  -0.022460
     4  Na  -0.450744   0.825821
     5  Na   0.089864  -0.072755
     6  Na   0.102221  -0.057770
     7  Na   0.032303  -0.096872
 Sum of Mulliken charges =  -0.00000   1.00000

 Dipole moment (field-independent basis, Debye):
    X=             -0.0745    Y=              0.1212    Z=              0.0729  Tot=              0.1599
 Quadrupole moment (field-independent basis, Debye-Ang):
   XX=            -56.6427   YY=            -59.1451   ZZ=            -76.5512
   XY=              0.7765   XZ=             -0.4787   YZ=              0.1124

 Normal termination of Gaussian 16 at Fri Dec  8 05:45:29 2023.
