 Gaussian 16, Revision B.01,
 Gaussian 16:  ES64L-G16RevB.01 20-Dec-2017

 -------------------------
 #P B3LYP/6-311+g(d) force
 -------------------------

 -----
 DPGEN
 -----
 Symbolic Z-matrix:
 Charge =  0 Multiplicity = 2

                         Standard orientation:
 ---------------------------------------------------------------------
 Center     Atomic      Atomic             Coordinates (Angstroms)
 Number     Number       Type             X           Y           Z
 ---------------------------------------------------------------------
      1         11           0        0.212899    0.480741   -1.497543
      2         11           0       -2.250852    2.636675    0.117236
      3         11           0        2.847065   -1.438625    0.177810
      4         11           0       -3.496436   -0.761135   -0.087593
      5         11           0        3.014702    2.192091   -0.040294
      6         11           0       -0.218162   -2.926961   -0.339428
      7         11           0       -0.109216   -0.182785    1.669811
 ---------------------------------------------------------------------

 SCF Done:  E(UB3LYP) =  -1136.12692699     A.U. after   25 cycles

 The electronic state is 2-A.
 Alpha  occ. eigenvalues --  -38.45257 -38.44385 -38.44360 -38.44346 -38.43272
 Alpha  occ. eigenvalues --  -38.43211 -38.42934  -2.21015  -2.20179  -2.20149
 Alpha  occ. eigenvalues --   -2.20135  -2.19176  -2.19121  -2.18782  -1.14695
 Alpha  occ. eigenvalues --   -1.14664  -1.14656  -1.13855  -1.13849  -1.13825
 Alpha  occ. eigenvalues --   -1.13818  -1.13807  -1.13804  -1.13796  -1.13781
 Alpha  occ. eigenvalues --   -1.13774  -1.12942  -1.12809  -1.12802  -1.12778
 Alpha  occ. eigenvalues --   -1.12748  -1.12721  -1.12454  -1.12444  -1.12422
 Alpha  occ. eigenvalues --   -0.18007  -0.13333  -0.11962  -0.09643
 Alpha virt. eigenvalues --   -0.06615  -0.05993  -0.04618  -0.03041  -0.02414
 Alpha virt. eigenvalues --   -0.02252  -0.01814  -0.01586  -0.01143  -0.00572
 Alpha virt. eigenvalues --   -0.00043   0.00231   0.00620   0.00628   0.00760

  Beta  occ. eigenvalues --  -38.45254 -38.44387 -38.44357 -38.44338 -38.43214
  Beta  occ. eigenvalues --  -38.43136 -38.42923  -2.21012  -2.20168  -2.20154
  Beta  occ. eigenvalues --   -2.20131  -2.19069  -2.18984  -2.18766  -1.14681
  Beta  occ. eigenvalues --   -1.14661  -1.14653  -1.13844  -1.13830  -1.13818
  Beta  occ. eigenvalues --   -1.13807  -1.13806  -1.13796  -1.13787  -1.13783
  Beta  occ. eigenvalues --   -1.13772  -1.12857  -1.12730  -1.12708  -1.12700
  Beta  occ. eigenvalues --   -1.12655  -1.12618  -1.12445  -1.12423  -1.12395
  Beta  occ. eigenvalues --   -0.17332  -0.13149  -0.11741
  Beta virt. eigenvalues --   -0.06580  -0.05995  -0.05804  -0.04581  -0.02358
  Beta virt. eigenvalues --   -0.02184  -0.01746  -0.01601  -0.01187  -0.00781
  Beta virt. eigenvalues --   -0.00574   0.00144   0.00286   0.00633   0.00686

 Mulliken charges and spin densities:
               1          2
     1  Na  -0.163141   0.520153
     2  Na  -0.007333  -0.081240
     3  Na   0.308979   0.093251
     4  Na   0.082577   0.007922
     5  Na   0.052643  -0.086127
     6  Na  -0.221183   0.003775
     7  Na  -0.052542   0.542266
 Sum of Mulliken charges =  -0.00000   1.00000

 Dipole moment (field-independent basis, Debye):
    X=             -0.3670    Y=              0.2734    Z=              0.0818  Tot=              0.4649
 Quadrupole moment (field-independent basis, Debye-Ang):
   XX=            -48.2667   YY=            -61.1137   ZZ=            -80.1059
   XY=              0.4688   XZ=              0.8399   YZ=              1.2826

 Normal termination of Gaussian 16 at Thu Dec  7 14:00:26 2023.
