 Gaussian 16, Revision B.01,
 Gaussian 16:  ES64L-G16RevB.01 20-Dec-2017

 -------------------------
 #P B3LYP/6-311+g(d) force
 -------------------------

 -----
 DPGEN
 -----
 Symbolic Z-matrix:
 Charge =  0 Multiplicity = 2

                         Standard orientation:
 ---------------------------------------------------------------------
 Center     Atomic      Atomic             Coordinates (Angstroms)
 Number     Number       Type             X           Y           Z
 ---------------------------------------------------------------------
      1         11           0        1.201156   -0.176999    1.922083
      2         11           0       -0.399762   -0.068496   -1.097247
      3         11           0       -3.470890    1.137494   -0.605859
      4         11           0       -2.439617   -1.878026    0.739631
      5         11           0        2.966183    0.502981   -0.820367
      6         11           0        1.523768   -2.475491   -0.582419
      7         11           0        0.619162    2.958537    0.444177
 ---------------------------------------------------------------------

 SCF Done:  E(UB3LYP) =  -1136.13018007     A.U. after   20 cycles

 The electronic state is 2-A.
 Alpha  occ. eigenvalues --  -38.44347 -38.44249 -38.44161 -38.43500 -38.43191
 Alpha  occ. eigenvalues --  -38.43141 -38.43065  -2.20148  -2.20061  -2.20055
 Alpha  occ. eigenvalues --   -2.19422  -2.19091  -2.19037  -2.19004  -1.13824
 Alpha  occ. eigenvalues --   -1.13804  -1.13787  -1.13740  -1.13734  -1.13731
 Alpha  occ. eigenvalues --   -1.13727  -1.13672  -1.13665  -1.13105  -1.13071
 Alpha  occ. eigenvalues --   -1.13019  -1.12840  -1.12790  -1.12732  -1.12688
 Alpha  occ. eigenvalues --   -1.12676  -1.12667  -1.12661  -1.12647  -1.12637
 Alpha  occ. eigenvalues --   -0.18478  -0.13564  -0.11916  -0.10492
 Alpha virt. eigenvalues --   -0.06027  -0.05448  -0.04448  -0.03235  -0.02595
 Alpha virt. eigenvalues --   -0.02232  -0.01866  -0.01152  -0.00628  -0.00254
 Alpha virt. eigenvalues --   -0.00053   0.00301   0.00643   0.00768   0.00783

  Beta  occ. eigenvalues --  -38.44335 -38.44236 -38.44133 -38.43421 -38.43187
  Beta  occ. eigenvalues --  -38.43128 -38.43036  -2.20126  -2.20039  -2.20006
  Beta  occ. eigenvalues --   -2.19275  -2.19041  -2.19017  -2.18998  -1.13803
  Beta  occ. eigenvalues --   -1.13791  -1.13774  -1.13726  -1.13705  -1.13703
  Beta  occ. eigenvalues --   -1.13686  -1.13651  -1.13619  -1.13010  -1.12970
  Beta  occ. eigenvalues --   -1.12910  -1.12813  -1.12736  -1.12697  -1.12676
  Beta  occ. eigenvalues --   -1.12664  -1.12653  -1.12633  -1.12627  -1.12613
  Beta  occ. eigenvalues --   -0.17805  -0.13329  -0.11661
  Beta virt. eigenvalues --   -0.06738  -0.05857  -0.05195  -0.04413  -0.02738
  Beta virt. eigenvalues --   -0.01974  -0.01823  -0.01216  -0.01051  -0.00540
  Beta virt. eigenvalues --   -0.00208   0.00120   0.00370   0.00770   0.00809

 Mulliken charges and spin densities:
               1          2
     1  Na  -0.315757   0.677974
     2  Na   0.267533   0.062429
     3  Na   0.214894   0.040313
     4  Na  -0.381480   0.106952
     5  Na   0.396564   0.069339
     6  Na   0.258224   0.051770
     7  Na  -0.439977  -0.008776
 Sum of Mulliken charges =  -0.00000   1.00000

 Dipole moment (field-independent basis, Debye):
    X=             -0.4207    Y=             -0.0188    Z=              0.2361  Tot=              0.4828
 Quadrupole moment (field-independent basis, Debye-Ang):
   XX=            -53.6379   YY=            -64.4648   ZZ=            -73.6730
   XY=             -0.4719   XZ=             -1.8912   YZ=             -1.3266

 Normal termination of Gaussian 16 at Wed Dec  6 00:42:00 2023.
