 Gaussian 16, Revision B.01,
 Gaussian 16:  ES64L-G16RevB.01 20-Dec-2017

 -------------------------
 #P B3LYP/6-311+g(d) force
 -------------------------

 -----
 DPGEN
 -----
 Symbolic Z-matrix:
 Charge =  0 Multiplicity = 2

                         Standard orientation:
 ---------------------------------------------------------------------
 Center     Atomic      Atomic             Coordinates (Angstroms)
 Number     Number       Type             X           Y           Z
 ---------------------------------------------------------------------
      1         11           0        2.499606    1.085191    1.080466
      2         11           0       -2.896860   -2.351201    0.467146
      3         11           0        0.308151   -0.977871   -1.607800
      4         11           0        0.549280    2.839944   -0.892851
      5         11           0       -2.940231    0.865074   -0.561089
      6         11           0       -1.004373    0.701189    1.623420
      7         11           0        3.484428   -2.162326   -0.109292
 ---------------------------------------------------------------------

 SCF Done:  E(UB3LYP) =  -1136.12308441     A.U. after   22 cycles

 The electronic state is 2-A.
 Alpha  occ. eigenvalues --  -38.44822 -38.44607 -38.44017 -38.43868 -38.43857
 Alpha  occ. eigenvalues --  -38.43744 -38.43463  -2.20701  -2.20395  -2.19930
 Alpha  occ. eigenvalues --   -2.19681  -2.19615  -2.19592  -2.19293  -1.14479
 Alpha  occ. eigenvalues --   -1.14347  -1.14299  -1.14067  -1.14049  -1.14025
 Alpha  occ. eigenvalues --   -1.13632  -1.13599  -1.13495  -1.13372  -1.13334
 Alpha  occ. eigenvalues --   -1.13297  -1.13288  -1.13286  -1.13280  -1.13264
 Alpha  occ. eigenvalues --   -1.13252  -1.13192  -1.12965  -1.12944  -1.12928
 Alpha  occ. eigenvalues --   -0.17940  -0.13605  -0.11695  -0.10471
 Alpha virt. eigenvalues --   -0.06417  -0.05897  -0.04528  -0.03328  -0.02864
 Alpha virt. eigenvalues --   -0.02182  -0.01973  -0.01517  -0.00860  -0.00237
 Alpha virt. eigenvalues --   -0.00076   0.00244   0.00316   0.00585   0.00687

  Beta  occ. eigenvalues --  -38.44810 -38.44599 -38.43970 -38.43866 -38.43805
  Beta  occ. eigenvalues --  -38.43713 -38.43447  -2.20682  -2.20381  -2.19843
  Beta  occ. eigenvalues --   -2.19632  -2.19567  -2.19535  -2.19267  -1.14463
  Beta  occ. eigenvalues --   -1.14325  -1.14270  -1.14056  -1.14031  -1.14015
  Beta  occ. eigenvalues --   -1.13565  -1.13538  -1.13431  -1.13300  -1.13295
  Beta  occ. eigenvalues --   -1.13290  -1.13274  -1.13251  -1.13236  -1.13228
  Beta  occ. eigenvalues --   -1.13197  -1.13155  -1.12949  -1.12915  -1.12900
  Beta  occ. eigenvalues --   -0.17239  -0.13387  -0.11544
  Beta virt. eigenvalues --   -0.06762  -0.06362  -0.05645  -0.04172  -0.02865
  Beta virt. eigenvalues --   -0.02315  -0.01890  -0.01610  -0.01173  -0.00733
  Beta virt. eigenvalues --   -0.00169   0.00072   0.00299   0.00443   0.00628

 Mulliken charges and spin densities:
               1          2
     1  Na   0.207340   0.105356
     2  Na  -0.006753  -0.050676
     3  Na  -0.536319   0.372849
     4  Na  -0.124357   0.177207
     5  Na   0.623356   0.266778
     6  Na  -0.197022   0.202492
     7  Na   0.033755  -0.074006
 Sum of Mulliken charges =  -0.00000   1.00000

 Dipole moment (field-independent basis, Debye):
    X=             -0.9509    Y=             -0.2184    Z=             -0.1098  Tot=              0.9819
 Quadrupole moment (field-independent basis, Debye-Ang):
   XX=            -56.7561   YY=            -63.4518   ZZ=            -73.9764
   XY=              1.7346   XZ=              1.9953   YZ=             -3.2798

 Normal termination of Gaussian 16 at Tue Dec  5 20:41:41 2023.
