 Gaussian 16, Revision B.01,
 Gaussian 16:  ES64L-G16RevB.01 20-Dec-2017

 -------------------------
 #P B3LYP/6-311+g(d) force
 -------------------------

 -----
 DPGEN
 -----
 Symbolic Z-matrix:
 Charge =  0 Multiplicity = 2

                         Standard orientation:
 ---------------------------------------------------------------------
 Center     Atomic      Atomic             Coordinates (Angstroms)
 Number     Number       Type             X           Y           Z
 ---------------------------------------------------------------------
      1         11           0       -2.613428   -1.462145    0.280865
      2         11           0        0.667189   -2.449357   -0.296077
      3         11           0        3.334716   -0.111657   -0.077633
      4         11           0       -0.612825   -0.031976   -1.750614
      5         11           0       -2.256729    1.820595    0.245282
      6         11           0        0.987072    2.373792   -0.240023
      7         11           0        0.494005   -0.139252    1.838200
 ---------------------------------------------------------------------

 SCF Done:  E(UB3LYP) =  -1136.13485243     A.U. after   19 cycles

 The electronic state is 2-A.
 Alpha  occ. eigenvalues --  -38.44430 -38.43789 -38.43446 -38.43442 -38.43228
 Alpha  occ. eigenvalues --  -38.43033 -38.42965  -2.20255  -2.19679  -2.19412
 Alpha  occ. eigenvalues --   -2.19347  -2.19260  -2.18962  -2.18882  -1.13924
 Alpha  occ. eigenvalues --   -1.13913  -1.13902  -1.13383  -1.13338  -1.13318
 Alpha  occ. eigenvalues --   -1.13113  -1.13077  -1.13063  -1.13018  -1.12993
 Alpha  occ. eigenvalues --   -1.12988  -1.12953  -1.12893  -1.12869  -1.12644
 Alpha  occ. eigenvalues --   -1.12627  -1.12569  -1.12552  -1.12548  -1.12494
 Alpha  occ. eigenvalues --   -0.19294  -0.13418  -0.12392  -0.10892
 Alpha virt. eigenvalues --   -0.05954  -0.04922  -0.04154  -0.03403  -0.02842
 Alpha virt. eigenvalues --   -0.02442  -0.01770  -0.00887  -0.00112  -0.00002
 Alpha virt. eigenvalues --    0.00065   0.00350   0.00813   0.00930   0.00961

  Beta  occ. eigenvalues --  -38.44430 -38.43781 -38.43434 -38.43370 -38.43151
  Beta  occ. eigenvalues --  -38.43019 -38.42955  -2.20258  -2.19668  -2.19337
  Beta  occ. eigenvalues --   -2.19273  -2.19119  -2.18942  -2.18868  -1.13919
  Beta  occ. eigenvalues --   -1.13911  -1.13902  -1.13375  -1.13316  -1.13302
  Beta  occ. eigenvalues --   -1.13052  -1.13022  -1.12991  -1.12973  -1.12960
  Beta  occ. eigenvalues --   -1.12908  -1.12865  -1.12799  -1.12776  -1.12626
  Beta  occ. eigenvalues --   -1.12571  -1.12560  -1.12544  -1.12505  -1.12489
  Beta  occ. eigenvalues --   -0.18543  -0.13204  -0.12109
  Beta virt. eigenvalues --   -0.06939  -0.05874  -0.04927  -0.04149  -0.02628
  Beta virt. eigenvalues --   -0.02022  -0.01687  -0.01384  -0.00841  -0.00109
  Beta virt. eigenvalues --    0.00021   0.00118   0.00378   0.00869   0.00925

 Mulliken charges and spin densities:
               1          2
     1  Na   0.258492   0.006968
     2  Na   0.306232  -0.116813
     3  Na   0.119710  -0.076129
     4  Na  -0.399445   0.564118
     5  Na   0.154180   0.007216
     6  Na   0.202636  -0.090396
     7  Na  -0.641805   0.705036
 Sum of Mulliken charges =  -0.00000   1.00000

 Dipole moment (field-independent basis, Debye):
    X=              0.2730    Y=             -0.0913    Z=              0.1405  Tot=              0.3203
 Quadrupole moment (field-independent basis, Debye-Ang):
   XX=            -52.6922   YY=            -67.4073   ZZ=            -73.1486
   XY=              0.0589   XZ=             -2.2566   YZ=              0.1294

 Normal termination of Gaussian 16 at Thu Dec  7 06:55:17 2023.
