 Gaussian 16, Revision B.01,
 Gaussian 16:  ES64L-G16RevB.01 20-Dec-2017

 -------------------------
 #P B3LYP/6-311+g(d) force
 -------------------------

 -----
 DPGEN
 -----
 Symbolic Z-matrix:
 Charge =  0 Multiplicity = 2

                         Standard orientation:
 ---------------------------------------------------------------------
 Center     Atomic      Atomic             Coordinates (Angstroms)
 Number     Number       Type             X           Y           Z
 ---------------------------------------------------------------------
      1         11           0        0.512090   -2.186326   -0.344133
      2         11           0        1.347454    1.999664   -0.657506
      3         11           0        2.584438   -0.469186    0.421415
      4         11           0       -0.379688    0.064776   -1.797475
      5         11           0       -0.162930   -0.395595    1.888863
      6         11           0       -2.501930   -0.887652   -0.256176
      7         11           0       -1.399433    1.874318    0.745012
 ---------------------------------------------------------------------

 SCF Done:  E(UB3LYP) =  -1136.10142514     A.U. after   19 cycles

 The electronic state is 2-A.
 Alpha  occ. eigenvalues --  -38.44384 -38.44285 -38.43759 -38.43594 -38.43417
 Alpha  occ. eigenvalues --  -38.43273 -38.43270  -2.20577  -2.20410  -2.19780
 Alpha  occ. eigenvalues --   -2.19619  -2.19454  -2.19373  -2.19291  -1.14365
 Alpha  occ. eigenvalues --   -1.14268  -1.14205  -1.14156  -1.14104  -1.14007
 Alpha  occ. eigenvalues --   -1.13583  -1.13466  -1.13407  -1.13323  -1.13276
 Alpha  occ. eigenvalues --   -1.13227  -1.13157  -1.13114  -1.13044  -1.13037
 Alpha  occ. eigenvalues --   -1.13008  -1.12981  -1.12911  -1.12891  -1.12859
 Alpha  occ. eigenvalues --   -0.20927  -0.13531  -0.12728  -0.12464
 Alpha virt. eigenvalues --   -0.04986  -0.04260  -0.04031  -0.03822  -0.03435
 Alpha virt. eigenvalues --   -0.03351  -0.00995  -0.00496  -0.00168   0.00367
 Alpha virt. eigenvalues --    0.00739   0.00839   0.01036   0.01077   0.01119

  Beta  occ. eigenvalues --  -38.44292 -38.44193 -38.43750 -38.43582 -38.43392
  Beta  occ. eigenvalues --  -38.43258 -38.43254  -2.20411  -2.20243  -2.19768
  Beta  occ. eigenvalues --   -2.19603  -2.19413  -2.19351  -2.19267  -1.14245
  Beta  occ. eigenvalues --   -1.14159  -1.14091  -1.14029  -1.14000  -1.13891
  Beta  occ. eigenvalues --   -1.13577  -1.13462  -1.13365  -1.13307  -1.13226
  Beta  occ. eigenvalues --   -1.13220  -1.13130  -1.13057  -1.13025  -1.13013
  Beta  occ. eigenvalues --   -1.12950  -1.12944  -1.12902  -1.12871  -1.12838
  Beta  occ. eigenvalues --   -0.20131  -0.13205  -0.12396
  Beta virt. eigenvalues --   -0.08296  -0.04981  -0.04246  -0.03960  -0.02932
  Beta virt. eigenvalues --   -0.02564  -0.02203  -0.00937  -0.00452  -0.00003
  Beta virt. eigenvalues --    0.00395   0.00738   0.00823   0.01048   0.01082

 Mulliken charges and spin densities:
               1          2
     1  Na   0.153964   0.068744
     2  Na   0.211294   0.078803
     3  Na  -0.108398   0.022399
     4  Na  -0.127505   0.396287
     5  Na  -0.198254   0.378623
     6  Na   0.054097  -0.076035
     7  Na   0.014802   0.131179
 Sum of Mulliken charges =  -0.00000   1.00000

 Dipole moment (field-independent basis, Debye):
    X=             -0.1200    Y=              0.0569    Z=              0.2007  Tot=              0.2407
 Quadrupole moment (field-independent basis, Debye-Ang):
   XX=            -61.5612   YY=            -69.4318   ZZ=            -66.9525
   XY=              0.4897   XZ=              0.0615   YZ=              0.7275

 Normal termination of Gaussian 16 at Thu Dec  7 21:07:54 2023.
