 Gaussian 16, Revision B.01,
 Gaussian 16:  ES64L-G16RevB.01 20-Dec-2017

 -------------------------
 #P B3LYP/6-311+g(d) force
 -------------------------

 -----
 DPGEN
 -----
 Symbolic Z-matrix:
 Charge =  0 Multiplicity = 2

                         Standard orientation:
 ---------------------------------------------------------------------
 Center     Atomic      Atomic             Coordinates (Angstroms)
 Number     Number       Type             X           Y           Z
 ---------------------------------------------------------------------
      1         11           0        3.832033    0.261061    0.639281
      2         11           0        0.269349    0.879427    1.789806
      3         11           0       -2.565714    2.112693   -0.194439
      4         11           0        1.440063   -1.564540   -0.875793
      5         11           0       -2.138280   -1.693820    1.565925
      6         11           0       -1.682983   -1.111361   -1.444278
      7         11           0        0.845531    1.116540   -1.480502
 ---------------------------------------------------------------------

 SCF Done:  E(UB3LYP) =  -1136.12178520     A.U. after   24 cycles

 The electronic state is 2-A.
 Alpha  occ. eigenvalues --  -38.44882 -38.44555 -38.44407 -38.43599 -38.43596
 Alpha  occ. eigenvalues --  -38.43031 -38.42833  -2.20681  -2.20406  -2.20386
 Alpha  occ. eigenvalues --   -2.19458  -2.19401  -2.18994  -2.18776  -1.14355
 Alpha  occ. eigenvalues --   -1.14337  -1.14305  -1.14168  -1.14076  -1.14057
 Alpha  occ. eigenvalues --   -1.14014  -1.14006  -1.13974  -1.13164  -1.13130
 Alpha  occ. eigenvalues --   -1.13075  -1.13061  -1.13055  -1.13023  -1.12751
 Alpha  occ. eigenvalues --   -1.12634  -1.12592  -1.12459  -1.12442  -1.12387
 Alpha  occ. eigenvalues --   -0.18771  -0.13700  -0.11858  -0.11088
 Alpha virt. eigenvalues --   -0.06439  -0.04763  -0.04491  -0.03217  -0.02882
 Alpha virt. eigenvalues --   -0.02693  -0.02121  -0.00910  -0.00700   0.00158
 Alpha virt. eigenvalues --    0.00227   0.00285   0.00423   0.00703   0.00840

  Beta  occ. eigenvalues --  -38.44873 -38.44481 -38.44348 -38.43578 -38.43570
  Beta  occ. eigenvalues --  -38.43022 -38.42820  -2.20664  -2.20281  -2.20269
  Beta  occ. eigenvalues --   -2.19407  -2.19369  -2.18982  -2.18758  -1.14342
  Beta  occ. eigenvalues --   -1.14323  -1.14295  -1.14098  -1.13987  -1.13958
  Beta  occ. eigenvalues --   -1.13940  -1.13912  -1.13883  -1.13134  -1.13073
  Beta  occ. eigenvalues --   -1.13050  -1.13033  -1.13022  -1.12999  -1.12730
  Beta  occ. eigenvalues --   -1.12613  -1.12585  -1.12437  -1.12407  -1.12374
  Beta  occ. eigenvalues --   -0.18021  -0.13421  -0.10863
  Beta virt. eigenvalues --   -0.07935  -0.06211  -0.04494  -0.04033  -0.02933
  Beta virt. eigenvalues --   -0.02318  -0.02037  -0.01906  -0.00779  -0.00353
  Beta virt. eigenvalues --    0.00214   0.00279   0.00356   0.00537   0.00789

 Mulliken charges and spin densities:
               1          2
     1  Na   0.448459  -0.044289
     2  Na  -0.452649   0.418260
     3  Na  -0.090260   0.053687
     4  Na  -0.057849   0.122830
     5  Na  -0.143298   0.109740
     6  Na   0.500471   0.053893
     7  Na  -0.204874   0.285879
 Sum of Mulliken charges =  -0.00000   1.00000

 Dipole moment (field-independent basis, Debye):
    X=              0.7836    Y=              0.0947    Z=              0.4766  Tot=              0.9220
 Quadrupole moment (field-independent basis, Debye-Ang):
   XX=            -50.0428   YY=            -74.7134   ZZ=            -68.6562
   XY=              0.4171   XZ=              1.5329   YZ=             -6.0812

 Normal termination of Gaussian 16 at Tue Dec  5 21:33:06 2023.
