 Gaussian 16, Revision B.01,
 Gaussian 16:  ES64L-G16RevB.01 20-Dec-2017

 -------------------------
 #P B3LYP/6-311+g(d) force
 -------------------------

 -----
 DPGEN
 -----
 Symbolic Z-matrix:
 Charge =  0 Multiplicity = 2

                         Standard orientation:
 ---------------------------------------------------------------------
 Center     Atomic      Atomic             Coordinates (Angstroms)
 Number     Number       Type             X           Y           Z
 ---------------------------------------------------------------------
      1         11           0        4.786850   -0.754312   -0.624794
      2         11           0       -1.500699    0.655060    1.737269
      3         11           0       -4.486908   -1.008348   -0.253769
      4         11           0       -1.754572   -1.392819   -1.425696
      5         11           0       -0.605990    3.168229   -0.496350
      6         11           0        1.993170    1.394754   -0.024635
      7         11           0        1.568149   -2.062565    1.087975
 ---------------------------------------------------------------------

 SCF Done:  E(UB3LYP) =  -1136.11868376     A.U. after   21 cycles

 The electronic state is 2-A.
 Alpha  occ. eigenvalues --  -38.45075 -38.45029 -38.44058 -38.43932 -38.43838
 Alpha  occ. eigenvalues --  -38.43549 -38.43103  -2.20890  -2.20829  -2.19893
 Alpha  occ. eigenvalues --   -2.19716  -2.19630  -2.19400  -2.18938  -1.14588
 Alpha  occ. eigenvalues --   -1.14548  -1.14535  -1.14501  -1.14496  -1.14445
 Alpha  occ. eigenvalues --   -1.13558  -1.13528  -1.13521  -1.13377  -1.13375
 Alpha  occ. eigenvalues --   -1.13328  -1.13309  -1.13301  -1.13231  -1.13113
 Alpha  occ. eigenvalues --   -1.13084  -1.13014  -1.12607  -1.12587  -1.12567
 Alpha  occ. eigenvalues --   -0.16998  -0.13728  -0.12004  -0.10471
 Alpha virt. eigenvalues --   -0.06875  -0.05060  -0.04776  -0.03378  -0.03166
 Alpha virt. eigenvalues --   -0.02314  -0.01788  -0.01634  -0.00941  -0.00656
 Alpha virt. eigenvalues --   -0.00491  -0.00178   0.00296   0.00554   0.00628

  Beta  occ. eigenvalues --  -38.45072 -38.45003 -38.44024 -38.43884 -38.43786
  Beta  occ. eigenvalues --  -38.43536 -38.43094  -2.20889  -2.20782  -2.19832
  Beta  occ. eigenvalues --   -2.19626  -2.19536  -2.19378  -2.18921  -1.14584
  Beta  occ. eigenvalues --   -1.14549  -1.14510  -1.14472  -1.14445  -1.14419
  Beta  occ. eigenvalues --   -1.13515  -1.13485  -1.13482  -1.13315  -1.13307
  Beta  occ. eigenvalues --   -1.13273  -1.13247  -1.13236  -1.13150  -1.13101
  Beta  occ. eigenvalues --   -1.13050  -1.12996  -1.12593  -1.12575  -1.12557
  Beta  occ. eigenvalues --   -0.16464  -0.13271  -0.11749
  Beta virt. eigenvalues --   -0.07028  -0.06668  -0.04771  -0.04308  -0.03166
  Beta virt. eigenvalues --   -0.02861  -0.02154  -0.01534  -0.01231  -0.00582
  Beta virt. eigenvalues --   -0.00398  -0.00292  -0.00010   0.00389   0.00645

 Mulliken charges and spin densities:
               1          2
     1  Na   0.372559   0.221354
     2  Na   0.032034   0.312157
     3  Na   0.299415   0.050880
     4  Na  -0.243301   0.133145
     5  Na   0.144321   0.004062
     6  Na  -0.691372   0.151433
     7  Na   0.086344   0.126969
 Sum of Mulliken charges =  -0.00000   1.00000

 Dipole moment (field-independent basis, Debye):
    X=             -1.1523    Y=             -0.3563    Z=              0.2045  Tot=              1.2233
 Quadrupole moment (field-independent basis, Debye-Ang):
   XX=            -61.6937   YY=            -72.3338   ZZ=            -66.0155
   XY=             -5.0078   XZ=             -5.1453   YZ=              0.3870

 Normal termination of Gaussian 16 at Mon Dec  4 03:25:49 2023.
