 Gaussian 16, Revision B.01,
 Gaussian 16:  ES64L-G16RevB.01 20-Dec-2017

 -------------------------
 #P B3LYP/6-311+g(d) force
 -------------------------

 -----
 DPGEN
 -----
 Symbolic Z-matrix:
 Charge =  0 Multiplicity = 2

                         Standard orientation:
 ---------------------------------------------------------------------
 Center     Atomic      Atomic             Coordinates (Angstroms)
 Number     Number       Type             X           Y           Z
 ---------------------------------------------------------------------
      1         11           0        2.990999    1.366245   -0.356801
      2         11           0       -1.759106   -2.194733    0.219884
      3         11           0        0.256494    0.111943    1.714609
      4         11           0        0.110254   -0.435020   -1.435595
      5         11           0        1.955809   -2.583064    0.034433
      6         11           0       -3.390026    0.701237   -0.333616
      7         11           0       -0.164424    3.033392    0.157085
 ---------------------------------------------------------------------

 SCF Done:  E(UB3LYP) =  -1136.13282954     A.U. after   20 cycles

 The electronic state is 2-A.
 Alpha  occ. eigenvalues --  -38.44254 -38.44062 -38.43894 -38.43782 -38.43655
 Alpha  occ. eigenvalues --  -38.43126 -38.42858  -2.20058  -2.19852  -2.19729
 Alpha  occ. eigenvalues --   -2.19596  -2.19557  -2.19135  -2.18824  -1.13735
 Alpha  occ. eigenvalues --   -1.13714  -1.13691  -1.13526  -1.13515  -1.13492
 Alpha  occ. eigenvalues --   -1.13425  -1.13387  -1.13361  -1.13300  -1.13287
 Alpha  occ. eigenvalues --   -1.13262  -1.13225  -1.13220  -1.13151  -1.12860
 Alpha  occ. eigenvalues --   -1.12764  -1.12734  -1.12516  -1.12438  -1.12430
 Alpha  occ. eigenvalues --   -0.18569  -0.13005  -0.12581  -0.10026
 Alpha virt. eigenvalues --   -0.05809  -0.05512  -0.04933  -0.02897  -0.02664
 Alpha virt. eigenvalues --   -0.01840  -0.01782  -0.01497  -0.00698  -0.00444
 Alpha virt. eigenvalues --    0.00022   0.00303   0.00740   0.00792   0.00829

  Beta  occ. eigenvalues --  -38.44242 -38.44056 -38.43890 -38.43776 -38.43645
  Beta  occ. eigenvalues --  -38.43077 -38.42773  -2.20039  -2.19843  -2.19725
  Beta  occ. eigenvalues --   -2.19589  -2.19543  -2.19046  -2.18668  -1.13707
  Beta  occ. eigenvalues --   -1.13703  -1.13675  -1.13520  -1.13498  -1.13486
  Beta  occ. eigenvalues --   -1.13419  -1.13377  -1.13349  -1.13290  -1.13274
  Beta  occ. eigenvalues --   -1.13244  -1.13220  -1.13191  -1.13137  -1.12786
  Beta  occ. eigenvalues --   -1.12704  -1.12667  -1.12411  -1.12330  -1.12312
  Beta  occ. eigenvalues --   -0.17887  -0.12733  -0.12347
  Beta virt. eigenvalues --   -0.06275  -0.05672  -0.05479  -0.04895  -0.02194
  Beta virt. eigenvalues --   -0.01966  -0.01657  -0.01446  -0.00917  -0.00711
  Beta virt. eigenvalues --   -0.00459   0.00165   0.00361   0.00772   0.00825

 Mulliken charges and spin densities:
               1          2
     1  Na  -0.034778  -0.032632
     2  Na   0.425954   0.083687
     3  Na  -0.050876   0.509448
     4  Na  -0.517133   0.546134
     5  Na   0.279337  -0.062781
     6  Na  -0.109512  -0.000451
     7  Na   0.007009  -0.043405
 Sum of Mulliken charges =  -0.00000   1.00000

 Dipole moment (field-independent basis, Debye):
    X=              0.2793    Y=              0.0820    Z=              0.0954  Tot=              0.3063
 Quadrupole moment (field-independent basis, Debye-Ang):
   XX=            -54.0419   YY=            -58.8411   ZZ=            -77.7547
   XY=             -1.5114   XZ=             -0.0790   YZ=             -1.5269

 Normal termination of Gaussian 16 at Thu Dec  7 10:42:17 2023.
