 Gaussian 16, Revision B.01,
 Gaussian 16:  ES64L-G16RevB.01 20-Dec-2017

 -------------------------
 #P B3LYP/6-311+g(d) force
 -------------------------

 -----
 DPGEN
 -----
 Symbolic Z-matrix:
 Charge =  0 Multiplicity = 2

                         Standard orientation:
 ---------------------------------------------------------------------
 Center     Atomic      Atomic             Coordinates (Angstroms)
 Number     Number       Type             X           Y           Z
 ---------------------------------------------------------------------
      1         11           0        1.325018   -1.721173   -0.810685
      2         11           0        0.177010    0.445108   -1.806761
      3         11           0       -2.854261    0.445791   -0.686155
      4         11           0        3.715098    0.510839   -0.141426
      5         11           0       -2.012724   -2.237829    0.553145
      6         11           0       -1.031388    2.726720    0.523067
      7         11           0        0.681246   -0.169456    2.368815
 ---------------------------------------------------------------------

 SCF Done:  E(UB3LYP) =  -1136.11685556     A.U. after   23 cycles

 The electronic state is 2-A.
 Alpha  occ. eigenvalues --  -38.45114 -38.44873 -38.44548 -38.43994 -38.43899
 Alpha  occ. eigenvalues --  -38.42959 -38.42881  -2.20887  -2.20693  -2.20534
 Alpha  occ. eigenvalues --   -2.19911  -2.19864  -2.18805  -2.18726  -1.14557
 Alpha  occ. eigenvalues --   -1.14551  -1.14527  -1.14480  -1.14343  -1.14326
 Alpha  occ. eigenvalues --   -1.14306  -1.14147  -1.14117  -1.13590  -1.13583
 Alpha  occ. eigenvalues --   -1.13551  -1.13528  -1.13481  -1.13394  -1.12501
 Alpha  occ. eigenvalues --   -1.12454  -1.12434  -1.12399  -1.12380  -1.12368
 Alpha  occ. eigenvalues --   -0.18555  -0.13445  -0.11815  -0.11479
 Alpha virt. eigenvalues --   -0.06517  -0.04475  -0.04234  -0.03545  -0.03347
 Alpha virt. eigenvalues --   -0.02984  -0.02186  -0.00681  -0.00341   0.00065
 Alpha virt. eigenvalues --    0.00186   0.00308   0.00418   0.00815   0.00876

  Beta  occ. eigenvalues --  -38.45119 -38.44769 -38.44481 -38.43988 -38.43870
  Beta  occ. eigenvalues --  -38.42957 -38.42875  -2.20897  -2.20499  -2.20415
  Beta  occ. eigenvalues --   -2.19902  -2.19817  -2.18804  -2.18716  -1.14567
  Beta  occ. eigenvalues --   -1.14543  -1.14535  -1.14398  -1.14216  -1.14189
  Beta  occ. eigenvalues --   -1.14166  -1.14060  -1.14029  -1.13579  -1.13567
  Beta  occ. eigenvalues --   -1.13549  -1.13484  -1.13424  -1.13364  -1.12503
  Beta  occ. eigenvalues --   -1.12439  -1.12433  -1.12394  -1.12375  -1.12346
  Beta  occ. eigenvalues --   -0.17781  -0.13289  -0.11312
  Beta virt. eigenvalues --   -0.07754  -0.06395  -0.04263  -0.03922  -0.03043
  Beta virt. eigenvalues --   -0.02481  -0.02261  -0.02034  -0.00638  -0.00128
  Beta virt. eigenvalues --    0.00038   0.00234   0.00349   0.00618   0.00856

 Mulliken charges and spin densities:
               1          2
     1  Na   0.103182   0.171862
     2  Na   0.274024   0.131893
     3  Na   0.550751   0.074791
     4  Na  -0.054504  -0.049578
     5  Na  -0.190047  -0.026179
     6  Na  -0.455604  -0.009528
     7  Na  -0.227802   0.706739
 Sum of Mulliken charges =  -0.00000   1.00000

 Dipole moment (field-independent basis, Debye):
    X=              1.2044    Y=              0.2563    Z=              0.3968  Tot=              1.2937
 Quadrupole moment (field-independent basis, Debye-Ang):
   XX=            -53.8690   YY=            -73.3862   ZZ=            -68.4896
   XY=              2.4098   XZ=              0.8137   YZ=              0.9093

 Normal termination of Gaussian 16 at Thu Dec  7 17:09:11 2023.
