 Gaussian 16, Revision B.01,
 Gaussian 16:  ES64L-G16RevB.01 20-Dec-2017

 -------------------------
 #P B3LYP/6-311+g(d) force
 -------------------------

 -----
 DPGEN
 -----
 Symbolic Z-matrix:
 Charge =  0 Multiplicity = 2

                         Standard orientation:
 ---------------------------------------------------------------------
 Center     Atomic      Atomic             Coordinates (Angstroms)
 Number     Number       Type             X           Y           Z
 ---------------------------------------------------------------------
      1         11           0       -3.942125    4.466946   -0.805205
      2         11           0        2.150674   -2.358998   -0.205180
      3         11           0        4.860515   -0.126444   -0.812746
      4         11           0        5.340670    2.731915    1.038684
      5         11           0       -3.822608   -2.311315    1.084217
      6         11           0       -3.323740    1.535179    0.273755
      7         11           0       -1.263386   -3.937284   -0.573525
 ---------------------------------------------------------------------

 SCF Done:  E(UB3LYP) =  -1136.10418533     A.U. after   19 cycles

 The electronic state is 2-A.
 Alpha  occ. eigenvalues --  -38.45308 -38.44974 -38.44825 -38.44781 -38.44362
 Alpha  occ. eigenvalues --  -38.44095 -38.43790  -2.21084  -2.20754  -2.20570
 Alpha  occ. eigenvalues --   -2.20562  -2.20124  -2.19882  -2.19560  -1.14728
 Alpha  occ. eigenvalues --   -1.14726  -1.14697  -1.14410  -1.14397  -1.14381
 Alpha  occ. eigenvalues --   -1.14256  -1.14243  -1.14222  -1.14218  -1.14216
 Alpha  occ. eigenvalues --   -1.14162  -1.13810  -1.13800  -1.13777  -1.13541
 Alpha  occ. eigenvalues --   -1.13531  -1.13531  -1.13238  -1.13237  -1.13190
 Alpha  occ. eigenvalues --   -0.15003  -0.13994  -0.12672  -0.11456
 Alpha virt. eigenvalues --   -0.07346  -0.05537  -0.04245  -0.03222  -0.03034
 Alpha virt. eigenvalues --   -0.02733  -0.02368  -0.01936  -0.01764  -0.01125
 Alpha virt. eigenvalues --   -0.00930  -0.00852  -0.00195   0.00145   0.00425

  Beta  occ. eigenvalues --  -38.45224 -38.44912 -38.44849 -38.44698 -38.44382
  Beta  occ. eigenvalues --  -38.44066 -38.43798  -2.20926  -2.20638  -2.20617
  Beta  occ. eigenvalues --   -2.20406  -2.20166  -2.19826  -2.19578  -1.14620
  Beta  occ. eigenvalues --   -1.14618  -1.14594  -1.14331  -1.14321  -1.14316
  Beta  occ. eigenvalues --   -1.14292  -1.14272  -1.14216  -1.14114  -1.14110
  Beta  occ. eigenvalues --   -1.14069  -1.13843  -1.13833  -1.13765  -1.13507
  Beta  occ. eigenvalues --   -1.13493  -1.13493  -1.13252  -1.13252  -1.13181
  Beta  occ. eigenvalues --   -0.14412  -0.13369  -0.12256
  Beta virt. eigenvalues --   -0.08341  -0.06825  -0.05152  -0.03960  -0.03024
  Beta virt. eigenvalues --   -0.02745  -0.02496  -0.02225  -0.01740  -0.01630
  Beta virt. eigenvalues --   -0.00865  -0.00507  -0.00481  -0.00025   0.00255

 Mulliken charges and spin densities:
               1          2
     1  Na   0.463901   0.107605
     2  Na  -0.388991   0.427003
     3  Na   0.101214  -0.100832
     4  Na   0.149619   0.412860
     5  Na   0.132833   0.235324
     6  Na  -0.651637   0.041558
     7  Na   0.193061  -0.123518
 Sum of Mulliken charges =  -0.00000   1.00000

 Dipole moment (field-independent basis, Debye):
    X=              0.5676    Y=              0.2108    Z=              0.2947  Tot=              0.6734
 Quadrupole moment (field-independent basis, Debye-Ang):
   XX=            -67.1404   YY=            -57.0163   ZZ=            -69.9881
   XY=              6.0367   XZ=              0.0804   YZ=              1.4559

 Normal termination of Gaussian 16 at Mon Dec  4 00:02:44 2023.
