 Gaussian 16, Revision B.01,
 Gaussian 16:  ES64L-G16RevB.01 20-Dec-2017

 -------------------------
 #P B3LYP/6-311+g(d) force
 -------------------------

 -----
 DPGEN
 -----
 Symbolic Z-matrix:
 Charge =  0 Multiplicity = 2

                         Standard orientation:
 ---------------------------------------------------------------------
 Center     Atomic      Atomic             Coordinates (Angstroms)
 Number     Number       Type             X           Y           Z
 ---------------------------------------------------------------------
      1         11           0        3.215439    0.685023   -0.038399
      2         11           0       -0.137894    0.103268    1.951252
      3         11           0        0.168885    3.101209   -0.224458
      4         11           0       -2.392021   -2.013445   -0.135952
      5         11           0       -2.745722    1.063006   -0.009987
      6         11           0        1.782273   -2.563401    0.147028
      7         11           0        0.109040   -0.375659   -1.689485
 ---------------------------------------------------------------------

 SCF Done:  E(UB3LYP) =  -1136.13670330     A.U. after   19 cycles

 The electronic state is 2-A.
 Alpha  occ. eigenvalues --  -38.44534 -38.43810 -38.43758 -38.43752 -38.43434
 Alpha  occ. eigenvalues --  -38.43307 -38.43248  -2.20320  -2.19644  -2.19631
 Alpha  occ. eigenvalues --   -2.19618  -2.19326  -2.19183  -2.19111  -1.14000
 Alpha  occ. eigenvalues --   -1.13977  -1.13958  -1.13410  -1.13320  -1.13314
 Alpha  occ. eigenvalues --   -1.13302  -1.13295  -1.13276  -1.13263  -1.13255
 Alpha  occ. eigenvalues --   -1.13206  -1.13003  -1.12950  -1.12943  -1.12867
 Alpha  occ. eigenvalues --   -1.12818  -1.12804  -1.12781  -1.12769  -1.12756
 Alpha  occ. eigenvalues --   -0.18458  -0.13221  -0.12224  -0.10492
 Alpha virt. eigenvalues --   -0.05901  -0.05262  -0.04796  -0.03250  -0.02731
 Alpha virt. eigenvalues --   -0.02365  -0.01674  -0.01196  -0.00578  -0.00482
 Alpha virt. eigenvalues --   -0.00003   0.00358   0.00751   0.00825   0.00879

  Beta  occ. eigenvalues --  -38.44533 -38.43805 -38.43753 -38.43746 -38.43345
  Beta  occ. eigenvalues --  -38.43304 -38.43182  -2.20321  -2.19636  -2.19626
  Beta  occ. eigenvalues --   -2.19612  -2.19161  -2.19108  -2.19063  -1.13984
  Beta  occ. eigenvalues --   -1.13978  -1.13962  -1.13410  -1.13313  -1.13302
  Beta  occ. eigenvalues --   -1.13275  -1.13273  -1.13264  -1.13259  -1.13234
  Beta  occ. eigenvalues --   -1.13205  -1.12894  -1.12831  -1.12828  -1.12785
  Beta  occ. eigenvalues --   -1.12774  -1.12761  -1.12755  -1.12726  -1.12713
  Beta  occ. eigenvalues --   -0.17729  -0.13004  -0.12004
  Beta virt. eigenvalues --   -0.06609  -0.05883  -0.05229  -0.04746  -0.02451
  Beta virt. eigenvalues --   -0.02004  -0.01582  -0.01340  -0.01117  -0.00641
  Beta virt. eigenvalues --   -0.00524   0.00142   0.00385   0.00782   0.00857

 Mulliken charges and spin densities:
               1          2
     1  Na  -0.012551  -0.098050
     2  Na  -0.329023   0.727572
     3  Na  -0.101584  -0.097584
     4  Na   0.278971  -0.061359
     5  Na   0.228595   0.032823
     6  Na   0.075290  -0.119178
     7  Na  -0.139698   0.615776
 Sum of Mulliken charges =  -0.00000   1.00000

 Dipole moment (field-independent basis, Debye):
    X=              0.3993    Y=             -0.1786    Z=              0.0685  Tot=              0.4428
 Quadrupole moment (field-independent basis, Debye-Ang):
   XX=            -55.3698   YY=            -61.8241   ZZ=            -75.7837
   XY=              0.7124   XZ=              0.5011   YZ=             -1.0737

 Normal termination of Gaussian 16 at Sun Dec  3 15:37:43 2023.
