 Gaussian 16, Revision B.01,
 Gaussian 16:  ES64L-G16RevB.01 20-Dec-2017

 -------------------------
 #P B3LYP/6-311+g(d) force
 -------------------------

 -----
 DPGEN
 -----
 Symbolic Z-matrix:
 Charge =  0 Multiplicity = 2

                         Standard orientation:
 ---------------------------------------------------------------------
 Center     Atomic      Atomic             Coordinates (Angstroms)
 Number     Number       Type             X           Y           Z
 ---------------------------------------------------------------------
      1         11           0        1.034852   -3.507286   -0.082293
      2         11           0       -1.797511   -1.473779    1.081061
      3         11           0       -2.696086    1.116309   -0.865120
      4         11           0       -5.604089   -0.071699   -0.121888
      5         11           0        4.018015   -1.859866   -0.387385
      6         11           0        3.741846    1.438683    0.032786
      7         11           0        1.302973    4.357638    0.342839
 ---------------------------------------------------------------------

 SCF Done:  E(UB3LYP) =  -1136.10659083     A.U. after   21 cycles

 The electronic state is 2-A.
 Alpha  occ. eigenvalues --  -38.45741 -38.45463 -38.45052 -38.43993 -38.43952
 Alpha  occ. eigenvalues --  -38.43904 -38.43853  -2.21536  -2.21267  -2.20850
 Alpha  occ. eigenvalues --   -2.19755  -2.19701  -2.19671  -2.19656  -1.15224
 Alpha  occ. eigenvalues --   -1.15207  -1.15180  -1.14917  -1.14914  -1.14866
 Alpha  occ. eigenvalues --   -1.14534  -1.14515  -1.14438  -1.13440  -1.13432
 Alpha  occ. eigenvalues --   -1.13413  -1.13371  -1.13362  -1.13353  -1.13349
 Alpha  occ. eigenvalues --   -1.13331  -1.13325  -1.13316  -1.13293  -1.13252
 Alpha  occ. eigenvalues --   -0.15994  -0.14134  -0.12101  -0.10993
 Alpha virt. eigenvalues --   -0.06767  -0.06421  -0.04439  -0.03542  -0.02924
 Alpha virt. eigenvalues --   -0.02528  -0.02398  -0.01628  -0.01359  -0.01033
 Alpha virt. eigenvalues --   -0.00809  -0.00363   0.00145   0.00242   0.00403

  Beta  occ. eigenvalues --  -38.45745 -38.45398 -38.44995 -38.44009 -38.43909
  Beta  occ. eigenvalues --  -38.43900 -38.43802  -2.21547  -2.21145  -2.20745
  Beta  occ. eigenvalues --   -2.19786  -2.19671  -2.19602  -2.19575  -1.15222
  Beta  occ. eigenvalues --   -1.15215  -1.15171  -1.14831  -1.14830  -1.14792
  Beta  occ. eigenvalues --   -1.14463  -1.14444  -1.14362  -1.13464  -1.13454
  Beta  occ. eigenvalues --   -1.13410  -1.13363  -1.13361  -1.13305  -1.13294
  Beta  occ. eigenvalues --   -1.13284  -1.13261  -1.13258  -1.13241  -1.13210
  Beta  occ. eigenvalues --   -0.15480  -0.13636  -0.11613
  Beta virt. eigenvalues --   -0.07842  -0.06295  -0.06078  -0.04157  -0.03225
  Beta virt. eigenvalues --   -0.02670  -0.02387  -0.02090  -0.01354  -0.01171
  Beta virt. eigenvalues --   -0.00653  -0.00463  -0.00213   0.00320   0.00368

 Mulliken charges and spin densities:
               1          2
     1  Na  -0.092741  -0.065438
     2  Na  -0.277655   0.207524
     3  Na  -0.169303   0.097762
     4  Na   0.449980   0.268267
     5  Na   0.404542   0.164024
     6  Na  -0.369188   0.012034
     7  Na   0.054366   0.315826
 Sum of Mulliken charges =  -0.00000   1.00000

 Dipole moment (field-independent basis, Debye):
    X=             -3.3151    Y=             -0.8643    Z=             -0.0796  Tot=              3.4268
 Quadrupole moment (field-independent basis, Debye-Ang):
   XX=            -57.0360   YY=            -70.2122   ZZ=            -71.6951
   XY=             -1.9802   XZ=             -1.8062   YZ=             -0.6669

 Normal termination of Gaussian 16 at Sun Dec  3 22:10:26 2023.
