 Gaussian 16, Revision B.01,
 Gaussian 16:  ES64L-G16RevB.01 20-Dec-2017

 -------------------------
 #P B3LYP/6-311+g(d) force
 -------------------------

 -----
 DPGEN
 -----
 Symbolic Z-matrix:
 Charge =  0 Multiplicity = 2

                         Standard orientation:
 ---------------------------------------------------------------------
 Center     Atomic      Atomic             Coordinates (Angstroms)
 Number     Number       Type             X           Y           Z
 ---------------------------------------------------------------------
      1         11           0        0.995906   -1.639270   -1.745865
      2         11           0        2.666096   -0.894175    1.004184
      3         11           0       -2.093043   -2.062123   -1.695290
      4         11           0       -3.277084    0.787247    0.773106
      5         11           0       -0.526399    3.199543    0.000001
      6         11           0        2.093046    1.987316   -1.121514
      7         11           0        0.141477   -1.378538    2.785378
 ---------------------------------------------------------------------

 SCF Done:  E(UB3LYP) =  -1136.11388500     A.U. after   22 cycles

 The electronic state is 2-A.
 Alpha  occ. eigenvalues --  -38.45862 -38.44477 -38.44385 -38.44286 -38.44119
 Alpha  occ. eigenvalues --  -38.43600 -38.43519  -2.21668  -2.20338  -2.20125
 Alpha  occ. eigenvalues --   -2.20083  -2.19979  -2.19432  -2.19309  -1.15334
 Alpha  occ. eigenvalues --   -1.15292  -1.15270  -1.14043  -1.13988  -1.13977
 Alpha  occ. eigenvalues --   -1.13802  -1.13782  -1.13763  -1.13753  -1.13729
 Alpha  occ. eigenvalues --   -1.13692  -1.13673  -1.13635  -1.13607  -1.13163
 Alpha  occ. eigenvalues --   -1.13101  -1.13063  -1.12979  -1.12961  -1.12923
 Alpha  occ. eigenvalues --   -0.17140  -0.12821  -0.12404  -0.12333
 Alpha virt. eigenvalues --   -0.06165  -0.05175  -0.04889  -0.03796  -0.03327
 Alpha virt. eigenvalues --   -0.03201  -0.01053  -0.00974  -0.00597  -0.00495
 Alpha virt. eigenvalues --   -0.00364   0.00076   0.00382   0.00428   0.00529

  Beta  occ. eigenvalues --  -38.45753 -38.44423 -38.44372 -38.44250 -38.44107
  Beta  occ. eigenvalues --  -38.43588 -38.43530  -2.21468  -2.20239  -2.20102
  Beta  occ. eigenvalues --   -2.20020  -2.19961  -2.19409  -2.19328  -1.15195
  Beta  occ. eigenvalues --   -1.15158  -1.15131  -1.13968  -1.13927  -1.13904
  Beta  occ. eigenvalues --   -1.13782  -1.13767  -1.13750  -1.13700  -1.13689
  Beta  occ. eigenvalues --   -1.13648  -1.13644  -1.13625  -1.13574  -1.13160
  Beta  occ. eigenvalues --   -1.13083  -1.13051  -1.12991  -1.12972  -1.12929
  Beta  occ. eigenvalues --   -0.16420  -0.12405  -0.12098
  Beta virt. eigenvalues --   -0.08629  -0.05759  -0.05084  -0.04237  -0.03470
  Beta virt. eigenvalues --   -0.02812  -0.02740  -0.00991  -0.00737  -0.00446
  Beta virt. eigenvalues --   -0.00309  -0.00201   0.00174   0.00469   0.00604

 Mulliken charges and spin densities:
               1          2
     1  Na  -0.202613   0.298021
     2  Na   0.640887   0.039796
     3  Na   0.160052   0.024461
     4  Na  -0.409052   0.170970
     5  Na   0.315994  -0.088833
     6  Na  -0.234469   0.068976
     7  Na  -0.270800   0.486609
 Sum of Mulliken charges =  -0.00000   1.00000

 Dipole moment (field-independent basis, Debye):
    X=              0.0481    Y=             -0.7698    Z=              0.6668  Tot=              1.0196
 Quadrupole moment (field-independent basis, Debye-Ang):
   XX=            -64.0285   YY=            -72.7843   ZZ=            -64.6025
   XY=              0.1659   XZ=             -2.3218   YZ=              0.0346

 Normal termination of Gaussian 16 at Sun Dec  3 20:37:41 2023.
