 Gaussian 16, Revision B.01,
 Gaussian 16:  ES64L-G16RevB.01 20-Dec-2017

 -------------------------
 #P B3LYP/6-311+g(d) force
 -------------------------

 -----
 DPGEN
 -----
 Symbolic Z-matrix:
 Charge =  0 Multiplicity = 2

                         Standard orientation:
 ---------------------------------------------------------------------
 Center     Atomic      Atomic             Coordinates (Angstroms)
 Number     Number       Type             X           Y           Z
 ---------------------------------------------------------------------
      1         11           0       -1.689515    1.687431    0.218213
      2         11           0        4.286697   -0.587753    0.499850
      3         11           0        1.492219   -1.009561   -1.680221
      4         11           0        2.006558    2.010491   -0.779732
      5         11           0        1.315909   -0.472937    1.965903
      6         11           0       -2.081420   -1.603894   -0.456517
      7         11           0       -5.330449   -0.023777    0.232504
 ---------------------------------------------------------------------

 SCF Done:  E(UB3LYP) =  -1136.10641631     A.U. after   30 cycles

 The electronic state is 2-A.
 Alpha  occ. eigenvalues --  -38.46592 -38.44647 -38.44408 -38.44282 -38.43890
 Alpha  occ. eigenvalues --  -38.43750 -38.43145  -2.22388  -2.20521  -2.20162
 Alpha  occ. eigenvalues --   -2.20100  -2.19740  -2.19556  -2.18986  -1.16076
 Alpha  occ. eigenvalues --   -1.16042  -1.16005  -1.14205  -1.14181  -1.14124
 Alpha  occ. eigenvalues --   -1.13834  -1.13831  -1.13797  -1.13788  -1.13777
 Alpha  occ. eigenvalues --   -1.13692  -1.13441  -1.13390  -1.13343  -1.13268
 Alpha  occ. eigenvalues --   -1.13243  -1.13130  -1.12655  -1.12647  -1.12634
 Alpha  occ. eigenvalues --   -0.17917  -0.14119  -0.11044  -0.10461
 Alpha virt. eigenvalues --   -0.08275  -0.05126  -0.04786  -0.03434  -0.03059
 Alpha virt. eigenvalues --   -0.02367  -0.02173  -0.01619  -0.01538  -0.00951
 Alpha virt. eigenvalues --   -0.00308   0.00120   0.00139   0.00584   0.00644

  Beta  occ. eigenvalues --  -38.46576 -38.44584 -38.44394 -38.44241 -38.43868
  Beta  occ. eigenvalues --  -38.43731 -38.43144  -2.22362  -2.20407  -2.20135
  Beta  occ. eigenvalues --   -2.20028  -2.19701  -2.19522  -2.18987  -1.16034
  Beta  occ. eigenvalues --   -1.16024  -1.15992  -1.14112  -1.14104  -1.14044
  Beta  occ. eigenvalues --   -1.13816  -1.13811  -1.13768  -1.13753  -1.13736
  Beta  occ. eigenvalues --   -1.13611  -1.13408  -1.13362  -1.13316  -1.13246
  Beta  occ. eigenvalues --   -1.13215  -1.13103  -1.12655  -1.12639  -1.12636
  Beta  occ. eigenvalues --   -0.17302  -0.13913  -0.10249
  Beta virt. eigenvalues --   -0.08101  -0.07228  -0.04787  -0.04464  -0.03232
  Beta virt. eigenvalues --   -0.02794  -0.01914  -0.01586  -0.01398  -0.01106
  Beta virt. eigenvalues --   -0.00874  -0.00172   0.00167   0.00261   0.00647

 Mulliken charges and spin densities:
               1          2
     1  Na  -0.246376   0.140650
     2  Na   0.293182  -0.031511
     3  Na  -0.036291   0.203695
     4  Na  -0.042324   0.293518
     5  Na  -0.016888   0.132640
     6  Na  -0.164491   0.222716
     7  Na   0.213189   0.038292
 Sum of Mulliken charges =  -0.00000   1.00000

 Dipole moment (field-independent basis, Debye):
    X=              0.0500    Y=              0.2393    Z=              0.1436  Tot=              0.2835
 Quadrupole moment (field-independent basis, Debye-Ang):
   XX=            -62.8918   YY=            -74.9253   ZZ=            -66.7638
   XY=              2.1655   XZ=             -6.5284   YZ=              1.3721

 Normal termination of Gaussian 16 at Thu Dec  7 03:13:31 2023.
