 Gaussian 16, Revision B.01,
 Gaussian 16:  ES64L-G16RevB.01 20-Dec-2017

 -------------------------
 #P B3LYP/6-311+g(d) force
 -------------------------

 -----
 DPGEN
 -----
 Symbolic Z-matrix:
 Charge =  0 Multiplicity = 2

                         Standard orientation:
 ---------------------------------------------------------------------
 Center     Atomic      Atomic             Coordinates (Angstroms)
 Number     Number       Type             X           Y           Z
 ---------------------------------------------------------------------
      1         11           0       -1.332891    3.186544   -0.075954
      2         11           0        3.903967    0.594276    0.393491
      3         11           0       -3.591054   -0.419618    0.233563
      4         11           0        0.475390   -0.119777    2.023847
      5         11           0       -1.251868   -2.750820   -0.059458
      6         11           0        2.011856   -1.379270   -1.067260
      7         11           0       -0.215400    0.888665   -1.448230
 ---------------------------------------------------------------------

 SCF Done:  E(UB3LYP) =  -1136.11870487     A.U. after   22 cycles

 The electronic state is 2-A.
 Alpha  occ. eigenvalues --  -38.45519 -38.45269 -38.44859 -38.43454 -38.43120
 Alpha  occ. eigenvalues --  -38.43113 -38.43041  -2.21279  -2.21063  -2.20667
 Alpha  occ. eigenvalues --   -2.19375  -2.19068  -2.18939  -2.18871  -1.14964
 Alpha  occ. eigenvalues --   -1.14934  -1.14906  -1.14753  -1.14711  -1.14693
 Alpha  occ. eigenvalues --   -1.14349  -1.14313  -1.14269  -1.13090  -1.13010
 Alpha  occ. eigenvalues --   -1.13008  -1.12860  -1.12733  -1.12679  -1.12610
 Alpha  occ. eigenvalues --   -1.12604  -1.12588  -1.12507  -1.12499  -1.12478
 Alpha  occ. eigenvalues --   -0.17953  -0.13390  -0.11783  -0.10668
 Alpha virt. eigenvalues --   -0.07227  -0.04789  -0.04429  -0.03406  -0.02800
 Alpha virt. eigenvalues --   -0.02508  -0.02477  -0.01111  -0.00679  -0.00306
 Alpha virt. eigenvalues --   -0.00162   0.00148   0.00413   0.00636   0.00786

  Beta  occ. eigenvalues --  -38.45516 -38.45259 -38.44786 -38.43411 -38.43109
  Beta  occ. eigenvalues --  -38.43069 -38.43044  -2.21275  -2.21045  -2.20532
  Beta  occ. eigenvalues --   -2.19300  -2.18978  -2.18933  -2.18877  -1.14957
  Beta  occ. eigenvalues --   -1.14929  -1.14905  -1.14742  -1.14695  -1.14673
  Beta  occ. eigenvalues --   -1.14255  -1.14219  -1.14167  -1.13029  -1.12962
  Beta  occ. eigenvalues --   -1.12937  -1.12807  -1.12674  -1.12622  -1.12608
  Beta  occ. eigenvalues --   -1.12601  -1.12563  -1.12505  -1.12498  -1.12456
  Beta  occ. eigenvalues --   -0.17226  -0.13250  -0.11626
  Beta virt. eigenvalues --   -0.07130  -0.06697  -0.04653  -0.04273  -0.02966
  Beta virt. eigenvalues --   -0.02488  -0.01948  -0.01594  -0.00982  -0.00667
  Beta virt. eigenvalues --   -0.00227  -0.00028   0.00205   0.00575   0.00720

 Mulliken charges and spin densities:
               1          2
     1  Na  -0.135265  -0.006259
     2  Na  -0.033832   0.135373
     3  Na  -0.089532   0.056245
     4  Na  -0.318673   0.645310
     5  Na  -0.023691   0.014945
     6  Na   0.503831   0.129361
     7  Na   0.097162   0.025024
 Sum of Mulliken charges =  -0.00000   1.00000

 Dipole moment (field-independent basis, Debye):
    X=              0.1593    Y=              0.1171    Z=              0.5683  Tot=              0.6017
 Quadrupole moment (field-independent basis, Debye-Ang):
   XX=            -48.5718   YY=            -70.0049   ZZ=            -74.5283
   XY=              1.3536   XZ=             -0.9423   YZ=              2.9541

 Normal termination of Gaussian 16 at Sun Dec  3 20:31:30 2023.
