 Gaussian 16, Revision B.01,
 Gaussian 16:  ES64L-G16RevB.01 20-Dec-2017

 -------------------------
 #P B3LYP/6-311+g(d) force
 -------------------------

 -----
 DPGEN
 -----
 Symbolic Z-matrix:
 Charge =  0 Multiplicity = 2

                         Standard orientation:
 ---------------------------------------------------------------------
 Center     Atomic      Atomic             Coordinates (Angstroms)
 Number     Number       Type             X           Y           Z
 ---------------------------------------------------------------------
      1         11           0       -0.474120   -0.012883    2.340019
      2         11           0        1.874476    2.311509    0.634607
      3         11           0        1.052180    0.647841   -2.128971
      4         11           0        0.039590   -2.477852   -1.106072
      5         11           0       -2.840511   -1.419961    0.283555
      6         11           0       -2.226483    2.375484   -0.639147
      7         11           0        2.574867   -1.424137    0.616008
 ---------------------------------------------------------------------

 SCF Done:  E(UB3LYP) =  -1136.12866836     A.U. after   21 cycles

 The electronic state is 2-A.
 Alpha  occ. eigenvalues --  -38.44677 -38.44469 -38.44318 -38.43981 -38.43828
 Alpha  occ. eigenvalues --  -38.43543 -38.43156  -2.20500  -2.20206  -2.20167
 Alpha  occ. eigenvalues --   -2.19808  -2.19632  -2.19350  -2.19024  -1.14157
 Alpha  occ. eigenvalues --   -1.14137  -1.14128  -1.13889  -1.13853  -1.13843
 Alpha  occ. eigenvalues --   -1.13838  -1.13826  -1.13776  -1.13491  -1.13470
 Alpha  occ. eigenvalues --   -1.13445  -1.13312  -1.13300  -1.13261  -1.13030
 Alpha  occ. eigenvalues --   -1.13026  -1.12982  -1.12703  -1.12682  -1.12650
 Alpha  occ. eigenvalues --   -0.17839  -0.12494  -0.12072  -0.11771
 Alpha virt. eigenvalues --   -0.05824  -0.05122  -0.04508  -0.03590  -0.03467
 Alpha virt. eigenvalues --   -0.03281  -0.01262  -0.00985  -0.00370  -0.00116
 Alpha virt. eigenvalues --   -0.00017   0.00464   0.00487   0.00588   0.00720

  Beta  occ. eigenvalues --  -38.44596 -38.44456 -38.44255 -38.43971 -38.43822
  Beta  occ. eigenvalues --  -38.43543 -38.43137  -2.20351  -2.20182  -2.20049
  Beta  occ. eigenvalues --   -2.19793  -2.19625  -2.19353  -2.18990  -1.14060
  Beta  occ. eigenvalues --   -1.14034  -1.14015  -1.13865  -1.13839  -1.13827
  Beta  occ. eigenvalues --   -1.13756  -1.13746  -1.13689  -1.13484  -1.13440
  Beta  occ. eigenvalues --   -1.13433  -1.13301  -1.13286  -1.13251  -1.13029
  Beta  occ. eigenvalues --   -1.13018  -1.12986  -1.12673  -1.12658  -1.12623
  Beta  occ. eigenvalues --   -0.17054  -0.12351  -0.11856
  Beta virt. eigenvalues --   -0.07914  -0.05747  -0.04664  -0.04323  -0.03136
  Beta virt. eigenvalues --   -0.02831  -0.02396  -0.01154  -0.00932  -0.00234
  Beta virt. eigenvalues --   -0.00064   0.00031   0.00501   0.00618   0.00772

 Mulliken charges and spin densities:
               1          2
     1  Na  -0.118170   0.452442
     2  Na   0.104809  -0.065607
     3  Na   0.188334   0.521795
     4  Na  -0.187704  -0.009320
     5  Na   0.156928   0.077590
     6  Na  -0.209823  -0.092920
     7  Na   0.065626   0.116020
 Sum of Mulliken charges =  -0.00000   1.00000

 Dipole moment (field-independent basis, Debye):
    X=              0.1192    Y=              0.3988    Z=              0.1678  Tot=              0.4488
 Quadrupole moment (field-independent basis, Debye-Ang):
   XX=            -63.1054   YY=            -67.9328   ZZ=            -66.3542
   XY=             -0.5210   XZ=              2.6622   YZ=             -0.3797

 Normal termination of Gaussian 16 at Sun Dec  3 23:00:33 2023.
