 Gaussian 16, Revision B.01,
 Gaussian 16:  ES64L-G16RevB.01 20-Dec-2017

 -------------------------
 #P B3LYP/6-311+g(d) force
 -------------------------

 -----
 DPGEN
 -----
 Symbolic Z-matrix:
 Charge =  0 Multiplicity = 2

                         Standard orientation:
 ---------------------------------------------------------------------
 Center     Atomic      Atomic             Coordinates (Angstroms)
 Number     Number       Type             X           Y           Z
 ---------------------------------------------------------------------
      1         11           0       -1.404746   -1.395372   -1.026807
      2         11           0        1.784422    2.173607   -1.520864
      3         11           0       -4.504095    0.130388    0.135735
      4         11           0       -1.180461    1.460789   -0.100264
      5         11           0        0.252963   -1.732231    1.398398
      6         11           0        2.060002    1.268909    2.062082
      7         11           0        2.991915   -1.906090   -0.948279
 ---------------------------------------------------------------------

 SCF Done:  E(UB3LYP) =  -1136.11513487     A.U. after   22 cycles

 The electronic state is 2-A.
 Alpha  occ. eigenvalues --  -38.45605 -38.44717 -38.44524 -38.44073 -38.43603
 Alpha  occ. eigenvalues --  -38.43213 -38.43180  -2.21354  -2.20477  -2.20424
 Alpha  occ. eigenvalues --   -2.19883  -2.19499  -2.19102  -2.18988  -1.15035
 Alpha  occ. eigenvalues --   -1.15024  -1.14976  -1.14200  -1.14143  -1.14123
 Alpha  occ. eigenvalues --   -1.14122  -1.14094  -1.13976  -1.13551  -1.13533
 Alpha  occ. eigenvalues --   -1.13491  -1.13246  -1.13175  -1.13070  -1.12819
 Alpha  occ. eigenvalues --   -1.12741  -1.12708  -1.12662  -1.12633  -1.12614
 Alpha  occ. eigenvalues --   -0.17708  -0.13430  -0.11462  -0.10789
 Alpha virt. eigenvalues --   -0.07278  -0.04918  -0.04267  -0.03229  -0.03115
 Alpha virt. eigenvalues --   -0.02710  -0.02293  -0.01376  -0.00686  -0.00085
 Alpha virt. eigenvalues --   -0.00063   0.00142   0.00246   0.00681   0.00737

  Beta  occ. eigenvalues --  -38.45621 -38.44664 -38.44521 -38.44008 -38.43592
  Beta  occ. eigenvalues --  -38.43190 -38.43145  -2.21385  -2.20417  -2.20378
  Beta  occ. eigenvalues --   -2.19764  -2.19482  -2.19062  -2.18925  -1.15055
  Beta  occ. eigenvalues --   -1.15045  -1.14995  -1.14196  -1.14112  -1.14070
  Beta  occ. eigenvalues --   -1.14052  -1.14031  -1.13972  -1.13462  -1.13453
  Beta  occ. eigenvalues --   -1.13406  -1.13235  -1.13137  -1.13064  -1.12795
  Beta  occ. eigenvalues --   -1.12708  -1.12664  -1.12616  -1.12589  -1.12568
  Beta  occ. eigenvalues --   -0.17174  -0.13152  -0.11304
  Beta virt. eigenvalues --   -0.07098  -0.06967  -0.04805  -0.03827  -0.02940
  Beta virt. eigenvalues --   -0.02818  -0.02350  -0.01470  -0.01268  -0.00390
  Beta virt. eigenvalues --   -0.00037  -0.00003   0.00182   0.00411   0.00730

 Mulliken charges and spin densities:
               1          2
     1  Na   0.210092   0.129580
     2  Na   0.100145   0.221469
     3  Na   0.319089  -0.149964
     4  Na  -0.715018   0.209882
     5  Na   0.154429   0.248586
     6  Na   0.059386   0.015389
     7  Na  -0.128123   0.325058
 Sum of Mulliken charges =  -0.00000   1.00000

 Dipole moment (field-independent basis, Debye):
    X=             -1.3696    Y=             -0.2836    Z=              0.1794  Tot=              1.4101
 Quadrupole moment (field-independent basis, Debye-Ang):
   XX=            -44.6575   YY=            -76.6302   ZZ=            -69.8588
   XY=              0.0501   XZ=             -1.4687   YZ=              1.9022

 Normal termination of Gaussian 16 at Sat Dec  9 05:54:34 2023.
