 Gaussian 16, Revision B.01,
 Gaussian 16:  ES64L-G16RevB.01 20-Dec-2017

 -------------------------
 #P B3LYP/6-311+g(d) force
 -------------------------

 -----
 DPGEN
 -----
 Symbolic Z-matrix:
 Charge =  0 Multiplicity = 2

                         Standard orientation:
 ---------------------------------------------------------------------
 Center     Atomic      Atomic             Coordinates (Angstroms)
 Number     Number       Type             X           Y           Z
 ---------------------------------------------------------------------
      1         11           0       -0.903100   -0.606149   -0.931624
      2         11           0       -3.860381   -1.542953    0.217841
      3         11           0       -0.492275   -0.043424    1.869587
      4         11           0        2.585307   -1.053961    1.440889
      5         11           0        2.023656   -2.072777   -1.821970
      6         11           0       -1.152189    3.108949   -0.771072
      7         11           0        1.798982    2.210316   -0.003652
 ---------------------------------------------------------------------

 SCF Done:  E(UB3LYP) =  -1136.12273375     A.U. after   19 cycles

 The electronic state is 2-A.
 Alpha  occ. eigenvalues --  -38.44622 -38.44180 -38.44049 -38.43831 -38.43719
 Alpha  occ. eigenvalues --  -38.43553 -38.43395  -2.20535  -2.19950  -2.19876
 Alpha  occ. eigenvalues --   -2.19668  -2.19575  -2.19371  -2.19346  -1.14316
 Alpha  occ. eigenvalues --   -1.14159  -1.14111  -1.13628  -1.13613  -1.13582
 Alpha  occ. eigenvalues --   -1.13542  -1.13514  -1.13491  -1.13351  -1.13341
 Alpha  occ. eigenvalues --   -1.13318  -1.13257  -1.13227  -1.13196  -1.13102
 Alpha  occ. eigenvalues --   -1.13035  -1.13014  -1.13006  -1.12960  -1.12939
 Alpha  occ. eigenvalues --   -0.18047  -0.12781  -0.12218  -0.11366
 Alpha virt. eigenvalues --   -0.06124  -0.05139  -0.04313  -0.03407  -0.03009
 Alpha virt. eigenvalues --   -0.02371  -0.02062  -0.01198  -0.00611  -0.00213
 Alpha virt. eigenvalues --    0.00165   0.00223   0.00402   0.00688   0.00747

  Beta  occ. eigenvalues --  -38.44556 -38.44184 -38.43975 -38.43828 -38.43691
  Beta  occ. eigenvalues --  -38.43542 -38.43368  -2.20416  -2.19958  -2.19739
  Beta  occ. eigenvalues --   -2.19664  -2.19528  -2.19350  -2.19300  -1.14239
  Beta  occ. eigenvalues --   -1.14069  -1.14018  -1.13632  -1.13618  -1.13585
  Beta  occ. eigenvalues --   -1.13441  -1.13421  -1.13406  -1.13348  -1.13328
  Beta  occ. eigenvalues --   -1.13309  -1.13215  -1.13197  -1.13148  -1.13055
  Beta  occ. eigenvalues --   -1.13016  -1.12999  -1.12995  -1.12928  -1.12898
  Beta  occ. eigenvalues --   -0.17338  -0.12584  -0.11924
  Beta virt. eigenvalues --   -0.07467  -0.06018  -0.04967  -0.03731  -0.03181
  Beta virt. eigenvalues --   -0.02370  -0.01972  -0.01709  -0.01118  -0.00246
  Beta virt. eigenvalues --   -0.00198   0.00243   0.00335   0.00537   0.00757

 Mulliken charges and spin densities:
               1          2
     1  Na  -0.842511   0.251558
     2  Na   0.232719  -0.020744
     3  Na   0.120061   0.463453
     4  Na   0.236690   0.072681
     5  Na   0.208120   0.257665
     6  Na   0.005562  -0.093726
     7  Na   0.039360   0.069112
 Sum of Mulliken charges =  -0.00000   1.00000

 Dipole moment (field-independent basis, Debye):
    X=             -0.2320    Y=              0.0243    Z=              0.2212  Tot=              0.3215
 Quadrupole moment (field-independent basis, Debye-Ang):
   XX=            -54.8917   YY=            -69.0934   ZZ=            -69.0132
   XY=             -0.5103   XZ=              0.0882   YZ=              0.0067

 Normal termination of Gaussian 16 at Tue Dec  5 19:25:58 2023.
