 Gaussian 16, Revision B.01,
 Gaussian 16:  ES64L-G16RevB.01 20-Dec-2017

 -------------------------
 #P B3LYP/6-311+g(d) force
 -------------------------

 -----
 DPGEN
 -----
 Symbolic Z-matrix:
 Charge =  0 Multiplicity = 2

                         Standard orientation:
 ---------------------------------------------------------------------
 Center     Atomic      Atomic             Coordinates (Angstroms)
 Number     Number       Type             X           Y           Z
 ---------------------------------------------------------------------
      1         11           0       -3.467387    0.557908   -0.792798
      2         11           0       -0.985692    4.070856    0.026481
      3         11           0       -3.958761   -2.366761    0.283586
      4         11           0        2.605502   -1.372689    0.284580
      5         11           0        0.345335    1.266997    0.828747
      6         11           0        5.489341   -0.062426   -0.479500
      7         11           0       -0.028337   -2.093885   -0.151095
 ---------------------------------------------------------------------

 SCF Done:  E(UB3LYP) =  -1136.11435753     A.U. after   19 cycles

 The electronic state is 2-A.
 Alpha  occ. eigenvalues --  -38.45146 -38.44804 -38.44527 -38.43908 -38.43817
 Alpha  occ. eigenvalues --  -38.43633 -38.43378  -2.20967  -2.20592  -2.20432
 Alpha  occ. eigenvalues --   -2.19713  -2.19661  -2.19569  -2.19167  -1.14596
 Alpha  occ. eigenvalues --   -1.14586  -1.14582  -1.14282  -1.14258  -1.14210
 Alpha  occ. eigenvalues --   -1.14195  -1.14070  -1.14066  -1.13381  -1.13369
 Alpha  occ. eigenvalues --   -1.13350  -1.13346  -1.13344  -1.13293  -1.13257
 Alpha  occ. eigenvalues --   -1.13199  -1.13187  -1.12831  -1.12828  -1.12801
 Alpha  occ. eigenvalues --   -0.16899  -0.14151  -0.12142  -0.11678
 Alpha virt. eigenvalues --   -0.05678  -0.05555  -0.04771  -0.03912  -0.02680
 Alpha virt. eigenvalues --   -0.02208  -0.01915  -0.01564  -0.01260  -0.00881
 Alpha virt. eigenvalues --   -0.00781  -0.00058   0.00383   0.00533   0.00683

  Beta  occ. eigenvalues --  -38.45014 -38.44782 -38.44474 -38.43897 -38.43806
  Beta  occ. eigenvalues --  -38.43618 -38.43378  -2.20722  -2.20551  -2.20337
  Beta  occ. eigenvalues --   -2.19693  -2.19641  -2.19556  -2.19167  -1.14432
  Beta  occ. eigenvalues --   -1.14420  -1.14417  -1.14253  -1.14233  -1.14175
  Beta  occ. eigenvalues --   -1.14120  -1.14005  -1.14001  -1.13361  -1.13353
  Beta  occ. eigenvalues --   -1.13339  -1.13335  -1.13331  -1.13276  -1.13214
  Beta  occ. eigenvalues --   -1.13194  -1.13140  -1.12830  -1.12828  -1.12801
  Beta  occ. eigenvalues --   -0.16294  -0.13263  -0.12076
  Beta virt. eigenvalues --   -0.07924  -0.05574  -0.05364  -0.04251  -0.03621
  Beta virt. eigenvalues --   -0.02402  -0.01888  -0.01619  -0.01328  -0.00888
  Beta virt. eigenvalues --   -0.00627  -0.00257   0.00061   0.00536   0.00575

 Mulliken charges and spin densities:
               1          2
     1  Na  -0.151409   0.175744
     2  Na   0.485928  -0.006190
     3  Na   0.536362   0.093548
     4  Na  -0.297501   0.250390
     5  Na  -0.735005  -0.015093
     6  Na   0.673853   0.490022
     7  Na  -0.512229   0.011580
 Sum of Mulliken charges =  -0.00000   1.00000

 Dipole moment (field-independent basis, Debye):
    X=             -0.0501    Y=             -0.2379    Z=             -0.2960  Tot=              0.3831
 Quadrupole moment (field-independent basis, Debye-Ang):
   XX=            -61.4768   YY=            -63.7649   ZZ=            -71.1262
   XY=              2.1946   XZ=             -0.4853   YZ=             -3.1392

 Normal termination of Gaussian 16 at Mon Dec  4 01:19:51 2023.
