 Gaussian 16, Revision B.01,
 Gaussian 16:  ES64L-G16RevB.01 20-Dec-2017

 -------------------------
 #P B3LYP/6-311+g(d) force
 -------------------------

 -----
 DPGEN
 -----
 Symbolic Z-matrix:
 Charge =  0 Multiplicity = 2

                         Standard orientation:
 ---------------------------------------------------------------------
 Center     Atomic      Atomic             Coordinates (Angstroms)
 Number     Number       Type             X           Y           Z
 ---------------------------------------------------------------------
      1         11           0        1.718439   -1.994039    1.121433
      2         11           0        4.814553   -1.787790   -0.272005
      3         11           0        2.943901    0.777543   -1.109301
      4         11           0        1.486520    3.695860    0.536087
      5         11           0       -0.173557    0.465605    0.180977
      6         11           0       -3.989220   -1.258327   -0.436271
      7         11           0       -6.800635    0.101148   -0.020920
 ---------------------------------------------------------------------

 SCF Done:  E(UB3LYP) =  -1136.11579784     A.U. after   20 cycles

 The electronic state is 2-A.
 Alpha  occ. eigenvalues --  -38.44592 -38.44516 -38.44272 -38.44076 -38.43986
 Alpha  occ. eigenvalues --  -38.43972 -38.43686  -2.20439  -2.20381  -2.20061
 Alpha  occ. eigenvalues --   -2.19856  -2.19838  -2.19760  -2.19520  -1.14131
 Alpha  occ. eigenvalues --   -1.14105  -1.14090  -1.14062  -1.14041  -1.13974
 Alpha  occ. eigenvalues --   -1.13727  -1.13710  -1.13709  -1.13528  -1.13523
 Alpha  occ. eigenvalues --   -1.13519  -1.13518  -1.13475  -1.13431  -1.13426
 Alpha  occ. eigenvalues --   -1.13417  -1.13393  -1.13188  -1.13173  -1.13147
 Alpha  occ. eigenvalues --   -0.17002  -0.13383  -0.12237  -0.11351
 Alpha virt. eigenvalues --   -0.06362  -0.05677  -0.04201  -0.03688  -0.02953
 Alpha virt. eigenvalues --   -0.02314  -0.02073  -0.01933  -0.01292  -0.00768
 Alpha virt. eigenvalues --   -0.00499  -0.00191   0.00317   0.00396   0.00605

  Beta  occ. eigenvalues --  -38.44544 -38.44480 -38.44238 -38.44050 -38.43996
  Beta  occ. eigenvalues --  -38.43923 -38.43660  -2.20354  -2.20317  -2.19999
  Beta  occ. eigenvalues --   -2.19809  -2.19782  -2.19752  -2.19471  -1.14069
  Beta  occ. eigenvalues --   -1.14049  -1.14037  -1.14014  -1.13970  -1.13921
  Beta  occ. eigenvalues --   -1.13690  -1.13667  -1.13666  -1.13491  -1.13484
  Beta  occ. eigenvalues --   -1.13473  -1.13458  -1.13449  -1.13443  -1.13442
  Beta  occ. eigenvalues --   -1.13385  -1.13335  -1.13142  -1.13140  -1.13121
  Beta  occ. eigenvalues --   -0.16262  -0.13035  -0.11996
  Beta virt. eigenvalues --   -0.07753  -0.05942  -0.05414  -0.03896  -0.03409
  Beta virt. eigenvalues --   -0.02472  -0.02103  -0.01960  -0.01648  -0.00886
  Beta virt. eigenvalues --   -0.00634  -0.00245  -0.00081   0.00405   0.00531

 Mulliken charges and spin densities:
               1          2
     1  Na   0.436479   0.166934
     2  Na   0.167419   0.126511
     3  Na   0.108665   0.330456
     4  Na   0.609465   0.148482
     5  Na  -1.213917   0.144442
     6  Na  -0.407083  -0.050435
     7  Na   0.298973   0.133611
 Sum of Mulliken charges =  -0.00000   1.00000

 Dipole moment (field-independent basis, Debye):
    X=              0.6063    Y=              0.3411    Z=              0.4603  Tot=              0.8342
 Quadrupole moment (field-independent basis, Debye-Ang):
   XX=            -59.9755   YY=            -64.6263   ZZ=            -69.9039
   XY=             -5.0580   XZ=             -1.1575   YZ=              1.1581

 Normal termination of Gaussian 16 at Wed Nov 29 03:16:52 2023.
