 Gaussian 16, Revision B.01,
 Gaussian 16:  ES64L-G16RevB.01 20-Dec-2017

 -------------------------
 #P B3LYP/6-311+g(d) force
 -------------------------

 -----
 DPGEN
 -----
 Symbolic Z-matrix:
 Charge =  0 Multiplicity = 2

                         Standard orientation:
 ---------------------------------------------------------------------
 Center     Atomic      Atomic             Coordinates (Angstroms)
 Number     Number       Type             X           Y           Z
 ---------------------------------------------------------------------
      1         11           0       -2.208149   -1.404011    1.915659
      2         11           0       -5.075145   -1.652487   -1.078784
      3         11           0       -3.451109    1.222979   -0.339914
      4         11           0       -0.610322    2.857451    0.092134
      5         11           0        0.961620    0.147175    0.445859
      6         11           0        4.014432   -0.762282   -1.614438
      7         11           0        6.368673   -0.408825    0.579483
 ---------------------------------------------------------------------

 SCF Done:  E(UB3LYP) =  -1136.11095725     A.U. after   21 cycles

 The electronic state is 2-A.
 Alpha  occ. eigenvalues --  -38.45160 -38.44805 -38.44746 -38.43918 -38.43868
 Alpha  occ. eigenvalues --  -38.43697 -38.43354  -2.20921  -2.20590  -2.20528
 Alpha  occ. eigenvalues --   -2.19732  -2.19634  -2.19547  -2.19209  -1.14583
 Alpha  occ. eigenvalues --   -1.14582  -1.14569  -1.14263  -1.14237  -1.14194
 Alpha  occ. eigenvalues --   -1.14184  -1.14183  -1.14162  -1.13424  -1.13410
 Alpha  occ. eigenvalues --   -1.13361  -1.13315  -1.13304  -1.13269  -1.13235
 Alpha  occ. eigenvalues --   -1.13211  -1.13155  -1.12862  -1.12854  -1.12840
 Alpha  occ. eigenvalues --   -0.16224  -0.13940  -0.11745  -0.10839
 Alpha virt. eigenvalues --   -0.07142  -0.05393  -0.04346  -0.03389  -0.03041
 Alpha virt. eigenvalues --   -0.02648  -0.02183  -0.01503  -0.01063  -0.00942
 Alpha virt. eigenvalues --   -0.00715   0.00023   0.00209   0.00429   0.00520

  Beta  occ. eigenvalues --  -38.45155 -38.44747 -38.44719 -38.43903 -38.43866
  Beta  occ. eigenvalues --  -38.43652 -38.43315  -2.20912  -2.20530  -2.20430
  Beta  occ. eigenvalues --   -2.19705  -2.19630  -2.19466  -2.19138  -1.14578
  Beta  occ. eigenvalues --   -1.14576  -1.14564  -1.14195  -1.14185  -1.14163
  Beta  occ. eigenvalues --   -1.14153  -1.14131  -1.14063  -1.13406  -1.13385
  Beta  occ. eigenvalues --   -1.13336  -1.13308  -1.13297  -1.13265  -1.13182
  Beta  occ. eigenvalues --   -1.13157  -1.13084  -1.12810  -1.12804  -1.12791
  Beta  occ. eigenvalues --   -0.15531  -0.13802  -0.11603
  Beta virt. eigenvalues --   -0.07180  -0.06642  -0.05263  -0.03891  -0.03197
  Beta virt. eigenvalues --   -0.02810  -0.02243  -0.01603  -0.01466  -0.00887
  Beta virt. eigenvalues --   -0.00807  -0.00350   0.00204   0.00328   0.00523

 Mulliken charges and spin densities:
               1          2
     1  Na   0.353884   0.368850
     2  Na   0.390957  -0.026711
     3  Na  -0.608196   0.304227
     4  Na   0.833745   0.159590
     5  Na  -1.111714   0.196119
     6  Na  -0.038545  -0.012880
     7  Na   0.179869   0.010805
 Sum of Mulliken charges =  -0.00000   1.00000

 Dipole moment (field-independent basis, Debye):
    X=              1.7967    Y=             -0.5472    Z=              0.1135  Tot=              1.8816
 Quadrupole moment (field-independent basis, Debye-Ang):
   XX=            -58.0100   YY=            -69.9964   ZZ=            -64.9863
   XY=              4.0777   XZ=              4.9485   YZ=              3.0784

 Normal termination of Gaussian 16 at Wed Nov 29 01:35:23 2023.
