 Gaussian 16, Revision B.01,
 Gaussian 16:  ES64L-G16RevB.01 20-Dec-2017

 -------------------------
 #P B3LYP/6-311+g(d) force
 -------------------------

 -----
 DPGEN
 -----
 Symbolic Z-matrix:
 Charge =  0 Multiplicity = 2

                         Standard orientation:
 ---------------------------------------------------------------------
 Center     Atomic      Atomic             Coordinates (Angstroms)
 Number     Number       Type             X           Y           Z
 ---------------------------------------------------------------------
      1         11           0       -0.637369   -1.544865    1.160835
      2         11           0       -2.799438   -3.340415   -0.497581
      3         11           0       -3.183911    0.281206   -0.408526
      4         11           0        0.214135    1.519575   -0.859630
      5         11           0        2.631065   -0.224251    0.521606
      6         11           0       -2.187979    3.546313    0.446399
      7         11           0        5.963496   -0.237564   -0.363104
 ---------------------------------------------------------------------

 SCF Done:  E(UB3LYP) =  -1136.12457710     A.U. after   19 cycles

 The electronic state is 2-A.
 Alpha  occ. eigenvalues --  -38.44346 -38.44314 -38.44166 -38.44123 -38.44106
 Alpha  occ. eigenvalues --  -38.44096 -38.42643  -2.20183  -2.20171  -2.19986
 Alpha  occ. eigenvalues --   -2.19971  -2.19914  -2.19897  -2.18488  -1.13897
 Alpha  occ. eigenvalues --   -1.13895  -1.13865  -1.13840  -1.13787  -1.13753
 Alpha  occ. eigenvalues --   -1.13684  -1.13666  -1.13625  -1.13600  -1.13600
 Alpha  occ. eigenvalues --   -1.13583  -1.13574  -1.13563  -1.13561  -1.13559
 Alpha  occ. eigenvalues --   -1.13518  -1.13512  -1.12183  -1.12162  -1.12139
 Alpha  occ. eigenvalues --   -0.17149  -0.13526  -0.12729  -0.10862
 Alpha virt. eigenvalues --   -0.06068  -0.05820  -0.04365  -0.03706  -0.02473
 Alpha virt. eigenvalues --   -0.02409  -0.01905  -0.01563  -0.01465  -0.00614
 Alpha virt. eigenvalues --   -0.00394  -0.00002   0.00459   0.00500   0.00562

  Beta  occ. eigenvalues --  -38.44327 -38.44296 -38.44097 -38.44096 -38.44088
  Beta  occ. eigenvalues --  -38.44045 -38.42636  -2.20148  -2.20138  -2.19941
  Beta  occ. eigenvalues --   -2.19895  -2.19882  -2.19745  -2.18488  -1.13873
  Beta  occ. eigenvalues --   -1.13871  -1.13844  -1.13813  -1.13758  -1.13725
  Beta  occ. eigenvalues --   -1.13658  -1.13640  -1.13590  -1.13560  -1.13552
  Beta  occ. eigenvalues --   -1.13545  -1.13538  -1.13508  -1.13486  -1.13446
  Beta  occ. eigenvalues --   -1.13446  -1.13435  -1.12191  -1.12171  -1.12068
  Beta  occ. eigenvalues --   -0.16705  -0.12773  -0.12434
  Beta virt. eigenvalues --   -0.07292  -0.05859  -0.05701  -0.03778  -0.03531
  Beta virt. eigenvalues --   -0.02298  -0.02266  -0.01761  -0.01029  -0.01009
  Beta virt. eigenvalues --   -0.00270  -0.00161   0.00167   0.00547   0.00576

 Mulliken charges and spin densities:
               1          2
     1  Na  -0.185005  -0.175050
     2  Na   0.551869   0.069680
     3  Na  -0.078415   0.336247
     4  Na  -0.496192  -0.182390
     5  Na   0.092298   0.345828
     6  Na   0.345300   0.069248
     7  Na  -0.229856   0.536438
 Sum of Mulliken charges =  -0.00000   1.00000

 Dipole moment (field-independent basis, Debye):
    X=             -1.7337    Y=              0.1083    Z=             -0.1134  Tot=              1.7408
 Quadrupole moment (field-independent basis, Debye-Ang):
   XX=            -71.6030   YY=            -60.4879   ZZ=            -67.2774
   XY=              1.7410   XZ=             -0.8751   YZ=              2.6267

 Normal termination of Gaussian 16 at Wed Nov 29 00:34:57 2023.
