 Gaussian 16, Revision B.01,
 Gaussian 16:  ES64L-G16RevB.01 20-Dec-2017

 -------------------------
 #P B3LYP/6-311+g(d) force
 -------------------------

 -----
 DPGEN
 -----
 Symbolic Z-matrix:
 Charge =  0 Multiplicity = 2

                         Standard orientation:
 ---------------------------------------------------------------------
 Center     Atomic      Atomic             Coordinates (Angstroms)
 Number     Number       Type             X           Y           Z
 ---------------------------------------------------------------------
      1         11           0        2.872475   -0.185358   -0.296163
      2         11           0       -0.079986    0.177745   -1.606206
      3         11           0       -2.524322   -1.683200   -0.520253
      4         11           0        0.135174    0.053989    2.313090
      5         11           0        1.196144    2.606601   -0.306358
      6         11           0        1.038499   -2.552904    0.152279
      7         11           0       -2.637983    1.583127    0.263612
 ---------------------------------------------------------------------

 SCF Done:  E(UB3LYP) =  -1136.13398932     A.U. after   19 cycles

 The electronic state is 2-A.
 Alpha  occ. eigenvalues --  -38.44261 -38.43982 -38.43745 -38.43710 -38.43285
 Alpha  occ. eigenvalues --  -38.43160 -38.42990  -2.20118  -2.19807  -2.19677
 Alpha  occ. eigenvalues --   -2.19555  -2.19318  -2.19046  -2.18888  -1.13769
 Alpha  occ. eigenvalues --   -1.13745  -1.13737  -1.13482  -1.13477  -1.13446
 Alpha  occ. eigenvalues --   -1.13393  -1.13341  -1.13320  -1.13258  -1.13203
 Alpha  occ. eigenvalues --   -1.13180  -1.13036  -1.12974  -1.12935  -1.12714
 Alpha  occ. eigenvalues --   -1.12692  -1.12662  -1.12571  -1.12543  -1.12519
 Alpha  occ. eigenvalues --   -0.18906  -0.13239  -0.12235  -0.11341
 Alpha virt. eigenvalues --   -0.05458  -0.05117  -0.04287  -0.03449  -0.03100
 Alpha virt. eigenvalues --   -0.02947  -0.01377  -0.00984  -0.00178  -0.00078
 Alpha virt. eigenvalues --    0.00034   0.00364   0.00797   0.00904   0.00957

  Beta  occ. eigenvalues --  -38.44152 -38.43978 -38.43738 -38.43700 -38.43228
  Beta  occ. eigenvalues --  -38.43154 -38.42985  -2.19916  -2.19802  -2.19666
  Beta  occ. eigenvalues --   -2.19539  -2.19215  -2.19039  -2.18883  -1.13636
  Beta  occ. eigenvalues --   -1.13607  -1.13590  -1.13480  -1.13459  -1.13442
  Beta  occ. eigenvalues --   -1.13387  -1.13333  -1.13289  -1.13236  -1.13187
  Beta  occ. eigenvalues --   -1.13173  -1.12973  -1.12906  -1.12860  -1.12695
  Beta  occ. eigenvalues --   -1.12679  -1.12648  -1.12571  -1.12529  -1.12499
  Beta  occ. eigenvalues --   -0.18164  -0.13006  -0.11990
  Beta virt. eigenvalues --   -0.07334  -0.05398  -0.05085  -0.04266  -0.02660
  Beta virt. eigenvalues --   -0.02174  -0.01978  -0.01285  -0.00910  -0.00183
  Beta virt. eigenvalues --   -0.00068   0.00114   0.00393   0.00887   0.00912

 Mulliken charges and spin densities:
               1          2
     1  Na   0.286998   0.036196
     2  Na  -0.321298   0.117509
     3  Na   0.178162  -0.004248
     4  Na  -0.695186   0.670497
     5  Na   0.284883   0.039943
     6  Na   0.202902   0.087651
     7  Na   0.063540   0.052453
 Sum of Mulliken charges =  -0.00000   1.00000

 Dipole moment (field-independent basis, Debye):
    X=             -0.3332    Y=              0.1475    Z=              0.3582  Tot=              0.5110
 Quadrupole moment (field-independent basis, Debye-Ang):
   XX=            -58.4836   YY=            -65.2993   ZZ=            -71.4511
   XY=             -0.0413   XZ=             -0.4729   YZ=              0.9115

 Normal termination of Gaussian 16 at Thu Dec  7 03:50:29 2023.
