 Gaussian 16, Revision B.01,
 Gaussian 16:  ES64L-G16RevB.01 20-Dec-2017

 -------------------------
 #P B3LYP/6-311+g(d) force
 -------------------------

 -----
 DPGEN
 -----
 Symbolic Z-matrix:
 Charge =  0 Multiplicity = 2

                         Standard orientation:
 ---------------------------------------------------------------------
 Center     Atomic      Atomic             Coordinates (Angstroms)
 Number     Number       Type             X           Y           Z
 ---------------------------------------------------------------------
      1         11           0       -2.209172    1.574119    1.033124
      2         11           0        0.638329   -0.782481   -1.586465
      3         11           0        1.617923   -0.671279    2.003584
      4         11           0        1.705289    2.336755   -0.166978
      5         11           0        4.464635   -0.619413   -0.728411
      6         11           0       -4.020988    0.105181   -1.299614
      7         11           0       -2.196015   -1.942883    0.744761
 ---------------------------------------------------------------------

 SCF Done:  E(UB3LYP) =  -1136.10769680     A.U. after   41 cycles

 The electronic state is 2-A.
 Alpha  occ. eigenvalues --  -38.45887 -38.45164 -38.44932 -38.44714 -38.43987
 Alpha  occ. eigenvalues --  -38.43629 -38.43163  -2.21644  -2.20956  -2.20690
 Alpha  occ. eigenvalues --   -2.20539  -2.19812  -2.19433  -2.18954  -1.15342
 Alpha  occ. eigenvalues --   -1.15320  -1.15256  -1.14625  -1.14591  -1.14581
 Alpha  occ. eigenvalues --   -1.14364  -1.14348  -1.14304  -1.14197  -1.14193
 Alpha  occ. eigenvalues --   -1.14163  -1.13488  -1.13481  -1.13437  -1.13129
 Alpha  occ. eigenvalues --   -1.13110  -1.13049  -1.12662  -1.12614  -1.12567
 Alpha  occ. eigenvalues --   -0.17404  -0.14353  -0.10995  -0.10174
 Alpha virt. eigenvalues --   -0.07480  -0.05669  -0.05297  -0.03238  -0.02971
 Alpha virt. eigenvalues --   -0.02331  -0.02205  -0.01697  -0.01119  -0.00626
 Alpha virt. eigenvalues --   -0.00236   0.00035   0.00151   0.00305   0.00424

  Beta  occ. eigenvalues --  -38.45883 -38.45101 -38.44901 -38.44672 -38.43959
  Beta  occ. eigenvalues --  -38.43626 -38.43159  -2.21639  -2.20841  -2.20631
  Beta  occ. eigenvalues --   -2.20459  -2.19762  -2.19432  -2.18947  -1.15322
  Beta  occ. eigenvalues --   -1.15318  -1.15251  -1.14544  -1.14504  -1.14498
  Beta  occ. eigenvalues --   -1.14322  -1.14306  -1.14266  -1.14143  -1.14136
  Beta  occ. eigenvalues --   -1.14112  -1.13456  -1.13451  -1.13378  -1.13115
  Beta  occ. eigenvalues --   -1.13110  -1.13044  -1.12657  -1.12609  -1.12557
  Beta  occ. eigenvalues --   -0.16807  -0.13978  -0.10059
  Beta virt. eigenvalues --   -0.07402  -0.07243  -0.05229  -0.04944  -0.03053
  Beta virt. eigenvalues --   -0.02698  -0.01831  -0.01713  -0.01350  -0.00859
  Beta virt. eigenvalues --   -0.00516  -0.00122   0.00134   0.00223   0.00414

 Mulliken charges and spin densities:
               1          2
     1  Na  -0.400251   0.064786
     2  Na  -0.208466   0.000300
     3  Na  -0.057099   0.318958
     4  Na  -0.107505   0.042846
     5  Na   0.284742   0.166406
     6  Na   0.393175   0.197607
     7  Na   0.095404   0.209096
 Sum of Mulliken charges =  -0.00000   1.00000

 Dipole moment (field-independent basis, Debye):
    X=              0.2635    Y=             -0.3837    Z=             -0.1026  Tot=              0.4767
 Quadrupole moment (field-independent basis, Debye-Ang):
   XX=            -52.3742   YY=            -81.3975   ZZ=            -65.0356
   XY=              0.6443   XZ=              4.6982   YZ=             -5.3013

 Normal termination of Gaussian 16 at Fri Dec  8 05:14:16 2023.
