 Gaussian 16, Revision B.01,
 Gaussian 16:  ES64L-G16RevB.01 20-Dec-2017

 -------------------------
 #P B3LYP/6-311+g(d) force
 -------------------------

 -----
 DPGEN
 -----
 Symbolic Z-matrix:
 Charge =  0 Multiplicity = 2

                         Standard orientation:
 ---------------------------------------------------------------------
 Center     Atomic      Atomic             Coordinates (Angstroms)
 Number     Number       Type             X           Y           Z
 ---------------------------------------------------------------------
      1         11           0       -0.322334    0.290868    2.053027
      2         11           0       -0.702552    2.941628   -0.527093
      3         11           0       -0.999007   -2.545037   -0.739793
      4         11           0        2.482728    1.513385   -0.091519
      5         11           0        2.520896   -1.840430    0.564964
      6         11           0       -3.213642   -0.169513    0.391576
      7         11           0        0.233910   -0.190902   -1.651162
 ---------------------------------------------------------------------

 SCF Done:  E(UB3LYP) =  -1136.13342148     A.U. after   19 cycles

 The electronic state is 2-A.
 Alpha  occ. eigenvalues --  -38.43996 -38.43983 -38.43656 -38.43653 -38.43490
 Alpha  occ. eigenvalues --  -38.43489 -38.43456  -2.19855  -2.19813  -2.19525
 Alpha  occ. eigenvalues --   -2.19483  -2.19478  -2.19384  -2.19313  -1.13544
 Alpha  occ. eigenvalues --   -1.13511  -1.13483  -1.13467  -1.13460  -1.13439
 Alpha  occ. eigenvalues --   -1.13414  -1.13253  -1.13196  -1.13171  -1.13148
 Alpha  occ. eigenvalues --   -1.13129  -1.13112  -1.13108  -1.13066  -1.13003
 Alpha  occ. eigenvalues --   -1.12990  -1.12969  -1.12965  -1.12943  -1.12937
 Alpha  occ. eigenvalues --   -0.18587  -0.12950  -0.12394  -0.11135
 Alpha virt. eigenvalues --   -0.05484  -0.05020  -0.04583  -0.03380  -0.03137
 Alpha virt. eigenvalues --   -0.02701  -0.01452  -0.01120  -0.00323  -0.00086
 Alpha virt. eigenvalues --    0.00047   0.00358   0.00807   0.00855   0.00904

  Beta  occ. eigenvalues --  -38.43990 -38.43901 -38.43649 -38.43645 -38.43479
  Beta  occ. eigenvalues --  -38.43468 -38.43389  -2.19804  -2.19704  -2.19520
  Beta  occ. eigenvalues --   -2.19462  -2.19374  -2.19330  -2.19296  -1.13496
  Beta  occ. eigenvalues --   -1.13456  -1.13451  -1.13417  -1.13381  -1.13353
  Beta  occ. eigenvalues --   -1.13345  -1.13238  -1.13176  -1.13162  -1.13126
  Beta  occ. eigenvalues --   -1.13110  -1.13093  -1.13039  -1.13002  -1.12968
  Beta  occ. eigenvalues --   -1.12960  -1.12954  -1.12936  -1.12927  -1.12877
  Beta  occ. eigenvalues --   -0.17882  -0.12680  -0.12115
  Beta virt. eigenvalues --   -0.07277  -0.05389  -0.04962  -0.04509  -0.02642
  Beta virt. eigenvalues --   -0.02402  -0.01726  -0.01319  -0.01042  -0.00284
  Beta virt. eigenvalues --   -0.00102   0.00127   0.00391   0.00862   0.00868

 Mulliken charges and spin densities:
               1          2
     1  Na  -0.357450   0.644005
     2  Na  -0.020560  -0.044288
     3  Na   0.237976   0.026132
     4  Na   0.133414  -0.025925
     5  Na  -0.065355   0.123173
     6  Na   0.001720  -0.010533
     7  Na   0.070254   0.287435
 Sum of Mulliken charges =  -0.00000   1.00000

 Dipole moment (field-independent basis, Debye):
    X=             -0.1002    Y=              0.1497    Z=              0.3586  Tot=              0.4013
 Quadrupole moment (field-independent basis, Debye-Ang):
   XX=            -58.1354   YY=            -63.6114   ZZ=            -72.4654
   XY=             -0.8930   XZ=              1.2351   YZ=             -1.3938

 Normal termination of Gaussian 16 at Thu Dec  7 05:01:47 2023.
