 Gaussian 16, Revision B.01,
 Gaussian 16:  ES64L-G16RevB.01 20-Dec-2017

 -------------------------
 #P B3LYP/6-311+g(d) force
 -------------------------

 -----
 DPGEN
 -----
 Symbolic Z-matrix:
 Charge =  0 Multiplicity = 2

                         Standard orientation:
 ---------------------------------------------------------------------
 Center     Atomic      Atomic             Coordinates (Angstroms)
 Number     Number       Type             X           Y           Z
 ---------------------------------------------------------------------
      1         11           0       -0.156729   -0.446399    1.933933
      2         11           0       -0.098161    0.177078   -1.724478
      3         11           0       -2.825796    1.242924    0.216117
      4         11           0       -1.885094   -2.262032   -0.240352
      5         11           0        2.949355    0.601457    0.286452
      6         11           0        1.614778   -2.352840   -0.300015
      7         11           0        0.401647    3.039812   -0.171657
 ---------------------------------------------------------------------

 SCF Done:  E(UB3LYP) =  -1136.14077854     A.U. after   18 cycles

 The electronic state is 2-A.
 Alpha  occ. eigenvalues --  -38.43863 -38.43599 -38.43584 -38.43559 -38.43458
 Alpha  occ. eigenvalues --  -38.43385 -38.43153  -2.19686  -2.19435  -2.19431
 Alpha  occ. eigenvalues --   -2.19425  -2.19379  -2.19278  -2.19126  -1.13363
 Alpha  occ. eigenvalues --   -1.13355  -1.13319  -1.13144  -1.13129  -1.13119
 Alpha  occ. eigenvalues --   -1.13115  -1.13106  -1.13092  -1.13073  -1.13062
 Alpha  occ. eigenvalues --   -1.13042  -1.13040  -1.13010  -1.12987  -1.12961
 Alpha  occ. eigenvalues --   -1.12926  -1.12899  -1.12799  -1.12750  -1.12745
 Alpha  occ. eigenvalues --   -0.18794  -0.12852  -0.12702  -0.10778
 Alpha virt. eigenvalues --   -0.05423  -0.05066  -0.04896  -0.03123  -0.03011
 Alpha virt. eigenvalues --   -0.02518  -0.01308  -0.01188  -0.00380  -0.00244
 Alpha virt. eigenvalues --    0.00004   0.00374   0.00860   0.00893   0.00912

  Beta  occ. eigenvalues --  -38.43858 -38.43597 -38.43579 -38.43551 -38.43376
  Beta  occ. eigenvalues --  -38.43374 -38.43081  -2.19680  -2.19425  -2.19424
  Beta  occ. eigenvalues --   -2.19421  -2.19265  -2.19224  -2.18995  -1.13353
  Beta  occ. eigenvalues --   -1.13339  -1.13316  -1.13128  -1.13121  -1.13116
  Beta  occ. eigenvalues --   -1.13092  -1.13078  -1.13068  -1.13068  -1.13052
  Beta  occ. eigenvalues --   -1.13042  -1.12966  -1.12933  -1.12918  -1.12891
  Beta  occ. eigenvalues --   -1.12887  -1.12865  -1.12712  -1.12656  -1.12650
  Beta  occ. eigenvalues --   -0.18055  -0.12612  -0.12458
  Beta virt. eigenvalues --   -0.06862  -0.05425  -0.05040  -0.04828  -0.02332
  Beta virt. eigenvalues --   -0.02250  -0.01470  -0.01224  -0.01105  -0.00414
  Beta virt. eigenvalues --   -0.00305   0.00135   0.00395   0.00867   0.00903

 Mulliken charges and spin densities:
               1          2
     1  Na  -0.404356   0.736714
     2  Na  -0.174385   0.552899
     3  Na   0.021193  -0.094691
     4  Na   0.280433  -0.071195
     5  Na   0.005901  -0.024511
     6  Na   0.248410  -0.005665
     7  Na   0.022805  -0.093551
 Sum of Mulliken charges =  -0.00000   1.00000

 Dipole moment (field-independent basis, Debye):
    X=             -0.1999    Y=              0.0799    Z=              0.1150  Tot=              0.2441
 Quadrupole moment (field-independent basis, Debye-Ang):
   XX=            -58.8259   YY=            -60.6138   ZZ=            -74.0455
   XY=              0.0489   XZ=              0.1844   YZ=              1.4580

 Normal termination of Gaussian 16 at Thu Dec  7 17:14:14 2023.
