 Gaussian 16, Revision B.01,
 Gaussian 16:  ES64L-G16RevB.01 20-Dec-2017

 -------------------------
 #P B3LYP/6-311+g(d) force
 -------------------------

 -----
 DPGEN
 -----
 Symbolic Z-matrix:
 Charge =  0 Multiplicity = 2

                         Standard orientation:
 ---------------------------------------------------------------------
 Center     Atomic      Atomic             Coordinates (Angstroms)
 Number     Number       Type             X           Y           Z
 ---------------------------------------------------------------------
      1         11           0        3.419711    0.444343    0.164678
      2         11           0       -3.258541    1.236699   -0.126328
      3         11           0        0.727897    3.052030   -0.356651
      4         11           0       -0.423093   -0.294176   -1.648388
      5         11           0       -2.169880   -2.170949    0.240758
      6         11           0       -0.135191    0.190166    2.058641
      7         11           0        1.839097   -2.458113   -0.332711
 ---------------------------------------------------------------------

 SCF Done:  E(UB3LYP) =  -1136.13071869     A.U. after   21 cycles

 The electronic state is 2-A.
 Alpha  occ. eigenvalues --  -38.44890 -38.44587 -38.43941 -38.43729 -38.43560
 Alpha  occ. eigenvalues --  -38.43418 -38.43401  -2.20666  -2.20368  -2.19785
 Alpha  occ. eigenvalues --   -2.19572  -2.19331  -2.19324  -2.19242  -1.14342
 Alpha  occ. eigenvalues --   -1.14315  -1.14311  -1.14044  -1.14034  -1.14006
 Alpha  occ. eigenvalues --   -1.13492  -1.13451  -1.13406  -1.13244  -1.13200
 Alpha  occ. eigenvalues --   -1.13187  -1.13016  -1.13012  -1.12994  -1.12970
 Alpha  occ. eigenvalues --   -1.12966  -1.12956  -1.12902  -1.12900  -1.12874
 Alpha  occ. eigenvalues --   -0.17986  -0.13187  -0.11909  -0.10448
 Alpha virt. eigenvalues --   -0.06406  -0.05487  -0.04565  -0.03247  -0.02686
 Alpha virt. eigenvalues --   -0.02415  -0.02012  -0.01305  -0.00797  -0.00507
 Alpha virt. eigenvalues --   -0.00058   0.00309   0.00685   0.00742   0.00766

  Beta  occ. eigenvalues --  -38.44887 -38.44589 -38.43932 -38.43634 -38.43557
  Beta  occ. eigenvalues --  -38.43414 -38.43341  -2.20662  -2.20373  -2.19772
  Beta  occ. eigenvalues --   -2.19399  -2.19326  -2.19236  -2.19215  -1.14323
  Beta  occ. eigenvalues --   -1.14313  -1.14309  -1.14041  -1.14033  -1.14011
  Beta  occ. eigenvalues --   -1.13481  -1.13415  -1.13400  -1.13128  -1.13079
  Beta  occ. eigenvalues --   -1.13061  -1.13001  -1.12987  -1.12965  -1.12949
  Beta  occ. eigenvalues --   -1.12918  -1.12890  -1.12882  -1.12877  -1.12840
  Beta  occ. eigenvalues --   -0.17274  -0.13029  -0.11691
  Beta virt. eigenvalues --   -0.06577  -0.06343  -0.05448  -0.04487  -0.02541
  Beta virt. eigenvalues --   -0.01997  -0.01906  -0.01403  -0.01233  -0.00808
  Beta virt. eigenvalues --   -0.00541   0.00104   0.00349   0.00747   0.00786

 Mulliken charges and spin densities:
               1          2
     1  Na  -0.004940  -0.032972
     2  Na   0.071747  -0.088565
     3  Na  -0.159293  -0.102848
     4  Na   0.090887   0.561116
     5  Na   0.196452   0.011473
     6  Na  -0.283723   0.708879
     7  Na   0.088870  -0.057083
 Sum of Mulliken charges =  -0.00000   1.00000

 Dipole moment (field-independent basis, Debye):
    X=             -0.4127    Y=              0.1151    Z=              0.1291  Tot=              0.4475
 Quadrupole moment (field-independent basis, Debye-Ang):
   XX=            -51.5421   YY=            -64.8490   ZZ=            -76.3085
   XY=             -0.4188   XZ=             -0.1157   YZ=             -0.9876

 Normal termination of Gaussian 16 at Thu Dec  7 21:32:36 2023.
