 Gaussian 16, Revision B.01,
 Gaussian 16:  ES64L-G16RevB.01 20-Dec-2017

 -------------------------
 #P B3LYP/6-311+g(d) force
 -------------------------

 -----
 DPGEN
 -----
 Symbolic Z-matrix:
 Charge =  0 Multiplicity = 2

                         Standard orientation:
 ---------------------------------------------------------------------
 Center     Atomic      Atomic             Coordinates (Angstroms)
 Number     Number       Type             X           Y           Z
 ---------------------------------------------------------------------
      1         11           0        0.328901   -2.522290    0.171301
      2         11           0        1.589869    2.454106   -0.603482
      3         11           0        3.339925   -0.852245   -0.007537
      4         11           0       -0.245375    0.162920    2.304308
      5         11           0       -0.054375   -0.020190   -1.498527
      6         11           0       -2.996542   -1.295130   -0.670960
      7         11           0       -1.962402    2.072827    0.304898
 ---------------------------------------------------------------------

 SCF Done:  E(UB3LYP) =  -1136.13275156     A.U. after   19 cycles

 The electronic state is 2-A.
 Alpha  occ. eigenvalues --  -38.44289 -38.44213 -38.43899 -38.43497 -38.43410
 Alpha  occ. eigenvalues --  -38.43270 -38.43072  -2.20085  -2.20074  -2.19727
 Alpha  occ. eigenvalues --   -2.19365  -2.19304  -2.19250  -2.18971  -1.13749
 Alpha  occ. eigenvalues --   -1.13740  -1.13730  -1.13720  -1.13716  -1.13697
 Alpha  occ. eigenvalues --   -1.13412  -1.13369  -1.13365  -1.13085  -1.13058
 Alpha  occ. eigenvalues --   -1.13041  -1.13021  -1.12979  -1.12921  -1.12900
 Alpha  occ. eigenvalues --   -1.12860  -1.12855  -1.12662  -1.12639  -1.12558
 Alpha  occ. eigenvalues --   -0.18601  -0.12905  -0.12255  -0.11237
 Alpha virt. eigenvalues --   -0.05816  -0.05075  -0.04170  -0.03261  -0.02977
 Alpha virt. eigenvalues --   -0.02882  -0.01790  -0.01072  -0.00266  -0.00083
 Alpha virt. eigenvalues --    0.00020   0.00304   0.00753   0.00862   0.00918

  Beta  occ. eigenvalues --  -38.44293 -38.44102 -38.43882 -38.43487 -38.43398
  Beta  occ. eigenvalues --  -38.43220 -38.43063  -2.20083  -2.19881  -2.19697
  Beta  occ. eigenvalues --   -2.19351  -2.19232  -2.19212  -2.18959  -1.13752
  Beta  occ. eigenvalues --   -1.13733  -1.13723  -1.13606  -1.13568  -1.13559
  Beta  occ. eigenvalues --   -1.13380  -1.13349  -1.13346  -1.13060  -1.13023
  Beta  occ. eigenvalues --   -1.12997  -1.12977  -1.12968  -1.12880  -1.12869
  Beta  occ. eigenvalues --   -1.12842  -1.12807  -1.12650  -1.12605  -1.12552
  Beta  occ. eigenvalues --   -0.17883  -0.12679  -0.11983
  Beta virt. eigenvalues --   -0.07262  -0.05753  -0.04989  -0.04137  -0.02523
  Beta virt. eigenvalues --   -0.02217  -0.01858  -0.01684  -0.01001  -0.00232
  Beta virt. eigenvalues --   -0.00055   0.00096   0.00338   0.00837   0.00868

 Mulliken charges and spin densities:
               1          2
     1  Na   0.250169   0.132024
     2  Na   0.189800   0.003877
     3  Na  -0.034800  -0.047637
     4  Na  -0.429307   0.556150
     5  Na  -0.455534   0.214458
     6  Na   0.248086   0.039993
     7  Na   0.231585   0.101135
 Sum of Mulliken charges =  -0.00000   1.00000

 Dipole moment (field-independent basis, Debye):
    X=              0.1030    Y=              0.0130    Z=              0.3111  Tot=              0.3280
 Quadrupole moment (field-independent basis, Debye-Ang):
   XX=            -54.0792   YY=            -67.1023   ZZ=            -72.2208
   XY=              0.2082   XZ=              0.9952   YZ=             -0.1795

 Normal termination of Gaussian 16 at Tue Dec  5 19:45:06 2023.
