 Gaussian 16, Revision B.01,
 Gaussian 16:  ES64L-G16RevB.01 20-Dec-2017

 -------------------------
 #P B3LYP/6-311+g(d) force
 -------------------------

 -----
 DPGEN
 -----
 Symbolic Z-matrix:
 Charge =  0 Multiplicity = 2

                         Standard orientation:
 ---------------------------------------------------------------------
 Center     Atomic      Atomic             Coordinates (Angstroms)
 Number     Number       Type             X           Y           Z
 ---------------------------------------------------------------------
      1         11           0       -1.893757    0.771112   -1.016401
      2         11           0       -0.105089   -1.701805    2.639892
      3         11           0       -0.620933    3.866951   -0.104807
      4         11           0        3.758614   -0.924509   -0.735908
      5         11           0        0.868729   -1.474166   -1.890013
      6         11           0        1.442296    1.345728    1.331774
      7         11           0       -3.449861   -1.883311   -0.224536
 ---------------------------------------------------------------------

 SCF Done:  E(UB3LYP) =  -1136.11869303     A.U. after   20 cycles

 The electronic state is 2-A.
 Alpha  occ. eigenvalues --  -38.45803 -38.44662 -38.44180 -38.44077 -38.44069
 Alpha  occ. eigenvalues --  -38.43462 -38.43120  -2.21580  -2.20470  -2.19972
 Alpha  occ. eigenvalues --   -2.19878  -2.19847  -2.19318  -2.18911  -1.15225
 Alpha  occ. eigenvalues --   -1.15204  -1.15182  -1.14151  -1.14127  -1.14099
 Alpha  occ. eigenvalues --   -1.13675  -1.13644  -1.13581  -1.13545  -1.13545
 Alpha  occ. eigenvalues --   -1.13534  -1.13510  -1.13503  -1.13487  -1.13022
 Alpha  occ. eigenvalues --   -1.12992  -1.12916  -1.12578  -1.12577  -1.12547
 Alpha  occ. eigenvalues --   -0.16971  -0.12753  -0.12114  -0.11950
 Alpha virt. eigenvalues --   -0.06191  -0.05527  -0.04516  -0.03473  -0.03139
 Alpha virt. eigenvalues --   -0.03032  -0.01925  -0.01214  -0.00713  -0.00341
 Alpha virt. eigenvalues --   -0.00134   0.00020   0.00295   0.00484   0.00702

  Beta  occ. eigenvalues --  -38.45672 -38.44625 -38.44159 -38.44076 -38.44070
  Beta  occ. eigenvalues --  -38.43444 -38.43121  -2.21339  -2.20404  -2.19935
  Beta  occ. eigenvalues --   -2.19867  -2.19862  -2.19284  -2.18913  -1.15057
  Beta  occ. eigenvalues --   -1.15043  -1.15013  -1.14104  -1.14086  -1.14047
  Beta  occ. eigenvalues --   -1.13645  -1.13608  -1.13557  -1.13554  -1.13528
  Beta  occ. eigenvalues --   -1.13524  -1.13507  -1.13505  -1.13497  -1.12996
  Beta  occ. eigenvalues --   -1.12969  -1.12895  -1.12578  -1.12575  -1.12550
  Beta  occ. eigenvalues --   -0.16278  -0.12599  -0.11838
  Beta virt. eigenvalues --   -0.07964  -0.05968  -0.05001  -0.04345  -0.02925
  Beta virt. eigenvalues --   -0.02635  -0.02485  -0.01831  -0.01160  -0.00322
  Beta virt. eigenvalues --   -0.00251   0.00039   0.00169   0.00372   0.00679

 Mulliken charges and spin densities:
               1          2
     1  Na  -0.535128   0.222252
     2  Na  -0.014770   0.513173
     3  Na   0.421587  -0.100723
     4  Na   0.239266  -0.033414
     5  Na  -0.081157   0.186522
     6  Na  -0.282643   0.302274
     7  Na   0.252846  -0.090084
 Sum of Mulliken charges =  -0.00000   1.00000

 Dipole moment (field-independent basis, Debye):
    X=              0.3887    Y=             -0.9473    Z=              0.4028  Tot=              1.1003
 Quadrupole moment (field-independent basis, Debye-Ang):
   XX=            -61.4298   YY=            -66.6084   ZZ=            -68.8414
   XY=              2.3298   XZ=              0.7702   YZ=             -2.6894

 Normal termination of Gaussian 16 at Mon Dec  4 03:17:16 2023.
