 Gaussian 16, Revision B.01,
 Gaussian 16:  ES64L-G16RevB.01 20-Dec-2017

 -------------------------
 #P B3LYP/6-311+g(d) force
 -------------------------

 -----
 DPGEN
 -----
 Symbolic Z-matrix:
 Charge =  0 Multiplicity = 2

                         Standard orientation:
 ---------------------------------------------------------------------
 Center     Atomic      Atomic             Coordinates (Angstroms)
 Number     Number       Type             X           Y           Z
 ---------------------------------------------------------------------
      1         11           0       -0.082369   -0.193298    2.290533
      2         11           0       -3.358476    0.525429   -0.070538
      3         11           0       -0.112881    2.826674    0.086828
      4         11           0        2.983013    0.963098   -0.059047
      5         11           0       -0.053527    0.289563   -1.876465
      6         11           0        2.010442   -2.032836   -0.140564
      7         11           0       -1.386202   -2.378631   -0.230747
 ---------------------------------------------------------------------

 SCF Done:  E(UB3LYP) =  -1136.13647789     A.U. after   19 cycles

 The electronic state is 2-A.
 Alpha  occ. eigenvalues --  -38.44521 -38.44213 -38.43983 -38.43712 -38.43200
 Alpha  occ. eigenvalues --  -38.43182 -38.43141  -2.20297  -2.20058  -2.19826
 Alpha  occ. eigenvalues --   -2.19638  -2.19063  -2.19037  -2.19009  -1.13972
 Alpha  occ. eigenvalues --   -1.13954  -1.13939  -1.13711  -1.13685  -1.13678
 Alpha  occ. eigenvalues --   -1.13520  -1.13487  -1.13463  -1.13323  -1.13296
 Alpha  occ. eigenvalues --   -1.13249  -1.12741  -1.12733  -1.12730  -1.12718
 Alpha  occ. eigenvalues --   -1.12704  -1.12687  -1.12673  -1.12653  -1.12624
 Alpha  occ. eigenvalues --   -0.18486  -0.12961  -0.12174  -0.11199
 Alpha virt. eigenvalues --   -0.06032  -0.04783  -0.04422  -0.03344  -0.03143
 Alpha virt. eigenvalues --   -0.02977  -0.01744  -0.00873  -0.00280  -0.00125
 Alpha virt. eigenvalues --   -0.00105   0.00364   0.00764   0.00786   0.00905

  Beta  occ. eigenvalues --  -38.44523 -38.44110 -38.43981 -38.43644 -38.43196
  Beta  occ. eigenvalues --  -38.43178 -38.43134  -2.20302  -2.19866  -2.19825
  Beta  occ. eigenvalues --   -2.19515  -2.19058  -2.19032  -2.19000  -1.13961
  Beta  occ. eigenvalues --   -1.13960  -1.13945  -1.13585  -1.13548  -1.13543
  Beta  occ. eigenvalues --   -1.13521  -1.13467  -1.13464  -1.13243  -1.13205
  Beta  occ. eigenvalues --   -1.13159  -1.12739  -1.12733  -1.12723  -1.12687
  Beta  occ. eigenvalues --   -1.12681  -1.12678  -1.12653  -1.12643  -1.12623
  Beta  occ. eigenvalues --   -0.17718  -0.12782  -0.11951
  Beta virt. eigenvalues --   -0.07227  -0.05984  -0.04815  -0.04305  -0.02575
  Beta virt. eigenvalues --   -0.02270  -0.01980  -0.01652  -0.00816  -0.00332
  Beta virt. eigenvalues --   -0.00179   0.00061   0.00383   0.00848   0.00904

 Mulliken charges and spin densities:
               1          2
     1  Na  -0.622538   0.727901
     2  Na   0.125395  -0.097154
     3  Na   0.102594  -0.069587
     4  Na   0.201078  -0.023458
     5  Na  -0.199930   0.466531
     6  Na   0.193215   0.007720
     7  Na   0.200186  -0.011953
 Sum of Mulliken charges =  -0.00000   1.00000

 Dipole moment (field-independent basis, Debye):
    X=             -0.3377    Y=              0.2230    Z=              0.1706  Tot=              0.4392
 Quadrupole moment (field-independent basis, Debye-Ang):
   XX=            -55.8409   YY=            -67.6876   ZZ=            -71.3888
   XY=             -0.2258   XZ=             -0.0314   YZ=              0.9906

 Normal termination of Gaussian 16 at Thu Dec  7 15:46:24 2023.
