 Gaussian 16, Revision B.01,
 Gaussian 16:  ES64L-G16RevB.01 20-Dec-2017

 -------------------------
 #P B3LYP/6-311+g(d) force
 -------------------------

 -----
 DPGEN
 -----
 Symbolic Z-matrix:
 Charge =  0 Multiplicity = 2

                         Standard orientation:
 ---------------------------------------------------------------------
 Center     Atomic      Atomic             Coordinates (Angstroms)
 Number     Number       Type             X           Y           Z
 ---------------------------------------------------------------------
      1         11           0        1.559671   -1.135874   -0.215556
      2         11           0        3.277055    1.117800    1.054456
      3         11           0       -2.557298   -1.635958    0.916607
      4         11           0       -2.226943    1.430150   -0.973575
      5         11           0        0.482617    3.051988    0.005572
      6         11           0        4.623574   -1.937437   -0.716455
      7         11           0       -5.158676   -0.890668   -0.071049
 ---------------------------------------------------------------------

 SCF Done:  E(UB3LYP) =  -1136.11222295     A.U. after   26 cycles

 The electronic state is 2-A.
 Alpha  occ. eigenvalues --  -38.44973 -38.44767 -38.44764 -38.44163 -38.43915
 Alpha  occ. eigenvalues --  -38.43572 -38.42949  -2.20763  -2.20617  -2.20563
 Alpha  occ. eigenvalues --   -2.20021  -2.19791  -2.19447  -2.18755  -1.14441
 Alpha  occ. eigenvalues --   -1.14425  -1.14391  -1.14349  -1.14276  -1.14264
 Alpha  occ. eigenvalues --   -1.14256  -1.14229  -1.14174  -1.13756  -1.13680
 Alpha  occ. eigenvalues --   -1.13605  -1.13481  -1.13446  -1.13380  -1.13118
 Alpha  occ. eigenvalues --   -1.13071  -1.13060  -1.12431  -1.12416  -1.12411
 Alpha  occ. eigenvalues --   -0.16713  -0.14761  -0.12029  -0.09929
 Alpha virt. eigenvalues --   -0.07409  -0.04909  -0.04702  -0.03763  -0.03025
 Alpha virt. eigenvalues --   -0.02557  -0.02012  -0.01334  -0.00861  -0.00710
 Alpha virt. eigenvalues --   -0.00554   0.00071   0.00341   0.00505   0.00576

  Beta  occ. eigenvalues --  -38.44967 -38.44763 -38.44762 -38.44097 -38.43874
  Beta  occ. eigenvalues --  -38.43521 -38.42949  -2.20753  -2.20615  -2.20559
  Beta  occ. eigenvalues --   -2.19899  -2.19717  -2.19350  -2.18757  -1.14429
  Beta  occ. eigenvalues --   -1.14416  -1.14382  -1.14326  -1.14281  -1.14256
  Beta  occ. eigenvalues --   -1.14240  -1.14212  -1.14183  -1.13676  -1.13597
  Beta  occ. eigenvalues --   -1.13513  -1.13430  -1.13381  -1.13317  -1.13057
  Beta  occ. eigenvalues --   -1.13003  -1.12995  -1.12435  -1.12414  -1.12396
  Beta  occ. eigenvalues --   -0.16127  -0.14406  -0.11819
  Beta virt. eigenvalues --   -0.07121  -0.06429  -0.04872  -0.04133  -0.03423
  Beta virt. eigenvalues --   -0.02831  -0.02342  -0.01642  -0.01095  -0.00669
  Beta virt. eigenvalues --   -0.00428  -0.00151   0.00203   0.00401   0.00631

 Mulliken charges and spin densities:
               1          2
     1  Na  -1.399634   0.414859
     2  Na   0.273957   0.313081
     3  Na  -0.144578  -0.101720
     4  Na   0.024694  -0.182740
     5  Na  -0.069416   0.108856
     6  Na   0.614393   0.096244
     7  Na   0.700585   0.351420
 Sum of Mulliken charges =  -0.00000   1.00000

 Dipole moment (field-independent basis, Debye):
    X=              0.7307    Y=             -0.8069    Z=             -0.3965  Tot=              1.1585
 Quadrupole moment (field-independent basis, Debye-Ang):
   XX=            -57.8595   YY=            -70.8093   ZZ=            -68.4290
   XY=             -9.2970   XZ=              0.5446   YZ=             -1.7386

 Normal termination of Gaussian 16 at Sun Dec  3 14:06:27 2023.
