 Gaussian 16, Revision B.01,
 Gaussian 16:  ES64L-G16RevB.01 20-Dec-2017

 -------------------------
 #P B3LYP/6-311+g(d) force
 -------------------------

 -----
 DPGEN
 -----
 Symbolic Z-matrix:
 Charge =  0 Multiplicity = 2

                         Standard orientation:
 ---------------------------------------------------------------------
 Center     Atomic      Atomic             Coordinates (Angstroms)
 Number     Number       Type             X           Y           Z
 ---------------------------------------------------------------------
      1         11           0       -0.328464    0.318921   -1.578474
      2         11           0        2.207064   -2.106319   -0.903023
      3         11           0       -1.516224   -2.248386    0.666666
      4         11           0        0.512308   -0.255590    2.019221
      5         11           0       -3.151078    0.144274   -0.461125
      6         11           0       -0.513373    2.918255    0.217479
      7         11           0        2.789768    1.228844    0.039257
 ---------------------------------------------------------------------

 SCF Done:  E(UB3LYP) =  -1136.13335669     A.U. after   20 cycles

 The electronic state is 2-A.
 Alpha  occ. eigenvalues --  -38.44063 -38.44023 -38.43757 -38.43734 -38.43325
 Alpha  occ. eigenvalues --  -38.43316 -38.43288  -2.19906  -2.19904  -2.19649
 Alpha  occ. eigenvalues --   -2.19575  -2.19320  -2.19185  -2.19152  -1.13635
 Alpha  occ. eigenvalues --   -1.13599  -1.13574  -1.13570  -1.13526  -1.13525
 Alpha  occ. eigenvalues --   -1.13340  -1.13283  -1.13259  -1.13251  -1.13217
 Alpha  occ. eigenvalues --   -1.13206  -1.13022  -1.12971  -1.12953  -1.12867
 Alpha  occ. eigenvalues --   -1.12831  -1.12819  -1.12810  -1.12806  -1.12768
 Alpha  occ. eigenvalues --   -0.18675  -0.13261  -0.12213  -0.11113
 Alpha virt. eigenvalues --   -0.05656  -0.04965  -0.04546  -0.03385  -0.03095
 Alpha virt. eigenvalues --   -0.02606  -0.01527  -0.01057  -0.00313  -0.00096
 Alpha virt. eigenvalues --    0.00066   0.00360   0.00804   0.00829   0.00883

  Beta  occ. eigenvalues --  -38.44058 -38.44017 -38.43727 -38.43646 -38.43314
  Beta  occ. eigenvalues --  -38.43273 -38.43271  -2.19899  -2.19895  -2.19521
  Beta  occ. eigenvalues --   -2.19488  -2.19226  -2.19157  -2.19152  -1.13621
  Beta  occ. eigenvalues --   -1.13587  -1.13562  -1.13553  -1.13519  -1.13518
  Beta  occ. eigenvalues --   -1.13231  -1.13203  -1.13185  -1.13172  -1.13165
  Beta  occ. eigenvalues --   -1.13144  -1.12965  -1.12917  -1.12882  -1.12838
  Beta  occ. eigenvalues --   -1.12809  -1.12804  -1.12792  -1.12779  -1.12762
  Beta  occ. eigenvalues --   -0.17981  -0.12993  -0.11943
  Beta virt. eigenvalues --   -0.07236  -0.05602  -0.04844  -0.04431  -0.02725
  Beta virt. eigenvalues --   -0.02349  -0.01640  -0.01442  -0.00953  -0.00243
  Beta virt. eigenvalues --   -0.00086   0.00136   0.00406   0.00847   0.00919

 Mulliken charges and spin densities:
               1          2
     1  Na  -0.026615   0.321065
     2  Na  -0.079668   0.154400
     3  Na   0.118852   0.104862
     4  Na  -0.110913   0.471915
     5  Na   0.118144  -0.045180
     6  Na  -0.211658  -0.002771
     7  Na   0.191858  -0.004292
 Sum of Mulliken charges =  -0.00000   1.00000

 Dipole moment (field-independent basis, Debye):
    X=              0.1819    Y=              0.1466    Z=              0.0755  Tot=              0.2455
 Quadrupole moment (field-independent basis, Debye-Ang):
   XX=            -56.9585   YY=            -64.8549   ZZ=            -72.4266
   XY=             -0.0435   XZ=             -0.8153   YZ=              1.8498

 Normal termination of Gaussian 16 at Thu Dec  7 15:05:52 2023.
