 Gaussian 16, Revision B.01,
 Gaussian 16:  ES64L-G16RevB.01 20-Dec-2017

 -------------------------
 #P B3LYP/6-311+g(d) force
 -------------------------

 -----
 DPGEN
 -----
 Symbolic Z-matrix:
 Charge =  0 Multiplicity = 2

                         Standard orientation:
 ---------------------------------------------------------------------
 Center     Atomic      Atomic             Coordinates (Angstroms)
 Number     Number       Type             X           Y           Z
 ---------------------------------------------------------------------
      1         11           0        8.248389   -1.189457    0.639607
      2         11           0       -3.537716    2.131676    0.055074
      3         11           0       -5.524151   -0.404391    1.256588
      4         11           0       -6.310751   -2.505734   -0.625060
      5         11           0        1.307562   -0.305852   -0.889286
      6         11           0        5.429543   -0.233006   -0.149128
      7         11           0        0.387123    2.506763   -0.287795
 ---------------------------------------------------------------------

 SCF Done:  E(UB3LYP) =  -1136.10451032     A.U. after   18 cycles

 The electronic state is 2-A.
 Alpha  occ. eigenvalues --  -38.44953 -38.44921 -38.44856 -38.44778 -38.44214
 Alpha  occ. eigenvalues --  -38.43806 -38.43669  -2.20753  -2.20749  -2.20671
 Alpha  occ. eigenvalues --   -2.20571  -2.20055  -2.19606  -2.19452  -1.14465
 Alpha  occ. eigenvalues --   -1.14431  -1.14401  -1.14388  -1.14378  -1.14373
 Alpha  occ. eigenvalues --   -1.14357  -1.14318  -1.14298  -1.14234  -1.14209
 Alpha  occ. eigenvalues --   -1.14175  -1.13730  -1.13706  -1.13702  -1.13313
 Alpha  occ. eigenvalues --   -1.13252  -1.13252  -1.13123  -1.13122  -1.13056
 Alpha  occ. eigenvalues --   -0.15500  -0.14291  -0.12729  -0.11305
 Alpha virt. eigenvalues --   -0.06831  -0.04914  -0.04812  -0.03535  -0.03004
 Alpha virt. eigenvalues --   -0.02858  -0.02144  -0.01871  -0.01778  -0.01155
 Alpha virt. eigenvalues --   -0.00942  -0.00435  -0.00124   0.00227   0.00520

  Beta  occ. eigenvalues --  -38.44855 -38.44849 -38.44813 -38.44792 -38.44217
  Beta  occ. eigenvalues --  -38.43782 -38.43675  -2.20629  -2.20603  -2.20587
  Beta  occ. eigenvalues --   -2.20557  -2.20069  -2.19560  -2.19466  -1.14404
  Beta  occ. eigenvalues --   -1.14387  -1.14293  -1.14288  -1.14275  -1.14269
  Beta  occ. eigenvalues --   -1.14259  -1.14251  -1.14244  -1.14232  -1.14213
  Beta  occ. eigenvalues --   -1.14153  -1.13726  -1.13723  -1.13676  -1.13288
  Beta  occ. eigenvalues --   -1.13222  -1.13221  -1.13134  -1.13133  -1.13043
  Beta  occ. eigenvalues --   -0.14795  -0.13774  -0.12372
  Beta virt. eigenvalues --   -0.08071  -0.06268  -0.04731  -0.04438  -0.03316
  Beta virt. eigenvalues --   -0.02726  -0.02627  -0.01884  -0.01755  -0.01559
  Beta virt. eigenvalues --   -0.00837  -0.00660  -0.00120   0.00077   0.00330

 Mulliken charges and spin densities:
               1          2
     1  Na   0.370955   0.129471
     2  Na  -0.218759   0.454344
     3  Na  -0.283481  -0.021838
     4  Na   0.264844   0.311099
     5  Na  -0.298147   0.141127
     6  Na  -0.139373  -0.005737
     7  Na   0.303962  -0.008468
 Sum of Mulliken charges =  -0.00000   1.00000

 Dipole moment (field-independent basis, Debye):
    X=             -1.4726    Y=             -0.1975    Z=             -0.4198  Tot=              1.5439
 Quadrupole moment (field-independent basis, Debye-Ang):
   XX=            -69.0391   YY=            -63.2571   ZZ=            -70.8358
   XY=              2.1778   XZ=              4.5966   YZ=              3.0061

 Normal termination of Gaussian 16 at Mon Dec  4 02:38:53 2023.
