 Gaussian 16, Revision B.01,
 Gaussian 16:  ES64L-G16RevB.01 20-Dec-2017

 -------------------------
 #P B3LYP/6-311+g(d) force
 -------------------------

 -----
 DPGEN
 -----
 Symbolic Z-matrix:
 Charge =  0 Multiplicity = 2

                         Standard orientation:
 ---------------------------------------------------------------------
 Center     Atomic      Atomic             Coordinates (Angstroms)
 Number     Number       Type             X           Y           Z
 ---------------------------------------------------------------------
      1         11           0        2.822171   -1.466779   -0.081303
      2         11           0       -0.914537   -2.763627   -0.320213
      3         11           0       -0.236096   -0.682888    2.039592
      4         11           0       -3.311462    0.345175   -0.179548
      5         11           0        2.358530    1.874362   -0.029497
      6         11           0       -0.690379    2.644158    0.222293
      7         11           0       -0.028227    0.049599   -1.651325
 ---------------------------------------------------------------------

 SCF Done:  E(UB3LYP) =  -1136.13590635     A.U. after   19 cycles

 The electronic state is 2-A.
 Alpha  occ. eigenvalues --  -38.44423 -38.44143 -38.43653 -38.43524 -38.43481
 Alpha  occ. eigenvalues --  -38.43173 -38.43149  -2.20218  -2.19955  -2.19511
 Alpha  occ. eigenvalues --   -2.19407  -2.19354  -2.19152  -2.19039  -1.13891
 Alpha  occ. eigenvalues --   -1.13876  -1.13857  -1.13627  -1.13626  -1.13590
 Alpha  occ. eigenvalues --   -1.13230  -1.13208  -1.13117  -1.13066  -1.13055
 Alpha  occ. eigenvalues --   -1.13030  -1.13017  -1.13015  -1.12998  -1.12849
 Alpha  occ. eigenvalues --   -1.12808  -1.12762  -1.12701  -1.12689  -1.12663
 Alpha  occ. eigenvalues --   -0.18600  -0.12963  -0.12560  -0.10644
 Alpha virt. eigenvalues --   -0.06024  -0.05064  -0.04569  -0.03117  -0.02980
 Alpha virt. eigenvalues --   -0.02481  -0.01788  -0.01061  -0.00473  -0.00201
 Alpha virt. eigenvalues --   -0.00025   0.00346   0.00809   0.00828   0.00924

  Beta  occ. eigenvalues --  -38.44420 -38.44141 -38.43643 -38.43479 -38.43434
  Beta  occ. eigenvalues --  -38.43143 -38.43108  -2.20215  -2.19953  -2.19497
  Beta  occ. eigenvalues --   -2.19353  -2.19240  -2.19033  -2.19029  -1.13878
  Beta  occ. eigenvalues --   -1.13868  -1.13859  -1.13628  -1.13606  -1.13591
  Beta  occ. eigenvalues --   -1.13216  -1.13161  -1.13112  -1.13059  -1.13007
  Beta  occ. eigenvalues --   -1.12988  -1.12953  -1.12918  -1.12897  -1.12782
  Beta  occ. eigenvalues --   -1.12735  -1.12681  -1.12675  -1.12659  -1.12646
  Beta  occ. eigenvalues --   -0.17883  -0.12751  -0.12323
  Beta virt. eigenvalues --   -0.06734  -0.06011  -0.05027  -0.04520  -0.02353
  Beta virt. eigenvalues --   -0.02212  -0.01705  -0.01421  -0.00997  -0.00537
  Beta virt. eigenvalues --   -0.00230   0.00129   0.00374   0.00818   0.00865

 Mulliken charges and spin densities:
               1          2
     1  Na   0.218019  -0.059402
     2  Na   0.237106  -0.148627
     3  Na  -0.570470   0.741849
     4  Na   0.193961  -0.047146
     5  Na   0.046063  -0.008521
     6  Na   0.116375   0.027715
     7  Na  -0.241054   0.494132
 Sum of Mulliken charges =  -0.00000   1.00000

 Dipole moment (field-independent basis, Debye):
    X=             -0.2029    Y=             -0.3346    Z=              0.0708  Tot=              0.3977
 Quadrupole moment (field-independent basis, Debye-Ang):
   XX=            -54.5123   YY=            -63.9296   ZZ=            -74.7686
   XY=             -0.5233   XZ=              0.4697   YZ=              1.4241

 Normal termination of Gaussian 16 at Thu Dec  7 16:41:46 2023.
