 Gaussian 16, Revision B.01,
 Gaussian 16:  ES64L-G16RevB.01 20-Dec-2017

 -------------------------
 #P B3LYP/6-311+g(d) force
 -------------------------

 -----
 DPGEN
 -----
 Symbolic Z-matrix:
 Charge =  0 Multiplicity = 2

                         Standard orientation:
 ---------------------------------------------------------------------
 Center     Atomic      Atomic             Coordinates (Angstroms)
 Number     Number       Type             X           Y           Z
 ---------------------------------------------------------------------
      1         11           0       -1.367304    2.634260   -0.204912
      2         11           0       -2.920109   -0.527814   -0.129309
      3         11           0        0.058474    0.217386   -1.536264
      4         11           0       -0.687180   -2.704910    0.154235
      5         11           0        2.308674    1.730517    0.185646
      6         11           0        2.539467   -1.502891   -0.402430
      7         11           0        0.067979    0.153451    1.933034
 ---------------------------------------------------------------------

 SCF Done:  E(UB3LYP) =  -1136.13763707     A.U. after   19 cycles

 The electronic state is 2-A.
 Alpha  occ. eigenvalues --  -38.43747 -38.43680 -38.43553 -38.43459 -38.43347
 Alpha  occ. eigenvalues --  -38.43145 -38.42933  -2.19631  -2.19583  -2.19439
 Alpha  occ. eigenvalues --   -2.19331  -2.19302  -2.19045  -2.19002  -1.13330
 Alpha  occ. eigenvalues --   -1.13299  -1.13291  -1.13275  -1.13263  -1.13215
 Alpha  occ. eigenvalues --   -1.13133  -1.13084  -1.13065  -1.13056  -1.12997
 Alpha  occ. eigenvalues --   -1.12971  -1.12949  -1.12925  -1.12908  -1.12728
 Alpha  occ. eigenvalues --   -1.12701  -1.12684  -1.12670  -1.12621  -1.12615
 Alpha  occ. eigenvalues --   -0.19275  -0.13228  -0.12663  -0.10828
 Alpha virt. eigenvalues --   -0.05356  -0.05098  -0.04647  -0.03186  -0.02877
 Alpha virt. eigenvalues --   -0.02435  -0.01360  -0.01126  -0.00174  -0.00105
 Alpha virt. eigenvalues --    0.00045   0.00365   0.00867   0.00918   0.00944

  Beta  occ. eigenvalues --  -38.43743 -38.43670 -38.43543 -38.43452 -38.43254
  Beta  occ. eigenvalues --  -38.43139 -38.42869  -2.19627  -2.19571  -2.19422
  Beta  occ. eigenvalues --   -2.19322  -2.19130  -2.19038  -2.18887  -1.13330
  Beta  occ. eigenvalues --   -1.13292  -1.13277  -1.13262  -1.13217  -1.13211
  Beta  occ. eigenvalues --   -1.13113  -1.13061  -1.13054  -1.13041  -1.12969
  Beta  occ. eigenvalues --   -1.12942  -1.12866  -1.12803  -1.12793  -1.12718
  Beta  occ. eigenvalues --   -1.12685  -1.12663  -1.12592  -1.12540  -1.12534
  Beta  occ. eigenvalues --   -0.18544  -0.12951  -0.12392
  Beta virt. eigenvalues --   -0.06879  -0.05344  -0.05069  -0.04638  -0.02360
  Beta virt. eigenvalues --   -0.02093  -0.01365  -0.01271  -0.01060  -0.00215
  Beta virt. eigenvalues --   -0.00137   0.00152   0.00389   0.00904   0.00927

 Mulliken charges and spin densities:
               1          2
     1  Na   0.232696  -0.072084
     2  Na   0.087568  -0.051129
     3  Na  -0.522633   0.409376
     4  Na   0.167112   0.008337
     5  Na   0.343542  -0.004715
     6  Na   0.167988   0.011224
     7  Na  -0.476273   0.698990
 Sum of Mulliken charges =  -0.00000   1.00000

 Dipole moment (field-independent basis, Debye):
    X=              0.0128    Y=              0.1665    Z=              0.1646  Tot=              0.2345
 Quadrupole moment (field-independent basis, Debye-Ang):
   XX=            -57.4310   YY=            -61.6330   ZZ=            -74.2490
   XY=             -0.3496   XZ=             -0.0812   YZ=              0.2746

 Normal termination of Gaussian 16 at Thu Dec  7 04:57:28 2023.
