 Gaussian 16, Revision B.01,
 Gaussian 16:  ES64L-G16RevB.01 20-Dec-2017

 -------------------------
 #P B3LYP/6-311+g(d) force
 -------------------------

 -----
 DPGEN
 -----
 Symbolic Z-matrix:
 Charge =  0 Multiplicity = 2

                         Standard orientation:
 ---------------------------------------------------------------------
 Center     Atomic      Atomic             Coordinates (Angstroms)
 Number     Number       Type             X           Y           Z
 ---------------------------------------------------------------------
      1         11           0        0.120878   -1.949612   -0.937732
      2         11           0        2.817948    0.567865    0.040894
      3         11           0       -0.950513    1.575809   -0.272321
      4         11           0       -3.324040   -0.785432   -1.256979
      5         11           0       -2.972395    0.046497    1.983228
      6         11           0        1.574258    3.301926   -0.211367
      7         11           0        2.733864   -2.757052    0.654277
 ---------------------------------------------------------------------

 SCF Done:  E(UB3LYP) =  -1136.12595408     A.U. after   20 cycles

 The electronic state is 2-A.
 Alpha  occ. eigenvalues --  -38.44399 -38.44365 -38.44024 -38.43792 -38.43708
 Alpha  occ. eigenvalues --  -38.43515 -38.43492  -2.20239  -2.20235  -2.19924
 Alpha  occ. eigenvalues --   -2.19645  -2.19563  -2.19404  -2.19337  -1.13921
 Alpha  occ. eigenvalues --   -1.13918  -1.13915  -1.13886  -1.13885  -1.13881
 Alpha  occ. eigenvalues --   -1.13629  -1.13611  -1.13572  -1.13339  -1.13329
 Alpha  occ. eigenvalues --   -1.13270  -1.13216  -1.13195  -1.13169  -1.13072
 Alpha  occ. eigenvalues --   -1.13047  -1.13026  -1.12994  -1.12982  -1.12964
 Alpha  occ. eigenvalues --   -0.17553  -0.14160  -0.12844  -0.10227
 Alpha virt. eigenvalues --   -0.06201  -0.05290  -0.05023  -0.03752  -0.02464
 Alpha virt. eigenvalues --   -0.02170  -0.01978  -0.01295  -0.01049  -0.00367
 Alpha virt. eigenvalues --   -0.00169   0.00197   0.00406   0.00550   0.00702

  Beta  occ. eigenvalues --  -38.44375 -38.44360 -38.44012 -38.43760 -38.43614
  Beta  occ. eigenvalues --  -38.43516 -38.43479  -2.20228  -2.20199  -2.19908
  Beta  occ. eigenvalues --   -2.19588  -2.19406  -2.19387  -2.19313  -1.13913
  Beta  occ. eigenvalues --   -1.13906  -1.13894  -1.13882  -1.13862  -1.13817
  Beta  occ. eigenvalues --   -1.13620  -1.13574  -1.13556  -1.13302  -1.13289
  Beta  occ. eigenvalues --   -1.13219  -1.13094  -1.13075  -1.13073  -1.13058
  Beta  occ. eigenvalues --   -1.13045  -1.13024  -1.12974  -1.12965  -1.12948
  Beta  occ. eigenvalues --   -0.17081  -0.13738  -0.12703
  Beta virt. eigenvalues --   -0.06450  -0.06044  -0.05082  -0.04801  -0.03330
  Beta virt. eigenvalues --   -0.02137  -0.01985  -0.01360  -0.01178  -0.00957
  Beta virt. eigenvalues --   -0.00071   0.00103   0.00320   0.00724   0.00762

 Mulliken charges and spin densities:
               1          2
     1  Na  -0.508917   0.134974
     2  Na  -0.719295   0.006501
     3  Na  -1.074620   0.402405
     4  Na   0.738714   0.017227
     5  Na   0.061438   0.348687
     6  Na   0.816645   0.000010
     7  Na   0.686037   0.090197
 Sum of Mulliken charges =  -0.00000   1.00000

 Dipole moment (field-independent basis, Debye):
    X=              0.1633    Y=             -0.1224    Z=             -0.2541  Tot=              0.3259
 Quadrupole moment (field-independent basis, Debye-Ang):
   XX=            -59.1935   YY=            -64.2817   ZZ=            -73.2250
   XY=              3.0219   XZ=              5.3266   YZ=             -2.7046

 Normal termination of Gaussian 16 at Tue Nov 28 23:36:16 2023.
