 Gaussian 16, Revision B.01,
 Gaussian 16:  ES64L-G16RevB.01 20-Dec-2017

 -------------------------
 #P B3LYP/6-311+g(d) force
 -------------------------

 -----
 DPGEN
 -----
 Symbolic Z-matrix:
 Charge =  0 Multiplicity = 2

                         Standard orientation:
 ---------------------------------------------------------------------
 Center     Atomic      Atomic             Coordinates (Angstroms)
 Number     Number       Type             X           Y           Z
 ---------------------------------------------------------------------
      1         11           0        1.287165    2.326466    0.125337
      2         11           0        0.959682   -0.466610    2.132836
      3         11           0       -3.036835   -0.561145   -0.511750
      4         11           0       -2.002649    2.035174    0.467600
      5         11           0       -1.040028   -2.643964    0.227043
      6         11           0        3.383919   -0.891024   -0.509096
      7         11           0        0.448747    0.201103   -1.931970
 ---------------------------------------------------------------------

 SCF Done:  E(UB3LYP) =  -1136.12574135     A.U. after   20 cycles

 The electronic state is 2-A.
 Alpha  occ. eigenvalues --  -38.44838 -38.44180 -38.44035 -38.44007 -38.43530
 Alpha  occ. eigenvalues --  -38.43446 -38.43401  -2.20627  -2.20083  -2.19912
 Alpha  occ. eigenvalues --   -2.19893  -2.19401  -2.19344  -2.19251  -1.14305
 Alpha  occ. eigenvalues --   -1.14276  -1.14269  -1.13788  -1.13724  -1.13688
 Alpha  occ. eigenvalues --   -1.13654  -1.13599  -1.13549  -1.13541  -1.13532
 Alpha  occ. eigenvalues --   -1.13512  -1.13083  -1.13065  -1.13043  -1.13030
 Alpha  occ. eigenvalues --   -1.13002  -1.12929  -1.12922  -1.12906  -1.12886
 Alpha  occ. eigenvalues --   -0.18465  -0.13523  -0.11991  -0.11283
 Alpha virt. eigenvalues --   -0.06318  -0.04969  -0.04286  -0.03552  -0.03201
 Alpha virt. eigenvalues --   -0.02850  -0.01918  -0.00758  -0.00315  -0.00080
 Alpha virt. eigenvalues --    0.00029   0.00319   0.00502   0.00779   0.00895

  Beta  occ. eigenvalues --  -38.44828 -38.44108 -38.44004 -38.43947 -38.43527
  Beta  occ. eigenvalues --  -38.43434 -38.43398  -2.20612  -2.19951  -2.19908
  Beta  occ. eigenvalues --   -2.19730  -2.19396  -2.19327  -2.19249  -1.14280
  Beta  occ. eigenvalues --   -1.14264  -1.14258  -1.13702  -1.13655  -1.13634
  Beta  occ. eigenvalues --   -1.13600  -1.13585  -1.13525  -1.13441  -1.13416
  Beta  occ. eigenvalues --   -1.13397  -1.13078  -1.13062  -1.13023  -1.13014
  Beta  occ. eigenvalues --   -1.12968  -1.12924  -1.12921  -1.12888  -1.12881
  Beta  occ. eigenvalues --   -0.17749  -0.13302  -0.11767
  Beta virt. eigenvalues --   -0.07387  -0.06248  -0.04871  -0.04030  -0.03020
  Beta virt. eigenvalues --   -0.02363  -0.01933  -0.01805  -0.00702  -0.00258
  Beta virt. eigenvalues --    0.00003   0.00042   0.00364   0.00683   0.00840

 Mulliken charges and spin densities:
               1          2
     1  Na   0.206882   0.120128
     2  Na  -0.198598   0.539053
     3  Na   0.286291   0.064339
     4  Na  -0.180223  -0.059534
     5  Na  -0.147983  -0.082593
     6  Na   0.192802  -0.116484
     7  Na  -0.159171   0.535090
 Sum of Mulliken charges =  -0.00000   1.00000

 Dipole moment (field-independent basis, Debye):
    X=              0.8289    Y=             -0.1486    Z=             -0.0849  Tot=              0.8464
 Quadrupole moment (field-independent basis, Debye-Ang):
   XX=            -55.6236   YY=            -70.2750   ZZ=            -70.7097
   XY=             -1.6594   XZ=             -0.2456   YZ=              1.3765

 Normal termination of Gaussian 16 at Tue Dec  5 17:12:13 2023.
