 Gaussian 16, Revision B.01,
 Gaussian 16:  ES64L-G16RevB.01 20-Dec-2017

 -------------------------
 #P B3LYP/6-311+g(d) force
 -------------------------

 -----
 DPGEN
 -----
 Symbolic Z-matrix:
 Charge =  0 Multiplicity = 2

                         Standard orientation:
 ---------------------------------------------------------------------
 Center     Atomic      Atomic             Coordinates (Angstroms)
 Number     Number       Type             X           Y           Z
 ---------------------------------------------------------------------
      1         11           0       -0.242734    0.111989    1.920013
      2         11           0        1.372796   -2.297319   -0.385875
      3         11           0       -0.063992   -0.212066   -1.739371
      4         11           0       -1.773734   -2.136012    0.376512
      5         11           0        0.342237    2.764264   -0.175240
      6         11           0        3.050631    0.554954    0.282943
      7         11           0       -2.685204    1.214190   -0.278982
 ---------------------------------------------------------------------

 SCF Done:  E(UB3LYP) =  -1136.13615052     A.U. after   19 cycles

 The electronic state is 2-A.
 Alpha  occ. eigenvalues --  -38.43681 -38.43577 -38.43555 -38.43408 -38.43330
 Alpha  occ. eigenvalues --  -38.43302 -38.43288  -2.19520  -2.19514  -2.19459
 Alpha  occ. eigenvalues --   -2.19449  -2.19250  -2.19221  -2.19207  -1.13292
 Alpha  occ. eigenvalues --   -1.13230  -1.13194  -1.13181  -1.13176  -1.13168
 Alpha  occ. eigenvalues --   -1.13157  -1.13141  -1.13102  -1.13094  -1.13076
 Alpha  occ. eigenvalues --   -1.13051  -1.12924  -1.12889  -1.12882  -1.12874
 Alpha  occ. eigenvalues --   -1.12866  -1.12864  -1.12857  -1.12824  -1.12799
 Alpha  occ. eigenvalues --   -0.19325  -0.12954  -0.12799  -0.11173
 Alpha virt. eigenvalues --   -0.05269  -0.04827  -0.04646  -0.03221  -0.03155
 Alpha virt. eigenvalues --   -0.02705  -0.01298  -0.00975  -0.00102   0.00002
 Alpha virt. eigenvalues --    0.00123   0.00365   0.00901   0.00949   0.00966

  Beta  occ. eigenvalues --  -38.43679 -38.43568 -38.43469 -38.43331 -38.43325
  Beta  occ. eigenvalues --  -38.43290 -38.43274  -2.19513  -2.19448  -2.19361
  Beta  occ. eigenvalues --   -2.19310  -2.19230  -2.19202  -2.19200  -1.13219
  Beta  occ. eigenvalues --   -1.13183  -1.13169  -1.13165  -1.13158  -1.13109
  Beta  occ. eigenvalues --   -1.13106  -1.13083  -1.13052  -1.13011  -1.12993
  Beta  occ. eigenvalues --   -1.12971  -1.12903  -1.12873  -1.12855  -1.12850
  Beta  occ. eigenvalues --   -1.12845  -1.12821  -1.12817  -1.12805  -1.12789
  Beta  occ. eigenvalues --   -0.18577  -0.12689  -0.12515
  Beta virt. eigenvalues --   -0.07200  -0.05251  -0.04812  -0.04622  -0.02418
  Beta virt. eigenvalues --   -0.02327  -0.01628  -0.01220  -0.00901  -0.00068
  Beta virt. eigenvalues --   -0.00020   0.00152   0.00385   0.00933   0.00946

 Mulliken charges and spin densities:
               1          2
     1  Na  -0.470821   0.684025
     2  Na   0.345462   0.021366
     3  Na  -0.266152   0.486917
     4  Na   0.321915   0.015786
     5  Na   0.001538  -0.073836
     6  Na  -0.089636  -0.055798
     7  Na   0.157695  -0.078461
 Sum of Mulliken charges =  -0.00000   1.00000

 Dipole moment (field-independent basis, Debye):
    X=             -0.0391    Y=              0.2105    Z=              0.1585  Tot=              0.2664
 Quadrupole moment (field-independent basis, Debye-Ang):
   XX=            -58.5428   YY=            -63.4525   ZZ=            -72.3735
   XY=              0.2081   XZ=              0.6849   YZ=             -0.6961

 Normal termination of Gaussian 16 at Fri Dec  8 07:13:22 2023.
