 Gaussian 16, Revision B.01,
 Gaussian 16:  ES64L-G16RevB.01 20-Dec-2017

 -------------------------
 #P B3LYP/6-311+g(d) force
 -------------------------

 -----
 DPGEN
 -----
 Symbolic Z-matrix:
 Charge =  0 Multiplicity = 2

                         Standard orientation:
 ---------------------------------------------------------------------
 Center     Atomic      Atomic             Coordinates (Angstroms)
 Number     Number       Type             X           Y           Z
 ---------------------------------------------------------------------
      1         11           0       -2.878400   -1.436303    0.231819
      2         11           0       -2.049984    2.194426    0.082545
      3         11           0        1.548807    2.455791   -0.507298
      4         11           0       -0.259338    0.008186   -1.710622
      5         11           0       -0.019085    0.099761    1.908436
      6         11           0        0.674907   -2.804880   -0.532686
      7         11           0        2.983092   -0.516981    0.527807
 ---------------------------------------------------------------------

 SCF Done:  E(UB3LYP) =  -1136.13911771     A.U. after   18 cycles

 The electronic state is 2-A.
 Alpha  occ. eigenvalues --  -38.44017 -38.43700 -38.43609 -38.43582 -38.43412
 Alpha  occ. eigenvalues --  -38.43390 -38.43201  -2.19820  -2.19548  -2.19501
 Alpha  occ. eigenvalues --   -2.19465  -2.19270  -2.19242  -2.19184  -1.13500
 Alpha  occ. eigenvalues --   -1.13479  -1.13456  -1.13243  -1.13235  -1.13198
 Alpha  occ. eigenvalues --   -1.13166  -1.13154  -1.13127  -1.13118  -1.13112
 Alpha  occ. eigenvalues --   -1.13089  -1.12991  -1.12976  -1.12920  -1.12896
 Alpha  occ. eigenvalues --   -1.12891  -1.12862  -1.12843  -1.12800  -1.12783
 Alpha  occ. eigenvalues --   -0.18701  -0.12920  -0.12461  -0.10923
 Alpha virt. eigenvalues --   -0.05495  -0.05159  -0.04579  -0.03243  -0.02993
 Alpha virt. eigenvalues --   -0.02592  -0.01462  -0.01168  -0.00347  -0.00155
 Alpha virt. eigenvalues --    0.00037   0.00368   0.00829   0.00864   0.00910

  Beta  occ. eigenvalues --  -38.44014 -38.43695 -38.43598 -38.43501 -38.43400
  Beta  occ. eigenvalues --  -38.43378 -38.43128  -2.19817  -2.19543  -2.19448
  Beta  occ. eigenvalues --   -2.19351  -2.19252  -2.19222  -2.19052  -1.13486
  Beta  occ. eigenvalues --   -1.13480  -1.13451  -1.13236  -1.13211  -1.13159
  Beta  occ. eigenvalues --   -1.13147  -1.13111  -1.13094  -1.13069  -1.13024
  Beta  occ. eigenvalues --   -1.12996  -1.12957  -1.12945  -1.12898  -1.12882
  Beta  occ. eigenvalues --   -1.12865  -1.12852  -1.12760  -1.12713  -1.12692
  Beta  occ. eigenvalues --   -0.17978  -0.12670  -0.12182
  Beta virt. eigenvalues --   -0.07032  -0.05487  -0.05096  -0.04524  -0.02482
  Beta virt. eigenvalues --   -0.02241  -0.01559  -0.01361  -0.01096  -0.00333
  Beta virt. eigenvalues --   -0.00195   0.00131   0.00389   0.00849   0.00900

 Mulliken charges and spin densities:
               1          2
     1  Na  -0.069847  -0.072306
     2  Na   0.047820  -0.079137
     3  Na   0.070553  -0.006778
     4  Na   0.034510   0.479846
     5  Na  -0.182805   0.654445
     6  Na   0.002665  -0.042104
     7  Na   0.097104   0.066034
 Sum of Mulliken charges =  -0.00000   1.00000

 Dipole moment (field-independent basis, Debye):
    X=             -0.3162    Y=              0.0239    Z=              0.1698  Tot=              0.3597
 Quadrupole moment (field-independent basis, Debye-Ang):
   XX=            -57.2712   YY=            -62.3921   ZZ=            -73.5653
   XY=              0.3113   XZ=             -0.4917   YZ=             -0.3407

 Normal termination of Gaussian 16 at Tue Dec  5 20:55:06 2023.
