 Gaussian 16, Revision B.01,
 Gaussian 16:  ES64L-G16RevB.01 20-Dec-2017

 -------------------------
 #P B3LYP/6-311+g(d) force
 -------------------------

 -----
 DPGEN
 -----
 Symbolic Z-matrix:
 Charge =  0 Multiplicity = 2

                         Standard orientation:
 ---------------------------------------------------------------------
 Center     Atomic      Atomic             Coordinates (Angstroms)
 Number     Number       Type             X           Y           Z
 ---------------------------------------------------------------------
      1         11           0        0.654043    3.678947   -0.748873
      2         11           0       -2.441804    1.624687    0.251800
      3         11           0        0.238166   -2.347422   -0.657736
      4         11           0       -0.919463   -0.745474    1.997314
      5         11           0       -3.151513   -1.638613   -0.975685
      6         11           0        3.524769   -1.770814   -0.179329
      7         11           0        2.095803    1.198690    0.312508
 ---------------------------------------------------------------------

 SCF Done:  E(UB3LYP) =  -1136.12344351     A.U. after   18 cycles

 The electronic state is 2-A.
 Alpha  occ. eigenvalues --  -38.45013 -38.44623 -38.44250 -38.43916 -38.43851
 Alpha  occ. eigenvalues --  -38.43735 -38.43540  -2.20804  -2.20428  -2.20093
 Alpha  occ. eigenvalues --   -2.19744  -2.19702  -2.19620  -2.19358  -1.14501
 Alpha  occ. eigenvalues --   -1.14478  -1.14422  -1.14101  -1.14088  -1.14070
 Alpha  occ. eigenvalues --   -1.13801  -1.13775  -1.13700  -1.13414  -1.13405
 Alpha  occ. eigenvalues --   -1.13398  -1.13370  -1.13362  -1.13361  -1.13274
 Alpha  occ. eigenvalues --   -1.13271  -1.13218  -1.13018  -1.13004  -1.12977
 Alpha  occ. eigenvalues --   -0.17563  -0.13527  -0.12842  -0.10247
 Alpha virt. eigenvalues --   -0.06828  -0.05816  -0.04634  -0.03268  -0.02927
 Alpha virt. eigenvalues --   -0.02082  -0.01931  -0.01434  -0.01168  -0.00954
 Alpha virt. eigenvalues --   -0.00015   0.00197   0.00330   0.00548   0.00712

  Beta  occ. eigenvalues --  -38.45007 -38.44625 -38.44236 -38.43864 -38.43848
  Beta  occ. eigenvalues --  -38.43643 -38.43522  -2.20797  -2.20431  -2.20069
  Beta  occ. eigenvalues --   -2.19699  -2.19647  -2.19450  -2.19324  -1.14478
  Beta  occ. eigenvalues --   -1.14461  -1.14425  -1.14104  -1.14089  -1.14070
  Beta  occ. eigenvalues --   -1.13771  -1.13763  -1.13672  -1.13406  -1.13363
  Beta  occ. eigenvalues --   -1.13352  -1.13337  -1.13327  -1.13296  -1.13161
  Beta  occ. eigenvalues --   -1.13147  -1.13103  -1.12997  -1.12980  -1.12955
  Beta  occ. eigenvalues --   -0.16986  -0.13316  -0.12566
  Beta virt. eigenvalues --   -0.06663  -0.06559  -0.05650  -0.04358  -0.02804
  Beta virt. eigenvalues --   -0.02422  -0.02013  -0.01356  -0.01210  -0.00908
  Beta virt. eigenvalues --   -0.00833   0.00209   0.00355   0.00471   0.00649

 Mulliken charges and spin densities:
               1          2
     1  Na   0.554201   0.027882
     2  Na  -0.362550   0.157763
     3  Na  -0.660728   0.169479
     4  Na   0.208283   0.432444
     5  Na   0.388158   0.215473
     6  Na   0.846873  -0.084483
     7  Na  -0.974237   0.081444
 Sum of Mulliken charges =  -0.00000   1.00000

 Dipole moment (field-independent basis, Debye):
    X=              0.1378    Y=             -0.3660    Z=              0.0927  Tot=              0.4019
 Quadrupole moment (field-independent basis, Debye-Ang):
   XX=            -55.9587   YY=            -65.9346   ZZ=            -74.9921
   XY=             -6.2627   XZ=              0.3532   YZ=             -1.4655

 Normal termination of Gaussian 16 at Sun Dec  3 15:21:35 2023.
