 Gaussian 16, Revision B.01,
 Gaussian 16:  ES64L-G16RevB.01 20-Dec-2017

 -------------------------
 #P B3LYP/6-311+g(d) force
 -------------------------

 -----
 DPGEN
 -----
 Symbolic Z-matrix:
 Charge =  0 Multiplicity = 2

                         Standard orientation:
 ---------------------------------------------------------------------
 Center     Atomic      Atomic             Coordinates (Angstroms)
 Number     Number       Type             X           Y           Z
 ---------------------------------------------------------------------
      1         11           0        0.340547   -1.538281    1.861529
      2         11           0       -2.493996   -1.217026   -0.501975
      3         11           0        0.531671   -2.741793   -1.165721
      4         11           0        3.118264   -0.376134    0.012332
      5         11           0        2.464311    2.688796   -0.533522
      6         11           0       -0.374604    1.529835    0.368725
      7         11           0       -3.586194    1.654604   -0.041368
 ---------------------------------------------------------------------

 SCF Done:  E(UB3LYP) =  -1136.12588014     A.U. after   21 cycles

 The electronic state is 2-A.
 Alpha  occ. eigenvalues --  -38.44783 -38.44569 -38.44043 -38.43721 -38.43536
 Alpha  occ. eigenvalues --  -38.43511 -38.43191  -2.20617  -2.20410  -2.19921
 Alpha  occ. eigenvalues --   -2.19566  -2.19446  -2.19363  -2.19101  -1.14300
 Alpha  occ. eigenvalues --   -1.14278  -1.14260  -1.14098  -1.14073  -1.14051
 Alpha  occ. eigenvalues --   -1.13604  -1.13582  -1.13546  -1.13269  -1.13218
 Alpha  occ. eigenvalues --   -1.13207  -1.13134  -1.13125  -1.13048  -1.13027
 Alpha  occ. eigenvalues --   -1.13023  -1.13005  -1.12757  -1.12743  -1.12708
 Alpha  occ. eigenvalues --   -0.18038  -0.13882  -0.12761  -0.10068
 Alpha virt. eigenvalues --   -0.06689  -0.05698  -0.04576  -0.03210  -0.02870
 Alpha virt. eigenvalues --   -0.02132  -0.01734  -0.01456  -0.01069  -0.00510
 Alpha virt. eigenvalues --   -0.00065   0.00267   0.00452   0.00611   0.00779

  Beta  occ. eigenvalues --  -38.44772 -38.44568 -38.44021 -38.43712 -38.43517
  Beta  occ. eigenvalues --  -38.43476 -38.43112  -2.20599  -2.20410  -2.19883
  Beta  occ. eigenvalues --   -2.19549  -2.19414  -2.19299  -2.18956  -1.14280
  Beta  occ. eigenvalues --   -1.14263  -1.14239  -1.14097  -1.14072  -1.14046
  Beta  occ. eigenvalues --   -1.13580  -1.13539  -1.13516  -1.13257  -1.13204
  Beta  occ. eigenvalues --   -1.13191  -1.13116  -1.13071  -1.13035  -1.12985
  Beta  occ. eigenvalues --   -1.12973  -1.12954  -1.12656  -1.12645  -1.12602
  Beta  occ. eigenvalues --   -0.17447  -0.13640  -0.12556
  Beta virt. eigenvalues --   -0.06553  -0.06389  -0.05381  -0.04408  -0.02651
  Beta virt. eigenvalues --   -0.02404  -0.02090  -0.01382  -0.01041  -0.00810
  Beta virt. eigenvalues --   -0.00431   0.00218   0.00352   0.00608   0.00709

 Mulliken charges and spin densities:
               1          2
     1  Na   0.356213   0.337551
     2  Na  -0.267312   0.203479
     3  Na   0.099227   0.186434
     4  Na  -0.195366   0.258938
     5  Na   0.745278  -0.011685
     6  Na  -1.747417   0.129975
     7  Na   1.009377  -0.104692
 Sum of Mulliken charges =  -0.00000   1.00000

 Dipole moment (field-independent basis, Debye):
    X=             -0.3078    Y=              0.3859    Z=              0.1650  Tot=              0.5205
 Quadrupole moment (field-independent basis, Debye-Ang):
   XX=            -54.9677   YY=            -65.0009   ZZ=            -75.2286
   XY=             -4.4464   XZ=             -0.5848   YZ=             -1.2814

 Normal termination of Gaussian 16 at Mon Dec  4 04:48:37 2023.
