 Gaussian 16, Revision B.01,
 Gaussian 16:  ES64L-G16RevB.01 20-Dec-2017

 -------------------------
 #P B3LYP/6-311+g(d) force
 -------------------------

 -----
 DPGEN
 -----
 Symbolic Z-matrix:
 Charge =  0 Multiplicity = 2

                         Standard orientation:
 ---------------------------------------------------------------------
 Center     Atomic      Atomic             Coordinates (Angstroms)
 Number     Number       Type             X           Y           Z
 ---------------------------------------------------------------------
      1         11           0        0.170751   -0.691385   -1.102983
      2         11           0       -3.671594   -1.105841   -1.133764
      3         11           0        3.136223   -1.907008   -0.634947
      4         11           0       -1.452387   -0.925818    1.991539
      5         11           0        1.518015    2.293808   -1.094906
      6         11           0       -1.590767    2.069503    0.333533
      7         11           0        1.889759    0.266741    1.641528
 ---------------------------------------------------------------------

 SCF Done:  E(UB3LYP) =  -1136.12770517     A.U. after   22 cycles

 The electronic state is 2-A.
 Alpha  occ. eigenvalues --  -38.44498 -38.44203 -38.44140 -38.43569 -38.43548
 Alpha  occ. eigenvalues --  -38.43525 -38.42982  -2.20267  -2.20099  -2.19997
 Alpha  occ. eigenvalues --   -2.19487  -2.19411  -2.19373  -2.18850  -1.13933
 Alpha  occ. eigenvalues --   -1.13928  -1.13878  -1.13802  -1.13758  -1.13708
 Alpha  occ. eigenvalues --   -1.13679  -1.13654  -1.13592  -1.13204  -1.13164
 Alpha  occ. eigenvalues --   -1.13139  -1.13099  -1.13091  -1.13034  -1.13019
 Alpha  occ. eigenvalues --   -1.13014  -1.12994  -1.12535  -1.12506  -1.12460
 Alpha  occ. eigenvalues --   -0.18378  -0.13390  -0.11465  -0.11266
 Alpha virt. eigenvalues --   -0.06025  -0.05441  -0.04494  -0.03214  -0.02622
 Alpha virt. eigenvalues --   -0.02512  -0.01953  -0.01259  -0.00720  -0.00061
 Alpha virt. eigenvalues --    0.00202   0.00303   0.00352   0.00530   0.00660

  Beta  occ. eigenvalues --  -38.44464 -38.44162 -38.44078 -38.43564 -38.43544
  Beta  occ. eigenvalues --  -38.43494 -38.42966  -2.20203  -2.20025  -2.19886
  Beta  occ. eigenvalues --   -2.19434  -2.19405  -2.19367  -2.18821  -1.13885
  Beta  occ. eigenvalues --   -1.13883  -1.13840  -1.13750  -1.13686  -1.13658
  Beta  occ. eigenvalues --   -1.13607  -1.13579  -1.13495  -1.13153  -1.13128
  Beta  occ. eigenvalues --   -1.13105  -1.13088  -1.13065  -1.13025  -1.13021
  Beta  occ. eigenvalues --   -1.13007  -1.12980  -1.12506  -1.12488  -1.12440
  Beta  occ. eigenvalues --   -0.17649  -0.13169  -0.11130
  Beta virt. eigenvalues --   -0.07522  -0.05707  -0.05286  -0.04053  -0.02942
  Beta virt. eigenvalues --   -0.02128  -0.01877  -0.01698  -0.01076  -0.00430
  Beta virt. eigenvalues --    0.00035   0.00260   0.00378   0.00533   0.00601

 Mulliken charges and spin densities:
               1          2
     1  Na  -0.686988   0.354370
     2  Na   0.315566   0.096625
     3  Na  -0.004225   0.033516
     4  Na   0.012378   0.273405
     5  Na   0.042222  -0.033869
     6  Na  -0.018210   0.158601
     7  Na   0.339257   0.117352
 Sum of Mulliken charges =  -0.00000   1.00000

 Dipole moment (field-independent basis, Debye):
    X=             -0.3148    Y=              0.0582    Z=              0.1731  Tot=              0.3640
 Quadrupole moment (field-independent basis, Debye-Ang):
   XX=            -54.0469   YY=            -72.7280   ZZ=            -66.6543
   XY=              0.3593   XZ=              0.8556   YZ=              1.1003

 Normal termination of Gaussian 16 at Tue Dec  5 17:15:48 2023.
