 Gaussian 16, Revision B.01,
 Gaussian 16:  ES64L-G16RevB.01 20-Dec-2017

 -------------------------
 #P B3LYP/6-311+g(d) force
 -------------------------

 -----
 DPGEN
 -----
 Symbolic Z-matrix:
 Charge =  0 Multiplicity = 2

                         Standard orientation:
 ---------------------------------------------------------------------
 Center     Atomic      Atomic             Coordinates (Angstroms)
 Number     Number       Type             X           Y           Z
 ---------------------------------------------------------------------
      1         11           0       -2.410220    1.273429    0.885500
      2         11           0       -0.633998    3.378128   -0.519845
      3         11           0       -4.314263   -1.091657   -0.158222
      4         11           0       -1.190368   -2.368793   -0.196965
      5         11           0        2.729093   -2.162600    0.038684
      6         11           0        1.007814    0.286870   -0.267746
      7         11           0        4.811943    0.684623    0.218594
 ---------------------------------------------------------------------

 SCF Done:  E(UB3LYP) =  -1136.12635804     A.U. after   26 cycles

 The electronic state is 2-A.
 Alpha  occ. eigenvalues --  -38.44500 -38.44449 -38.43900 -38.43722 -38.43641
 Alpha  occ. eigenvalues --  -38.43556 -38.43131  -2.20308  -2.20295  -2.19787
 Alpha  occ. eigenvalues --   -2.19560  -2.19550  -2.19407  -2.18969  -1.14034
 Alpha  occ. eigenvalues --   -1.13967  -1.13953  -1.13951  -1.13928  -1.13878
 Alpha  occ. eigenvalues --   -1.13484  -1.13458  -1.13441  -1.13276  -1.13259
 Alpha  occ. eigenvalues --   -1.13239  -1.13207  -1.13176  -1.13163  -1.13064
 Alpha  occ. eigenvalues --   -1.13047  -1.13012  -1.12639  -1.12620  -1.12604
 Alpha  occ. eigenvalues --   -0.17219  -0.14363  -0.12259  -0.10967
 Alpha virt. eigenvalues --   -0.05822  -0.05123  -0.04693  -0.03811  -0.02752
 Alpha virt. eigenvalues --   -0.02280  -0.01731  -0.01413  -0.00876  -0.00605
 Alpha virt. eigenvalues --   -0.00375   0.00003   0.00597   0.00623   0.00712

  Beta  occ. eigenvalues --  -38.44443 -38.44402 -38.43888 -38.43701 -38.43619
  Beta  occ. eigenvalues --  -38.43507 -38.43131  -2.20292  -2.20124  -2.19768
  Beta  occ. eigenvalues --   -2.19523  -2.19516  -2.19315  -2.18969  -1.14037
  Beta  occ. eigenvalues --   -1.13970  -1.13860  -1.13826  -1.13821  -1.13781
  Beta  occ. eigenvalues --   -1.13471  -1.13442  -1.13412  -1.13242  -1.13236
  Beta  occ. eigenvalues --   -1.13220  -1.13169  -1.13154  -1.13109  -1.12996
  Beta  occ. eigenvalues --   -1.12984  -1.12960  -1.12640  -1.12619  -1.12601
  Beta  occ. eigenvalues --   -0.16664  -0.13673  -0.12008
  Beta virt. eigenvalues --   -0.07371  -0.05623  -0.05022  -0.04164  -0.03424
  Beta virt. eigenvalues --   -0.02440  -0.01811  -0.01627  -0.01227  -0.00592
  Beta virt. eigenvalues --   -0.00379  -0.00015   0.00187   0.00649   0.00712

 Mulliken charges and spin densities:
               1          2
     1  Na  -0.348318   0.080233
     2  Na   0.926999   0.020065
     3  Na   0.598133   0.410462
     4  Na   0.073177  -0.020608
     5  Na   1.961321  -0.313597
     6  Na  -3.372654   0.320112
     7  Na   0.161342   0.503334
 Sum of Mulliken charges =  -0.00000   1.00000

 Dipole moment (field-independent basis, Debye):
    X=              0.5307    Y=             -0.2485    Z=             -0.1456  Tot=              0.6039
 Quadrupole moment (field-independent basis, Debye-Ang):
   XX=            -62.7413   YY=            -63.0744   ZZ=            -70.5016
   XY=             -1.3695   XZ=              0.7410   YZ=             -0.6736

 Normal termination of Gaussian 16 at Wed Nov 29 16:39:27 2023.
