 Gaussian 16, Revision B.01,
 Gaussian 16:  ES64L-G16RevB.01 20-Dec-2017

 -------------------------
 #P B3LYP/6-311+g(d) force
 -------------------------

 -----
 DPGEN
 -----
 Symbolic Z-matrix:
 Charge =  0 Multiplicity = 2

                         Standard orientation:
 ---------------------------------------------------------------------
 Center     Atomic      Atomic             Coordinates (Angstroms)
 Number     Number       Type             X           Y           Z
 ---------------------------------------------------------------------
      1         11           0        0.075533    0.058828    1.863826
      2         11           0        1.225103    3.021962   -0.163041
      3         11           0        0.663525   -2.765576    0.229222
      4         11           0        3.211256   -0.451523   -0.091890
      5         11           0       -2.723761   -1.463510   -0.152456
      6         11           0       -2.378037    1.861706    0.146415
      7         11           0       -0.073619   -0.261887   -1.832075
 ---------------------------------------------------------------------

 SCF Done:  E(UB3LYP) =  -1136.13883716     A.U. after   19 cycles

 The electronic state is 2-A.
 Alpha  occ. eigenvalues --  -38.44207 -38.43806 -38.43777 -38.43620 -38.43394
 Alpha  occ. eigenvalues --  -38.43369 -38.43358  -2.20007  -2.19612  -2.19579
 Alpha  occ. eigenvalues --   -2.19475  -2.19316  -2.19284  -2.19242  -1.13681
 Alpha  occ. eigenvalues --   -1.13666  -1.13649  -1.13300  -1.13284  -1.13258
 Alpha  occ. eigenvalues --   -1.13257  -1.13233  -1.13218  -1.13160  -1.13129
 Alpha  occ. eigenvalues --   -1.13113  -1.13023  -1.12979  -1.12962  -1.12938
 Alpha  occ. eigenvalues --   -1.12928  -1.12901  -1.12887  -1.12875  -1.12858
 Alpha  occ. eigenvalues --   -0.18502  -0.12930  -0.12399  -0.10612
 Alpha virt. eigenvalues --   -0.05706  -0.05220  -0.04862  -0.03130  -0.02871
 Alpha virt. eigenvalues --   -0.02463  -0.01537  -0.01223  -0.00537  -0.00427
 Alpha virt. eigenvalues --   -0.00005   0.00363   0.00786   0.00837   0.00893

  Beta  occ. eigenvalues --  -38.44205 -38.43806 -38.43773 -38.43614 -38.43347
  Beta  occ. eigenvalues --  -38.43317 -38.43287  -2.20006  -2.19606  -2.19581
  Beta  occ. eigenvalues --   -2.19469  -2.19227  -2.19175  -2.19134  -1.13668
  Beta  occ. eigenvalues --   -1.13662  -1.13650  -1.13296  -1.13259  -1.13258
  Beta  occ. eigenvalues --   -1.13245  -1.13235  -1.13221  -1.13146  -1.13114
  Beta  occ. eigenvalues --   -1.13105  -1.12965  -1.12902  -1.12882  -1.12857
  Beta  occ. eigenvalues --   -1.12846  -1.12825  -1.12821  -1.12793  -1.12786
  Beta  occ. eigenvalues --   -0.17759  -0.12701  -0.12178
  Beta virt. eigenvalues --   -0.06716  -0.05704  -0.05185  -0.04808  -0.02339
  Beta virt. eigenvalues --   -0.02128  -0.01456  -0.01425  -0.01145  -0.00583
  Beta virt. eigenvalues --   -0.00483   0.00128   0.00385   0.00820   0.00844

 Mulliken charges and spin densities:
               1          2
     1  Na  -0.167890   0.682947
     2  Na  -0.144007  -0.142796
     3  Na   0.281811  -0.047286
     4  Na  -0.026293  -0.131086
     5  Na   0.280922  -0.029100
     6  Na   0.035249  -0.101867
     7  Na  -0.259792   0.769189
 Sum of Mulliken charges =  -0.00000   1.00000

 Dipole moment (field-independent basis, Debye):
    X=              0.1875    Y=              0.0652    Z=             -0.0199  Tot=              0.1995
 Quadrupole moment (field-independent basis, Debye-Ang):
   XX=            -56.3814   YY=            -61.4883   ZZ=            -75.1112
   XY=              0.3043   XZ=             -0.4303   YZ=             -0.6799

 Normal termination of Gaussian 16 at Thu Dec  7 04:27:13 2023.
