 Gaussian 16, Revision B.01,
 Gaussian 16:  ES64L-G16RevB.01 20-Dec-2017

 -------------------------
 #P B3LYP/6-311+g(d) force
 -------------------------

 -----
 DPGEN
 -----
 Symbolic Z-matrix:
 Charge =  0 Multiplicity = 2

                         Standard orientation:
 ---------------------------------------------------------------------
 Center     Atomic      Atomic             Coordinates (Angstroms)
 Number     Number       Type             X           Y           Z
 ---------------------------------------------------------------------
      1         11           0        0.133105   -0.172076    2.189615
      2         11           0       -0.043235   -1.913894   -0.028517
      3         11           0       -2.648804   -0.859846   -0.183529
      4         11           0       -1.488011    1.750120    0.188960
      5         11           0       -0.010282    0.335559   -2.040283
      6         11           0        1.447217    1.698256    0.162642
      7         11           0        2.610011   -0.838120   -0.288887
 ---------------------------------------------------------------------

 SCF Done:  E(UB3LYP) =  -1136.10068054     A.U. after   22 cycles

 The electronic state is 2-A.
 Alpha  occ. eigenvalues --  -38.44867 -38.44406 -38.43874 -38.43866 -38.43043
 Alpha  occ. eigenvalues --  -38.42985 -38.42833  -2.20913  -2.20498  -2.19881
 Alpha  occ. eigenvalues --   -2.19871  -2.19161  -2.19063  -2.18994  -1.14647
 Alpha  occ. eigenvalues --   -1.14561  -1.14486  -1.14229  -1.14137  -1.14108
 Alpha  occ. eigenvalues --   -1.13655  -1.13640  -1.13596  -1.13582  -1.13481
 Alpha  occ. eigenvalues --   -1.13472  -1.12953  -1.12810  -1.12780  -1.12712
 Alpha  occ. eigenvalues --   -1.12693  -1.12667  -1.12634  -1.12615  -1.12585
 Alpha  occ. eigenvalues --   -0.21066  -0.13729  -0.12813  -0.12158
 Alpha virt. eigenvalues --   -0.05274  -0.04160  -0.03942  -0.03901  -0.03278
 Alpha virt. eigenvalues --   -0.03213  -0.01193  -0.00400  -0.00279   0.00339
 Alpha virt. eigenvalues --    0.00695   0.00798   0.00993   0.01034   0.01071

  Beta  occ. eigenvalues --  -38.44762 -38.44317 -38.43870 -38.43858 -38.43027
  Beta  occ. eigenvalues --  -38.42972 -38.42814  -2.20724  -2.20336  -2.19870
  Beta  occ. eigenvalues --   -2.19867  -2.19140  -2.19045  -2.18968  -1.14526
  Beta  occ. eigenvalues --   -1.14417  -1.14351  -1.14130  -1.14017  -1.13987
  Beta  occ. eigenvalues --   -1.13652  -1.13638  -1.13597  -1.13579  -1.13441
  Beta  occ. eigenvalues --   -1.13439  -1.12945  -1.12778  -1.12733  -1.12700
  Beta  occ. eigenvalues --   -1.12638  -1.12635  -1.12609  -1.12577  -1.12571
  Beta  occ. eigenvalues --   -0.20146  -0.13410  -0.11864
  Beta virt. eigenvalues --   -0.08578  -0.05256  -0.04095  -0.03537  -0.03050
  Beta virt. eigenvalues --   -0.02627  -0.02264  -0.01114  -0.00302  -0.00107
  Beta virt. eigenvalues --    0.00356   0.00721   0.00798   0.01084   0.01090

 Mulliken charges and spin densities:
               1          2
     1  Na  -1.486079   0.441397
     2  Na   1.351797   0.057186
     3  Na  -0.153541  -0.044227
     4  Na   0.771317   0.008387
     5  Na  -1.465022   0.538644
     6  Na   0.948335   0.015897
     7  Na   0.033193  -0.017283
 Sum of Mulliken charges =  -0.00000   1.00000

 Dipole moment (field-independent basis, Debye):
    X=             -0.0130    Y=             -0.0250    Z=              0.0647  Tot=              0.0706
 Quadrupole moment (field-independent basis, Debye-Ang):
   XX=            -59.5257   YY=            -74.8733   ZZ=            -63.3004
   XY=             -0.2625   XZ=             -0.2468   YZ=              1.6704

 Normal termination of Gaussian 16 at Thu Dec  7 13:04:15 2023.
