 Gaussian 16, Revision B.01,
 Gaussian 16:  ES64L-G16RevB.01 20-Dec-2017

 -------------------------
 #P B3LYP/6-311+g(d) force
 -------------------------

 -----
 DPGEN
 -----
 Symbolic Z-matrix:
 Charge =  0 Multiplicity = 2

                         Standard orientation:
 ---------------------------------------------------------------------
 Center     Atomic      Atomic             Coordinates (Angstroms)
 Number     Number       Type             X           Y           Z
 ---------------------------------------------------------------------
      1         11           0       -0.316231    1.187153   -0.521903
      2         11           0        3.335037    2.166442    0.301487
      3         11           0        1.417691   -1.501070    1.694121
      4         11           0       -4.369467    0.828187   -0.539153
      5         11           0        3.273805   -0.927721   -1.078840
      6         11           0       -0.953080   -1.569341   -1.430029
      7         11           0       -2.387756   -0.183651    1.574317
 ---------------------------------------------------------------------

 SCF Done:  E(UB3LYP) =  -1136.10957338     A.U. after   31 cycles

 The electronic state is 2-A.
 Alpha  occ. eigenvalues --  -38.45626 -38.45332 -38.44908 -38.44070 -38.43552
 Alpha  occ. eigenvalues --  -38.43318 -38.43046  -2.21419  -2.21218  -2.20704
 Alpha  occ. eigenvalues --   -2.19979  -2.19376  -2.19211  -2.18839  -1.15118
 Alpha  occ. eigenvalues --   -1.15071  -1.15038  -1.14956  -1.14908  -1.14798
 Alpha  occ. eigenvalues --   -1.14416  -1.14364  -1.14334  -1.13681  -1.13627
 Alpha  occ. eigenvalues --   -1.13570  -1.13052  -1.13031  -1.12986  -1.12942
 Alpha  occ. eigenvalues --   -1.12836  -1.12788  -1.12509  -1.12501  -1.12485
 Alpha  occ. eigenvalues --   -0.18064  -0.14326  -0.10736  -0.10674
 Alpha virt. eigenvalues --   -0.07584  -0.05192  -0.05062  -0.03407  -0.02878
 Alpha virt. eigenvalues --   -0.02304  -0.02006  -0.01481  -0.01155  -0.00383
 Alpha virt. eigenvalues --   -0.00155   0.00023   0.00212   0.00475   0.00649

  Beta  occ. eigenvalues --  -38.45625 -38.45298 -38.44919 -38.44029 -38.43504
  Beta  occ. eigenvalues --  -38.43257 -38.43044  -2.21419  -2.21163  -2.20726
  Beta  occ. eigenvalues --   -2.19902  -2.19287  -2.19100  -2.18836  -1.15108
  Beta  occ. eigenvalues --   -1.15070  -1.15039  -1.14891  -1.14854  -1.14764
  Beta  occ. eigenvalues --   -1.14426  -1.14377  -1.14345  -1.13629  -1.13571
  Beta  occ. eigenvalues --   -1.13517  -1.12985  -1.12969  -1.12929  -1.12862
  Beta  occ. eigenvalues --   -1.12752  -1.12711  -1.12508  -1.12494  -1.12485
  Beta  occ. eigenvalues --   -0.17405  -0.14203  -0.10529
  Beta virt. eigenvalues --   -0.07468  -0.06850  -0.05051  -0.04545  -0.03163
  Beta virt. eigenvalues --   -0.02671  -0.01798  -0.01419  -0.01228  -0.00819
  Beta virt. eigenvalues --   -0.00289  -0.00069   0.00082   0.00309   0.00586

 Mulliken charges and spin densities:
               1          2
     1  Na  -1.032742   0.458519
     2  Na   0.216210  -0.127663
     3  Na  -0.300282   0.334966
     4  Na   0.785620  -0.004782
     5  Na   0.729808   0.047313
     6  Na  -0.172654   0.248064
     7  Na  -0.225958   0.043582
 Sum of Mulliken charges =  -0.00000   1.00000

 Dipole moment (field-independent basis, Debye):
    X=             -0.5309    Y=             -0.9563    Z=             -0.6710  Tot=              1.2832
 Quadrupole moment (field-independent basis, Debye-Ang):
   XX=            -55.7142   YY=            -72.0408   ZZ=            -71.0122
   XY=             -5.4581   XZ=              1.5476   YZ=              2.9273

 Normal termination of Gaussian 16 at Tue Dec  5 13:50:04 2023.
