 Gaussian 16, Revision B.01,
 Gaussian 16:  ES64L-G16RevB.01 20-Dec-2017

 -------------------------
 #P B3LYP/6-311+g(d) force
 -------------------------

 -----
 DPGEN
 -----
 Symbolic Z-matrix:
 Charge =  0 Multiplicity = 2

                         Standard orientation:
 ---------------------------------------------------------------------
 Center     Atomic      Atomic             Coordinates (Angstroms)
 Number     Number       Type             X           Y           Z
 ---------------------------------------------------------------------
      1         11           0        1.377252    1.734552    0.372051
      2         11           0        3.995633    0.106866   -0.793693
      3         11           0       -0.302796   -0.344475   -1.684334
      4         11           0       -3.732968   -1.013511   -0.915272
      5         11           0       -1.201538   -0.675059    1.741526
      6         11           0       -1.902763    2.139916    0.391499
      7         11           0        1.767180   -1.948290    0.888222
 ---------------------------------------------------------------------

 SCF Done:  E(UB3LYP) =  -1136.12340119     A.U. after   26 cycles

 The electronic state is 2-A.
 Alpha  occ. eigenvalues --  -38.45273 -38.45040 -38.44266 -38.43831 -38.43471
 Alpha  occ. eigenvalues --  -38.42927 -38.42563  -2.21126  -2.20855  -2.20063
 Alpha  occ. eigenvalues --   -2.19760  -2.19335  -2.18818  -2.18477  -1.14832
 Alpha  occ. eigenvalues --   -1.14776  -1.14739  -1.14524  -1.14506  -1.14477
 Alpha  occ. eigenvalues --   -1.13730  -1.13717  -1.13691  -1.13453  -1.13415
 Alpha  occ. eigenvalues --   -1.13365  -1.13018  -1.12995  -1.12951  -1.12510
 Alpha  occ. eigenvalues --   -1.12480  -1.12438  -1.12189  -1.12150  -1.12087
 Alpha  occ. eigenvalues --   -0.18573  -0.14120  -0.11347  -0.10974
 Alpha virt. eigenvalues --   -0.07158  -0.04941  -0.04573  -0.03105  -0.02936
 Alpha virt. eigenvalues --   -0.02357  -0.02213  -0.01254  -0.00961  -0.00112
 Alpha virt. eigenvalues --   -0.00019   0.00239   0.00320   0.00685   0.00721

  Beta  occ. eigenvalues --  -38.45244 -38.45013 -38.44239 -38.43761 -38.43431
  Beta  occ. eigenvalues --  -38.42920 -38.42561  -2.21072  -2.20803  -2.20013
  Beta  occ. eigenvalues --   -2.19635  -2.19265  -2.18807  -2.18476  -1.14786
  Beta  occ. eigenvalues --   -1.14741  -1.14697  -1.14489  -1.14467  -1.14446
  Beta  occ. eigenvalues --   -1.13690  -1.13681  -1.13661  -1.13364  -1.13314
  Beta  occ. eigenvalues --   -1.13276  -1.12966  -1.12944  -1.12888  -1.12492
  Beta  occ. eigenvalues --   -1.12477  -1.12426  -1.12194  -1.12129  -1.12081
  Beta  occ. eigenvalues --   -0.17914  -0.13810  -0.10730
  Beta virt. eigenvalues --   -0.07541  -0.06871  -0.04848  -0.04094  -0.02841
  Beta virt. eigenvalues --   -0.02619  -0.01779  -0.01576  -0.01108  -0.00636
  Beta virt. eigenvalues --   -0.00069   0.00050   0.00285   0.00426   0.00742

 Mulliken charges and spin densities:
               1          2
     1  Na  -0.688614   0.041071
     2  Na   0.989416   0.135846
     3  Na  -0.401800   0.329658
     4  Na   0.113447   0.119932
     5  Na   0.207073   0.196115
     6  Na   0.064745   0.101294
     7  Na  -0.284267   0.076084
 Sum of Mulliken charges =  -0.00000   1.00000

 Dipole moment (field-independent basis, Debye):
    X=              0.3750    Y=             -0.0855    Z=             -0.3864  Tot=              0.5452
 Quadrupole moment (field-independent basis, Debye-Ang):
   XX=            -47.9319   YY=            -77.9581   ZZ=            -68.5694
   XY=             -1.5722   XZ=             -3.0446   YZ=             -0.8240

 Normal termination of Gaussian 16 at Thu Dec  7 11:27:02 2023.
