 Gaussian 16, Revision B.01,
 Gaussian 16:  ES64L-G16RevB.01 20-Dec-2017

 -------------------------
 #P B3LYP/6-311+g(d) force
 -------------------------

 -----
 DPGEN
 -----
 Symbolic Z-matrix:
 Charge =  0 Multiplicity = 2

                         Standard orientation:
 ---------------------------------------------------------------------
 Center     Atomic      Atomic             Coordinates (Angstroms)
 Number     Number       Type             X           Y           Z
 ---------------------------------------------------------------------
      1         11           0        0.297183    0.195238   -1.255567
      2         11           0       -2.944477   -1.299271   -0.796189
      3         11           0        0.116729   -2.827396    0.246671
      4         11           0        3.264848   -0.840336   -0.267215
      5         11           0       -0.698757   -0.036355    2.151063
      6         11           0       -1.711636    2.625471   -0.149798
      7         11           0        1.676110    2.182649    0.071036
 ---------------------------------------------------------------------

 SCF Done:  E(UB3LYP) =  -1136.13177806     A.U. after   19 cycles

 The electronic state is 2-A.
 Alpha  occ. eigenvalues --  -38.44049 -38.43758 -38.43735 -38.43699 -38.43587
 Alpha  occ. eigenvalues --  -38.43532 -38.43107  -2.19851  -2.19690  -2.19564
 Alpha  occ. eigenvalues --   -2.19537  -2.19430  -2.19408  -2.19184  -1.13588
 Alpha  occ. eigenvalues --   -1.13523  -1.13494  -1.13488  -1.13329  -1.13295
 Alpha  occ. eigenvalues --   -1.13241  -1.13217  -1.13212  -1.13201  -1.13193
 Alpha  occ. eigenvalues --   -1.13164  -1.13134  -1.13111  -1.13068  -1.13046
 Alpha  occ. eigenvalues --   -1.13031  -1.13011  -1.12851  -1.12807  -1.12765
 Alpha  occ. eigenvalues --   -0.18584  -0.12918  -0.12621  -0.10585
 Alpha virt. eigenvalues --   -0.05541  -0.05289  -0.04780  -0.03136  -0.02803
 Alpha virt. eigenvalues --   -0.02338  -0.01598  -0.01288  -0.00439  -0.00278
 Alpha virt. eigenvalues --   -0.00023   0.00312   0.00758   0.00836   0.00875

  Beta  occ. eigenvalues --  -38.44021 -38.43753 -38.43736 -38.43696 -38.43580
  Beta  occ. eigenvalues --  -38.43432 -38.43069  -2.19801  -2.19683  -2.19566
  Beta  occ. eigenvalues --   -2.19534  -2.19421  -2.19224  -2.19117  -1.13575
  Beta  occ. eigenvalues --   -1.13477  -1.13462  -1.13454  -1.13311  -1.13286
  Beta  occ. eigenvalues --   -1.13236  -1.13216  -1.13206  -1.13197  -1.13181
  Beta  occ. eigenvalues --   -1.13160  -1.13123  -1.13074  -1.13043  -1.12952
  Beta  occ. eigenvalues --   -1.12905  -1.12883  -1.12791  -1.12764  -1.12716
  Beta  occ. eigenvalues --   -0.17913  -0.12636  -0.12433
  Beta virt. eigenvalues --   -0.06702  -0.05398  -0.05262  -0.04716  -0.02419
  Beta virt. eigenvalues --   -0.02112  -0.01549  -0.01345  -0.01173  -0.00415
  Beta virt. eigenvalues --   -0.00281   0.00143   0.00370   0.00815   0.00844

 Mulliken charges and spin densities:
               1          2
     1  Na  -0.594047   0.148945
     2  Na  -0.014437   0.109944
     3  Na   0.249250   0.070784
     4  Na   0.200126   0.013329
     5  Na  -0.452426   0.556279
     6  Na   0.189199   0.001081
     7  Na   0.422335   0.099639
 Sum of Mulliken charges =  -0.00000   1.00000

 Dipole moment (field-independent basis, Debye):
    X=             -0.1537    Y=             -0.0195    Z=              0.2338  Tot=              0.2805
 Quadrupole moment (field-independent basis, Debye-Ang):
   XX=            -56.2126   YY=            -61.2871   ZZ=            -74.8849
   XY=             -1.7366   XZ=              1.8049   YZ=              0.6054

 Normal termination of Gaussian 16 at Tue Dec  5 18:43:49 2023.
