 Gaussian 16, Revision B.01,
 Gaussian 16:  ES64L-G16RevB.01 20-Dec-2017

 -------------------------
 #P B3LYP/6-311+g(d) force
 -------------------------

 -----
 DPGEN
 -----
 Symbolic Z-matrix:
 Charge =  0 Multiplicity = 2

                         Standard orientation:
 ---------------------------------------------------------------------
 Center     Atomic      Atomic             Coordinates (Angstroms)
 Number     Number       Type             X           Y           Z
 ---------------------------------------------------------------------
      1         11           0       -2.176765    1.576646   -0.887585
      2         11           0       -0.178146   -0.669856    1.807814
      3         11           0        2.974663    2.199797    0.605163
      4         11           0       -3.683437   -0.050541    1.257697
      5         11           0        1.015437    0.619389   -1.487520
      6         11           0       -1.189482   -1.774018   -1.564793
      7         11           0        3.237730   -1.901417    0.269223
 ---------------------------------------------------------------------

 SCF Done:  E(UB3LYP) =  -1136.11531886     A.U. after   40 cycles

 The electronic state is 2-A.
 Alpha  occ. eigenvalues --  -38.44994 -38.44619 -38.44588 -38.44372 -38.44240
 Alpha  occ. eigenvalues --  -38.43637 -38.42722  -2.20852  -2.20432  -2.20355
 Alpha  occ. eigenvalues --   -2.20164  -2.20038  -2.19511  -2.18648  -1.14538
 Alpha  occ. eigenvalues --   -1.14471  -1.14455  -1.14123  -1.14078  -1.14046
 Alpha  occ. eigenvalues --   -1.14044  -1.14011  -1.13995  -1.13827  -1.13813
 Alpha  occ. eigenvalues --   -1.13785  -1.13737  -1.13714  -1.13637  -1.13182
 Alpha  occ. eigenvalues --   -1.13177  -1.13156  -1.12354  -1.12327  -1.12264
 Alpha  occ. eigenvalues --   -0.18078  -0.13875  -0.11649  -0.10612
 Alpha virt. eigenvalues --   -0.06608  -0.05885  -0.04584  -0.03111  -0.02683
 Alpha virt. eigenvalues --   -0.02586  -0.02263  -0.01273  -0.01182  -0.00202
 Alpha virt. eigenvalues --    0.00035   0.00173   0.00290   0.00415   0.00531

  Beta  occ. eigenvalues --  -38.44902 -38.44631 -38.44547 -38.44328 -38.44222
  Beta  occ. eigenvalues --  -38.43628 -38.42703  -2.20687  -2.20379  -2.20355
  Beta  occ. eigenvalues --   -2.20082  -2.20005  -2.19499  -2.18619  -1.14418
  Beta  occ. eigenvalues --   -1.14358  -1.14335  -1.14070  -1.14058  -1.14022
  Beta  occ. eigenvalues --   -1.14019  -1.14011  -1.13997  -1.13771  -1.13760
  Beta  occ. eigenvalues --   -1.13728  -1.13717  -1.13685  -1.13611  -1.13178
  Beta  occ. eigenvalues --   -1.13157  -1.13132  -1.12342  -1.12264  -1.12242
  Beta  occ. eigenvalues --   -0.17338  -0.13479  -0.10451
  Beta virt. eigenvalues --   -0.07890  -0.06446  -0.05486  -0.04155  -0.02802
  Beta virt. eigenvalues --   -0.02389  -0.02126  -0.01747  -0.01118  -0.00754
  Beta virt. eigenvalues --   -0.00071   0.00104   0.00211   0.00356   0.00501

 Mulliken charges and spin densities:
               1          2
     1  Na  -0.187919   0.160885
     2  Na  -0.413046   0.230089
     3  Na   0.013221   0.163170
     4  Na   0.263385   0.086255
     5  Na   0.254558   0.146670
     6  Na   0.079009   0.226723
     7  Na  -0.009208  -0.013793
 Sum of Mulliken charges =  -0.00000   1.00000

 Dipole moment (field-independent basis, Debye):
    X=             -0.3420    Y=             -0.5595    Z=              0.2677  Tot=              0.7083
 Quadrupole moment (field-independent basis, Debye-Ang):
   XX=            -51.3187   YY=            -72.2949   ZZ=            -71.4449
   XY=              0.2504   XZ=              1.1754   YZ=              8.4017

 Normal termination of Gaussian 16 at Fri Dec  8 05:00:44 2023.
