 Gaussian 16, Revision B.01,
 Gaussian 16:  ES64L-G16RevB.01 20-Dec-2017

 -------------------------
 #P B3LYP/6-311+g(d) force
 -------------------------

 -----
 DPGEN
 -----
 Symbolic Z-matrix:
 Charge =  0 Multiplicity = 2

                         Standard orientation:
 ---------------------------------------------------------------------
 Center     Atomic      Atomic             Coordinates (Angstroms)
 Number     Number       Type             X           Y           Z
 ---------------------------------------------------------------------
      1         11           0       -0.563592   -0.372293    1.534461
      2         11           0        1.619865   -2.288012    0.259329
      3         11           0       -4.050339    0.212456   -0.071876
      4         11           0        1.999084    2.155382    0.293627
      5         11           0       -1.530924    2.683468   -0.537775
      6         11           0       -1.865995   -2.342225   -0.836309
      7         11           0        4.391902   -0.048776   -0.641457
 ---------------------------------------------------------------------

 SCF Done:  E(UB3LYP) =  -1136.12644164     A.U. after   19 cycles

 The electronic state is 2-A.
 Alpha  occ. eigenvalues --  -38.44383 -38.44257 -38.43990 -38.43971 -38.43902
 Alpha  occ. eigenvalues --  -38.43887 -38.43761  -2.20202  -2.20154  -2.19818
 Alpha  occ. eigenvalues --   -2.19753  -2.19717  -2.19697  -2.19584  -1.13905
 Alpha  occ. eigenvalues --   -1.13885  -1.13853  -1.13828  -1.13799  -1.13755
 Alpha  occ. eigenvalues --   -1.13483  -1.13458  -1.13455  -1.13439  -1.13414
 Alpha  occ. eigenvalues --   -1.13412  -1.13393  -1.13391  -1.13386  -1.13367
 Alpha  occ. eigenvalues --   -1.13339  -1.13322  -1.13227  -1.13219  -1.13195
 Alpha  occ. eigenvalues --   -0.17347  -0.13978  -0.12354  -0.10574
 Alpha virt. eigenvalues --   -0.06241  -0.06079  -0.04117  -0.03756  -0.02716
 Alpha virt. eigenvalues --   -0.02546  -0.01840  -0.01424  -0.00943  -0.00546
 Alpha virt. eigenvalues --   -0.00418   0.00109   0.00480   0.00656   0.00684

  Beta  occ. eigenvalues --  -38.44378 -38.44206 -38.43967 -38.43934 -38.43896
  Beta  occ. eigenvalues --  -38.43876 -38.43680  -2.20196  -2.20064  -2.19749
  Beta  occ. eigenvalues --   -2.19716  -2.19702  -2.19692  -2.19432  -1.13895
  Beta  occ. eigenvalues --   -1.13885  -1.13805  -1.13782  -1.13744  -1.13688
  Beta  occ. eigenvalues --   -1.13439  -1.13422  -1.13409  -1.13395  -1.13394
  Beta  occ. eigenvalues --   -1.13387  -1.13384  -1.13382  -1.13367  -1.13355
  Beta  occ. eigenvalues --   -1.13298  -1.13297  -1.13123  -1.13117  -1.13101
  Beta  occ. eigenvalues --   -0.16817  -0.13186  -0.12098
  Beta virt. eigenvalues --   -0.07194  -0.06083  -0.05946  -0.03743  -0.03274
  Beta virt. eigenvalues --   -0.02253  -0.02195  -0.01602  -0.01162  -0.00780
  Beta virt. eigenvalues --   -0.00458  -0.00090   0.00289   0.00581   0.00727

 Mulliken charges and spin densities:
               1          2
     1  Na   0.490226   0.284264
     2  Na  -0.388199  -0.073774
     3  Na   0.095813   0.364176
     4  Na  -0.426522  -0.054395
     5  Na  -0.071938  -0.050859
     6  Na  -0.063706   0.010994
     7  Na   0.364326   0.519593
 Sum of Mulliken charges =  -0.00000   1.00000

 Dipole moment (field-independent basis, Debye):
    X=             -0.6946    Y=             -0.3814    Z=             -0.0956  Tot=              0.7982
 Quadrupole moment (field-independent basis, Debye-Ang):
   XX=            -67.2191   YY=            -66.8913   ZZ=            -67.7370
   XY=             -1.5459   XZ=             -0.1144   YZ=              1.1748

 Normal termination of Gaussian 16 at Wed Nov 29 01:48:39 2023.
