 Gaussian 16, Revision B.01,
 Gaussian 16:  ES64L-G16RevB.01 20-Dec-2017

 -------------------------
 #P B3LYP/6-311+g(d) force
 -------------------------

 -----
 DPGEN
 -----
 Symbolic Z-matrix:
 Charge =  0 Multiplicity = 2

                         Standard orientation:
 ---------------------------------------------------------------------
 Center     Atomic      Atomic             Coordinates (Angstroms)
 Number     Number       Type             X           Y           Z
 ---------------------------------------------------------------------
      1         11           0        1.133798   -1.808781   -0.157062
      2         11           0        3.076550    1.418607    0.256207
      3         11           0        0.534231    3.523668   -0.257477
      4         11           0       -1.134803    1.000263    0.655533
      5         11           0        4.337968   -2.028767   -0.324447
      6         11           0       -5.000369    0.226227   -0.569687
      7         11           0       -2.947375   -2.331217    0.396934
 ---------------------------------------------------------------------

 SCF Done:  E(UB3LYP) =  -1136.12512669     A.U. after   20 cycles

 The electronic state is 2-A.
 Alpha  occ. eigenvalues --  -38.44833 -38.44576 -38.44296 -38.43961 -38.43708
 Alpha  occ. eigenvalues --  -38.43607 -38.43551  -2.20634  -2.20351  -2.20128
 Alpha  occ. eigenvalues --   -2.19770  -2.19524  -2.19447  -2.19391  -1.14336
 Alpha  occ. eigenvalues --   -1.14312  -1.14231  -1.14042  -1.14006  -1.13998
 Alpha  occ. eigenvalues --   -1.13836  -1.13818  -1.13731  -1.13415  -1.13413
 Alpha  occ. eigenvalues --   -1.13376  -1.13218  -1.13182  -1.13159  -1.13133
 Alpha  occ. eigenvalues --   -1.13129  -1.13065  -1.13040  -1.13028  -1.13022
 Alpha  occ. eigenvalues --   -0.16729  -0.14003  -0.12587  -0.10472
 Alpha virt. eigenvalues --   -0.06397  -0.05312  -0.04815  -0.03761  -0.02649
 Alpha virt. eigenvalues --   -0.02381  -0.01831  -0.01513  -0.01411  -0.00874
 Alpha virt. eigenvalues --   -0.00161   0.00007   0.00435   0.00485   0.00667

  Beta  occ. eigenvalues --  -38.44812 -38.44576 -38.44277 -38.43871 -38.43691
  Beta  occ. eigenvalues --  -38.43568 -38.43551  -2.20596  -2.20357  -2.20096
  Beta  occ. eigenvalues --   -2.19601  -2.19491  -2.19391  -2.19379  -1.14311
  Beta  occ. eigenvalues --   -1.14285  -1.14198  -1.14052  -1.14017  -1.13955
  Beta  occ. eigenvalues --   -1.13816  -1.13772  -1.13719  -1.13299  -1.13296
  Beta  occ. eigenvalues --   -1.13269  -1.13194  -1.13160  -1.13130  -1.13090
  Beta  occ. eigenvalues --   -1.13086  -1.13062  -1.13041  -1.13029  -1.12955
  Beta  occ. eigenvalues --   -0.16195  -0.13438  -0.12440
  Beta virt. eigenvalues --   -0.06916  -0.06215  -0.05134  -0.04337  -0.03386
  Beta virt. eigenvalues --   -0.02237  -0.02203  -0.01778  -0.01363  -0.01093
  Beta virt. eigenvalues --   -0.00498   0.00145   0.00236   0.00535   0.00639

 Mulliken charges and spin densities:
               1          2
     1  Na  -1.439996   0.244448
     2  Na  -0.283368   0.215778
     3  Na   0.842487   0.094336
     4  Na  -1.456437  -0.165899
     5  Na   1.976080   0.345704
     6  Na   0.264048   0.529175
     7  Na   0.097186  -0.263541
 Sum of Mulliken charges =  -0.00000   1.00000

 Dipole moment (field-independent basis, Debye):
    X=              0.6093    Y=              0.0618    Z=             -0.0300  Tot=              0.6132
 Quadrupole moment (field-independent basis, Debye-Ang):
   XX=            -65.5965   YY=            -60.2954   ZZ=            -72.0693
   XY=              0.3613   XZ=             -0.1690   YZ=             -1.4017

 Normal termination of Gaussian 16 at Sun Dec  3 18:42:20 2023.
