 Gaussian 16, Revision B.01,
 Gaussian 16:  ES64L-G16RevB.01 20-Dec-2017

 -------------------------
 #P B3LYP/6-311+g(d) force
 -------------------------

 -----
 DPGEN
 -----
 Symbolic Z-matrix:
 Charge =  0 Multiplicity = 2

                         Standard orientation:
 ---------------------------------------------------------------------
 Center     Atomic      Atomic             Coordinates (Angstroms)
 Number     Number       Type             X           Y           Z
 ---------------------------------------------------------------------
      1         11           0        0.153512   -2.728610   -1.306547
      2         11           0        1.898595   -2.878040    1.610176
      3         11           0       -3.246560   -1.697910   -0.711493
      4         11           0        3.369220   -0.028842   -0.316361
      5         11           0       -3.284776    0.833103    1.045381
      6         11           0       -1.437149    3.351352   -0.037989
      7         11           0        2.547158    3.148947   -0.283167
 ---------------------------------------------------------------------

 SCF Done:  E(UB3LYP) =  -1136.11187550     A.U. after   21 cycles

 The electronic state is 2-A.
 Alpha  occ. eigenvalues --  -38.45145 -38.44768 -38.44601 -38.44349 -38.44273
 Alpha  occ. eigenvalues --  -38.43818 -38.43591  -2.20914  -2.20552  -2.20378
 Alpha  occ. eigenvalues --   -2.20156  -2.20100  -2.19650  -2.19382  -1.14608
 Alpha  occ. eigenvalues --   -1.14591  -1.14538  -1.14244  -1.14229  -1.14168
 Alpha  occ. eigenvalues --   -1.14049  -1.14042  -1.14002  -1.13807  -1.13804
 Alpha  occ. eigenvalues --   -1.13800  -1.13769  -1.13758  -1.13749  -1.13302
 Alpha  occ. eigenvalues --   -1.13293  -1.13280  -1.13047  -1.13043  -1.13016
 Alpha  occ. eigenvalues --   -0.15951  -0.13882  -0.13166  -0.10514
 Alpha virt. eigenvalues --   -0.07087  -0.05659  -0.04046  -0.03664  -0.02988
 Alpha virt. eigenvalues --   -0.02410  -0.01979  -0.01538  -0.01324  -0.01210
 Alpha virt. eigenvalues --   -0.00254  -0.00020   0.00085   0.00475   0.00624

  Beta  occ. eigenvalues --  -38.45138 -38.44743 -38.44555 -38.44287 -38.44268
  Beta  occ. eigenvalues --  -38.43773 -38.43562  -2.20906  -2.20512  -2.20296
  Beta  occ. eigenvalues --   -2.20096  -2.20039  -2.19567  -2.19331  -1.14604
  Beta  occ. eigenvalues --   -1.14590  -1.14500  -1.14221  -1.14207  -1.14108
  Beta  occ. eigenvalues --   -1.13991  -1.13989  -1.13941  -1.13790  -1.13759
  Beta  occ. eigenvalues --   -1.13727  -1.13724  -1.13724  -1.13694  -1.13252
  Beta  occ. eigenvalues --   -1.13237  -1.13220  -1.13012  -1.13006  -1.12976
  Beta  occ. eigenvalues --   -0.15483  -0.13278  -0.12458
  Beta virt. eigenvalues --   -0.07327  -0.07072  -0.05291  -0.03671  -0.03502
  Beta virt. eigenvalues --   -0.02588  -0.02076  -0.01716  -0.01332  -0.01196
  Beta virt. eigenvalues --   -0.01004   0.00005   0.00168   0.00291   0.00512

 Mulliken charges and spin densities:
               1          2
     1  Na   0.053518   0.040170
     2  Na   0.257337   0.308218
     3  Na   0.151792   0.192513
     4  Na  -0.267911   0.143783
     5  Na  -0.236460   0.028616
     6  Na  -0.110774   0.192053
     7  Na   0.152498   0.094646
 Sum of Mulliken charges =  -0.00000   1.00000

 Dipole moment (field-independent basis, Debye):
    X=              0.1379    Y=             -0.7005    Z=              0.1805  Tot=              0.7364
 Quadrupole moment (field-independent basis, Debye-Ang):
   XX=            -69.2959   YY=            -67.2900   ZZ=            -66.3371
   XY=             -1.4456   XZ=             -0.9102   YZ=             -0.8727

 Normal termination of Gaussian 16 at Sun Dec  3 12:47:49 2023.
