 Gaussian 16, Revision B.01,
 Gaussian 16:  ES64L-G16RevB.01 20-Dec-2017

 -------------------------
 #P B3LYP/6-311+g(d) force
 -------------------------

 -----
 DPGEN
 -----
 Symbolic Z-matrix:
 Charge =  0 Multiplicity = 2

                         Standard orientation:
 ---------------------------------------------------------------------
 Center     Atomic      Atomic             Coordinates (Angstroms)
 Number     Number       Type             X           Y           Z
 ---------------------------------------------------------------------
      1         11           0       -0.354128   -0.445665    1.944914
      2         11           0        2.964502   -1.978457   -0.833485
      3         11           0       -3.776661   -1.626222    0.616690
      4         11           0        0.132113   -0.369130   -1.895058
      5         11           0        3.243446    0.813745    1.033871
      6         11           0        0.574017    2.088234   -0.008108
      7         11           0       -2.783289    1.517495   -0.858824
 ---------------------------------------------------------------------

 SCF Done:  E(UB3LYP) =  -1136.11646016     A.U. after   27 cycles

 The electronic state is 2-A.
 Alpha  occ. eigenvalues --  -38.45342 -38.44996 -38.44689 -38.44579 -38.43747
 Alpha  occ. eigenvalues --  -38.43645 -38.42383  -2.21151  -2.20846  -2.20578
 Alpha  occ. eigenvalues --   -2.20394  -2.19502  -2.19464  -2.18339  -1.14837
 Alpha  occ. eigenvalues --   -1.14815  -1.14740  -1.14527  -1.14497  -1.14473
 Alpha  occ. eigenvalues --   -1.14267  -1.14230  -1.14179  -1.14082  -1.14044
 Alpha  occ. eigenvalues --   -1.14006  -1.13180  -1.13174  -1.13148  -1.13130
 Alpha  occ. eigenvalues --   -1.13121  -1.13104  -1.12035  -1.12013  -1.11972
 Alpha  occ. eigenvalues --   -0.18285  -0.13728  -0.11791  -0.11054
 Alpha virt. eigenvalues --   -0.06951  -0.05485  -0.04398  -0.03274  -0.02949
 Alpha virt. eigenvalues --   -0.02563  -0.02500  -0.01465  -0.00786  -0.00143
 Alpha virt. eigenvalues --    0.00097   0.00160   0.00299   0.00433   0.00632

  Beta  occ. eigenvalues --  -38.45273 -38.44970 -38.44607 -38.44564 -38.43765
  Beta  occ. eigenvalues --  -38.43623 -38.42376  -2.21025  -2.20800  -2.20429
  Beta  occ. eigenvalues --   -2.20366  -2.19536  -2.19426  -2.18332  -1.14755
  Beta  occ. eigenvalues --   -1.14728  -1.14640  -1.14499  -1.14455  -1.14440
  Beta  occ. eigenvalues --   -1.14176  -1.14126  -1.14067  -1.14049  -1.14020
  Beta  occ. eigenvalues --   -1.13992  -1.13204  -1.13195  -1.13167  -1.13099
  Beta  occ. eigenvalues --   -1.13089  -1.13079  -1.12038  -1.12003  -1.11926
  Beta  occ. eigenvalues --   -0.17515  -0.13649  -0.10722
  Beta virt. eigenvalues --   -0.07855  -0.06752  -0.05332  -0.03898  -0.02793
  Beta virt. eigenvalues --   -0.02526  -0.02154  -0.02059  -0.01117  -0.00548
  Beta virt. eigenvalues --   -0.00193   0.00098   0.00161   0.00414   0.00555

 Mulliken charges and spin densities:
               1          2
     1  Na  -0.525821   0.503186
     2  Na   0.066879  -0.050900
     3  Na   0.123919  -0.185238
     4  Na  -0.383306   0.544792
     5  Na   0.532422   0.052980
     6  Na  -0.098076   0.103548
     7  Na   0.283984   0.031633
 Sum of Mulliken charges =  -0.00000   1.00000

 Dipole moment (field-independent basis, Debye):
    X=              0.1980    Y=              0.5343    Z=              0.0926  Tot=              0.5773
 Quadrupole moment (field-independent basis, Debye-Ang):
   XX=            -55.8168   YY=            -73.0108   ZZ=            -69.7940
   XY=             -0.9184   XZ=              5.1705   YZ=              1.1832

 Normal termination of Gaussian 16 at Wed Dec  6 01:00:58 2023.
