 Gaussian 16, Revision B.01,
 Gaussian 16:  ES64L-G16RevB.01 20-Dec-2017

 -------------------------
 #P B3LYP/6-311+g(d) force
 -------------------------

 -----
 DPGEN
 -----
 Symbolic Z-matrix:
 Charge =  0 Multiplicity = 2

                         Standard orientation:
 ---------------------------------------------------------------------
 Center     Atomic      Atomic             Coordinates (Angstroms)
 Number     Number       Type             X           Y           Z
 ---------------------------------------------------------------------
      1         11           0       -3.442205   -0.706382   -0.641400
      2         11           0        0.835027    1.104188    1.814253
      3         11           0        2.110639    2.356753   -0.778588
      4         11           0       -2.086668    2.022029    0.335459
      5         11           0        0.110974   -0.613174   -1.614982
      6         11           0       -0.448473   -2.409984    1.123665
      7         11           0        2.920707   -1.753431   -0.238407
 ---------------------------------------------------------------------

 SCF Done:  E(UB3LYP) =  -1136.13139625     A.U. after   20 cycles

 The electronic state is 2-A.
 Alpha  occ. eigenvalues --  -38.44468 -38.44006 -38.43915 -38.43853 -38.43685
 Alpha  occ. eigenvalues --  -38.43569 -38.43230  -2.20260  -2.19830  -2.19736
 Alpha  occ. eigenvalues --   -2.19671  -2.19517  -2.19473  -2.19125  -1.13947
 Alpha  occ. eigenvalues --   -1.13912  -1.13895  -1.13529  -1.13514  -1.13483
 Alpha  occ. eigenvalues --   -1.13395  -1.13372  -1.13368  -1.13360  -1.13334
 Alpha  occ. eigenvalues --   -1.13295  -1.13233  -1.13178  -1.13146  -1.13128
 Alpha  occ. eigenvalues --   -1.13104  -1.13093  -1.12794  -1.12771  -1.12736
 Alpha  occ. eigenvalues --   -0.18051  -0.13108  -0.12147  -0.10703
 Alpha virt. eigenvalues --   -0.05973  -0.05533  -0.04270  -0.03388  -0.03090
 Alpha virt. eigenvalues --   -0.02404  -0.01815  -0.01267  -0.00570  -0.00115
 Alpha virt. eigenvalues --   -0.00004   0.00341   0.00605   0.00744   0.00774

  Beta  occ. eigenvalues --  -38.44465 -38.43999 -38.43906 -38.43840 -38.43648
  Beta  occ. eigenvalues --  -38.43521 -38.43170  -2.20258  -2.19822  -2.19720
  Beta  occ. eigenvalues --   -2.19649  -2.19450  -2.19387  -2.19014  -1.13936
  Beta  occ. eigenvalues --   -1.13913  -1.13886  -1.13524  -1.13488  -1.13479
  Beta  occ. eigenvalues --   -1.13375  -1.13362  -1.13352  -1.13351  -1.13313
  Beta  occ. eigenvalues --   -1.13274  -1.13185  -1.13114  -1.13089  -1.13085
  Beta  occ. eigenvalues --   -1.13044  -1.13025  -1.12721  -1.12691  -1.12654
  Beta  occ. eigenvalues --   -0.17363  -0.12877  -0.11962
  Beta virt. eigenvalues --   -0.06919  -0.05913  -0.05397  -0.04013  -0.02862
  Beta virt. eigenvalues --   -0.02449  -0.01736  -0.01469  -0.01223  -0.00399
  Beta virt. eigenvalues --   -0.00099   0.00093   0.00376   0.00703   0.00781

 Mulliken charges and spin densities:
               1          2
     1  Na   0.303230   0.027522
     2  Na   0.129769   0.411379
     3  Na  -0.000677  -0.016269
     4  Na  -0.191126  -0.039658
     5  Na  -0.242937   0.473301
     6  Na  -0.201329   0.194643
     7  Na   0.203070  -0.050919
 Sum of Mulliken charges =  -0.00000   1.00000

 Dipole moment (field-independent basis, Debye):
    X=              0.2815    Y=             -0.2415    Z=             -0.1038  Tot=              0.3851
 Quadrupole moment (field-independent basis, Debye-Ang):
   XX=            -54.4814   YY=            -66.5943   ZZ=            -72.5441
   XY=             -0.0543   XZ=             -0.5970   YZ=             -2.3560

 Normal termination of Gaussian 16 at Wed Dec  6 00:04:31 2023.
