 Gaussian 16, Revision B.01,
 Gaussian 16:  ES64L-G16RevB.01 20-Dec-2017

 -------------------------
 #P B3LYP/6-311+g(d) force
 -------------------------

 -----
 DPGEN
 -----
 Symbolic Z-matrix:
 Charge =  0 Multiplicity = 2

                         Standard orientation:
 ---------------------------------------------------------------------
 Center     Atomic      Atomic             Coordinates (Angstroms)
 Number     Number       Type             X           Y           Z
 ---------------------------------------------------------------------
      1         11           0       -1.031350    1.776389    0.686182
      2         11           0        0.583300   -2.483731    0.016412
      3         11           0        2.288798   -0.431300    1.887384
      4         11           0        3.202709   -0.342896   -1.690141
      5         11           0        1.876601    2.534222   -0.314655
      6         11           0       -4.551568    0.862454   -0.456141
      7         11           0       -2.368490   -1.915138   -0.129041
 ---------------------------------------------------------------------

 SCF Done:  E(UB3LYP) =  -1136.11860902     A.U. after   22 cycles

 The electronic state is 2-A.
 Alpha  occ. eigenvalues --  -38.45449 -38.44823 -38.44274 -38.44075 -38.43853
 Alpha  occ. eigenvalues --  -38.43812 -38.43117  -2.21263  -2.20593  -2.20095
 Alpha  occ. eigenvalues --   -2.19916  -2.19665  -2.19654  -2.18985  -1.14940
 Alpha  occ. eigenvalues --   -1.14919  -1.14888  -1.14258  -1.14249  -1.14218
 Alpha  occ. eigenvalues --   -1.13815  -1.13765  -1.13718  -1.13571  -1.13550
 Alpha  occ. eigenvalues --   -1.13530  -1.13423  -1.13335  -1.13329  -1.13319
 Alpha  occ. eigenvalues --   -1.13288  -1.13232  -1.12672  -1.12645  -1.12623
 Alpha  occ. eigenvalues --   -0.17420  -0.13929  -0.12177  -0.10657
 Alpha virt. eigenvalues --   -0.07249  -0.05566  -0.04139  -0.03559  -0.02862
 Alpha virt. eigenvalues --   -0.02495  -0.02191  -0.01551  -0.00827  -0.00754
 Alpha virt. eigenvalues --   -0.00185   0.00088   0.00278   0.00458   0.00693

  Beta  occ. eigenvalues --  -38.45420 -38.44798 -38.44279 -38.43973 -38.43829
  Beta  occ. eigenvalues --  -38.43800 -38.43114  -2.21212  -2.20544  -2.20106
  Beta  occ. eigenvalues --   -2.19727  -2.19638  -2.19623  -2.18982  -1.14904
  Beta  occ. eigenvalues --   -1.14866  -1.14853  -1.14225  -1.14214  -1.14188
  Beta  occ. eigenvalues --   -1.13818  -1.13768  -1.13727  -1.13442  -1.13424
  Beta  occ. eigenvalues --   -1.13400  -1.13397  -1.13311  -1.13302  -1.13291
  Beta  occ. eigenvalues --   -1.13267  -1.13188  -1.12676  -1.12635  -1.12610
  Beta  occ. eigenvalues --   -0.16836  -0.13504  -0.11971
  Beta virt. eigenvalues --   -0.07197  -0.06836  -0.05403  -0.03904  -0.03166
  Beta virt. eigenvalues --   -0.02485  -0.02134  -0.01458  -0.01401  -0.00728
  Beta virt. eigenvalues --   -0.00362  -0.00158   0.00179   0.00437   0.00570

 Mulliken charges and spin densities:
               1          2
     1  Na  -0.804281   0.053135
     2  Na  -0.493074   0.138358
     3  Na   0.357732   0.229174
     4  Na   0.056178   0.487125
     5  Na   0.303141   0.025854
     6  Na   0.356658   0.170059
     7  Na   0.223646  -0.103705
 Sum of Mulliken charges =  -0.00000   1.00000

 Dipole moment (field-independent basis, Debye):
    X=             -0.4003    Y=              0.2867    Z=              0.5148  Tot=              0.7124
 Quadrupole moment (field-independent basis, Debye-Ang):
   XX=            -56.2898   YY=            -71.8436   ZZ=            -69.4158
   XY=             -1.3542   XZ=              5.8325   YZ=             -0.6441

 Normal termination of Gaussian 16 at Fri Dec  8 17:22:23 2023.
