 Gaussian 16, Revision B.01,
 Gaussian 16:  ES64L-G16RevB.01 20-Dec-2017

 -------------------------
 #P B3LYP/6-311+g(d) force
 -------------------------

 -----
 DPGEN
 -----
 Symbolic Z-matrix:
 Charge =  0 Multiplicity = 2

                         Standard orientation:
 ---------------------------------------------------------------------
 Center     Atomic      Atomic             Coordinates (Angstroms)
 Number     Number       Type             X           Y           Z
 ---------------------------------------------------------------------
      1         11           0       -2.788151   -0.860033   -0.052339
      2         11           0        0.168995    0.715255    2.097863
      3         11           0       -0.166561   -0.554501   -1.639385
      4         11           0        2.677982   -1.000146   -0.169325
      5         11           0       -1.977398    2.159419   -0.274704
      6         11           0        2.079533    2.092569   -0.416348
      7         11           0        0.005601   -2.552562    0.454239
 ---------------------------------------------------------------------

 SCF Done:  E(UB3LYP) =  -1136.13182375     A.U. after   19 cycles

 The electronic state is 2-A.
 Alpha  occ. eigenvalues --  -38.43776 -38.43713 -38.43673 -38.43642 -38.43624
 Alpha  occ. eigenvalues --  -38.43404 -38.43012  -2.19699  -2.19603  -2.19597
 Alpha  occ. eigenvalues --   -2.19497  -2.19484  -2.19453  -2.18980  -1.13449
 Alpha  occ. eigenvalues --   -1.13373  -1.13348  -1.13334  -1.13304  -1.13269
 Alpha  occ. eigenvalues --   -1.13250  -1.13236  -1.13223  -1.13190  -1.13156
 Alpha  occ. eigenvalues --   -1.13148  -1.13135  -1.13134  -1.13117  -1.13107
 Alpha  occ. eigenvalues --   -1.13066  -1.13050  -1.12650  -1.12604  -1.12602
 Alpha  occ. eigenvalues --   -0.19230  -0.13426  -0.12441  -0.11131
 Alpha virt. eigenvalues --   -0.05339  -0.05291  -0.04274  -0.03420  -0.03232
 Alpha virt. eigenvalues --   -0.02602  -0.01316  -0.00899  -0.00150  -0.00065
 Alpha virt. eigenvalues --    0.00094   0.00382   0.00821   0.00942   0.00966

  Beta  occ. eigenvalues --  -38.43771 -38.43666 -38.43634 -38.43624 -38.43619
  Beta  occ. eigenvalues --  -38.43346 -38.42997  -2.19693  -2.19591  -2.19486
  Beta  occ. eigenvalues --   -2.19477  -2.19435  -2.19348  -2.18957  -1.13435
  Beta  occ. eigenvalues --   -1.13373  -1.13323  -1.13314  -1.13297  -1.13218
  Beta  occ. eigenvalues --   -1.13174  -1.13147  -1.13140  -1.13132  -1.13126
  Beta  occ. eigenvalues --   -1.13123  -1.13115  -1.13110  -1.13088  -1.13081
  Beta  occ. eigenvalues --   -1.12999  -1.12976  -1.12631  -1.12591  -1.12554
  Beta  occ. eigenvalues --   -0.18477  -0.13156  -0.12235
  Beta virt. eigenvalues --   -0.07159  -0.05317  -0.05244  -0.04214  -0.02621
  Beta virt. eigenvalues --   -0.02428  -0.01565  -0.01231  -0.00838  -0.00189
  Beta virt. eigenvalues --    0.00040   0.00126   0.00412   0.00902   0.00936

 Mulliken charges and spin densities:
               1          2
     1  Na   0.357679   0.053200
     2  Na  -0.765716   0.556980
     3  Na  -0.515322   0.255908
     4  Na   0.292868   0.036106
     5  Na   0.128927  -0.070956
     6  Na   0.135928  -0.047460
     7  Na   0.365636   0.216222
 Sum of Mulliken charges =  -0.00000   1.00000

 Dipole moment (field-independent basis, Debye):
    X=             -0.0383    Y=              0.3188    Z=              0.1659  Tot=              0.3615
 Quadrupole moment (field-independent basis, Debye-Ang):
   XX=            -58.5509   YY=            -65.2337   ZZ=            -71.6121
   XY=              0.0793   XZ=             -0.6283   YZ=             -2.3371

 Normal termination of Gaussian 16 at Thu Dec  7 15:44:14 2023.
