 Gaussian 16, Revision B.01,
 Gaussian 16:  ES64L-G16RevB.01 20-Dec-2017

 -------------------------
 #P B3LYP/6-311+g(d) force
 -------------------------

 -----
 DPGEN
 -----
 Symbolic Z-matrix:
 Charge =  0 Multiplicity = 2

                         Standard orientation:
 ---------------------------------------------------------------------
 Center     Atomic      Atomic             Coordinates (Angstroms)
 Number     Number       Type             X           Y           Z
 ---------------------------------------------------------------------
      1         11           0        1.867267   -1.464370    1.036900
      2         11           0        0.512934    0.807170    2.197000
      3         11           0       -3.436418   -1.948012   -0.106700
      4         11           0       -0.653916   -0.887395   -0.195200
      5         11           0        2.040780   -1.024075   -1.815700
      6         11           0        1.059251    1.393754   -0.573000
      7         11           0       -1.389897    3.122927   -0.543300
 ---------------------------------------------------------------------

 SCF Done:  E(UB3LYP) =  -1136.09148894     A.U. after   26 cycles

 The electronic state is 2-A.
 Alpha  occ. eigenvalues --  -38.45224 -38.44609 -38.44560 -38.44446 -38.43481
 Alpha  occ. eigenvalues --  -38.43130 -38.42530  -2.21238  -2.20656  -2.20614
 Alpha  occ. eigenvalues --   -2.20263  -2.19664  -2.18927  -2.18702  -1.15032
 Alpha  occ. eigenvalues --   -1.14863  -1.14831  -1.14490  -1.14364  -1.14332
 Alpha  occ. eigenvalues --   -1.14244  -1.14205  -1.14099  -1.13983  -1.13897
 Alpha  occ. eigenvalues --   -1.13888  -1.13413  -1.13340  -1.13215  -1.12685
 Alpha  occ. eigenvalues --   -1.12573  -1.12567  -1.12387  -1.12326  -1.12285
 Alpha  occ. eigenvalues --   -0.20199  -0.13038  -0.12710  -0.11643
 Alpha virt. eigenvalues --   -0.05697  -0.05429  -0.04083  -0.03457  -0.02824
 Alpha virt. eigenvalues --   -0.02466  -0.01619  -0.00809  -0.00686   0.00177
 Alpha virt. eigenvalues --    0.00254   0.00544   0.00678   0.00748   0.00889

  Beta  occ. eigenvalues --  -38.45123 -38.44546 -38.44517 -38.44435 -38.43447
  Beta  occ. eigenvalues --  -38.43142 -38.42508  -2.21058  -2.20583  -2.20503
  Beta  occ. eigenvalues --   -2.20243  -2.19611  -2.18949  -2.18669  -1.14908
  Beta  occ. eigenvalues --   -1.14727  -1.14700  -1.14435  -1.14283  -1.14248
  Beta  occ. eigenvalues --   -1.14180  -1.14126  -1.14025  -1.13963  -1.13882
  Beta  occ. eigenvalues --   -1.13875  -1.13385  -1.13242  -1.13183  -1.12695
  Beta  occ. eigenvalues --   -1.12586  -1.12582  -1.12342  -1.12291  -1.12262
  Beta  occ. eigenvalues --   -0.19239  -0.12841  -0.11579
  Beta virt. eigenvalues --   -0.08310  -0.05472  -0.05178  -0.03485  -0.02787
  Beta virt. eigenvalues --   -0.02354  -0.01900  -0.01513  -0.00755  -0.00348
  Beta virt. eigenvalues --    0.00233   0.00255   0.00688   0.00792   0.00872

 Mulliken charges and spin densities:
               1          2
     1  Na   0.661010   0.166367
     2  Na   0.452907   0.164539
     3  Na   0.619166  -0.266671
     4  Na  -3.914931   0.652764
     5  Na   1.735204  -0.169725
     6  Na   0.419217   0.603998
     7  Na   0.027426  -0.151273
 Sum of Mulliken charges =  -0.00000   1.00000

 Dipole moment (field-independent basis, Debye):
    X=              0.7472    Y=              0.8096    Z=              0.1623  Tot=              1.1136
 Quadrupole moment (field-independent basis, Debye-Ang):
   XX=            -63.7359   YY=            -66.3473   ZZ=            -63.4943
   XY=             -8.0036   XZ=             -0.2386   YZ=             -0.4479

 Normal termination of Gaussian 16 at Fri Dec  8 20:05:49 2023.
