 Gaussian 16, Revision B.01,
 Gaussian 16:  ES64L-G16RevB.01 20-Dec-2017

 -------------------------
 #P B3LYP/6-311+g(d) force
 -------------------------

 -----
 DPGEN
 -----
 Symbolic Z-matrix:
 Charge =  0 Multiplicity = 2

                         Standard orientation:
 ---------------------------------------------------------------------
 Center     Atomic      Atomic             Coordinates (Angstroms)
 Number     Number       Type             X           Y           Z
 ---------------------------------------------------------------------
      1         11           0        0.070438   -0.030844   -0.670391
      2         11           0       -2.299040    2.673491    0.469967
      3         11           0        3.970813    0.180086   -0.875356
      4         11           0       -3.802309   -0.786630   -0.599866
      5         11           0        1.113881    3.194966    0.420748
      6         11           0        2.044773   -2.183321    1.028403
      7         11           0       -1.098556   -3.047748    0.226496
 ---------------------------------------------------------------------

 SCF Done:  E(UB3LYP) =  -1136.12719160     A.U. after   21 cycles

 The electronic state is 2-A.
 Alpha  occ. eigenvalues --  -38.44514 -38.44371 -38.44269 -38.44157 -38.43722
 Alpha  occ. eigenvalues --  -38.43544 -38.43405  -2.20295  -2.20237  -2.20062
 Alpha  occ. eigenvalues --   -2.20002  -2.19570  -2.19352  -2.19212  -1.13981
 Alpha  occ. eigenvalues --   -1.13976  -1.13959  -1.13930  -1.13896  -1.13861
 Alpha  occ. eigenvalues --   -1.13737  -1.13720  -1.13681  -1.13680  -1.13665
 Alpha  occ. eigenvalues --   -1.13630  -1.13249  -1.13239  -1.13193  -1.13009
 Alpha  occ. eigenvalues --   -1.12995  -1.12963  -1.12874  -1.12850  -1.12835
 Alpha  occ. eigenvalues --   -0.17059  -0.13469  -0.13182  -0.09961
 Alpha virt. eigenvalues --   -0.06376  -0.05734  -0.04443  -0.03593  -0.02748
 Alpha virt. eigenvalues --   -0.02385  -0.01852  -0.01313  -0.01069  -0.00710
 Alpha virt. eigenvalues --   -0.00348   0.00105   0.00440   0.00570   0.00710

  Beta  occ. eigenvalues --  -38.44508 -38.44381 -38.44250 -38.44134 -38.43702
  Beta  occ. eigenvalues --  -38.43465 -38.43342  -2.20287  -2.20253  -2.20030
  Beta  occ. eigenvalues --   -2.19966  -2.19540  -2.19205  -2.19094  -1.13980
  Beta  occ. eigenvalues --   -1.13976  -1.13959  -1.13912  -1.13896  -1.13883
  Beta  occ. eigenvalues --   -1.13716  -1.13702  -1.13660  -1.13646  -1.13642
  Beta  occ. eigenvalues --   -1.13568  -1.13234  -1.13221  -1.13139  -1.12908
  Beta  occ. eigenvalues --   -1.12896  -1.12868  -1.12792  -1.12772  -1.12760
  Beta  occ. eigenvalues --   -0.16765  -0.12813  -0.12539
  Beta virt. eigenvalues --   -0.06726  -0.06423  -0.05514  -0.04119  -0.03082
  Beta virt. eigenvalues --   -0.02352  -0.02119  -0.01656  -0.01110  -0.00893
  Beta virt. eigenvalues --   -0.00436  -0.00038   0.00308   0.00557   0.00649

 Mulliken charges and spin densities:
               1          2
     1  Na  -2.369622  -0.128691
     2  Na   0.246338   0.024996
     3  Na   0.642803   0.499989
     4  Na   0.559264   0.383522
     5  Na   0.272942   0.079632
     6  Na   0.408617   0.048230
     7  Na   0.239657   0.092322
 Sum of Mulliken charges =  -0.00000   1.00000

 Dipole moment (field-independent basis, Debye):
    X=             -0.0085    Y=              0.2776    Z=              0.7814  Tot=              0.8293
 Quadrupole moment (field-independent basis, Debye-Ang):
   XX=            -66.1163   YY=            -62.0867   ZZ=            -70.6609
   XY=             -0.9141   XZ=              0.9653   YZ=             -0.1047

 Normal termination of Gaussian 16 at Wed Nov 29 16:05:30 2023.
