 Gaussian 16, Revision B.01,
 Gaussian 16:  ES64L-G16RevB.01 20-Dec-2017

 -------------------------
 #P B3LYP/6-311+g(d) force
 -------------------------

 -----
 DPGEN
 -----
 Symbolic Z-matrix:
 Charge =  0 Multiplicity = 2

                         Standard orientation:
 ---------------------------------------------------------------------
 Center     Atomic      Atomic             Coordinates (Angstroms)
 Number     Number       Type             X           Y           Z
 ---------------------------------------------------------------------
      1         11           0        3.381899   -1.532242   -0.815714
      2         11           0        0.671969    2.563746   -0.784264
      3         11           0       -3.229540   -2.007633   -0.362942
      4         11           0        0.089577   -1.068636   -0.883548
      5         11           0       -2.681615    2.013997   -0.225308
      6         11           0        2.534242    0.756027    1.194597
      7         11           0       -0.766532   -0.725259    1.877178
 ---------------------------------------------------------------------

 SCF Done:  E(UB3LYP) =  -1136.12116098     A.U. after   22 cycles

 The electronic state is 2-A.
 Alpha  occ. eigenvalues --  -38.44472 -38.44342 -38.44127 -38.44122 -38.43937
 Alpha  occ. eigenvalues --  -38.43912 -38.43167  -2.20263  -2.20117  -2.20015
 Alpha  occ. eigenvalues --   -2.19972  -2.19883  -2.19818  -2.18999  -1.13941
 Alpha  occ. eigenvalues --   -1.13917  -1.13899  -1.13800  -1.13787  -1.13770
 Alpha  occ. eigenvalues --   -1.13749  -1.13732  -1.13691  -1.13669  -1.13638
 Alpha  occ. eigenvalues --   -1.13603  -1.13564  -1.13525  -1.13472  -1.13439
 Alpha  occ. eigenvalues --   -1.13428  -1.13373  -1.12677  -1.12670  -1.12626
 Alpha  occ. eigenvalues --   -0.18209  -0.13769  -0.11783  -0.10481
 Alpha virt. eigenvalues --   -0.06432  -0.06176  -0.04085  -0.03474  -0.02449
 Alpha virt. eigenvalues --   -0.02393  -0.01989  -0.01724  -0.00563  -0.00340
 Alpha virt. eigenvalues --    0.00041   0.00175   0.00443   0.00564   0.00622

  Beta  occ. eigenvalues --  -38.44470 -38.44333 -38.44095 -38.44092 -38.43915
  Beta  occ. eigenvalues --  -38.43831 -38.43161  -2.20260  -2.20102  -2.19969
  Beta  occ. eigenvalues --   -2.19907  -2.19847  -2.19671  -2.18991  -1.13936
  Beta  occ. eigenvalues --   -1.13912  -1.13897  -1.13781  -1.13761  -1.13740
  Beta  occ. eigenvalues --   -1.13713  -1.13695  -1.13664  -1.13615  -1.13588
  Beta  occ. eigenvalues --   -1.13555  -1.13523  -1.13503  -1.13441  -1.13355
  Beta  occ. eigenvalues --   -1.13333  -1.13260  -1.12671  -1.12651  -1.12623
  Beta  occ. eigenvalues --   -0.17556  -0.13570  -0.11544
  Beta virt. eigenvalues --   -0.06780  -0.06243  -0.05970  -0.03650  -0.03172
  Beta virt. eigenvalues --   -0.02297  -0.01904  -0.01558  -0.01234  -0.00481
  Beta virt. eigenvalues --   -0.00060   0.00119   0.00228   0.00594   0.00624

 Mulliken charges and spin densities:
               1          2
     1  Na   0.148533   0.014951
     2  Na  -0.197454  -0.100462
     3  Na   0.809563   0.103133
     4  Na  -1.197032   0.458241
     5  Na   0.017649   0.124532
     6  Na   0.411351   0.237660
     7  Na   0.007391   0.161945
 Sum of Mulliken charges =  -0.00000   1.00000

 Dipole moment (field-independent basis, Debye):
    X=             -0.5993    Y=             -0.3666    Z=              0.2404  Tot=              0.7426
 Quadrupole moment (field-independent basis, Debye-Ang):
   XX=            -49.0221   YY=            -71.7953   ZZ=            -72.5987
   XY=              2.6511   XZ=              0.8195   YZ=              2.0724

 Normal termination of Gaussian 16 at Thu Dec  7 22:30:56 2023.
