 Gaussian 16, Revision B.01,
 Gaussian 16:  ES64L-G16RevB.01 20-Dec-2017

 -------------------------
 #P B3LYP/6-311+g(d) force
 -------------------------

 -----
 DPGEN
 -----
 Symbolic Z-matrix:
 Charge =  0 Multiplicity = 2

                         Standard orientation:
 ---------------------------------------------------------------------
 Center     Atomic      Atomic             Coordinates (Angstroms)
 Number     Number       Type             X           Y           Z
 ---------------------------------------------------------------------
      1         11           0       -0.236719    2.895812   -0.732741
      2         11           0        2.454976    1.364370    0.697706
      3         11           0       -1.089186    0.499787    1.781941
      4         11           0       -2.255512   -2.666760    0.308356
      5         11           0       -3.024673    0.548749   -0.764640
      6         11           0        3.811168   -1.606535   -0.323801
      7         11           0        0.339947   -1.035423   -0.966821
 ---------------------------------------------------------------------

 SCF Done:  E(UB3LYP) =  -1136.12929055     A.U. after   21 cycles

 The electronic state is 2-A.
 Alpha  occ. eigenvalues --  -38.44288 -38.44148 -38.44043 -38.43903 -38.43896
 Alpha  occ. eigenvalues --  -38.43512 -38.43216  -2.20165  -2.19935  -2.19874
 Alpha  occ. eigenvalues --   -2.19784  -2.19743  -2.19430  -2.19052  -1.13866
 Alpha  occ. eigenvalues --   -1.13824  -1.13770  -1.13605  -1.13596  -1.13579
 Alpha  occ. eigenvalues --   -1.13570  -1.13528  -1.13513  -1.13498  -1.13454
 Alpha  occ. eigenvalues --   -1.13427  -1.13419  -1.13375  -1.13351  -1.13115
 Alpha  occ. eigenvalues --   -1.13099  -1.13006  -1.12728  -1.12704  -1.12697
 Alpha  occ. eigenvalues --   -0.18249  -0.13692  -0.12156  -0.10060
 Alpha virt. eigenvalues --   -0.06561  -0.05722  -0.04574  -0.03177  -0.02575
 Alpha virt. eigenvalues --   -0.02334  -0.01770  -0.01431  -0.00960  -0.00260
 Alpha virt. eigenvalues --   -0.00180   0.00218   0.00423   0.00619   0.00746

  Beta  occ. eigenvalues --  -38.44248 -38.44143 -38.44035 -38.43885 -38.43883
  Beta  occ. eigenvalues --  -38.43443 -38.43203  -2.20094  -2.19925  -2.19862
  Beta  occ. eigenvalues --   -2.19754  -2.19720  -2.19304  -2.19032  -1.13813
  Beta  occ. eigenvalues --   -1.13771  -1.13713  -1.13597  -1.13588  -1.13572
  Beta  occ. eigenvalues --   -1.13561  -1.13508  -1.13496  -1.13469  -1.13427
  Beta  occ. eigenvalues --   -1.13411  -1.13398  -1.13357  -1.13329  -1.13030
  Beta  occ. eigenvalues --   -1.13005  -1.12913  -1.12717  -1.12691  -1.12658
  Beta  occ. eigenvalues --   -0.17619  -0.13510  -0.11883
  Beta virt. eigenvalues --   -0.06494  -0.06281  -0.05596  -0.04327  -0.02677
  Beta virt. eigenvalues --   -0.02184  -0.02015  -0.01451  -0.00924  -0.00842
  Beta virt. eigenvalues --   -0.00189   0.00092   0.00290   0.00539   0.00669

 Mulliken charges and spin densities:
               1          2
     1  Na  -0.102593   0.107448
     2  Na   0.186253   0.053296
     3  Na  -0.233947   0.342987
     4  Na   0.450161   0.005771
     5  Na   0.446382   0.337551
     6  Na   0.243591  -0.020331
     7  Na  -0.989848   0.173278
 Sum of Mulliken charges =  -0.00000   1.00000

 Dipole moment (field-independent basis, Debye):
    X=             -0.0371    Y=             -0.4498    Z=              0.2190  Tot=              0.5016
 Quadrupole moment (field-independent basis, Debye-Ang):
   XX=            -53.7916   YY=            -63.7531   ZZ=            -75.3156
   XY=              2.2816   XZ=              0.2997   YZ=             -0.6637

 Normal termination of Gaussian 16 at Wed Dec  6 00:49:48 2023.
