 Gaussian 16, Revision B.01,
 Gaussian 16:  ES64L-G16RevB.01 20-Dec-2017

 -------------------------
 #P B3LYP/6-311+g(d) force
 -------------------------

 -----
 DPGEN
 -----
 Symbolic Z-matrix:
 Charge =  0 Multiplicity = 2

                         Standard orientation:
 ---------------------------------------------------------------------
 Center     Atomic      Atomic             Coordinates (Angstroms)
 Number     Number       Type             X           Y           Z
 ---------------------------------------------------------------------
      1         11           0        3.238381    1.964498    0.710918
      2         11           0        0.189695    2.006447    0.601885
      3         11           0        4.438119   -1.470339   -0.808012
      4         11           0       -2.405255   -1.297131    2.133282
      5         11           0       -3.825143   -1.379177   -0.668529
      6         11           0       -3.073982    1.964697   -1.457413
      7         11           0        1.438185   -1.788995   -0.512132
 ---------------------------------------------------------------------

 SCF Done:  E(UB3LYP) =  -1136.10661939     A.U. after   23 cycles

 The electronic state is 2-A.
 Alpha  occ. eigenvalues --  -38.44994 -38.44966 -38.44780 -38.44737 -38.44703
 Alpha  occ. eigenvalues --  -38.43679 -38.42962  -2.20797  -2.20753  -2.20586
 Alpha  occ. eigenvalues --   -2.20552  -2.20505  -2.19507  -2.18782  -1.14505
 Alpha  occ. eigenvalues --   -1.14463  -1.14450  -1.14432  -1.14423  -1.14399
 Alpha  occ. eigenvalues --   -1.14277  -1.14250  -1.14200  -1.14190  -1.14182
 Alpha  occ. eigenvalues --   -1.14171  -1.14155  -1.14127  -1.14125  -1.13174
 Alpha  occ. eigenvalues --   -1.13152  -1.13140  -1.12461  -1.12444  -1.12436
 Alpha  occ. eigenvalues --   -0.16455  -0.14421  -0.11831  -0.10976
 Alpha virt. eigenvalues --   -0.07149  -0.05848  -0.03916  -0.03525  -0.03278
 Alpha virt. eigenvalues --   -0.02866  -0.02119  -0.02055  -0.00961  -0.00651
 Alpha virt. eigenvalues --   -0.00291  -0.00051  -0.00007   0.00287   0.00535

  Beta  occ. eigenvalues --  -38.44996 -38.44966 -38.44766 -38.44663 -38.44604
  Beta  occ. eigenvalues --  -38.43659 -38.42961  -2.20807  -2.20755  -2.20562
  Beta  occ. eigenvalues --   -2.20413  -2.20320  -2.19469  -2.18783  -1.14500
  Beta  occ. eigenvalues --   -1.14475  -1.14436  -1.14424  -1.14410  -1.14401
  Beta  occ. eigenvalues --   -1.14257  -1.14233  -1.14184  -1.14098  -1.14088
  Beta  occ. eigenvalues --   -1.14082  -1.14029  -1.14006  -1.13998  -1.13149
  Beta  occ. eigenvalues --   -1.13126  -1.13116  -1.12463  -1.12442  -1.12426
  Beta  occ. eigenvalues --   -0.15973  -0.13920  -0.11288
  Beta virt. eigenvalues --   -0.07578  -0.07066  -0.05485  -0.03455  -0.03185
  Beta virt. eigenvalues --   -0.02981  -0.02726  -0.01967  -0.01515  -0.00644
  Beta virt. eigenvalues --   -0.00375  -0.00151   0.00055   0.00148   0.00409

 Mulliken charges and spin densities:
               1          2
     1  Na   0.071153   0.017679
     2  Na  -0.652329   0.054219
     3  Na   0.477918   0.056727
     4  Na   0.339095   0.378311
     5  Na  -0.105692   0.044237
     6  Na   0.462439   0.407939
     7  Na  -0.592583   0.040886
 Sum of Mulliken charges =  -0.00000   1.00000

 Dipole moment (field-independent basis, Debye):
    X=              0.0214    Y=             -0.2405    Z=              0.0706  Tot=              0.2516
 Quadrupole moment (field-independent basis, Debye-Ang):
   XX=            -53.4645   YY=            -76.3652   ZZ=            -70.2832
   XY=              6.4159   XZ=              2.2263   YZ=              0.2033

 Normal termination of Gaussian 16 at Mon Dec  4 01:40:49 2023.
