 Gaussian 16, Revision B.01,
 Gaussian 16:  ES64L-G16RevB.01 20-Dec-2017

 -------------------------
 #P B3LYP/6-311+g(d) force
 -------------------------

 -----
 DPGEN
 -----
 Symbolic Z-matrix:
 Charge =  0 Multiplicity = 2

                         Standard orientation:
 ---------------------------------------------------------------------
 Center     Atomic      Atomic             Coordinates (Angstroms)
 Number     Number       Type             X           Y           Z
 ---------------------------------------------------------------------
      1         11           0        3.365954   -1.500906   -0.392154
      2         11           0       -1.370123    2.733005   -0.053086
      3         11           0       -0.138722   -0.331208    2.112108
      4         11           0       -3.165044   -0.171199   -0.401522
      5         11           0       -1.129826   -2.754757    0.117083
      6         11           0        0.020597   -0.084048   -1.561919
      7         11           0        2.417163    2.109114    0.179490
 ---------------------------------------------------------------------

 SCF Done:  E(UB3LYP) =  -1136.13197393     A.U. after   22 cycles

 The electronic state is 2-A.
 Alpha  occ. eigenvalues --  -38.44571 -38.44296 -38.44136 -38.43706 -38.43569
 Alpha  occ. eigenvalues --  -38.43398 -38.43150  -2.20319  -2.20070  -2.19999
 Alpha  occ. eigenvalues --   -2.19572  -2.19493  -2.19267  -2.18974  -1.13994
 Alpha  occ. eigenvalues --   -1.13970  -1.13955  -1.13755  -1.13736  -1.13696
 Alpha  occ. eigenvalues --   -1.13678  -1.13656  -1.13639  -1.13250  -1.13200
 Alpha  occ. eigenvalues --   -1.13193  -1.13188  -1.13147  -1.13108  -1.12934
 Alpha  occ. eigenvalues --   -1.12925  -1.12899  -1.12649  -1.12642  -1.12613
 Alpha  occ. eigenvalues --   -0.18171  -0.13076  -0.12069  -0.10589
 Alpha virt. eigenvalues --   -0.06097  -0.05582  -0.04524  -0.03146  -0.02762
 Alpha virt. eigenvalues --   -0.02462  -0.01928  -0.01330  -0.00658  -0.00490
 Alpha virt. eigenvalues --   -0.00063   0.00282   0.00673   0.00767   0.00827

  Beta  occ. eigenvalues --  -38.44562 -38.44295 -38.44123 -38.43603 -38.43522
  Beta  occ. eigenvalues --  -38.43391 -38.43149  -2.20303  -2.20069  -2.19977
  Beta  occ. eigenvalues --   -2.19407  -2.19382  -2.19258  -2.18975  -1.13975
  Beta  occ. eigenvalues --   -1.13961  -1.13946  -1.13745  -1.13735  -1.13695
  Beta  occ. eigenvalues --   -1.13657  -1.13636  -1.13618  -1.13151  -1.13105
  Beta  occ. eigenvalues --   -1.13089  -1.13065  -1.13058  -1.13039  -1.12926
  Beta  occ. eigenvalues --   -1.12898  -1.12881  -1.12648  -1.12638  -1.12603
  Beta  occ. eigenvalues --   -0.17476  -0.12856  -0.11827
  Beta virt. eigenvalues --   -0.06772  -0.05959  -0.05522  -0.04471  -0.02481
  Beta virt. eigenvalues --   -0.02043  -0.01793  -0.01459  -0.01270  -0.00669
  Beta virt. eigenvalues --   -0.00514   0.00101   0.00336   0.00740   0.00794

 Mulliken charges and spin densities:
               1          2
     1  Na  -0.007427  -0.014910
     2  Na  -0.087979  -0.026848
     3  Na  -0.379015   0.642780
     4  Na   0.335385   0.087238
     5  Na   0.280758   0.000155
     6  Na  -0.116214   0.338081
     7  Na  -0.025509  -0.026497
 Sum of Mulliken charges =  -0.00000   1.00000

 Dipole moment (field-independent basis, Debye):
    X=              0.3196    Y=             -0.1322    Z=              0.0883  Tot=              0.3570
 Quadrupole moment (field-independent basis, Debye-Ang):
   XX=            -54.6154   YY=            -63.4591   ZZ=            -75.2603
   XY=              0.2562   XZ=              0.6234   YZ=              1.0802

 Normal termination of Gaussian 16 at Fri Dec  8 00:28:36 2023.
