 Gaussian 16, Revision B.01,
 Gaussian 16:  ES64L-G16RevB.01 20-Dec-2017

 -------------------------
 #P B3LYP/6-311+g(d) force
 -------------------------

 -----
 DPGEN
 -----
 Symbolic Z-matrix:
 Charge =  0 Multiplicity = 2

                         Standard orientation:
 ---------------------------------------------------------------------
 Center     Atomic      Atomic             Coordinates (Angstroms)
 Number     Number       Type             X           Y           Z
 ---------------------------------------------------------------------
      1         11           0        0.276937   -2.530414    0.858335
      2         11           0       -2.717178   -1.821061   -0.210781
      3         11           0       -0.315130    0.249622   -1.074382
      4         11           0        1.081298    2.614625    0.181515
      5         11           0        2.660343   -0.667280   -1.621369
      6         11           0        1.819954    0.178401    1.773915
      7         11           0       -2.806224    1.976105    0.092767
 ---------------------------------------------------------------------

 SCF Done:  E(UB3LYP) =  -1136.12725691     A.U. after   19 cycles

 The electronic state is 2-A.
 Alpha  occ. eigenvalues --  -38.44221 -38.44216 -38.43912 -38.43778 -38.43630
 Alpha  occ. eigenvalues --  -38.43198 -38.42831  -2.20078  -2.20010  -2.19744
 Alpha  occ. eigenvalues --   -2.19678  -2.19569  -2.19082  -2.18914  -1.13770
 Alpha  occ. eigenvalues --   -1.13693  -1.13693  -1.13690  -1.13678  -1.13635
 Alpha  occ. eigenvalues --   -1.13470  -1.13436  -1.13414  -1.13384  -1.13370
 Alpha  occ. eigenvalues --   -1.13275  -1.13232  -1.13179  -1.13158  -1.12770
 Alpha  occ. eigenvalues --   -1.12735  -1.12709  -1.12602  -1.12568  -1.12544
 Alpha  occ. eigenvalues --   -0.18616  -0.13214  -0.12434  -0.11003
 Alpha virt. eigenvalues --   -0.05837  -0.05320  -0.04496  -0.03119  -0.02837
 Alpha virt. eigenvalues --   -0.02474  -0.01577  -0.01054  -0.00395  -0.00291
 Alpha virt. eigenvalues --   -0.00102   0.00336   0.00677   0.00807   0.00873

  Beta  occ. eigenvalues --  -38.44226 -38.44138 -38.43916 -38.43764 -38.43565
  Beta  occ. eigenvalues --  -38.43178 -38.42795  -2.20020  -2.19935  -2.19752
  Beta  occ. eigenvalues --   -2.19656  -2.19451  -2.19047  -2.18853  -1.13699
  Beta  occ. eigenvalues --   -1.13684  -1.13661  -1.13644  -1.13597  -1.13592
  Beta  occ. eigenvalues --   -1.13444  -1.13437  -1.13413  -1.13377  -1.13347
  Beta  occ. eigenvalues --   -1.13253  -1.13152  -1.13096  -1.13085  -1.12747
  Beta  occ. eigenvalues --   -1.12695  -1.12685  -1.12554  -1.12520  -1.12490
  Beta  occ. eigenvalues --   -0.17967  -0.13006  -0.12232
  Beta virt. eigenvalues --   -0.06953  -0.05719  -0.05124  -0.04380  -0.02695
  Beta virt. eigenvalues --   -0.02183  -0.01771  -0.01079  -0.01021  -0.00302
  Beta virt. eigenvalues --   -0.00198   0.00073   0.00426   0.00783   0.00838

 Mulliken charges and spin densities:
               1          2
     1  Na  -0.299527   0.112259
     2  Na   0.049445  -0.110552
     3  Na   0.484386   0.647572
     4  Na   0.203562   0.052323
     5  Na   0.006262   0.100332
     6  Na  -0.239059   0.323044
     7  Na  -0.205069  -0.124978
 Sum of Mulliken charges =  -0.00000   1.00000

 Dipole moment (field-independent basis, Debye):
    X=             -0.2722    Y=              0.1484    Z=              0.1854  Tot=              0.3613
 Quadrupole moment (field-independent basis, Debye-Ang):
   XX=            -56.0039   YY=            -64.0767   ZZ=            -72.7916
   XY=             -0.5597   XZ=             -1.9305   YZ=              1.0538

 Normal termination of Gaussian 16 at Wed Nov 29 00:28:53 2023.
