 Gaussian 16, Revision B.01,
 Gaussian 16:  ES64L-G16RevB.01 20-Dec-2017

 -------------------------
 #P B3LYP/6-311+g(d) force
 -------------------------

 -----
 DPGEN
 -----
 Symbolic Z-matrix:
 Charge =  0 Multiplicity = 2

                         Standard orientation:
 ---------------------------------------------------------------------
 Center     Atomic      Atomic             Coordinates (Angstroms)
 Number     Number       Type             X           Y           Z
 ---------------------------------------------------------------------
      1         11           0       -0.626081   -2.680248   -0.346114
      2         11           0       -1.491042    2.516000    0.044612
      3         11           0        0.061429    0.252237   -1.706081
      4         11           0        0.173416   -0.462698    1.989226
      5         11           0        2.743151   -1.414141   -0.124519
      6         11           0       -2.923643   -0.466742    0.068884
      7         11           0        2.062771    2.255592    0.073992
 ---------------------------------------------------------------------

 SCF Done:  E(UB3LYP) =  -1136.14011607     A.U. after   17 cycles

 The electronic state is 2-A.
 Alpha  occ. eigenvalues --  -38.43823 -38.43767 -38.43502 -38.43492 -38.43455
 Alpha  occ. eigenvalues --  -38.43316 -38.43129  -2.19657  -2.19596  -2.19404
 Alpha  occ. eigenvalues --   -2.19387  -2.19319  -2.19227  -2.19118  -1.13334
 Alpha  occ. eigenvalues --   -1.13329  -1.13297  -1.13280  -1.13262  -1.13224
 Alpha  occ. eigenvalues --   -1.13105  -1.13085  -1.13067  -1.13045  -1.13038
 Alpha  occ. eigenvalues --   -1.13011  -1.13010  -1.12971  -1.12937  -1.12920
 Alpha  occ. eigenvalues --   -1.12878  -1.12839  -1.12787  -1.12739  -1.12734
 Alpha  occ. eigenvalues --   -0.18911  -0.12913  -0.12725  -0.10808
 Alpha virt. eigenvalues --   -0.05439  -0.05150  -0.04712  -0.03115  -0.03055
 Alpha virt. eigenvalues --   -0.02544  -0.01335  -0.01143  -0.00275  -0.00206
 Alpha virt. eigenvalues --   -0.00007   0.00374   0.00844   0.00887   0.00937

  Beta  occ. eigenvalues --  -38.43819 -38.43765 -38.43498 -38.43451 -38.43404
  Beta  occ. eigenvalues --  -38.43304 -38.43059  -2.19653  -2.19594  -2.19383
  Beta  occ. eigenvalues --   -2.19316  -2.19242  -2.19209  -2.18990  -1.13328
  Beta  occ. eigenvalues --   -1.13304  -1.13297  -1.13274  -1.13247  -1.13226
  Beta  occ. eigenvalues --   -1.13087  -1.13084  -1.13014  -1.12998  -1.12979
  Beta  occ. eigenvalues --   -1.12955  -1.12938  -1.12927  -1.12900  -1.12890
  Beta  occ. eigenvalues --   -1.12834  -1.12829  -1.12704  -1.12647  -1.12643
  Beta  occ. eigenvalues --   -0.18164  -0.12677  -0.12487
  Beta virt. eigenvalues --   -0.06871  -0.05450  -0.05114  -0.04666  -0.02316
  Beta virt. eigenvalues --   -0.02267  -0.01480  -0.01255  -0.01075  -0.00323
  Beta virt. eigenvalues --   -0.00261   0.00133   0.00394   0.00876   0.00896

 Mulliken charges and spin densities:
               1          2
     1  Na   0.354321  -0.007760
     2  Na   0.115982  -0.054126
     3  Na  -0.272102   0.518032
     4  Na  -0.576802   0.764083
     5  Na   0.180842  -0.107122
     6  Na   0.151753  -0.005967
     7  Na   0.046006  -0.107139
 Sum of Mulliken charges =  -0.00000   1.00000

 Dipole moment (field-independent basis, Debye):
    X=              0.3033    Y=              0.0631    Z=              0.1380  Tot=              0.3391
 Quadrupole moment (field-independent basis, Debye-Ang):
   XX=            -58.0724   YY=            -61.8119   ZZ=            -73.8195
   XY=             -0.1010   XZ=             -0.3056   YZ=              1.5487

 Normal termination of Gaussian 16 at Thu Dec  7 13:35:16 2023.
