 Gaussian 16, Revision B.01,
 Gaussian 16:  ES64L-G16RevB.01 20-Dec-2017

 -------------------------
 #P B3LYP/6-311+g(d) force
 -------------------------

 -----
 DPGEN
 -----
 Symbolic Z-matrix:
 Charge =  0 Multiplicity = 2

                         Standard orientation:
 ---------------------------------------------------------------------
 Center     Atomic      Atomic             Coordinates (Angstroms)
 Number     Number       Type             X           Y           Z
 ---------------------------------------------------------------------
      1         11           0        2.773373    1.310227    0.156071
      2         11           0        2.374981   -2.120784   -0.290652
      3         11           0       -3.130910    0.421473    0.101666
      4         11           0       -1.758765   -2.682525    0.048247
      5         11           0        0.110445   -0.034972   -1.670126
      6         11           0       -0.677054    2.992953   -0.340622
      7         11           0        0.307930    0.113627    1.995416
 ---------------------------------------------------------------------

 SCF Done:  E(UB3LYP) =  -1136.13788699     A.U. after   19 cycles

 The electronic state is 2-A.
 Alpha  occ. eigenvalues --  -38.44036 -38.44026 -38.43929 -38.43690 -38.43631
 Alpha  occ. eigenvalues --  -38.43309 -38.43224  -2.19879  -2.19852  -2.19749
 Alpha  occ. eigenvalues --   -2.19512  -2.19487  -2.19164  -2.19134  -1.13574
 Alpha  occ. eigenvalues --   -1.13548  -1.13528  -1.13518  -1.13509  -1.13495
 Alpha  occ. eigenvalues --   -1.13431  -1.13403  -1.13380  -1.13182  -1.13161
 Alpha  occ. eigenvalues --   -1.13150  -1.13134  -1.13131  -1.13128  -1.12862
 Alpha  occ. eigenvalues --   -1.12834  -1.12794  -1.12791  -1.12771  -1.12762
 Alpha  occ. eigenvalues --   -0.18345  -0.13114  -0.12233  -0.10578
 Alpha virt. eigenvalues --   -0.05557  -0.05542  -0.04813  -0.03213  -0.02752
 Alpha virt. eigenvalues --   -0.02462  -0.01548  -0.01274  -0.00601  -0.00525
 Alpha virt. eigenvalues --   -0.00010   0.00355   0.00777   0.00822   0.00861

  Beta  occ. eigenvalues --  -38.44035 -38.44018 -38.43921 -38.43690 -38.43541
  Beta  occ. eigenvalues --  -38.43302 -38.43157  -2.19867  -2.19852  -2.19737
  Beta  occ. eigenvalues --   -2.19490  -2.19346  -2.19124  -2.19043  -1.13560
  Beta  occ. eigenvalues --   -1.13521  -1.13513  -1.13513  -1.13506  -1.13494
  Beta  occ. eigenvalues --   -1.13412  -1.13386  -1.13374  -1.13156  -1.13145
  Beta  occ. eigenvalues --   -1.13131  -1.13071  -1.13016  -1.13012  -1.12818
  Beta  occ. eigenvalues --   -1.12778  -1.12766  -1.12760  -1.12706  -1.12688
  Beta  occ. eigenvalues --   -0.17629  -0.12894  -0.11996
  Beta virt. eigenvalues --   -0.06702  -0.05543  -0.05471  -0.04773  -0.02439
  Beta virt. eigenvalues --   -0.02039  -0.01457  -0.01421  -0.01182  -0.00655
  Beta virt. eigenvalues --   -0.00570   0.00133   0.00387   0.00821   0.00848

 Mulliken charges and spin densities:
               1          2
     1  Na   0.321887   0.003807
     2  Na   0.046114  -0.095941
     3  Na   0.012126  -0.050685
     4  Na  -0.065984  -0.107172
     5  Na  -0.065560   0.585433
     6  Na   0.057639  -0.062619
     7  Na  -0.306221   0.727177
 Sum of Mulliken charges =  -0.00000   1.00000

 Dipole moment (field-independent basis, Debye):
    X=              0.1642    Y=             -0.0864    Z=              0.1033  Tot=              0.2124
 Quadrupole moment (field-independent basis, Debye-Ang):
   XX=            -56.4915   YY=            -61.2305   ZZ=            -75.4842
   XY=             -0.3764   XZ=             -0.6067   YZ=             -0.2714

 Normal termination of Gaussian 16 at Thu Dec  7 06:59:48 2023.
