 Gaussian 16, Revision B.01,
 Gaussian 16:  ES64L-G16RevB.01 20-Dec-2017

 -------------------------
 #P B3LYP/6-311+g(d) force
 -------------------------

 -----
 DPGEN
 -----
 Symbolic Z-matrix:
 Charge =  0 Multiplicity = 2

                         Standard orientation:
 ---------------------------------------------------------------------
 Center     Atomic      Atomic             Coordinates (Angstroms)
 Number     Number       Type             X           Y           Z
 ---------------------------------------------------------------------
      1         11           0       -0.424859   -0.373050    2.165794
      2         11           0        1.195791   -2.938991   -0.502558
      3         11           0       -1.196368    2.636085   -0.219554
      4         11           0       -4.068283    0.269657    0.235955
      5         11           0       -1.278565   -1.895141   -1.427913
      6         11           0        2.322609    2.444920   -1.118892
      7         11           0        3.449674   -0.143481    0.867167
 ---------------------------------------------------------------------

 SCF Done:  E(UB3LYP) =  -1136.11533947     A.U. after   21 cycles

 The electronic state is 2-A.
 Alpha  occ. eigenvalues --  -38.45337 -38.44890 -38.44836 -38.44529 -38.43777
 Alpha  occ. eigenvalues --  -38.43676 -38.43589  -2.21080  -2.20670  -2.20599
 Alpha  occ. eigenvalues --   -2.20289  -2.19643  -2.19461  -2.19439  -1.14754
 Alpha  occ. eigenvalues --   -1.14745  -1.14710  -1.14341  -1.14317  -1.14275
 Alpha  occ. eigenvalues --   -1.14270  -1.14256  -1.14240  -1.13981  -1.13974
 Alpha  occ. eigenvalues --   -1.13898  -1.13492  -1.13282  -1.13256  -1.13125
 Alpha  occ. eigenvalues --   -1.13110  -1.13104  -1.13077  -1.13054  -1.13036
 Alpha  occ. eigenvalues --   -0.16895  -0.13069  -0.12593  -0.10578
 Alpha virt. eigenvalues --   -0.07093  -0.05642  -0.04419  -0.03525  -0.03279
 Alpha virt. eigenvalues --   -0.02456  -0.02273  -0.01341  -0.00885  -0.00417
 Alpha virt. eigenvalues --   -0.00336   0.00157   0.00186   0.00519   0.00669

  Beta  occ. eigenvalues --  -38.45338 -38.44828 -38.44804 -38.44517 -38.43732
  Beta  occ. eigenvalues --  -38.43649 -38.43579  -2.21083  -2.20585  -2.20511
  Beta  occ. eigenvalues --   -2.20269  -2.19560  -2.19424  -2.19411  -1.14750
  Beta  occ. eigenvalues --   -1.14748  -1.14712  -1.14261  -1.14250  -1.14235
  Beta  occ. eigenvalues --   -1.14224  -1.14210  -1.14152  -1.13963  -1.13961
  Beta  occ. eigenvalues --   -1.13874  -1.13445  -1.13227  -1.13193  -1.13091
  Beta  occ. eigenvalues --   -1.13078  -1.13067  -1.13067  -1.13042  -1.12994
  Beta  occ. eigenvalues --   -0.16320  -0.13012  -0.12068
  Beta virt. eigenvalues --   -0.07165  -0.06791  -0.05524  -0.04008  -0.03163
  Beta virt. eigenvalues --   -0.02674  -0.02252  -0.01584  -0.01279  -0.00810
  Beta virt. eigenvalues --   -0.00351  -0.00147   0.00216   0.00379   0.00698

 Mulliken charges and spin densities:
               1          2
     1  Na  -0.197300   0.406023
     2  Na   0.084819   0.045533
     3  Na  -0.302335   0.167641
     4  Na   0.531967   0.013766
     5  Na  -0.220611   0.247036
     6  Na   0.037242   0.051919
     7  Na   0.066218   0.068082
 Sum of Mulliken charges =  -0.00000   1.00000

 Dipole moment (field-independent basis, Debye):
    X=             -0.8528    Y=              0.0604    Z=              0.3985  Tot=              0.9433
 Quadrupole moment (field-independent basis, Debye-Ang):
   XX=            -50.3149   YY=            -73.5560   ZZ=            -73.5470
   XY=             -3.1851   XZ=              0.4421   YZ=             -1.6993

 Normal termination of Gaussian 16 at Mon Dec  4 00:39:12 2023.
