 Gaussian 16, Revision B.01,
 Gaussian 16:  ES64L-G16RevB.01 20-Dec-2017

 -------------------------
 #P B3LYP/6-311+g(d) force
 -------------------------

 -----
 DPGEN
 -----
 Symbolic Z-matrix:
 Charge =  0 Multiplicity = 2

                         Standard orientation:
 ---------------------------------------------------------------------
 Center     Atomic      Atomic             Coordinates (Angstroms)
 Number     Number       Type             X           Y           Z
 ---------------------------------------------------------------------
      1         11           0        0.322231    3.041155    0.436324
      2         11           0        5.176099   -0.509139   -1.389083
      3         11           0        2.944760    0.797577    0.431322
      4         11           0        1.556183   -2.192706    1.637918
      5         11           0       -0.260226   -0.280649   -0.096097
      6         11           0       -3.530757   -0.997122   -1.168784
      7         11           0       -6.208290    0.140884    0.148399
 ---------------------------------------------------------------------

 SCF Done:  E(UB3LYP) =  -1136.10608460     A.U. after   23 cycles

 The electronic state is 2-A.
 Alpha  occ. eigenvalues --  -38.45590 -38.44795 -38.44157 -38.43954 -38.43906
 Alpha  occ. eigenvalues --  -38.43560 -38.43363  -2.21425  -2.20560  -2.19956
 Alpha  occ. eigenvalues --   -2.19848  -2.19731  -2.19359  -2.19279  -1.15094
 Alpha  occ. eigenvalues --   -1.15066  -1.15016  -1.14221  -1.14219  -1.14219
 Alpha  occ. eigenvalues --   -1.13621  -1.13615  -1.13603  -1.13539  -1.13513
 Alpha  occ. eigenvalues --   -1.13498  -1.13389  -1.13377  -1.13342  -1.13072
 Alpha  occ. eigenvalues --   -1.13008  -1.12991  -1.12966  -1.12959  -1.12852
 Alpha  occ. eigenvalues --   -0.17098  -0.13582  -0.12007  -0.11431
 Alpha virt. eigenvalues --   -0.07243  -0.04769  -0.04420  -0.03547  -0.03233
 Alpha virt. eigenvalues --   -0.02213  -0.02010  -0.01667  -0.01257  -0.00742
 Alpha virt. eigenvalues --   -0.00660  -0.00253   0.00326   0.00457   0.00562

  Beta  occ. eigenvalues --  -38.45494 -38.44797 -38.44157 -38.43940 -38.43850
  Beta  occ. eigenvalues --  -38.43520 -38.43342  -2.21250  -2.20564  -2.19956
  Beta  occ. eigenvalues --   -2.19830  -2.19627  -2.19286  -2.19243  -1.14968
  Beta  occ. eigenvalues --   -1.14947  -1.14898  -1.14224  -1.14222  -1.14220
  Beta  occ. eigenvalues --   -1.13623  -1.13615  -1.13601  -1.13517  -1.13512
  Beta  occ. eigenvalues --   -1.13448  -1.13311  -1.13307  -1.13280  -1.13022
  Beta  occ. eigenvalues --   -1.12961  -1.12947  -1.12938  -1.12914  -1.12817
  Beta  occ. eigenvalues --   -0.16331  -0.13483  -0.10967
  Beta virt. eigenvalues --   -0.08219  -0.06989  -0.04286  -0.04240  -0.03249
  Beta virt. eigenvalues --   -0.02834  -0.01923  -0.01734  -0.01387  -0.01104
  Beta virt. eigenvalues --   -0.00507  -0.00382  -0.00064   0.00353   0.00550

 Mulliken charges and spin densities:
               1          2
     1  Na   0.480691   0.247054
     2  Na   0.355841   0.132784
     3  Na   0.355379   0.381016
     4  Na   0.957251   0.223091
     5  Na  -1.440004   0.106330
     6  Na  -0.861535  -0.086327
     7  Na   0.152376  -0.003948
 Sum of Mulliken charges =  -0.00000   1.00000

 Dipole moment (field-independent basis, Debye):
    X=             -1.3086    Y=             -0.1243    Z=              0.8311  Tot=              1.5552
 Quadrupole moment (field-independent basis, Debye-Ang):
   XX=            -66.7990   YY=            -64.7910   ZZ=            -66.4448
   XY=             -5.5413   XZ=             -3.4606   YZ=              0.5316

 Normal termination of Gaussian 16 at Tue Nov 28 19:07:55 2023.
