 Gaussian 16, Revision B.01,
 Gaussian 16:  ES64L-G16RevB.01 20-Dec-2017

 -------------------------
 #P B3LYP/6-311+g(d) force
 -------------------------

 -----
 DPGEN
 -----
 Symbolic Z-matrix:
 Charge =  0 Multiplicity = 2

                         Standard orientation:
 ---------------------------------------------------------------------
 Center     Atomic      Atomic             Coordinates (Angstroms)
 Number     Number       Type             X           Y           Z
 ---------------------------------------------------------------------
      1         11           0        0.674798    2.507893   -0.729822
      2         11           0        0.227737    0.967227    2.211128
      3         11           0       -3.278778   -1.805808   -0.597952
      4         11           0        2.606836   -1.856909    1.261905
      5         11           0       -2.869326    1.399072    0.205923
      6         11           0        2.966553    0.189555   -1.651637
      7         11           0       -0.327821   -1.401029   -0.699545
 ---------------------------------------------------------------------

 SCF Done:  E(UB3LYP) =  -1136.12765942     A.U. after   19 cycles

 The electronic state is 2-A.
 Alpha  occ. eigenvalues --  -38.44473 -38.44386 -38.44137 -38.44020 -38.43616
 Alpha  occ. eigenvalues --  -38.43449 -38.43286  -2.20281  -2.20216  -2.19948
 Alpha  occ. eigenvalues --   -2.19864  -2.19501  -2.19308  -2.19130  -1.13976
 Alpha  occ. eigenvalues --   -1.13948  -1.13900  -1.13885  -1.13869  -1.13829
 Alpha  occ. eigenvalues --   -1.13614  -1.13599  -1.13575  -1.13534  -1.13525
 Alpha  occ. eigenvalues --   -1.13461  -1.13239  -1.13197  -1.13163  -1.12944
 Alpha  occ. eigenvalues --   -1.12943  -1.12922  -1.12807  -1.12805  -1.12750
 Alpha  occ. eigenvalues --   -0.17834  -0.13656  -0.11775  -0.11363
 Alpha virt. eigenvalues --   -0.06091  -0.05330  -0.04587  -0.03352  -0.03012
 Alpha virt. eigenvalues --   -0.02675  -0.02012  -0.01077  -0.00624  -0.00156
 Alpha virt. eigenvalues --    0.00037   0.00258   0.00429   0.00570   0.00772

  Beta  occ. eigenvalues --  -38.44473 -38.44327 -38.44100 -38.43952 -38.43609
  Beta  occ. eigenvalues --  -38.43448 -38.43263  -2.20282  -2.20109  -2.19880
  Beta  occ. eigenvalues --   -2.19738  -2.19490  -2.19307  -2.19091  -1.13972
  Beta  occ. eigenvalues --   -1.13949  -1.13901  -1.13806  -1.13796  -1.13753
  Beta  occ. eigenvalues --   -1.13566  -1.13546  -1.13526  -1.13450  -1.13444
  Beta  occ. eigenvalues --   -1.13363  -1.13239  -1.13169  -1.13153  -1.12944
  Beta  occ. eigenvalues --   -1.12941  -1.12921  -1.12784  -1.12778  -1.12698
  Beta  occ. eigenvalues --   -0.17217  -0.13334  -0.11568
  Beta virt. eigenvalues --   -0.07525  -0.06016  -0.05037  -0.04049  -0.03148
  Beta virt. eigenvalues --   -0.02416  -0.02042  -0.01810  -0.00929  -0.00306
  Beta virt. eigenvalues --   -0.00109   0.00103   0.00323   0.00572   0.00779

 Mulliken charges and spin densities:
               1          2
     1  Na  -0.160863   0.196052
     2  Na  -0.024693   0.316989
     3  Na   0.053321  -0.067978
     4  Na   0.282686   0.125735
     5  Na   0.120186  -0.011681
     6  Na   0.400406   0.070377
     7  Na  -0.671043   0.370506
 Sum of Mulliken charges =  -0.00000   1.00000

 Dipole moment (field-independent basis, Debye):
    X=              0.0078    Y=              0.1828    Z=              0.3149  Tot=              0.3642
 Quadrupole moment (field-independent basis, Debye-Ang):
   XX=            -54.7835   YY=            -71.6562   ZZ=            -68.9066
   XY=             -3.0779   XZ=             -0.6568   YZ=             -2.4748

 Normal termination of Gaussian 16 at Tue Dec  5 12:51:15 2023.
