 Gaussian 16, Revision B.01,
 Gaussian 16:  ES64L-G16RevB.01 20-Dec-2017

 -------------------------
 #P B3LYP/6-311+g(d) force
 -------------------------

 -----
 DPGEN
 -----
 Symbolic Z-matrix:
 Charge =  0 Multiplicity = 2

                         Standard orientation:
 ---------------------------------------------------------------------
 Center     Atomic      Atomic             Coordinates (Angstroms)
 Number     Number       Type             X           Y           Z
 ---------------------------------------------------------------------
      1         11           0       -2.548184   -1.885594   -0.192163
      2         11           0        1.268207    2.560092   -0.213496
      3         11           0       -2.765036    1.943417    0.108167
      4         11           0        3.373282   -0.132870    0.286597
      5         11           0       -0.321868   -0.302851    2.041239
      6         11           0       -0.055934    0.033414   -1.719930
      7         11           0        1.049532   -2.215608   -0.310414
 ---------------------------------------------------------------------

 SCF Done:  E(UB3LYP) =  -1136.12994275     A.U. after   20 cycles

 The electronic state is 2-A.
 Alpha  occ. eigenvalues --  -38.44394 -38.44262 -38.44034 -38.43855 -38.43455
 Alpha  occ. eigenvalues --  -38.43438 -38.43034  -2.20225  -2.20027  -2.19860
 Alpha  occ. eigenvalues --   -2.19733  -2.19449  -2.19266  -2.19000  -1.13910
 Alpha  occ. eigenvalues --   -1.13879  -1.13866  -1.13707  -1.13680  -1.13670
 Alpha  occ. eigenvalues --   -1.13539  -1.13526  -1.13494  -1.13412  -1.13361
 Alpha  occ. eigenvalues --   -1.13343  -1.13235  -1.13117  -1.13048  -1.12941
 Alpha  occ. eigenvalues --   -1.12927  -1.12881  -1.12679  -1.12648  -1.12591
 Alpha  occ. eigenvalues --   -0.18647  -0.13204  -0.12032  -0.10832
 Alpha virt. eigenvalues --   -0.06053  -0.05548  -0.03984  -0.03351  -0.02728
 Alpha virt. eigenvalues --   -0.02657  -0.01890  -0.01298  -0.00397  -0.00062
 Alpha virt. eigenvalues --   -0.00038   0.00312   0.00697   0.00832   0.00873

  Beta  occ. eigenvalues --  -38.44391 -38.44263 -38.44031 -38.43768 -38.43432
  Beta  occ. eigenvalues --  -38.43377 -38.43017  -2.20222  -2.20030  -2.19856
  Beta  occ. eigenvalues --   -2.19573  -2.19308  -2.19259  -2.18976  -1.13911
  Beta  occ. eigenvalues --   -1.13868  -1.13857  -1.13697  -1.13683  -1.13673
  Beta  occ. eigenvalues --   -1.13525  -1.13513  -1.13491  -1.13308  -1.13249
  Beta  occ. eigenvalues --   -1.13228  -1.13145  -1.13035  -1.12954  -1.12913
  Beta  occ. eigenvalues --   -1.12896  -1.12880  -1.12656  -1.12589  -1.12577
  Beta  occ. eigenvalues --   -0.17896  -0.13003  -0.11779
  Beta virt. eigenvalues --   -0.06912  -0.05961  -0.05545  -0.03971  -0.02598
  Beta virt. eigenvalues --   -0.01987  -0.01793  -0.01555  -0.01244  -0.00438
  Beta virt. eigenvalues --   -0.00088   0.00098   0.00333   0.00763   0.00829

 Mulliken charges and spin densities:
               1          2
     1  Na   0.272840  -0.097752
     2  Na   0.099492  -0.074263
     3  Na  -0.097495  -0.119234
     4  Na  -0.055675   0.027118
     5  Na  -0.602109   0.743899
     6  Na  -0.236864   0.412311
     7  Na   0.619811   0.107920
 Sum of Mulliken charges =  -0.00000   1.00000

 Dipole moment (field-independent basis, Debye):
    X=             -0.2866    Y=              0.0882    Z=              0.2916  Tot=              0.4183
 Quadrupole moment (field-independent basis, Debye-Ang):
   XX=            -51.6701   YY=            -67.1892   ZZ=            -73.9933
   XY=              0.6255   XZ=              1.1175   YZ=              0.7570

 Normal termination of Gaussian 16 at Thu Dec  7 19:00:54 2023.
