 Gaussian 16, Revision B.01,
 Gaussian 16:  ES64L-G16RevB.01 20-Dec-2017

 -------------------------
 #P B3LYP/6-311+g(d) force
 -------------------------

 -----
 DPGEN
 -----
 Symbolic Z-matrix:
 Charge =  0 Multiplicity = 2

                         Standard orientation:
 ---------------------------------------------------------------------
 Center     Atomic      Atomic             Coordinates (Angstroms)
 Number     Number       Type             X           Y           Z
 ---------------------------------------------------------------------
      1         11           0       -1.156239   -1.568515    1.374732
      2         11           0        2.563401   -1.952093    0.394670
      3         11           0       -3.408834   -0.613634   -0.887987
      4         11           0        2.978948    1.256767   -1.047969
      5         11           0        0.234959   -0.609358   -1.532880
      6         11           0        0.816599    1.606847    1.574698
      7         11           0       -2.028834    1.879985    0.124736
 ---------------------------------------------------------------------

 SCF Done:  E(UB3LYP) =  -1136.12752203     A.U. after   21 cycles

 The electronic state is 2-A.
 Alpha  occ. eigenvalues --  -38.44412 -38.44313 -38.44049 -38.43974 -38.43660
 Alpha  occ. eigenvalues --  -38.43485 -38.42793  -2.20295  -2.20159  -2.19892
 Alpha  occ. eigenvalues --   -2.19866  -2.19543  -2.19382  -2.18676  -1.13994
 Alpha  occ. eigenvalues --   -1.13944  -1.13919  -1.13842  -1.13810  -1.13780
 Alpha  occ. eigenvalues --   -1.13614  -1.13569  -1.13531  -1.13529  -1.13505
 Alpha  occ. eigenvalues --   -1.13480  -1.13229  -1.13188  -1.13156  -1.13066
 Alpha  occ. eigenvalues --   -1.13044  -1.13021  -1.12358  -1.12313  -1.12311
 Alpha  occ. eigenvalues --   -0.18614  -0.14180  -0.11277  -0.11130
 Alpha virt. eigenvalues --   -0.06283  -0.05558  -0.04412  -0.03183  -0.02816
 Alpha virt. eigenvalues --   -0.02415  -0.02142  -0.01067  -0.00578  -0.00132
 Alpha virt. eigenvalues --    0.00215   0.00271   0.00441   0.00667   0.00764

  Beta  occ. eigenvalues --  -38.44387 -38.44282 -38.44047 -38.43943 -38.43610
  Beta  occ. eigenvalues --  -38.43476 -38.42752  -2.20249  -2.20100  -2.19865
  Beta  occ. eigenvalues --   -2.19836  -2.19453  -2.19371  -2.18604  -1.13964
  Beta  occ. eigenvalues --   -1.13904  -1.13889  -1.13793  -1.13775  -1.13740
  Beta  occ. eigenvalues --   -1.13581  -1.13544  -1.13524  -1.13491  -1.13484
  Beta  occ. eigenvalues --   -1.13452  -1.13171  -1.13106  -1.13096  -1.13049
  Beta  occ. eigenvalues --   -1.13025  -1.13007  -1.12310  -1.12266  -1.12243
  Beta  occ. eigenvalues --   -0.17922  -0.13862  -0.11056
  Beta virt. eigenvalues --   -0.07351  -0.06073  -0.05485  -0.03779  -0.03048
  Beta virt. eigenvalues --   -0.02272  -0.01981  -0.01474  -0.00980  -0.00257
  Beta virt. eigenvalues --   -0.00070   0.00252   0.00295   0.00550   0.00749

 Mulliken charges and spin densities:
               1          2
     1  Na  -0.350512   0.304874
     2  Na  -0.015147   0.032377
     3  Na   0.874246   0.125685
     4  Na   0.195218   0.001970
     5  Na  -0.216497   0.296341
     6  Na  -0.027215   0.222721
     7  Na  -0.460094   0.016031
 Sum of Mulliken charges =  -0.00000   1.00000

 Dipole moment (field-independent basis, Debye):
    X=              0.1242    Y=             -0.3718    Z=             -0.2247  Tot=              0.4518
 Quadrupole moment (field-independent basis, Debye-Ang):
   XX=            -50.4053   YY=            -74.8217   ZZ=            -69.1884
   XY=              0.7254   XZ=              1.3267   YZ=             -3.1243

 Normal termination of Gaussian 16 at Sun Dec  3 19:25:44 2023.
