 Gaussian 16, Revision B.01,
 Gaussian 16:  ES64L-G16RevB.01 20-Dec-2017

 -------------------------
 #P B3LYP/6-311+g(d) force
 -------------------------

 -----
 DPGEN
 -----
 Symbolic Z-matrix:
 Charge =  0 Multiplicity = 2

                         Standard orientation:
 ---------------------------------------------------------------------
 Center     Atomic      Atomic             Coordinates (Angstroms)
 Number     Number       Type             X           Y           Z
 ---------------------------------------------------------------------
      1         11           0        1.614949   -0.881941    1.880745
      2         11           0       -0.259137   -0.867578   -1.354801
      3         11           0        3.898450   -1.645635   -0.344640
      4         11           0        3.811181    1.363113   -0.699127
      5         11           0        0.284296    1.995555    0.841333
      6         11           0       -3.481444    0.865827   -0.635970
      7         11           0       -5.868296   -0.829342    0.312460
 ---------------------------------------------------------------------

 SCF Done:  E(UB3LYP) =  -1136.10536530     A.U. after   26 cycles

 The electronic state is 2-A.
 Alpha  occ. eigenvalues --  -38.46171 -38.45903 -38.44144 -38.43499 -38.43484
 Alpha  occ. eigenvalues --  -38.43453 -38.43222  -2.21947  -2.21745  -2.19999
 Alpha  occ. eigenvalues --   -2.19323  -2.19292  -2.19273  -2.19096  -1.15630
 Alpha  occ. eigenvalues --   -1.15580  -1.15568  -1.15423  -1.15396  -1.15376
 Alpha  occ. eigenvalues --   -1.13675  -1.13652  -1.13615  -1.13052  -1.13011
 Alpha  occ. eigenvalues --   -1.12982  -1.12964  -1.12949  -1.12936  -1.12935
 Alpha  occ. eigenvalues --   -1.12922  -1.12832  -1.12769  -1.12763  -1.12732
 Alpha  occ. eigenvalues --   -0.17643  -0.13747  -0.11240  -0.10969
 Alpha virt. eigenvalues --   -0.08011  -0.05404  -0.04217  -0.03307  -0.03080
 Alpha virt. eigenvalues --   -0.02669  -0.02068  -0.01935  -0.01290  -0.00903
 Alpha virt. eigenvalues --   -0.00424   0.00018   0.00178   0.00486   0.00553

  Beta  occ. eigenvalues --  -38.46135 -38.45874 -38.44075 -38.43496 -38.43453
  Beta  occ. eigenvalues --  -38.43449 -38.43215  -2.21879  -2.21697  -2.19870
  Beta  occ. eigenvalues --   -2.19287  -2.19272  -2.19259  -2.19087  -1.15578
  Beta  occ. eigenvalues --   -1.15532  -1.15519  -1.15369  -1.15356  -1.15347
  Beta  occ. eigenvalues --   -1.13592  -1.13566  -1.13520  -1.13050  -1.12971
  Beta  occ. eigenvalues --   -1.12962  -1.12946  -1.12938  -1.12932  -1.12921
  Beta  occ. eigenvalues --   -1.12879  -1.12830  -1.12762  -1.12757  -1.12702
  Beta  occ. eigenvalues --   -0.16939  -0.13607  -0.10993
  Beta virt. eigenvalues --   -0.07805  -0.07215  -0.05135  -0.03822  -0.03086
  Beta virt. eigenvalues --   -0.02695  -0.02179  -0.01796  -0.01458  -0.01159
  Beta virt. eigenvalues --   -0.00679  -0.00333   0.00177   0.00223   0.00585

 Mulliken charges and spin densities:
               1          2
     1  Na   0.202828   0.307481
     2  Na  -0.105509   0.131618
     3  Na   0.171645  -0.004595
     4  Na  -0.065277   0.272354
     5  Na  -0.251119   0.322069
     6  Na  -0.259513  -0.012122
     7  Na   0.306945  -0.016803
 Sum of Mulliken charges =  -0.00000   1.00000

 Dipole moment (field-independent basis, Debye):
    X=              0.7476    Y=             -0.6884    Z=              0.3663  Tot=              1.0803
 Quadrupole moment (field-independent basis, Debye-Ang):
   XX=            -83.1332   YY=            -69.4941   ZZ=            -60.7143
   XY=              1.7127   XZ=             -1.1397   YZ=             -0.8761

 Normal termination of Gaussian 16 at Fri Dec  8 19:52:41 2023.
