 Gaussian 16, Revision B.01,
 Gaussian 16:  ES64L-G16RevB.01 20-Dec-2017

 -------------------------
 #P B3LYP/6-311+g(d) force
 -------------------------

 -----
 DPGEN
 -----
 Symbolic Z-matrix:
 Charge =  0 Multiplicity = 2

                         Standard orientation:
 ---------------------------------------------------------------------
 Center     Atomic      Atomic             Coordinates (Angstroms)
 Number     Number       Type             X           Y           Z
 ---------------------------------------------------------------------
      1         11           0        0.212731   -0.164544    1.802417
      2         11           0        2.804394    0.672036    0.066012
      3         11           0       -0.260441    0.390347   -1.788034
      4         11           0        1.680915   -2.237553   -0.549047
      5         11           0        0.166999    2.936429    0.248122
      6         11           0       -2.980504    0.789178   -0.151425
      7         11           0       -1.624095   -2.385892    0.371955
 ---------------------------------------------------------------------

 SCF Done:  E(UB3LYP) =  -1136.13915678     A.U. after   20 cycles

 The electronic state is 2-A.
 Alpha  occ. eigenvalues --  -38.43856 -38.43543 -38.43501 -38.43405 -38.43294
 Alpha  occ. eigenvalues --  -38.43293 -38.43288  -2.19697  -2.19449  -2.19361
 Alpha  occ. eigenvalues --   -2.19280  -2.19274  -2.19257  -2.19195  -1.13404
 Alpha  occ. eigenvalues --   -1.13352  -1.13328  -1.13173  -1.13123  -1.13104
 Alpha  occ. eigenvalues --   -1.13053  -1.13039  -1.13028  -1.12979  -1.12954
 Alpha  occ. eigenvalues --   -1.12927  -1.12918  -1.12912  -1.12893  -1.12890
 Alpha  occ. eigenvalues --   -1.12874  -1.12868  -1.12840  -1.12835  -1.12817
 Alpha  occ. eigenvalues --   -0.19081  -0.13013  -0.12708  -0.10937
 Alpha virt. eigenvalues --   -0.05406  -0.04891  -0.04752  -0.03212  -0.03089
 Alpha virt. eigenvalues --   -0.02520  -0.01298  -0.01103  -0.00205  -0.00099
 Alpha virt. eigenvalues --    0.00053   0.00375   0.00883   0.00926   0.00944

  Beta  occ. eigenvalues --  -38.43852 -38.43536 -38.43494 -38.43395 -38.43279
  Beta  occ. eigenvalues --  -38.43214 -38.43214  -2.19694  -2.19441  -2.19353
  Beta  occ. eigenvalues --   -2.19264  -2.19170  -2.19132  -2.19122  -1.13391
  Beta  occ. eigenvalues --   -1.13338  -1.13328  -1.13164  -1.13105  -1.13079
  Beta  occ. eigenvalues --   -1.13042  -1.13011  -1.12990  -1.12972  -1.12920
  Beta  occ. eigenvalues --   -1.12901  -1.12867  -1.12836  -1.12831  -1.12817
  Beta  occ. eigenvalues --   -1.12802  -1.12785  -1.12783  -1.12769  -1.12765
  Beta  occ. eigenvalues --   -0.18347  -0.12741  -0.12446
  Beta virt. eigenvalues --   -0.07016  -0.05391  -0.04845  -0.04720  -0.02419
  Beta virt. eigenvalues --   -0.02299  -0.01485  -0.01214  -0.01024  -0.00222
  Beta virt. eigenvalues --   -0.00122   0.00139   0.00395   0.00887   0.00935

 Mulliken charges and spin densities:
               1          2
     1  Na  -0.253346   0.597500
     2  Na   0.229569  -0.027196
     3  Na  -0.262070   0.606533
     4  Na   0.090746   0.071861
     5  Na   0.031397  -0.119382
     6  Na   0.051317  -0.118839
     7  Na   0.112387  -0.010476
 Sum of Mulliken charges =  -0.00000   1.00000

 Dipole moment (field-independent basis, Debye):
    X=             -0.1901    Y=              0.1922    Z=              0.0080  Tot=              0.2705
 Quadrupole moment (field-independent basis, Debye-Ang):
   XX=            -59.0098   YY=            -61.5311   ZZ=            -73.3014
   XY=             -0.0425   XZ=             -0.9709   YZ=              1.2782

 Normal termination of Gaussian 16 at Thu Dec  7 14:36:59 2023.
