 Gaussian 16, Revision B.01,
 Gaussian 16:  ES64L-G16RevB.01 20-Dec-2017

 -------------------------
 #P B3LYP/6-311+g(d) force
 -------------------------

 -----
 DPGEN
 -----
 Symbolic Z-matrix:
 Charge =  0 Multiplicity = 2

                         Standard orientation:
 ---------------------------------------------------------------------
 Center     Atomic      Atomic             Coordinates (Angstroms)
 Number     Number       Type             X           Y           Z
 ---------------------------------------------------------------------
      1         11           0        1.084761    2.959367   -0.188157
      2         11           0        3.151628    0.105024   -0.181033
      3         11           0        0.084897   -0.376723    2.233174
      4         11           0        1.028921   -3.086526   -0.184588
      5         11           0       -2.298237    1.797784    0.136259
      6         11           0       -2.973894   -1.273935   -0.326811
      7         11           0       -0.078077   -0.124990   -1.488844
 ---------------------------------------------------------------------

 SCF Done:  E(UB3LYP) =  -1136.13573601     A.U. after   19 cycles

 The electronic state is 2-A.
 Alpha  occ. eigenvalues --  -38.44285 -38.44065 -38.43858 -38.43748 -38.43607
 Alpha  occ. eigenvalues --  -38.43366 -38.43125  -2.20091  -2.19904  -2.19651
 Alpha  occ. eigenvalues --   -2.19588  -2.19477  -2.19182  -2.19095  -1.13774
 Alpha  occ. eigenvalues --   -1.13758  -1.13716  -1.13594  -1.13568  -1.13538
 Alpha  occ. eigenvalues --   -1.13331  -1.13312  -1.13289  -1.13244  -1.13214
 Alpha  occ. eigenvalues --   -1.13202  -1.13162  -1.13133  -1.13112  -1.12860
 Alpha  occ. eigenvalues --   -1.12842  -1.12829  -1.12787  -1.12730  -1.12722
 Alpha  occ. eigenvalues --   -0.18256  -0.13035  -0.12291  -0.10610
 Alpha virt. eigenvalues --   -0.05852  -0.05159  -0.04929  -0.03155  -0.02763
 Alpha virt. eigenvalues --   -0.02575  -0.01608  -0.01303  -0.00626  -0.00475
 Alpha virt. eigenvalues --   -0.00029   0.00333   0.00768   0.00796   0.00861

  Beta  occ. eigenvalues --  -38.44281 -38.44059 -38.43856 -38.43639 -38.43602
  Beta  occ. eigenvalues --  -38.43365 -38.43076  -2.20085  -2.19894  -2.19650
  Beta  occ. eigenvalues --   -2.19471  -2.19386  -2.19183  -2.19007  -1.13760
  Beta  occ. eigenvalues --   -1.13746  -1.13715  -1.13589  -1.13550  -1.13527
  Beta  occ. eigenvalues --   -1.13323  -1.13300  -1.13291  -1.13159  -1.13117
  Beta  occ. eigenvalues --   -1.13110  -1.13100  -1.13074  -1.13057  -1.12854
  Beta  occ. eigenvalues --   -1.12836  -1.12827  -1.12721  -1.12666  -1.12657
  Beta  occ. eigenvalues --   -0.17561  -0.12828  -0.12097
  Beta virt. eigenvalues --   -0.06653  -0.05849  -0.05076  -0.04901  -0.02384
  Beta virt. eigenvalues --   -0.02051  -0.01519  -0.01506  -0.01229  -0.00672
  Beta virt. eigenvalues --   -0.00507   0.00142   0.00378   0.00778   0.00850

 Mulliken charges and spin densities:
               1          2
     1  Na   0.026272   0.012806
     2  Na   0.168155  -0.004891
     3  Na  -0.563139   0.751824
     4  Na   0.103825  -0.067987
     5  Na   0.199663   0.112064
     6  Na   0.311577  -0.004279
     7  Na  -0.246352   0.200464
 Sum of Mulliken charges =  -0.00000   1.00000

 Dipole moment (field-independent basis, Debye):
    X=              0.0988    Y=             -0.3345    Z=              0.0913  Tot=              0.3606
 Quadrupole moment (field-independent basis, Debye-Ang):
   XX=            -56.9924   YY=            -60.6603   ZZ=            -75.6466
   XY=              0.3505   XZ=             -0.2076   YZ=              0.7628

 Normal termination of Gaussian 16 at Thu Dec  7 09:34:28 2023.
