 Gaussian 16, Revision B.01,
 Gaussian 16:  ES64L-G16RevB.01 20-Dec-2017

 -------------------------
 #P B3LYP/6-311+g(d) force
 -------------------------

 -----
 DPGEN
 -----
 Symbolic Z-matrix:
 Charge =  0 Multiplicity = 2

                         Standard orientation:
 ---------------------------------------------------------------------
 Center     Atomic      Atomic             Coordinates (Angstroms)
 Number     Number       Type             X           Y           Z
 ---------------------------------------------------------------------
      1         11           0       -3.981345   -1.114172   -0.878249
      2         11           0        3.225053    1.395825   -1.034158
      3         11           0       -0.363843    2.670130   -0.717679
      4         11           0        3.171071   -2.307616    0.265335
      5         11           0       -2.638398    0.492969    1.167156
      6         11           0       -0.188877   -1.590377   -0.917687
      7         11           0        0.776340    0.453241    2.115282
 ---------------------------------------------------------------------

 SCF Done:  E(UB3LYP) =  -1136.11970941     A.U. after   23 cycles

 The electronic state is 2-A.
 Alpha  occ. eigenvalues --  -38.44973 -38.44837 -38.44090 -38.44088 -38.44036
 Alpha  occ. eigenvalues --  -38.43854 -38.43665  -2.20741  -2.20607  -2.19987
 Alpha  occ. eigenvalues --   -2.19926  -2.19878  -2.19623  -2.19441  -1.14452
 Alpha  occ. eigenvalues --   -1.14435  -1.14332  -1.14285  -1.14241  -1.14222
 Alpha  occ. eigenvalues --   -1.13796  -1.13661  -1.13636  -1.13604  -1.13562
 Alpha  occ. eigenvalues --   -1.13527  -1.13509  -1.13498  -1.13453  -1.13294
 Alpha  occ. eigenvalues --   -1.13287  -1.13261  -1.13134  -1.13090  -1.13085
 Alpha  occ. eigenvalues --   -0.17460  -0.13779  -0.11558  -0.10823
 Alpha virt. eigenvalues --   -0.06812  -0.05663  -0.04654  -0.03397  -0.02793
 Alpha virt. eigenvalues --   -0.02578  -0.02152  -0.01450  -0.00860  -0.00722
 Alpha virt. eigenvalues --   -0.00075   0.00104   0.00301   0.00376   0.00644

  Beta  occ. eigenvalues --  -38.44968 -38.44775 -38.44072 -38.44015 -38.44012
  Beta  occ. eigenvalues --  -38.43852 -38.43666  -2.20734  -2.20491  -2.19961
  Beta  occ. eigenvalues --   -2.19838  -2.19784  -2.19621  -2.19445  -1.14434
  Beta  occ. eigenvalues --   -1.14430  -1.14326  -1.14203  -1.14166  -1.14138
  Beta  occ. eigenvalues --   -1.13758  -1.13631  -1.13626  -1.13509  -1.13481
  Beta  occ. eigenvalues --   -1.13469  -1.13460  -1.13431  -1.13417  -1.13293
  Beta  occ. eigenvalues --   -1.13278  -1.13260  -1.13138  -1.13094  -1.13072
  Beta  occ. eigenvalues --   -0.16882  -0.13441  -0.11308
  Beta virt. eigenvalues --   -0.07200  -0.06604  -0.05500  -0.04103  -0.03142
  Beta virt. eigenvalues --   -0.02499  -0.02257  -0.01595  -0.01204  -0.00612
  Beta virt. eigenvalues --   -0.00479  -0.00017   0.00181   0.00394   0.00500

 Mulliken charges and spin densities:
               1          2
     1  Na   0.250559   0.043288
     2  Na   0.085863   0.320076
     3  Na  -0.179077   0.053087
     4  Na   0.556504   0.027403
     5  Na   0.248186   0.159996
     6  Na  -0.831822   0.055028
     7  Na  -0.130213   0.341122
 Sum of Mulliken charges =  -0.00000   1.00000

 Dipole moment (field-independent basis, Debye):
    X=              0.1611    Y=             -0.0185    Z=              0.0422  Tot=              0.1676
 Quadrupole moment (field-independent basis, Debye-Ang):
   XX=            -54.6916   YY=            -74.0922   ZZ=            -69.2037
   XY=             -1.9509   XZ=              1.9422   YZ=             -0.1047

 Normal termination of Gaussian 16 at Mon Dec  4 04:37:32 2023.
