 Gaussian 16, Revision B.01,
 Gaussian 16:  ES64L-G16RevB.01 20-Dec-2017

 -------------------------
 #P B3LYP/6-311+g(d) force
 -------------------------

 -----
 DPGEN
 -----
 Symbolic Z-matrix:
 Charge =  0 Multiplicity = 2

                         Standard orientation:
 ---------------------------------------------------------------------
 Center     Atomic      Atomic             Coordinates (Angstroms)
 Number     Number       Type             X           Y           Z
 ---------------------------------------------------------------------
      1         11           0        2.640715   -1.493025    1.132678
      2         11           0        2.813083   -0.209221   -1.734209
      3         11           0       -4.169430   -0.542848   -0.241776
      4         11           0        1.850175    2.105323    0.476891
      5         11           0       -0.717299   -1.799138   -1.013080
      6         11           0       -1.509906    1.922852   -0.866268
      7         11           0       -0.907339    0.016057    2.245764
 ---------------------------------------------------------------------

 SCF Done:  E(UB3LYP) =  -1136.12266492     A.U. after   24 cycles

 The electronic state is 2-A.
 Alpha  occ. eigenvalues --  -38.45251 -38.44415 -38.44319 -38.44202 -38.44178
 Alpha  occ. eigenvalues --  -38.43673 -38.42801  -2.21009  -2.20234  -2.20146
 Alpha  occ. eigenvalues --   -2.20061  -2.19957  -2.19483  -2.18634  -1.14686
 Alpha  occ. eigenvalues --   -1.14671  -1.14632  -1.13909  -1.13870  -1.13857
 Alpha  occ. eigenvalues --   -1.13851  -1.13799  -1.13791  -1.13710  -1.13703
 Alpha  occ. eigenvalues --   -1.13664  -1.13660  -1.13655  -1.13545  -1.13182
 Alpha  occ. eigenvalues --   -1.13149  -1.13090  -1.12320  -1.12299  -1.12268
 Alpha  occ. eigenvalues --   -0.17764  -0.13887  -0.11187  -0.10831
 Alpha virt. eigenvalues --   -0.06845  -0.05353  -0.04874  -0.03102  -0.02752
 Alpha virt. eigenvalues --   -0.02663  -0.02551  -0.00995  -0.00794  -0.00435
 Alpha virt. eigenvalues --    0.00113   0.00156   0.00245   0.00469   0.00636

  Beta  occ. eigenvalues --  -38.45250 -38.44329 -38.44300 -38.44166 -38.44163
  Beta  occ. eigenvalues --  -38.43659 -38.42795  -2.21009  -2.20115  -2.20076
  Beta  occ. eigenvalues --   -2.19988  -2.19938  -2.19456  -2.18626  -1.14680
  Beta  occ. eigenvalues --   -1.14672  -1.14634  -1.13840  -1.13804  -1.13772
  Beta  occ. eigenvalues --   -1.13761  -1.13744  -1.13736  -1.13660  -1.13655
  Beta  occ. eigenvalues --   -1.13648  -1.13621  -1.13613  -1.13534  -1.13163
  Beta  occ. eigenvalues --   -1.13126  -1.13071  -1.12310  -1.12278  -1.12265
  Beta  occ. eigenvalues --   -0.17066  -0.13700  -0.10688
  Beta virt. eigenvalues --   -0.07383  -0.06704  -0.04994  -0.04412  -0.02912
  Beta virt. eigenvalues --   -0.02542  -0.02053  -0.01871  -0.00889  -0.00428
  Beta virt. eigenvalues --   -0.00331   0.00163   0.00211   0.00330   0.00629

 Mulliken charges and spin densities:
               1          2
     1  Na   0.140168   0.151018
     2  Na   0.271365   0.167105
     3  Na   0.382275  -0.044141
     4  Na  -0.076597   0.160524
     5  Na  -0.356669   0.089051
     6  Na  -0.115958   0.030321
     7  Na  -0.244585   0.446122
 Sum of Mulliken charges =  -0.00000   1.00000

 Dipole moment (field-independent basis, Debye):
    X=             -1.0887    Y=             -0.2994    Z=              0.1013  Tot=              1.1337
 Quadrupole moment (field-independent basis, Debye-Ang):
   XX=            -49.0334   YY=            -79.0491   ZZ=            -66.8941
   XY=             -0.1329   XZ=             -0.2256   YZ=             -3.2248

 Normal termination of Gaussian 16 at Thu Dec  7 10:25:18 2023.
