 Gaussian 16, Revision B.01,
 Gaussian 16:  ES64L-G16RevB.01 20-Dec-2017

 -------------------------
 #P B3LYP/6-311+g(d) force
 -------------------------

 -----
 DPGEN
 -----
 Symbolic Z-matrix:
 Charge =  0 Multiplicity = 2

                         Standard orientation:
 ---------------------------------------------------------------------
 Center     Atomic      Atomic             Coordinates (Angstroms)
 Number     Number       Type             X           Y           Z
 ---------------------------------------------------------------------
      1         11           0       -1.751633    1.342661   -0.798648
      2         11           0        1.948141    1.213700    0.524882
      3         11           0        1.113247   -2.319246   -0.711555
      4         11           0       -1.504471   -1.462148    1.445169
      5         11           0       -4.062544   -1.224448   -0.331170
      6         11           0        4.122773   -1.237191   -0.196379
      7         11           0        0.134486    3.686672    0.067700
 ---------------------------------------------------------------------

 SCF Done:  E(UB3LYP) =  -1136.12364351     A.U. after   21 cycles

 The electronic state is 2-A.
 Alpha  occ. eigenvalues --  -38.44440 -38.44311 -38.44283 -38.43794 -38.43700
 Alpha  occ. eigenvalues --  -38.43488 -38.43168  -2.20300  -2.20173  -2.20114
 Alpha  occ. eigenvalues --   -2.19671  -2.19570  -2.19347  -2.19027  -1.14004
 Alpha  occ. eigenvalues --   -1.13981  -1.13924  -1.13870  -1.13851  -1.13823
 Alpha  occ. eigenvalues --   -1.13798  -1.13772  -1.13750  -1.13357  -1.13327
 Alpha  occ. eigenvalues --   -1.13316  -1.13239  -1.13212  -1.13203  -1.12999
 Alpha  occ. eigenvalues --   -1.12982  -1.12968  -1.12685  -1.12666  -1.12655
 Alpha  occ. eigenvalues --   -0.17433  -0.13920  -0.13201  -0.09797
 Alpha virt. eigenvalues --   -0.06577  -0.05344  -0.04918  -0.03288  -0.02826
 Alpha virt. eigenvalues --   -0.02456  -0.01699  -0.01254  -0.00871  -0.00761
 Alpha virt. eigenvalues --   -0.00186   0.00002   0.00407   0.00586   0.00645

  Beta  occ. eigenvalues --  -38.44426 -38.44302 -38.44261 -38.43757 -38.43702
  Beta  occ. eigenvalues --  -38.43436 -38.43114  -2.20276  -2.20160  -2.20080
  Beta  occ. eigenvalues --   -2.19607  -2.19574  -2.19249  -2.18926  -1.13993
  Beta  occ. eigenvalues --   -1.13960  -1.13891  -1.13863  -1.13837  -1.13794
  Beta  occ. eigenvalues --   -1.13780  -1.13747  -1.13698  -1.13312  -1.13288
  Beta  occ. eigenvalues --   -1.13244  -1.13242  -1.13213  -1.13205  -1.12931
  Beta  occ. eigenvalues --   -1.12908  -1.12904  -1.12612  -1.12595  -1.12594
  Beta  occ. eigenvalues --   -0.16948  -0.13371  -0.12956
  Beta virt. eigenvalues --   -0.06456  -0.06210  -0.05193  -0.04623  -0.02880
  Beta virt. eigenvalues --   -0.02488  -0.02223  -0.01516  -0.01049  -0.00740
  Beta virt. eigenvalues --   -0.00325   0.00191   0.00241   0.00560   0.00650

 Mulliken charges and spin densities:
               1          2
     1  Na  -0.821069   0.155431
     2  Na  -1.074814   0.116417
     3  Na  -0.377817  -0.001649
     4  Na   0.238300   0.217664
     5  Na   0.318640   0.258432
     6  Na   0.679030   0.296764
     7  Na   1.037732  -0.043058
 Sum of Mulliken charges =  -0.00000   1.00000

 Dipole moment (field-independent basis, Debye):
    X=             -0.0782    Y=              0.1242    Z=              0.1961  Tot=              0.2449
 Quadrupole moment (field-independent basis, Debye-Ang):
   XX=            -74.2368   YY=            -61.8839   ZZ=            -66.8087
   XY=              2.1787   XZ=              0.4157   YZ=              2.4535

 Normal termination of Gaussian 16 at Wed Nov 29 02:57:13 2023.
