 Gaussian 16, Revision B.01,
 Gaussian 16:  ES64L-G16RevB.01 20-Dec-2017

 -------------------------
 #P B3LYP/6-311+g(d) force
 -------------------------

 -----
 DPGEN
 -----
 Symbolic Z-matrix:
 Charge =  0 Multiplicity = 2

                         Standard orientation:
 ---------------------------------------------------------------------
 Center     Atomic      Atomic             Coordinates (Angstroms)
 Number     Number       Type             X           Y           Z
 ---------------------------------------------------------------------
      1         11           0        2.815236   -2.406438    0.085077
      2         11           0       -0.763627   -0.947035   -1.275626
      3         11           0       -3.202996   -2.220579   -0.043725
      4         11           0        0.342692    2.771081   -0.576598
      5         11           0       -2.623305    1.884298    0.365965
      6         11           0        3.171811    0.925063   -0.196447
      7         11           0        0.260189   -0.006389    1.641355
 ---------------------------------------------------------------------

 SCF Done:  E(UB3LYP) =  -1136.12267981     A.U. after   24 cycles

 The electronic state is 2-A.
 Alpha  occ. eigenvalues --  -38.44590 -38.44453 -38.44101 -38.44057 -38.43947
 Alpha  occ. eigenvalues --  -38.43805 -38.42835  -2.20375  -2.20281  -2.19948
 Alpha  occ. eigenvalues --   -2.19870  -2.19840  -2.19706  -2.18713  -1.14044
 Alpha  occ. eigenvalues --   -1.14038  -1.14009  -1.13960  -1.13934  -1.13909
 Alpha  occ. eigenvalues --   -1.13630  -1.13618  -1.13609  -1.13585  -1.13576
 Alpha  occ. eigenvalues --   -1.13515  -1.13505  -1.13485  -1.13419  -1.13384
 Alpha  occ. eigenvalues --   -1.13329  -1.13294  -1.12384  -1.12382  -1.12355
 Alpha  occ. eigenvalues --   -0.18067  -0.13601  -0.12330  -0.09759
 Alpha virt. eigenvalues --   -0.06554  -0.06227  -0.04364  -0.03094  -0.02527
 Alpha virt. eigenvalues --   -0.02274  -0.02123  -0.01499  -0.01089  -0.00353
 Alpha virt. eigenvalues --   -0.00039   0.00189   0.00509   0.00599   0.00671

  Beta  occ. eigenvalues --  -38.44580 -38.44435 -38.44074 -38.44046 -38.43884
  Beta  occ. eigenvalues --  -38.43779 -38.42814  -2.20358  -2.20249  -2.19901
  Beta  occ. eigenvalues --   -2.19851  -2.19726  -2.19659  -2.18680  -1.14032
  Beta  occ. eigenvalues --   -1.14023  -1.13994  -1.13940  -1.13898  -1.13890
  Beta  occ. eigenvalues --   -1.13601  -1.13598  -1.13573  -1.13522  -1.13512
  Beta  occ. eigenvalues --   -1.13502  -1.13484  -1.13411  -1.13332  -1.13328
  Beta  occ. eigenvalues --   -1.13299  -1.13266  -1.12365  -1.12363  -1.12300
  Beta  occ. eigenvalues --   -0.17536  -0.13317  -0.11951
  Beta virt. eigenvalues --   -0.06493  -0.06172  -0.06013  -0.04237  -0.02539
  Beta virt. eigenvalues --   -0.02177  -0.02005  -0.01806  -0.01061  -0.00822
  Beta virt. eigenvalues --   -0.00286   0.00124   0.00290   0.00570   0.00705

 Mulliken charges and spin densities:
               1          2
     1  Na   0.164367   0.040387
     2  Na  -0.374807   0.228445
     3  Na   0.112258  -0.001547
     4  Na  -0.180608   0.108479
     5  Na   0.268916   0.132622
     6  Na   0.077962   0.195307
     7  Na  -0.068088   0.296306
 Sum of Mulliken charges =  -0.00000   1.00000

 Dipole moment (field-independent basis, Debye):
    X=             -0.1813    Y=             -0.5329    Z=              0.4208  Tot=              0.7028
 Quadrupole moment (field-independent basis, Debye-Ang):
   XX=            -53.1614   YY=            -65.9632   ZZ=            -75.4094
   XY=             -4.8003   XZ=             -2.4141   YZ=             -0.9669

 Normal termination of Gaussian 16 at Fri Dec  8 00:35:36 2023.
