 Gaussian 16, Revision B.01,
 Gaussian 16:  ES64L-G16RevB.01 20-Dec-2017

 -------------------------
 #P B3LYP/6-311+g(d) force
 -------------------------

 -----
 DPGEN
 -----
 Symbolic Z-matrix:
 Charge =  0 Multiplicity = 2

                         Standard orientation:
 ---------------------------------------------------------------------
 Center     Atomic      Atomic             Coordinates (Angstroms)
 Number     Number       Type             X           Y           Z
 ---------------------------------------------------------------------
      1         11           0        3.473697    1.676229   -0.373276
      2         11           0       -1.739708    1.475557    1.471639
      3         11           0        5.037169   -1.514531   -0.038262
      4         11           0       -0.364328    1.850379   -1.212486
      5         11           0       -2.361430   -1.967451   -1.061092
      6         11           0        0.985228   -1.204492    1.197954
      7         11           0       -5.030627   -0.315691    0.015523
 ---------------------------------------------------------------------

 SCF Done:  E(UB3LYP) =  -1136.10646612     A.U. after   24 cycles

 The electronic state is 2-A.
 Alpha  occ. eigenvalues --  -38.45177 -38.44720 -38.44607 -38.44408 -38.44189
 Alpha  occ. eigenvalues --  -38.44108 -38.43639  -2.20987  -2.20485  -2.20370
 Alpha  occ. eigenvalues --   -2.20205  -2.19940  -2.19936  -2.19442  -1.14708
 Alpha  occ. eigenvalues --   -1.14649  -1.14607  -1.14173  -1.14141  -1.14091
 Alpha  occ. eigenvalues --   -1.14067  -1.14029  -1.14019  -1.13884  -1.13840
 Alpha  occ. eigenvalues --   -1.13809  -1.13614  -1.13612  -1.13599  -1.13588
 Alpha  occ. eigenvalues --   -1.13566  -1.13562  -1.13100  -1.13087  -1.13070
 Alpha  occ. eigenvalues --   -0.16857  -0.13683  -0.11289  -0.10712
 Alpha virt. eigenvalues --   -0.07373  -0.05938  -0.04587  -0.03261  -0.03057
 Alpha virt. eigenvalues --   -0.02438  -0.02331  -0.01510  -0.01251  -0.00971
 Alpha virt. eigenvalues --   -0.00718   0.00016   0.00308   0.00357   0.00480

  Beta  occ. eigenvalues --  -38.45184 -38.44684 -38.44623 -38.44314 -38.44187
  Beta  occ. eigenvalues --  -38.44086 -38.43592  -2.21004  -2.20419  -2.20404
  Beta  occ. eigenvalues --   -2.20033  -2.19932  -2.19898  -2.19353  -1.14718
  Beta  occ. eigenvalues --   -1.14638  -1.14620  -1.14128  -1.14098  -1.14094
  Beta  occ. eigenvalues --   -1.14054  -1.14040  -1.14016  -1.13768  -1.13722
  Beta  occ. eigenvalues --   -1.13681  -1.13610  -1.13591  -1.13590  -1.13565
  Beta  occ. eigenvalues --   -1.13551  -1.13533  -1.13038  -1.13025  -1.13016
  Beta  occ. eigenvalues --   -0.16250  -0.13331  -0.11138
  Beta virt. eigenvalues --   -0.07201  -0.07110  -0.05592  -0.04059  -0.03154
  Beta virt. eigenvalues --   -0.02736  -0.02149  -0.01988  -0.01279  -0.00864
  Beta virt. eigenvalues --   -0.00758  -0.00520   0.00075   0.00400   0.00512

 Mulliken charges and spin densities:
               1          2
     1  Na   0.079934   0.227500
     2  Na   0.540985   0.062296
     3  Na   0.119745  -0.005355
     4  Na  -0.235026   0.109868
     5  Na  -0.008596  -0.106357
     6  Na  -0.534060   0.460980
     7  Na   0.037018   0.251068
 Sum of Mulliken charges =  -0.00000   1.00000

 Dipole moment (field-independent basis, Debye):
    X=              0.1840    Y=              0.4316    Z=              0.2677  Tot=              0.5402
 Quadrupole moment (field-independent basis, Debye-Ang):
   XX=            -70.3812   YY=            -71.4200   ZZ=            -64.3198
   XY=             -6.3026   XZ=             -3.6107   YZ=              2.8566

 Normal termination of Gaussian 16 at Mon Dec  4 03:02:12 2023.
