 Gaussian 16, Revision B.01,
 Gaussian 16:  ES64L-G16RevB.01 20-Dec-2017

 -------------------------
 #P B3LYP/6-311+g(d) force
 -------------------------

 -----
 DPGEN
 -----
 Symbolic Z-matrix:
 Charge =  0 Multiplicity = 2

                         Standard orientation:
 ---------------------------------------------------------------------
 Center     Atomic      Atomic             Coordinates (Angstroms)
 Number     Number       Type             X           Y           Z
 ---------------------------------------------------------------------
      1         11           0       -0.270717   -0.205040    1.802413
      2         11           0       -0.285118    2.979332    0.243852
      3         11           0       -2.594476    0.486992   -0.202763
      4         11           0       -1.685137   -2.225325   -0.112033
      5         11           0        0.149152    0.270567   -1.777058
      6         11           0        1.916407   -2.209822    0.021805
      7         11           0        2.769889    0.903296    0.023784
 ---------------------------------------------------------------------

 SCF Done:  E(UB3LYP) =  -1136.13423101     A.U. after   19 cycles

 The electronic state is 2-A.
 Alpha  occ. eigenvalues --  -38.43747 -38.43491 -38.43471 -38.43432 -38.43382
 Alpha  occ. eigenvalues --  -38.43291 -38.43224  -2.19622  -2.19498  -2.19389
 Alpha  occ. eigenvalues --   -2.19345  -2.19300  -2.19239  -2.19230  -1.13377
 Alpha  occ. eigenvalues --   -1.13328  -1.13290  -1.13258  -1.13183  -1.13169
 Alpha  occ. eigenvalues --   -1.13087  -1.13028  -1.13016  -1.13002  -1.12977
 Alpha  occ. eigenvalues --   -1.12957  -1.12943  -1.12922  -1.12914  -1.12905
 Alpha  occ. eigenvalues --   -1.12888  -1.12877  -1.12874  -1.12857  -1.12820
 Alpha  occ. eigenvalues --   -0.19481  -0.13266  -0.12713  -0.10985
 Alpha virt. eigenvalues --   -0.05245  -0.04938  -0.04772  -0.03297  -0.02960
 Alpha virt. eigenvalues --   -0.02485  -0.01146  -0.01135  -0.00091  -0.00005
 Alpha virt. eigenvalues --    0.00058   0.00377   0.00907   0.00949   0.00970

  Beta  occ. eigenvalues --  -38.43743 -38.43477 -38.43467 -38.43423 -38.43376
  Beta  occ. eigenvalues --  -38.43209 -38.43145  -2.19619  -2.19479  -2.19377
  Beta  occ. eigenvalues --   -2.19342  -2.19232  -2.19151  -2.19087  -1.13369
  Beta  occ. eigenvalues --   -1.13322  -1.13273  -1.13253  -1.13168  -1.13106
  Beta  occ. eigenvalues --   -1.13061  -1.13011  -1.12993  -1.12977  -1.12972
  Beta  occ. eigenvalues --   -1.12938  -1.12910  -1.12881  -1.12875  -1.12861
  Beta  occ. eigenvalues --   -1.12808  -1.12798  -1.12783  -1.12752  -1.12726
  Beta  occ. eigenvalues --   -0.18713  -0.12984  -0.12457
  Beta virt. eigenvalues --   -0.07006  -0.05237  -0.04914  -0.04762  -0.02432
  Beta virt. eigenvalues --   -0.02175  -0.01428  -0.01072  -0.01063  -0.00136
  Beta virt. eigenvalues --   -0.00015   0.00137   0.00389   0.00917   0.00955

 Mulliken charges and spin densities:
               1          2
     1  Na  -0.548428   0.704056
     2  Na   0.056970  -0.088822
     3  Na   0.476501   0.059342
     4  Na   0.271780  -0.033965
     5  Na  -0.402962   0.562066
     6  Na   0.090358  -0.095449
     7  Na   0.055781  -0.107227
 Sum of Mulliken charges =  -0.00000   1.00000

 Dipole moment (field-independent basis, Debye):
    X=              0.3400    Y=              0.1015    Z=              0.0431  Tot=              0.3574
 Quadrupole moment (field-independent basis, Debye-Ang):
   XX=            -60.6929   YY=            -60.4090   ZZ=            -73.2282
   XY=              0.1752   XZ=              0.8363   YZ=              1.1254

 Normal termination of Gaussian 16 at Sun Dec  3 12:26:26 2023.
