 Gaussian 16, Revision B.01,
 Gaussian 16:  ES64L-G16RevB.01 20-Dec-2017

 -------------------------
 #P B3LYP/6-311+g(d) force
 -------------------------

 -----
 DPGEN
 -----
 Symbolic Z-matrix:
 Charge =  0 Multiplicity = 2

                         Standard orientation:
 ---------------------------------------------------------------------
 Center     Atomic      Atomic             Coordinates (Angstroms)
 Number     Number       Type             X           Y           Z
 ---------------------------------------------------------------------
      1         11           0       -2.654712    1.761974    0.024667
      2         11           0       -2.526834   -1.698487   -0.103535
      3         11           0        0.755025   -2.757759   -0.530209
      4         11           0        3.272461   -0.353044   -0.025749
      5         11           0        1.246812    2.970337   -0.008830
      6         11           0        0.040060   -0.404867    2.226776
      7         11           0       -0.132812    0.481845   -1.583119
 ---------------------------------------------------------------------

 SCF Done:  E(UB3LYP) =  -1136.13631399     A.U. after   19 cycles

 The electronic state is 2-A.
 Alpha  occ. eigenvalues --  -38.44279 -38.44078 -38.43908 -38.43823 -38.43660
 Alpha  occ. eigenvalues --  -38.43296 -38.43197  -2.20062  -2.19897  -2.19701
 Alpha  occ. eigenvalues --   -2.19662  -2.19504  -2.19147  -2.19145  -1.13738
 Alpha  occ. eigenvalues --   -1.13721  -1.13704  -1.13591  -1.13556  -1.13529
 Alpha  occ. eigenvalues --   -1.13399  -1.13362  -1.13327  -1.13317  -1.13290
 Alpha  occ. eigenvalues --   -1.13281  -1.13178  -1.13165  -1.13148  -1.12844
 Alpha  occ. eigenvalues --   -1.12827  -1.12803  -1.12782  -1.12774  -1.12770
 Alpha  occ. eigenvalues --   -0.18199  -0.12808  -0.12421  -0.10659
 Alpha virt. eigenvalues --   -0.05870  -0.05283  -0.04776  -0.03106  -0.02955
 Alpha virt. eigenvalues --   -0.02607  -0.01561  -0.01238  -0.00661  -0.00445
 Alpha virt. eigenvalues --   -0.00036   0.00346   0.00761   0.00799   0.00876

  Beta  occ. eigenvalues --  -38.44279 -38.44076 -38.43908 -38.43720 -38.43655
  Beta  occ. eigenvalues --  -38.43283 -38.43146  -2.20064  -2.19895  -2.19702
  Beta  occ. eigenvalues --   -2.19499  -2.19469  -2.19124  -2.19053  -1.13725
  Beta  occ. eigenvalues --   -1.13721  -1.13709  -1.13585  -1.13541  -1.13531
  Beta  occ. eigenvalues --   -1.13394  -1.13355  -1.13330  -1.13194  -1.13171
  Beta  occ. eigenvalues --   -1.13156  -1.13148  -1.13147  -1.13130  -1.12816
  Beta  occ. eigenvalues --   -1.12772  -1.12767  -1.12764  -1.12709  -1.12706
  Beta  occ. eigenvalues --   -0.17488  -0.12632  -0.12217
  Beta virt. eigenvalues --   -0.06716  -0.05866  -0.05235  -0.04688  -0.02363
  Beta virt. eigenvalues --   -0.02225  -0.01548  -0.01470  -0.01162  -0.00704
  Beta virt. eigenvalues --   -0.00481   0.00134   0.00385   0.00792   0.00839

 Mulliken charges and spin densities:
               1          2
     1  Na   0.128741  -0.048942
     2  Na   0.246955   0.041245
     3  Na   0.121007   0.043196
     4  Na   0.045385  -0.038568
     5  Na   0.014961  -0.088760
     6  Na  -0.594732   0.791635
     7  Na   0.037683   0.300193
 Sum of Mulliken charges =  -0.00000   1.00000

 Dipole moment (field-independent basis, Debye):
    X=              0.0722    Y=              0.2747    Z=              0.1660  Tot=              0.3290
 Quadrupole moment (field-independent basis, Debye-Ang):
   XX=            -56.3676   YY=            -62.1512   ZZ=            -74.9800
   XY=             -0.0217   XZ=             -0.2127   YZ=              1.9478

 Normal termination of Gaussian 16 at Thu Dec  7 11:25:12 2023.
