 Gaussian 16, Revision B.01,
 Gaussian 16:  ES64L-G16RevB.01 20-Dec-2017

 -------------------------
 #P B3LYP/6-311+g(d) force
 -------------------------

 -----
 DPGEN
 -----
 Symbolic Z-matrix:
 Charge =  0 Multiplicity = 2

                         Standard orientation:
 ---------------------------------------------------------------------
 Center     Atomic      Atomic             Coordinates (Angstroms)
 Number     Number       Type             X           Y           Z
 ---------------------------------------------------------------------
      1         11           0       -3.517142    0.084738    0.528183
      2         11           0       -1.296784   -1.959830   -1.065224
      3         11           0       -0.019363   -0.245762    2.016696
      4         11           0        2.258327   -2.085576    0.721441
      5         11           0        2.212467    2.295691    0.427408
      6         11           0        1.476729   -0.188508   -1.925256
      7         11           0       -1.114235    2.099246   -0.703248
 ---------------------------------------------------------------------

 SCF Done:  E(UB3LYP) =  -1136.13540318     A.U. after   19 cycles

 The electronic state is 2-A.
 Alpha  occ. eigenvalues --  -38.44179 -38.43921 -38.43797 -38.43754 -38.43646
 Alpha  occ. eigenvalues --  -38.43444 -38.43353  -2.20063  -2.19745  -2.19695
 Alpha  occ. eigenvalues --   -2.19597  -2.19488  -2.19257  -2.19199  -1.13737
 Alpha  occ. eigenvalues --   -1.13706  -1.13686  -1.13411  -1.13410  -1.13396
 Alpha  occ. eigenvalues --   -1.13394  -1.13352  -1.13311  -1.13273  -1.13255
 Alpha  occ. eigenvalues --   -1.13199  -1.13173  -1.13135  -1.13107  -1.12931
 Alpha  occ. eigenvalues --   -1.12917  -1.12905  -1.12887  -1.12876  -1.12803
 Alpha  occ. eigenvalues --   -0.18360  -0.13098  -0.11853  -0.11580
 Alpha virt. eigenvalues --   -0.05587  -0.05214  -0.04341  -0.03396  -0.03165
 Alpha virt. eigenvalues --   -0.03101  -0.01530  -0.00996  -0.00529   0.00105
 Alpha virt. eigenvalues --    0.00177   0.00335   0.00586   0.00777   0.00839

  Beta  occ. eigenvalues --  -38.44098 -38.43919 -38.43732 -38.43725 -38.43633
  Beta  occ. eigenvalues --  -38.43442 -38.43344  -2.19914  -2.19743  -2.19575
  Beta  occ. eigenvalues --   -2.19547  -2.19468  -2.19254  -2.19186  -1.13641
  Beta  occ. eigenvalues --   -1.13594  -1.13578  -1.13411  -1.13405  -1.13390
  Beta  occ. eigenvalues --   -1.13311  -1.13276  -1.13243  -1.13217  -1.13203
  Beta  occ. eigenvalues --   -1.13165  -1.13141  -1.13120  -1.13087  -1.12922
  Beta  occ. eigenvalues --   -1.12915  -1.12897  -1.12876  -1.12851  -1.12799
  Beta  occ. eigenvalues --   -0.17584  -0.12935  -0.11640
  Beta virt. eigenvalues --   -0.07588  -0.05428  -0.05185  -0.03985  -0.03009
  Beta virt. eigenvalues --   -0.02439  -0.02114  -0.01464  -0.00938  -0.00232
  Beta virt. eigenvalues --    0.00145   0.00173   0.00373   0.00750   0.00830

 Mulliken charges and spin densities:
               1          2
     1  Na   0.434017  -0.028817
     2  Na  -0.225103   0.069522
     3  Na  -0.350229   0.682705
     4  Na   0.173678  -0.123963
     5  Na   0.111125  -0.112040
     6  Na   0.205668   0.489040
     7  Na  -0.349157   0.023553
 Sum of Mulliken charges =  -0.00000   1.00000

 Dipole moment (field-independent basis, Debye):
    X=             -0.1484    Y=             -0.1353    Z=              0.1856  Tot=              0.2735
 Quadrupole moment (field-independent basis, Debye-Ang):
   XX=            -56.4201   YY=            -70.5429   ZZ=            -68.3631
   XY=             -0.0541   XZ=              0.0528   YZ=              0.7517

 Normal termination of Gaussian 16 at Fri Dec  8 00:51:02 2023.
