 Gaussian 16, Revision B.01,
 Gaussian 16:  ES64L-G16RevB.01 20-Dec-2017

 -------------------------
 #P B3LYP/6-311+g(d) force
 -------------------------

 -----
 DPGEN
 -----
 Symbolic Z-matrix:
 Charge =  0 Multiplicity = 2

                         Standard orientation:
 ---------------------------------------------------------------------
 Center     Atomic      Atomic             Coordinates (Angstroms)
 Number     Number       Type             X           Y           Z
 ---------------------------------------------------------------------
      1         11           0       -0.339575   -0.793064   -1.724951
      2         11           0       -0.116743   -0.408658    2.037799
      3         11           0       -3.310265   -1.419321    0.305852
      4         11           0       -2.374693    1.804992   -0.290053
      5         11           0        0.803597    2.736944   -0.253384
      6         11           0        2.035988   -2.697120   -0.338097
      7         11           0        3.301692    0.776227    0.262834
 ---------------------------------------------------------------------

 SCF Done:  E(UB3LYP) =  -1136.12947151     A.U. after   20 cycles

 The electronic state is 2-A.
 Alpha  occ. eigenvalues --  -38.44763 -38.44761 -38.44274 -38.43891 -38.43668
 Alpha  occ. eigenvalues --  -38.43624 -38.42811  -2.20559  -2.20554  -2.20093
 Alpha  occ. eigenvalues --   -2.19742  -2.19494  -2.19467  -2.18658  -1.14237
 Alpha  occ. eigenvalues --   -1.14223  -1.14221  -1.14219  -1.14202  -1.14181
 Alpha  occ. eigenvalues --   -1.13766  -1.13734  -1.13702  -1.13423  -1.13409
 Alpha  occ. eigenvalues --   -1.13377  -1.13190  -1.13161  -1.13136  -1.13121
 Alpha  occ. eigenvalues --   -1.13107  -1.13081  -1.12333  -1.12324  -1.12311
 Alpha  occ. eigenvalues --   -0.17945  -0.13359  -0.12043  -0.10596
 Alpha virt. eigenvalues --   -0.06584  -0.05583  -0.04373  -0.03330  -0.02698
 Alpha virt. eigenvalues --   -0.02568  -0.02142  -0.01345  -0.00824  -0.00224
 Alpha virt. eigenvalues --   -0.00100   0.00280   0.00561   0.00666   0.00701

  Beta  occ. eigenvalues --  -38.44758 -38.44756 -38.44190 -38.43880 -38.43662
  Beta  occ. eigenvalues --  -38.43559 -38.42809  -2.20551  -2.20548  -2.19939
  Beta  occ. eigenvalues --   -2.19725  -2.19457  -2.19374  -2.18657  -1.14237
  Beta  occ. eigenvalues --   -1.14218  -1.14206  -1.14200  -1.14188  -1.14183
  Beta  occ. eigenvalues --   -1.13661  -1.13629  -1.13588  -1.13411  -1.13383
  Beta  occ. eigenvalues --   -1.13361  -1.13149  -1.13115  -1.13100  -1.13084
  Beta  occ. eigenvalues --   -1.13051  -1.13010  -1.12335  -1.12324  -1.12289
  Beta  occ. eigenvalues --   -0.17265  -0.13194  -0.11778
  Beta virt. eigenvalues --   -0.06881  -0.06378  -0.05515  -0.04220  -0.02718
  Beta virt. eigenvalues --   -0.02121  -0.01932  -0.01604  -0.01209  -0.00859
  Beta virt. eigenvalues --   -0.00220   0.00076   0.00323   0.00680   0.00742

 Mulliken charges and spin densities:
               1          2
     1  Na  -0.035862   0.302362
     2  Na  -0.198981   0.505336
     3  Na   0.298824   0.106073
     4  Na   0.119077   0.089528
     5  Na  -0.311068  -0.028523
     6  Na   0.024747  -0.000013
     7  Na   0.103262   0.025237
 Sum of Mulliken charges =  -0.00000   1.00000

 Dipole moment (field-independent basis, Debye):
    X=             -0.3030    Y=             -0.5414    Z=              0.2067  Tot=              0.6539
 Quadrupole moment (field-independent basis, Debye-Ang):
   XX=            -51.3070   YY=            -67.9360   ZZ=            -75.0985
   XY=              0.7736   XZ=              0.4336   YZ=             -0.7768

 Normal termination of Gaussian 16 at Thu Dec  7 14:59:41 2023.
