 Gaussian 16, Revision B.01,
 Gaussian 16:  ES64L-G16RevB.01 20-Dec-2017

 -------------------------
 #P B3LYP/6-311+g(d) force
 -------------------------

 -----
 DPGEN
 -----
 Symbolic Z-matrix:
 Charge =  0 Multiplicity = 2

                         Standard orientation:
 ---------------------------------------------------------------------
 Center     Atomic      Atomic             Coordinates (Angstroms)
 Number     Number       Type             X           Y           Z
 ---------------------------------------------------------------------
      1         11           0       -3.070404   -1.946465   -1.078941
      2         11           0        0.086736    2.659461    0.314331
      3         11           0       -1.428710   -0.592823    2.057199
      4         11           0        3.624431   -1.727705    0.553471
      5         11           0        3.174438    1.203963   -0.872836
      6         11           0       -3.032729    1.325056   -0.269851
      7         11           0        0.646239   -0.921486   -0.703373
 ---------------------------------------------------------------------

 SCF Done:  E(UB3LYP) =  -1136.12113459     A.U. after   25 cycles

 The electronic state is 2-A.
 Alpha  occ. eigenvalues --  -38.45004 -38.44744 -38.44455 -38.44325 -38.43904
 Alpha  occ. eigenvalues --  -38.43521 -38.42443  -2.20811  -2.20587  -2.20331
 Alpha  occ. eigenvalues --   -2.20178  -2.19764  -2.19347  -2.18262  -1.14480
 Alpha  occ. eigenvalues --   -1.14469  -1.14460  -1.14277  -1.14247  -1.14215
 Alpha  occ. eigenvalues --   -1.14047  -1.14008  -1.13961  -1.13855  -1.13827
 Alpha  occ. eigenvalues --   -1.13785  -1.13433  -1.13396  -1.13369  -1.13010
 Alpha  occ. eigenvalues --   -1.13003  -1.12968  -1.11946  -1.11934  -1.11903
 Alpha  occ. eigenvalues --   -0.17765  -0.14514  -0.11407  -0.10256
 Alpha virt. eigenvalues --   -0.06950  -0.05946  -0.04470  -0.03301  -0.02759
 Alpha virt. eigenvalues --   -0.02411  -0.01928  -0.01543  -0.00788  -0.00455
 Alpha virt. eigenvalues --   -0.00195   0.00110   0.00276   0.00405   0.00623

  Beta  occ. eigenvalues --  -38.45003 -38.44724 -38.44446 -38.44303 -38.43821
  Beta  occ. eigenvalues --  -38.43475 -38.42444  -2.20809  -2.20555  -2.20319
  Beta  occ. eigenvalues --   -2.20137  -2.19609  -2.19264  -2.18265  -1.14479
  Beta  occ. eigenvalues --   -1.14468  -1.14453  -1.14249  -1.14230  -1.14171
  Beta  occ. eigenvalues --   -1.14009  -1.13996  -1.13959  -1.13827  -1.13803
  Beta  occ. eigenvalues --   -1.13758  -1.13324  -1.13291  -1.13262  -1.12954
  Beta  occ. eigenvalues --   -1.12940  -1.12910  -1.11951  -1.11935  -1.11891
  Beta  occ. eigenvalues --   -0.17232  -0.14170  -0.11219
  Beta virt. eigenvalues --   -0.06889  -0.06528  -0.05584  -0.04227  -0.03066
  Beta virt. eigenvalues --   -0.02565  -0.01873  -0.01411  -0.01206  -0.00682
  Beta virt. eigenvalues --   -0.00148  -0.00057   0.00207   0.00428   0.00548

 Mulliken charges and spin densities:
               1          2
     1  Na   0.293268   0.370017
     2  Na  -0.144012  -0.001338
     3  Na  -0.182541   0.292973
     4  Na   0.383605  -0.045163
     5  Na   0.387348   0.023421
     6  Na   0.270881   0.214317
     7  Na  -1.008549   0.145773
 Sum of Mulliken charges =  -0.00000   1.00000

 Dipole moment (field-independent basis, Debye):
    X=              1.1763    Y=             -0.4830    Z=              0.5547  Tot=              1.3874
 Quadrupole moment (field-independent basis, Debye-Ang):
   XX=            -52.8162   YY=            -71.4149   ZZ=            -71.5556
   XY=             -3.5216   XZ=             -0.4214   YZ=             -0.7945

 Normal termination of Gaussian 16 at Tue Dec  5 20:38:48 2023.
