 Gaussian 16, Revision B.01,
 Gaussian 16:  ES64L-G16RevB.01 20-Dec-2017

 -------------------------
 #P B3LYP/6-311+g(d) force
 -------------------------

 -----
 DPGEN
 -----
 Symbolic Z-matrix:
 Charge =  0 Multiplicity = 2

                         Standard orientation:
 ---------------------------------------------------------------------
 Center     Atomic      Atomic             Coordinates (Angstroms)
 Number     Number       Type             X           Y           Z
 ---------------------------------------------------------------------
      1         11           0       -0.248088    0.148182   -1.750536
      2         11           0       -2.790191   -1.372898    0.039924
      3         11           0        0.262769   -2.556223   -0.310301
      4         11           0        3.427721   -0.501950   -0.022870
      5         11           0        1.098671    2.633808   -0.149056
      6         11           0        0.323184   -0.365016    1.897546
      7         11           0       -2.074065    2.014097    0.295293
 ---------------------------------------------------------------------

 SCF Done:  E(UB3LYP) =  -1136.13580980     A.U. after   19 cycles

 The electronic state is 2-A.
 Alpha  occ. eigenvalues --  -38.44406 -38.43736 -38.43508 -38.43403 -38.43395
 Alpha  occ. eigenvalues --  -38.43273 -38.43236  -2.20178  -2.19599  -2.19432
 Alpha  occ. eigenvalues --   -2.19286  -2.19259  -2.19231  -2.19207  -1.13854
 Alpha  occ. eigenvalues --   -1.13834  -1.13818  -1.13275  -1.13261  -1.13256
 Alpha  occ. eigenvalues --   -1.13157  -1.13084  -1.13031  -1.13027  -1.12995
 Alpha  occ. eigenvalues --   -1.12961  -1.12958  -1.12935  -1.12907  -1.12870
 Alpha  occ. eigenvalues --   -1.12858  -1.12853  -1.12828  -1.12802  -1.12787
 Alpha  occ. eigenvalues --   -0.18902  -0.12855  -0.12673  -0.10766
 Alpha virt. eigenvalues --   -0.05882  -0.04946  -0.04526  -0.03099  -0.03003
 Alpha virt. eigenvalues --   -0.02480  -0.01778  -0.01023  -0.00210  -0.00132
 Alpha virt. eigenvalues --   -0.00020   0.00335   0.00789   0.00897   0.00914

  Beta  occ. eigenvalues --  -38.44409 -38.43731 -38.43427 -38.43395 -38.43390
  Beta  occ. eigenvalues --  -38.43258 -38.43158  -2.20184  -2.19595  -2.19286
  Beta  occ. eigenvalues --   -2.19274  -2.19252  -2.19186  -2.19089  -1.13846
  Beta  occ. eigenvalues --   -1.13838  -1.13824  -1.13271  -1.13263  -1.13227
  Beta  occ. eigenvalues --   -1.13073  -1.13019  -1.12975  -1.12949  -1.12942
  Beta  occ. eigenvalues --   -1.12933  -1.12920  -1.12905  -1.12888  -1.12851
  Beta  occ. eigenvalues --   -1.12818  -1.12784  -1.12781  -1.12730  -1.12718
  Beta  occ. eigenvalues --   -0.18148  -0.12651  -0.12407
  Beta virt. eigenvalues --   -0.06829  -0.05840  -0.04950  -0.04486  -0.02357
  Beta virt. eigenvalues --   -0.02184  -0.01718  -0.01406  -0.00966  -0.00247
  Beta virt. eigenvalues --   -0.00170   0.00114   0.00357   0.00828   0.00892

 Mulliken charges and spin densities:
               1          2
     1  Na  -0.253615   0.570110
     2  Na   0.222554  -0.008757
     3  Na   0.364506  -0.090299
     4  Na   0.037815  -0.137012
     5  Na   0.071629  -0.113514
     6  Na  -0.547475   0.769422
     7  Na   0.104587   0.010049
 Sum of Mulliken charges =  -0.00000   1.00000

 Dipole moment (field-independent basis, Debye):
    X=              0.2908    Y=             -0.0220    Z=              0.1155  Tot=              0.3137
 Quadrupole moment (field-independent basis, Debye-Ang):
   XX=            -53.8803   YY=            -64.9454   ZZ=            -74.1134
   XY=              0.5299   XZ=             -1.3393   YZ=              0.9456

 Normal termination of Gaussian 16 at Thu Dec  7 02:47:27 2023.
