 Gaussian 16, Revision B.01,
 Gaussian 16:  ES64L-G16RevB.01 20-Dec-2017

 -------------------------
 #P B3LYP/6-311+g(d) force
 -------------------------

 -----
 DPGEN
 -----
 Symbolic Z-matrix:
 Charge =  0 Multiplicity = 2

                         Standard orientation:
 ---------------------------------------------------------------------
 Center     Atomic      Atomic             Coordinates (Angstroms)
 Number     Number       Type             X           Y           Z
 ---------------------------------------------------------------------
      1         11           0        3.393166   -0.118348    0.056620
      2         11           0       -0.362008    0.271909   -1.438926
      3         11           0        1.223901    2.743095    0.050692
      4         11           0       -2.195189    2.171044    0.130794
      5         11           0        0.500605   -1.082009    1.732821
      6         11           0       -3.129598   -1.275735    0.284594
      7         11           0        0.569123   -2.709956   -0.816596
 ---------------------------------------------------------------------

 SCF Done:  E(UB3LYP) =  -1136.13042462     A.U. after   21 cycles

 The electronic state is 2-A.
 Alpha  occ. eigenvalues --  -38.44551 -38.44387 -38.43826 -38.43579 -38.43559
 Alpha  occ. eigenvalues --  -38.43525 -38.42798  -2.20345  -2.20177  -2.19682
 Alpha  occ. eigenvalues --   -2.19485  -2.19454  -2.19359  -2.18813  -1.14020
 Alpha  occ. eigenvalues --   -1.13998  -1.13987  -1.13848  -1.13833  -1.13814
 Alpha  occ. eigenvalues --   -1.13406  -1.13342  -1.13298  -1.13289  -1.13158
 Alpha  occ. eigenvalues --   -1.13129  -1.13082  -1.13054  -1.13045  -1.13039
 Alpha  occ. eigenvalues --   -1.13027  -1.12983  -1.12493  -1.12463  -1.12424
 Alpha  occ. eigenvalues --   -0.18393  -0.13152  -0.12646  -0.10102
 Alpha virt. eigenvalues --   -0.06196  -0.05327  -0.04778  -0.03083  -0.02791
 Alpha virt. eigenvalues --   -0.01989  -0.01902  -0.01190  -0.00680  -0.00476
 Alpha virt. eigenvalues --    0.00009   0.00314   0.00751   0.00777   0.00827

  Beta  occ. eigenvalues --  -38.44546 -38.44374 -38.43823 -38.43527 -38.43525
  Beta  occ. eigenvalues --  -38.43523 -38.42734  -2.20338  -2.20156  -2.19679
  Beta  occ. eigenvalues --   -2.19401  -2.19381  -2.19358  -2.18699  -1.13999
  Beta  occ. eigenvalues --   -1.13995  -1.13982  -1.13823  -1.13816  -1.13802
  Beta  occ. eigenvalues --   -1.13399  -1.13335  -1.13290  -1.13235  -1.13090
  Beta  occ. eigenvalues --   -1.13065  -1.13048  -1.13024  -1.13020  -1.12991
  Beta  occ. eigenvalues --   -1.12980  -1.12979  -1.12412  -1.12371  -1.12347
  Beta  occ. eigenvalues --   -0.17760  -0.12907  -0.12410
  Beta virt. eigenvalues --   -0.06399  -0.06018  -0.05296  -0.04663  -0.02420
  Beta virt. eigenvalues --   -0.02166  -0.01815  -0.01156  -0.01008  -0.00628
  Beta virt. eigenvalues --   -0.00480   0.00177   0.00384   0.00787   0.00809

 Mulliken charges and spin densities:
               1          2
     1  Na   0.194153   0.021615
     2  Na   0.331185   0.291701
     3  Na  -0.141799  -0.078930
     4  Na  -0.090846  -0.010351
     5  Na  -0.451598   0.728638
     6  Na   0.026651   0.104410
     7  Na   0.132254  -0.057084
 Sum of Mulliken charges =  -0.00000   1.00000

 Dipole moment (field-independent basis, Debye):
    X=              0.0561    Y=             -0.0725    Z=              0.1288  Tot=              0.1581
 Quadrupole moment (field-independent basis, Debye-Ang):
   XX=            -53.4071   YY=            -62.3802   ZZ=            -76.5444
   XY=              0.5021   XZ=             -1.7161   YZ=              2.0680

 Normal termination of Gaussian 16 at Sun Dec  3 18:54:02 2023.
