 Gaussian 16, Revision B.01,
 Gaussian 16:  ES64L-G16RevB.01 20-Dec-2017

 -------------------------
 #P B3LYP/6-311+g(d) force
 -------------------------

 -----
 DPGEN
 -----
 Symbolic Z-matrix:
 Charge =  0 Multiplicity = 2

                         Standard orientation:
 ---------------------------------------------------------------------
 Center     Atomic      Atomic             Coordinates (Angstroms)
 Number     Number       Type             X           Y           Z
 ---------------------------------------------------------------------
      1         11           0        0.409992   -1.881146    0.486390
      2         11           0        4.122264    1.135293    0.412290
      3         11           0       -5.393260    0.229172    0.013429
      4         11           0       -2.492958    1.621556   -0.216634
      5         11           0       -2.509437   -1.864684   -0.015614
      6         11           0        1.875590    3.001369   -0.144567
      7         11           0        3.987808   -2.241560   -0.535294
 ---------------------------------------------------------------------

 SCF Done:  E(UB3LYP) =  -1136.11065272     A.U. after   21 cycles

 The electronic state is 2-A.
 Alpha  occ. eigenvalues --  -38.45766 -38.44721 -38.44496 -38.44446 -38.44206
 Alpha  occ. eigenvalues --  -38.43444 -38.43255  -2.21553  -2.20562  -2.20337
 Alpha  occ. eigenvalues --   -2.20288  -2.20031  -2.19260  -2.19088  -1.15243
 Alpha  occ. eigenvalues --   -1.15224  -1.15189  -1.14216  -1.14203  -1.14181
 Alpha  occ. eigenvalues --   -1.14058  -1.13993  -1.13946  -1.13943  -1.13933
 Alpha  occ. eigenvalues --   -1.13911  -1.13755  -1.13700  -1.13664  -1.12926
 Alpha  occ. eigenvalues --   -1.12904  -1.12888  -1.12768  -1.12741  -1.12734
 Alpha  occ. eigenvalues --   -0.16671  -0.14649  -0.12044  -0.11183
 Alpha virt. eigenvalues --   -0.07100  -0.05072  -0.04523  -0.03823  -0.03140
 Alpha virt. eigenvalues --   -0.02744  -0.02076  -0.01500  -0.01265  -0.00606
 Alpha virt. eigenvalues --   -0.00418  -0.00121   0.00221   0.00355   0.00644

  Beta  occ. eigenvalues --  -38.45763 -38.44657 -38.44430 -38.44409 -38.44210
  Beta  occ. eigenvalues --  -38.43418 -38.43236  -2.21551  -2.20443  -2.20276
  Beta  occ. eigenvalues --   -2.20166  -2.20040  -2.19210  -2.19060  -1.15247
  Beta  occ. eigenvalues --   -1.15217  -1.15161  -1.14131  -1.14120  -1.14107
  Beta  occ. eigenvalues --   -1.13986  -1.13956  -1.13903  -1.13860  -1.13846
  Beta  occ. eigenvalues --   -1.13834  -1.13751  -1.13708  -1.13659  -1.12900
  Beta  occ. eigenvalues --   -1.12869  -1.12852  -1.12741  -1.12719  -1.12700
  Beta  occ. eigenvalues --   -0.16075  -0.14116  -0.11509
  Beta virt. eigenvalues --   -0.07920  -0.06900  -0.04573  -0.04219  -0.03462
  Beta virt. eigenvalues --   -0.02889  -0.02475  -0.01779  -0.01186  -0.01007
  Beta virt. eigenvalues --   -0.00374  -0.00173   0.00091   0.00324   0.00441

 Mulliken charges and spin densities:
               1          2
     1  Na  -0.999647  -0.011436
     2  Na  -0.353918   0.044325
     3  Na   1.377563   0.338054
     4  Na  -0.992945   0.174465
     5  Na   0.228077   0.017199
     6  Na   0.067086   0.055065
     7  Na   0.673783   0.382328
 Sum of Mulliken charges =  -0.00000   1.00000

 Dipole moment (field-independent basis, Debye):
    X=             -1.8356    Y=             -0.3924    Z=             -0.2219  Tot=              1.8901
 Quadrupole moment (field-independent basis, Debye-Ang):
   XX=            -52.6680   YY=            -71.7633   ZZ=            -72.7079
   XY=             -0.3909   XZ=             -0.4287   YZ=              0.9910

 Normal termination of Gaussian 16 at Sun Dec  3 23:02:15 2023.
