 Gaussian 16, Revision B.01,
 Gaussian 16:  ES64L-G16RevB.01 20-Dec-2017

 -------------------------
 #P B3LYP/6-311+g(d) force
 -------------------------

 -----
 DPGEN
 -----
 Symbolic Z-matrix:
 Charge =  0 Multiplicity = 2

                         Standard orientation:
 ---------------------------------------------------------------------
 Center     Atomic      Atomic             Coordinates (Angstroms)
 Number     Number       Type             X           Y           Z
 ---------------------------------------------------------------------
      1         11           0        0.246520   -1.987262    0.781997
      2         11           0        3.248441   -2.771540   -0.268210
      3         11           0        3.941249    0.534902   -0.568254
      4         11           0       -0.023523    1.024372   -0.561273
      5         11           0       -3.418792   -0.080872    0.796632
      6         11           0        2.195024    3.272284    0.537804
      7         11           0       -6.188919    0.008116   -0.718695
 ---------------------------------------------------------------------

 SCF Done:  E(UB3LYP) =  -1136.12127485     A.U. after   20 cycles

 The electronic state is 2-A.
 Alpha  occ. eigenvalues --  -38.44727 -38.44678 -38.44507 -38.44171 -38.43834
 Alpha  occ. eigenvalues --  -38.43523 -38.43436  -2.20547  -2.20493  -2.20352
 Alpha  occ. eigenvalues --   -2.20002  -2.19631  -2.19336  -2.19264  -1.14233
 Alpha  occ. eigenvalues --   -1.14201  -1.14156  -1.14138  -1.14122  -1.14121
 Alpha  occ. eigenvalues --   -1.14049  -1.14035  -1.13946  -1.13688  -1.13674
 Alpha  occ. eigenvalues --   -1.13610  -1.13315  -1.13313  -1.13278  -1.13002
 Alpha  occ. eigenvalues --   -1.12998  -1.12974  -1.12925  -1.12921  -1.12907
 Alpha  occ. eigenvalues --   -0.16803  -0.14050  -0.12152  -0.11641
 Alpha virt. eigenvalues --   -0.05832  -0.05424  -0.04808  -0.03747  -0.02839
 Alpha virt. eigenvalues --   -0.02200  -0.02092  -0.01797  -0.00954  -0.00767
 Alpha virt. eigenvalues --   -0.00247   0.00021   0.00117   0.00285   0.00698

  Beta  occ. eigenvalues --  -38.44676 -38.44589 -38.44465 -38.44141 -38.43840
  Beta  occ. eigenvalues --  -38.43521 -38.43419  -2.20453  -2.20327  -2.20278
  Beta  occ. eigenvalues --   -2.19949  -2.19651  -2.19333  -2.19234  -1.14171
  Beta  occ. eigenvalues --   -1.14142  -1.14078  -1.14029  -1.14009  -1.14008
  Beta  occ. eigenvalues --   -1.13995  -1.13986  -1.13887  -1.13649  -1.13639
  Beta  occ. eigenvalues --   -1.13567  -1.13336  -1.13332  -1.13234  -1.12997
  Beta  occ. eigenvalues --   -1.12993  -1.12972  -1.12902  -1.12896  -1.12887
  Beta  occ. eigenvalues --   -0.16155  -0.13120  -0.12119
  Beta virt. eigenvalues --   -0.08209  -0.05435  -0.05032  -0.04440  -0.03541
  Beta virt. eigenvalues --   -0.02539  -0.01930  -0.01757  -0.01552  -0.00792
  Beta virt. eigenvalues --   -0.00384  -0.00102   0.00166   0.00259   0.00419

 Mulliken charges and spin densities:
               1          2
     1  Na  -0.089762   0.037101
     2  Na   0.345129   0.109166
     3  Na  -0.064501   0.348191
     4  Na  -1.123772  -0.051862
     5  Na   0.073287   0.117867
     6  Na   0.729052   0.083977
     7  Na   0.130567   0.355562
 Sum of Mulliken charges =  -0.00000   1.00000

 Dipole moment (field-independent basis, Debye):
    X=              0.0554    Y=              0.2289    Z=             -0.1303  Tot=              0.2692
 Quadrupole moment (field-independent basis, Debye-Ang):
   XX=            -58.9899   YY=            -68.5400   ZZ=            -68.3470
   XY=              0.4704   XZ=              2.3434   YZ=              1.0125

 Normal termination of Gaussian 16 at Wed Nov 29 01:30:59 2023.
