 Gaussian 16, Revision B.01,
 Gaussian 16:  ES64L-G16RevB.01 20-Dec-2017

 -------------------------
 #P B3LYP/6-311+g(d) force
 -------------------------

 -----
 DPGEN
 -----
 Symbolic Z-matrix:
 Charge =  0 Multiplicity = 2

                         Standard orientation:
 ---------------------------------------------------------------------
 Center     Atomic      Atomic             Coordinates (Angstroms)
 Number     Number       Type             X           Y           Z
 ---------------------------------------------------------------------
      1         11           0       -1.883391    2.585051   -0.058642
      2         11           0        2.399800    1.936838    0.068661
      3         11           0       -0.343304   -0.164422   -1.808773
      4         11           0       -0.248766   -2.633214    0.521866
      5         11           0       -3.094525   -0.804667   -0.119278
      6         11           0        0.338566    0.151223    2.041221
      7         11           0        2.831619   -1.070810   -0.645056
 ---------------------------------------------------------------------

 SCF Done:  E(UB3LYP) =  -1136.13463608     A.U. after   20 cycles

 The electronic state is 2-A.
 Alpha  occ. eigenvalues --  -38.44303 -38.43907 -38.43835 -38.43811 -38.43740
 Alpha  occ. eigenvalues --  -38.43575 -38.42779  -2.20139  -2.19776  -2.19712
 Alpha  occ. eigenvalues --   -2.19680  -2.19662  -2.19361  -2.18675  -1.13834
 Alpha  occ. eigenvalues --   -1.13799  -1.13766  -1.13507  -1.13444  -1.13418
 Alpha  occ. eigenvalues --   -1.13388  -1.13382  -1.13341  -1.13330  -1.13322
 Alpha  occ. eigenvalues --   -1.13302  -1.13297  -1.13292  -1.13282  -1.13041
 Alpha  occ. eigenvalues --   -1.13022  -1.13001  -1.12370  -1.12330  -1.12300
 Alpha  occ. eigenvalues --   -0.18558  -0.13357  -0.11952  -0.11113
 Alpha virt. eigenvalues --   -0.05817  -0.05308  -0.04199  -0.03519  -0.02922
 Alpha virt. eigenvalues --   -0.02800  -0.01645  -0.01030  -0.00378  -0.00209
 Alpha virt. eigenvalues --    0.00007   0.00364   0.00740   0.00849   0.00908

  Beta  occ. eigenvalues --  -38.44301 -38.43888 -38.43832 -38.43717 -38.43677
  Beta  occ. eigenvalues --  -38.43577 -38.42763  -2.20138  -2.19744  -2.19676
  Beta  occ. eigenvalues --   -2.19547  -2.19538  -2.19368  -2.18650  -1.13824
  Beta  occ. eigenvalues --   -1.13789  -1.13768  -1.13494  -1.13409  -1.13384
  Beta  occ. eigenvalues --   -1.13345  -1.13315  -1.13286  -1.13275  -1.13257
  Beta  occ. eigenvalues --   -1.13217  -1.13207  -1.13206  -1.13195  -1.13037
  Beta  occ. eigenvalues --   -1.13027  -1.13002  -1.12350  -1.12291  -1.12283
  Beta  occ. eigenvalues --   -0.17815  -0.13123  -0.11721
  Beta virt. eigenvalues --   -0.07188  -0.05754  -0.05243  -0.04161  -0.02772
  Beta virt. eigenvalues --   -0.02151  -0.01789  -0.01531  -0.00955  -0.00420
  Beta virt. eigenvalues --   -0.00176   0.00104   0.00400   0.00840   0.00857

 Mulliken charges and spin densities:
               1          2
     1  Na  -0.152508  -0.129952
     2  Na   0.007575  -0.081456
     3  Na  -0.087721   0.491273
     4  Na   0.147702   0.068540
     5  Na   0.153928  -0.074758
     6  Na  -0.227558   0.623465
     7  Na   0.158583   0.102888
 Sum of Mulliken charges =  -0.00000   1.00000

 Dipole moment (field-independent basis, Debye):
    X=             -0.1634    Y=              0.0778    Z=             -0.0633  Tot=              0.1917
 Quadrupole moment (field-independent basis, Debye-Ang):
   XX=            -56.1945   YY=            -66.2285   ZZ=            -72.3784
   XY=              0.5200   XZ=             -1.4152   YZ=              0.0554

 Normal termination of Gaussian 16 at Tue Dec  5 21:32:02 2023.
