 Gaussian 16, Revision B.01,
 Gaussian 16:  ES64L-G16RevB.01 20-Dec-2017

 -------------------------
 #P B3LYP/6-311+g(d) force
 -------------------------

 -----
 DPGEN
 -----
 Symbolic Z-matrix:
 Charge =  0 Multiplicity = 2

                         Standard orientation:
 ---------------------------------------------------------------------
 Center     Atomic      Atomic             Coordinates (Angstroms)
 Number     Number       Type             X           Y           Z
 ---------------------------------------------------------------------
      1         11           0       -0.055014   -0.322047   -1.668067
      2         11           0        0.046413    0.412647    2.137053
      3         11           0        0.388618   -2.240087    0.722573
      4         11           0       -2.102275    2.063934   -0.130875
      5         11           0       -2.664251   -1.545616   -0.367077
      6         11           0        1.452443    2.518348   -0.209370
      7         11           0        2.934066   -0.887179   -0.484236
 ---------------------------------------------------------------------

 SCF Done:  E(UB3LYP) =  -1136.13402450     A.U. after   18 cycles

 The electronic state is 2-A.
 Alpha  occ. eigenvalues --  -38.44039 -38.43654 -38.43637 -38.43479 -38.43475
 Alpha  occ. eigenvalues --  -38.43359 -38.43065  -2.19966  -2.19512  -2.19490
 Alpha  occ. eigenvalues --   -2.19386  -2.19341  -2.19318  -2.19070  -1.13673
 Alpha  occ. eigenvalues --   -1.13585  -1.13573  -1.13234  -1.13185  -1.13177
 Alpha  occ. eigenvalues --   -1.13166  -1.13138  -1.13138  -1.13114  -1.13058
 Alpha  occ. eigenvalues --   -1.13021  -1.12997  -1.12996  -1.12981  -1.12967
 Alpha  occ. eigenvalues --   -1.12940  -1.12937  -1.12761  -1.12711  -1.12660
 Alpha  occ. eigenvalues --   -0.19108  -0.12859  -0.12535  -0.11469
 Alpha virt. eigenvalues --   -0.05266  -0.05010  -0.04251  -0.03315  -0.03192
 Alpha virt. eigenvalues --   -0.02992  -0.01351  -0.01005  -0.00148   0.00017
 Alpha virt. eigenvalues --    0.00228   0.00359   0.00822   0.00921   0.00987

  Beta  occ. eigenvalues --  -38.43937 -38.43651 -38.43628 -38.43475 -38.43470
  Beta  occ. eigenvalues --  -38.43297 -38.43038  -2.19780  -2.19498  -2.19487
  Beta  occ. eigenvalues --   -2.19335  -2.19313  -2.19273  -2.19026  -1.13544
  Beta  occ. eigenvalues --   -1.13450  -1.13446  -1.13220  -1.13168  -1.13154
  Beta  occ. eigenvalues --   -1.13153  -1.13128  -1.13115  -1.13092  -1.13007
  Beta  occ. eigenvalues --   -1.12990  -1.12981  -1.12979  -1.12968  -1.12934
  Beta  occ. eigenvalues --   -1.12923  -1.12879  -1.12723  -1.12644  -1.12636
  Beta  occ. eigenvalues --   -0.18343  -0.12592  -0.12314
  Beta virt. eigenvalues --   -0.07423  -0.05275  -0.04949  -0.04198  -0.02524
  Beta virt. eigenvalues --   -0.02446  -0.01879  -0.01253  -0.00973  -0.00030
  Beta virt. eigenvalues --    0.00024   0.00217   0.00387   0.00867   0.00950

 Mulliken charges and spin densities:
               1          2
     1  Na  -0.541673   0.476078
     2  Na  -0.384097   0.398998
     3  Na   0.630380   0.314596
     4  Na   0.039598  -0.047980
     5  Na   0.141367  -0.057078
     6  Na   0.036176  -0.034100
     7  Na   0.078248  -0.050515
 Sum of Mulliken charges =  -0.00000   1.00000

 Dipole moment (field-independent basis, Debye):
    X=             -0.0534    Y=              0.3647    Z=              0.0242  Tot=              0.3694
 Quadrupole moment (field-independent basis, Debye-Ang):
   XX=            -58.1224   YY=            -65.6080   ZZ=            -70.7889
   XY=              0.3006   XZ=             -0.5803   YZ=             -0.7617

 Normal termination of Gaussian 16 at Tue Dec  5 23:11:55 2023.
