 Gaussian 16, Revision B.01,
 Gaussian 16:  ES64L-G16RevB.01 20-Dec-2017

 -------------------------
 #P B3LYP/6-311+g(d) force
 -------------------------

 -----
 DPGEN
 -----
 Symbolic Z-matrix:
 Charge =  0 Multiplicity = 2

                         Standard orientation:
 ---------------------------------------------------------------------
 Center     Atomic      Atomic             Coordinates (Angstroms)
 Number     Number       Type             X           Y           Z
 ---------------------------------------------------------------------
      1         11           0       -2.197469   -0.795945    2.047743
      2         11           0       -3.510263    1.185528   -0.732458
      3         11           0        4.199196   -1.484699    0.855256
      4         11           0        0.100086   -0.138640   -0.781112
      5         11           0        0.013036    2.250731    1.052155
      6         11           0        3.830699    0.982273   -1.203985
      7         11           0       -2.435284   -1.999248   -1.237599
 ---------------------------------------------------------------------

 SCF Done:  E(UB3LYP) =  -1136.10455183     A.U. after   39 cycles

 The electronic state is 2-A.
 Alpha  occ. eigenvalues --  -38.45875 -38.45121 -38.45117 -38.44690 -38.43768
 Alpha  occ. eigenvalues --  -38.42966 -38.42115  -2.21677  -2.20897  -2.20882
 Alpha  occ. eigenvalues --   -2.20603  -2.19629  -2.18841  -2.17954  -1.15362
 Alpha  occ. eigenvalues --   -1.15313  -1.15292  -1.14609  -1.14573  -1.14546
 Alpha  occ. eigenvalues --   -1.14542  -1.14524  -1.14473  -1.14315  -1.14290
 Alpha  occ. eigenvalues --   -1.14218  -1.13305  -1.13259  -1.13225  -1.12551
 Alpha  occ. eigenvalues --   -1.12477  -1.12474  -1.11679  -1.11599  -1.11574
 Alpha  occ. eigenvalues --   -0.17601  -0.14110  -0.10793  -0.10273
 Alpha virt. eigenvalues --   -0.07680  -0.06086  -0.04094  -0.03264  -0.02897
 Alpha virt. eigenvalues --   -0.02243  -0.02087  -0.01783  -0.01009  -0.00768
 Alpha virt. eigenvalues --   -0.00283  -0.00138   0.00139   0.00411   0.00480

  Beta  occ. eigenvalues --  -38.45832 -38.45121 -38.45115 -38.44678 -38.43667
  Beta  occ. eigenvalues --  -38.42956 -38.42117  -2.21599  -2.20893  -2.20881
  Beta  occ. eigenvalues --   -2.20584  -2.19442  -2.18826  -2.17959  -1.15290
  Beta  occ. eigenvalues --   -1.15263  -1.15235  -1.14607  -1.14570  -1.14544
  Beta  occ. eigenvalues --   -1.14540  -1.14522  -1.14471  -1.14304  -1.14250
  Beta  occ. eigenvalues --   -1.14205  -1.13174  -1.13135  -1.13090  -1.12545
  Beta  occ. eigenvalues --   -1.12470  -1.12431  -1.11686  -1.11593  -1.11571
  Beta  occ. eigenvalues --   -0.16949  -0.13996  -0.10589
  Beta virt. eigenvalues --   -0.07396  -0.06702  -0.05566  -0.04043  -0.03085
  Beta virt. eigenvalues --   -0.02807  -0.01748  -0.01450  -0.01230  -0.00692
  Beta virt. eigenvalues --   -0.00513  -0.00194  -0.00090   0.00278   0.00493

 Mulliken charges and spin densities:
               1          2
     1  Na   0.049559   0.534512
     2  Na   0.499787   0.147290
     3  Na   0.173534  -0.027423
     4  Na  -2.516092   0.213747
     5  Na  -0.170069  -0.059387
     6  Na   0.262288  -0.016078
     7  Na   1.700993   0.207339
 Sum of Mulliken charges =  -0.00000   1.00000

 Dipole moment (field-independent basis, Debye):
    X=              0.6811    Y=              0.5225    Z=             -0.1213  Tot=              0.8669
 Quadrupole moment (field-independent basis, Debye-Ang):
   XX=            -53.4960   YY=            -70.7453   ZZ=            -71.7175
   XY=             -4.5563   XZ=             -1.0408   YZ=             -3.6540

 Normal termination of Gaussian 16 at Tue Dec  5 17:00:18 2023.
