 Gaussian 16, Revision B.01,
 Gaussian 16:  ES64L-G16RevB.01 20-Dec-2017

 -------------------------
 #P B3LYP/6-311+g(d) force
 -------------------------

 -----
 DPGEN
 -----
 Symbolic Z-matrix:
 Charge =  0 Multiplicity = 2

                         Standard orientation:
 ---------------------------------------------------------------------
 Center     Atomic      Atomic             Coordinates (Angstroms)
 Number     Number       Type             X           Y           Z
 ---------------------------------------------------------------------
      1         11           0       -0.526898    1.479045   -0.941654
      2         11           0        4.202286   -0.599693   -0.599220
      3         11           0       -3.682682    1.585236    0.143781
      4         11           0       -1.493448   -0.925068    1.972947
      5         11           0        0.814296   -2.073196   -0.046397
      6         11           0        3.488749    1.738896    0.644092
      7         11           0       -2.802303   -1.205220   -1.173549
 ---------------------------------------------------------------------

 SCF Done:  E(UB3LYP) =  -1136.10662569     A.U. after   28 cycles

 The electronic state is 2-A.
 Alpha  occ. eigenvalues --  -38.45913 -38.44862 -38.44596 -38.44124 -38.43557
 Alpha  occ. eigenvalues --  -38.43298 -38.42565  -2.21763  -2.20727  -2.20438
 Alpha  occ. eigenvalues --   -2.19986  -2.19420  -2.19165  -2.18403  -1.15450
 Alpha  occ. eigenvalues --   -1.15431  -1.15384  -1.14635  -1.14352  -1.14335
 Alpha  occ. eigenvalues --   -1.14063  -1.14049  -1.14018  -1.13670  -1.13636
 Alpha  occ. eigenvalues --   -1.13599  -1.13106  -1.13062  -1.13032  -1.12848
 Alpha  occ. eigenvalues --   -1.12816  -1.12792  -1.12098  -1.12064  -1.12031
 Alpha  occ. eigenvalues --   -0.17761  -0.14568  -0.11222  -0.10007
 Alpha virt. eigenvalues --   -0.07423  -0.06053  -0.03994  -0.03400  -0.03017
 Alpha virt. eigenvalues --   -0.02476  -0.01740  -0.01634  -0.00876  -0.00700
 Alpha virt. eigenvalues --   -0.00275   0.00045   0.00253   0.00542   0.00558

  Beta  occ. eigenvalues --  -38.45904 -38.44844 -38.44588 -38.44079 -38.43480
  Beta  occ. eigenvalues --  -38.43279 -38.42557  -2.21753  -2.20696  -2.20426
  Beta  occ. eigenvalues --   -2.19904  -2.19279  -2.19133  -2.18390  -1.15435
  Beta  occ. eigenvalues --   -1.15394  -1.15379  -1.14615  -1.14331  -1.14306
  Beta  occ. eigenvalues --   -1.14057  -1.14029  -1.14006  -1.13608  -1.13584
  Beta  occ. eigenvalues --   -1.13531  -1.13007  -1.12969  -1.12934  -1.12829
  Beta  occ. eigenvalues --   -1.12795  -1.12739  -1.12091  -1.12038  -1.12028
  Beta  occ. eigenvalues --   -0.17069  -0.14219  -0.11024
  Beta virt. eigenvalues --   -0.07162  -0.06347  -0.06051  -0.03797  -0.03011
  Beta virt. eigenvalues --   -0.02688  -0.02094  -0.01680  -0.01054  -0.00796
  Beta virt. eigenvalues --   -0.00333  -0.00046   0.00107   0.00411   0.00565

 Mulliken charges and spin densities:
               1          2
     1  Na  -0.673798   0.195392
     2  Na   0.343797   0.124005
     3  Na   0.325930   0.182849
     4  Na   0.039816   0.222790
     5  Na  -0.309492   0.017656
     6  Na  -0.172133   0.036411
     7  Na   0.445880   0.220897
 Sum of Mulliken charges =  -0.00000   1.00000

 Dipole moment (field-independent basis, Debye):
    X=             -0.1030    Y=             -0.4181    Z=             -0.5065  Tot=              0.6648
 Quadrupole moment (field-independent basis, Debye-Ang):
   XX=            -65.4768   YY=            -69.9995   ZZ=            -67.6196
   XY=             -0.0199   XZ=              2.7075   YZ=             10.6742

 Normal termination of Gaussian 16 at Wed Dec  6 01:20:04 2023.
