 Gaussian 16, Revision B.01,
 Gaussian 16:  ES64L-G16RevB.01 20-Dec-2017

 -------------------------
 #P B3LYP/6-311+g(d) force
 -------------------------

 -----
 DPGEN
 -----
 Symbolic Z-matrix:
 Charge =  0 Multiplicity = 2

                         Standard orientation:
 ---------------------------------------------------------------------
 Center     Atomic      Atomic             Coordinates (Angstroms)
 Number     Number       Type             X           Y           Z
 ---------------------------------------------------------------------
      1         11           0       -2.173428   -0.869069    0.615117
      2         11           0       -5.271979   -2.265985   -0.192454
      3         11           0       -3.885986    1.655394   -1.080749
      4         11           0       -0.934205    2.493085    0.490715
      5         11           0        1.217999   -0.023652    1.330531
      6         11           0        3.961242   -0.630216   -1.024900
      7         11           0        7.086358   -0.359557   -0.138260
 ---------------------------------------------------------------------

 SCF Done:  E(UB3LYP) =  -1136.11740816     A.U. after   24 cycles

 The electronic state is 2-A.
 Alpha  occ. eigenvalues --  -38.44851 -38.44351 -38.44332 -38.44204 -38.44045
 Alpha  occ. eigenvalues --  -38.44012 -38.43699  -2.20667  -2.20188  -2.20105
 Alpha  occ. eigenvalues --   -2.20056  -2.19825  -2.19786  -2.19534  -1.14339
 Alpha  occ. eigenvalues --   -1.14333  -1.14263  -1.13866  -1.13859  -1.13816
 Alpha  occ. eigenvalues --   -1.13763  -1.13761  -1.13760  -1.13752  -1.13749
 Alpha  occ. eigenvalues --   -1.13644  -1.13500  -1.13496  -1.13455  -1.13448
 Alpha  occ. eigenvalues --   -1.13446  -1.13398  -1.13203  -1.13193  -1.13147
 Alpha  occ. eigenvalues --   -0.16698  -0.13763  -0.12020  -0.11359
 Alpha virt. eigenvalues --   -0.06429  -0.05605  -0.04374  -0.03646  -0.03093
 Alpha virt. eigenvalues --   -0.02375  -0.02141  -0.01722  -0.01212  -0.00900
 Alpha virt. eigenvalues --   -0.00405  -0.00220   0.00000   0.00482   0.00621

  Beta  occ. eigenvalues --  -38.44785 -38.44325 -38.44306 -38.44182 -38.44052
  Beta  occ. eigenvalues --  -38.43975 -38.43664  -2.20546  -2.20143  -2.20057
  Beta  occ. eigenvalues --   -2.20017  -2.19842  -2.19719  -2.19468  -1.14261
  Beta  occ. eigenvalues --   -1.14252  -1.14161  -1.13841  -1.13829  -1.13752
  Beta  occ. eigenvalues --   -1.13740  -1.13728  -1.13727  -1.13723  -1.13704
  Beta  occ. eigenvalues --   -1.13613  -1.13513  -1.13508  -1.13452  -1.13403
  Beta  occ. eigenvalues --   -1.13394  -1.13358  -1.13152  -1.13149  -1.13112
  Beta  occ. eigenvalues --   -0.16023  -0.13443  -0.11627
  Beta virt. eigenvalues --   -0.07840  -0.06054  -0.05310  -0.04065  -0.03442
  Beta virt. eigenvalues --   -0.02566  -0.02165  -0.01832  -0.01576  -0.01041
  Beta virt. eigenvalues --   -0.00519  -0.00182  -0.00079   0.00230   0.00563

 Mulliken charges and spin densities:
               1          2
     1  Na  -1.919930   0.409713
     2  Na   0.659423   0.190107
     3  Na   0.241243   0.286666
     4  Na   0.167655   0.075441
     5  Na   0.700657  -0.015158
     6  Na  -0.105396  -0.065217
     7  Na   0.256348   0.118450
 Sum of Mulliken charges =  -0.00000   1.00000

 Dipole moment (field-independent basis, Debye):
    X=             -0.4453    Y=              0.6914    Z=             -0.0658  Tot=              0.8250
 Quadrupole moment (field-independent basis, Debye-Ang):
   XX=            -56.9659   YY=            -67.6361   ZZ=            -70.0518
   XY=              1.7960   XZ=              5.9612   YZ=             -0.3061

 Normal termination of Gaussian 16 at Wed Nov 29 01:05:07 2023.
