 Gaussian 16, Revision B.01,
 Gaussian 16:  ES64L-G16RevB.01 20-Dec-2017

 -------------------------
 #P B3LYP/6-311+g(d) force
 -------------------------

 -----
 DPGEN
 -----
 Symbolic Z-matrix:
 Charge =  0 Multiplicity = 2

                         Standard orientation:
 ---------------------------------------------------------------------
 Center     Atomic      Atomic             Coordinates (Angstroms)
 Number     Number       Type             X           Y           Z
 ---------------------------------------------------------------------
      1         11           0        0.515771    2.964172   -0.318619
      2         11           0       -2.747530    1.243316    0.038263
      3         11           0        3.246305    0.252174    0.276166
      4         11           0        0.125218    0.124608   -1.653965
      5         11           0       -2.291901   -1.974516   -0.153705
      6         11           0       -0.184084   -0.009726    2.100417
      7         11           0        1.336221   -2.600028   -0.288558
 ---------------------------------------------------------------------

 SCF Done:  E(UB3LYP) =  -1136.13870317     A.U. after   19 cycles

 The electronic state is 2-A.
 Alpha  occ. eigenvalues --  -38.44286 -38.43817 -38.43799 -38.43527 -38.43376
 Alpha  occ. eigenvalues --  -38.43352 -38.43148  -2.20083  -2.19677  -2.19668
 Alpha  occ. eigenvalues --   -2.19382  -2.19224  -2.19187  -2.19127  -1.13756
 Alpha  occ. eigenvalues --   -1.13741  -1.13726  -1.13373  -1.13355  -1.13327
 Alpha  occ. eigenvalues --   -1.13315  -1.13294  -1.13279  -1.13055  -1.13040
 Alpha  occ. eigenvalues --   -1.13023  -1.12949  -1.12924  -1.12883  -1.12848
 Alpha  occ. eigenvalues --   -1.12842  -1.12810  -1.12791  -1.12740  -1.12731
 Alpha  occ. eigenvalues --   -0.18567  -0.13026  -0.12352  -0.10801
 Alpha virt. eigenvalues --   -0.05743  -0.05064  -0.04699  -0.03260  -0.02837
 Alpha virt. eigenvalues --   -0.02651  -0.01572  -0.01090  -0.00419  -0.00325
 Alpha virt. eigenvalues --   -0.00018   0.00363   0.00800   0.00876   0.00905

  Beta  occ. eigenvalues --  -38.44282 -38.43812 -38.43704 -38.43523 -38.43370
  Beta  occ. eigenvalues --  -38.43345 -38.43083  -2.20079  -2.19672  -2.19493
  Beta  occ. eigenvalues --   -2.19377  -2.19215  -2.19178  -2.19008  -1.13740
  Beta  occ. eigenvalues --   -1.13735  -1.13726  -1.13366  -1.13328  -1.13306
  Beta  occ. eigenvalues --   -1.13215  -1.13175  -1.13155  -1.13048  -1.13029
  Beta  occ. eigenvalues --   -1.13009  -1.12924  -1.12903  -1.12863  -1.12843
  Beta  occ. eigenvalues --   -1.12822  -1.12806  -1.12717  -1.12659  -1.12653
  Beta  occ. eigenvalues --   -0.17836  -0.12819  -0.12094
  Beta virt. eigenvalues --   -0.06895  -0.05670  -0.05084  -0.04643  -0.02480
  Beta virt. eigenvalues --   -0.02088  -0.01580  -0.01464  -0.01015  -0.00464
  Beta virt. eigenvalues --   -0.00382   0.00123   0.00384   0.00846   0.00873

 Mulliken charges and spin densities:
               1          2
     1  Na   0.117678  -0.073044
     2  Na   0.264964  -0.016222
     3  Na   0.024798  -0.005901
     4  Na  -0.146844   0.456189
     5  Na   0.121178  -0.055078
     6  Na  -0.513522   0.755570
     7  Na   0.131748  -0.061513
 Sum of Mulliken charges =  -0.00000   1.00000

 Dipole moment (field-independent basis, Debye):
    X=              0.1723    Y=              0.0642    Z=              0.2284  Tot=              0.2932
 Quadrupole moment (field-independent basis, Debye-Ang):
   XX=            -56.2132   YY=            -63.0885   ZZ=            -74.1991
   XY=              0.3589   XZ=              0.9313   YZ=              0.5051

 Normal termination of Gaussian 16 at Thu Dec  7 07:25:22 2023.
