 Gaussian 16, Revision B.01,
 Gaussian 16:  ES64L-G16RevB.01 20-Dec-2017

 -------------------------
 #P B3LYP/6-311+g(d) force
 -------------------------

 -----
 DPGEN
 -----
 Symbolic Z-matrix:
 Charge =  0 Multiplicity = 2

                         Standard orientation:
 ---------------------------------------------------------------------
 Center     Atomic      Atomic             Coordinates (Angstroms)
 Number     Number       Type             X           Y           Z
 ---------------------------------------------------------------------
      1         11           0       -3.393174    0.159321    0.410112
      2         11           0        0.264593    0.344644   -1.727126
      3         11           0        0.090483   -0.457100    2.181934
      4         11           0        2.154867   -1.859401    0.315185
      5         11           0       -1.227211   -2.464047   -1.000936
      6         11           0        2.899544    1.314381   -0.107840
      7         11           0       -0.789101    2.962202   -0.071328
 ---------------------------------------------------------------------

 SCF Done:  E(UB3LYP) =  -1136.13191770     A.U. after   20 cycles

 The electronic state is 2-A.
 Alpha  occ. eigenvalues --  -38.44496 -38.44319 -38.44045 -38.43500 -38.43426
 Alpha  occ. eigenvalues --  -38.43399 -38.43388  -2.20257  -2.20178  -2.19885
 Alpha  occ. eigenvalues --   -2.19385  -2.19300  -2.19296  -2.19231  -1.13936
 Alpha  occ. eigenvalues --   -1.13908  -1.13900  -1.13860  -1.13811  -1.13788
 Alpha  occ. eigenvalues --   -1.13587  -1.13541  -1.13518  -1.13078  -1.13069
 Alpha  occ. eigenvalues --   -1.13034  -1.12996  -1.12970  -1.12954  -1.12943
 Alpha  occ. eigenvalues --   -1.12925  -1.12915  -1.12899  -1.12863  -1.12852
 Alpha  occ. eigenvalues --   -0.18336  -0.12916  -0.12129  -0.11253
 Alpha virt. eigenvalues --   -0.05985  -0.04923  -0.04470  -0.03408  -0.03124
 Alpha virt. eigenvalues --   -0.02878  -0.01644  -0.00961  -0.00406  -0.00263
 Alpha virt. eigenvalues --    0.00004   0.00356   0.00700   0.00813   0.00863

  Beta  occ. eigenvalues --  -38.44492 -38.44229 -38.44042 -38.43502 -38.43389
  Beta  occ. eigenvalues --  -38.43361 -38.43356  -2.20252  -2.20012  -2.19881
  Beta  occ. eigenvalues --   -2.19301  -2.19288  -2.19268  -2.19174  -1.13921
  Beta  occ. eigenvalues --   -1.13906  -1.13898  -1.13749  -1.13695  -1.13670
  Beta  occ. eigenvalues --   -1.13580  -1.13527  -1.13517  -1.13031  -1.13004
  Beta  occ. eigenvalues --   -1.12973  -1.12964  -1.12954  -1.12932  -1.12920
  Beta  occ. eigenvalues --   -1.12910  -1.12894  -1.12842  -1.12822  -1.12815
  Beta  occ. eigenvalues --   -0.17598  -0.12701  -0.11877
  Beta virt. eigenvalues --   -0.07339  -0.05911  -0.04846  -0.04343  -0.02711
  Beta virt. eigenvalues --   -0.02413  -0.01894  -0.01550  -0.00874  -0.00413
  Beta virt. eigenvalues --   -0.00212   0.00099   0.00391   0.00812   0.00890

 Mulliken charges and spin densities:
               1          2
     1  Na  -0.119054   0.012890
     2  Na   0.202920   0.307416
     3  Na  -0.416261   0.563232
     4  Na   0.401269   0.171701
     5  Na   0.058260   0.081959
     6  Na   0.011295  -0.086763
     7  Na  -0.138428  -0.050434
 Sum of Mulliken charges =  -0.00000   1.00000

 Dipole moment (field-independent basis, Debye):
    X=             -0.1087    Y=              0.1184    Z=              0.3586  Tot=              0.3930
 Quadrupole moment (field-independent basis, Debye-Ang):
   XX=            -56.5232   YY=            -66.3635   ZZ=            -71.8672
   XY=              0.6250   XZ=             -0.4320   YZ=              2.0164

 Normal termination of Gaussian 16 at Mon Dec  4 04:18:57 2023.
