 Gaussian 16, Revision B.01,
 Gaussian 16:  ES64L-G16RevB.01 20-Dec-2017

 -------------------------
 #P B3LYP/6-311+g(d) force
 -------------------------

 -----
 DPGEN
 -----
 Symbolic Z-matrix:
 Charge =  0 Multiplicity = 2

                         Standard orientation:
 ---------------------------------------------------------------------
 Center     Atomic      Atomic             Coordinates (Angstroms)
 Number     Number       Type             X           Y           Z
 ---------------------------------------------------------------------
      1         11           0       -3.246154   -0.976649   -0.142882
      2         11           0        0.316385   -2.820457   -0.332808
      3         11           0        1.692291    2.466691   -0.300448
      4         11           0        3.153137   -0.668809    0.040908
      5         11           0        0.043558   -0.244682    2.095929
      6         11           0       -1.910163    2.268962    0.073669
      7         11           0       -0.049053   -0.025057   -1.434367
 ---------------------------------------------------------------------

 SCF Done:  E(UB3LYP) =  -1136.13610322     A.U. after   19 cycles

 The electronic state is 2-A.
 Alpha  occ. eigenvalues --  -38.44430 -38.44272 -38.43589 -38.43504 -38.43354
 Alpha  occ. eigenvalues --  -38.43296 -38.42937  -2.20220  -2.20096  -2.19432
 Alpha  occ. eigenvalues --   -2.19381  -2.19226  -2.19146  -2.18970  -1.13895
 Alpha  occ. eigenvalues --   -1.13875  -1.13862  -1.13767  -1.13757  -1.13739
 Alpha  occ. eigenvalues --   -1.13128  -1.13101  -1.13058  -1.13056  -1.13009
 Alpha  occ. eigenvalues --   -1.12993  -1.12991  -1.12875  -1.12855  -1.12829
 Alpha  occ. eigenvalues --   -1.12799  -1.12776  -1.12648  -1.12600  -1.12569
 Alpha  occ. eigenvalues --   -0.18594  -0.13075  -0.12349  -0.10519
 Alpha virt. eigenvalues --   -0.06022  -0.05187  -0.04549  -0.03076  -0.02688
 Alpha virt. eigenvalues --   -0.02425  -0.01871  -0.01149  -0.00458  -0.00380
 Alpha virt. eigenvalues --   -0.00013   0.00323   0.00763   0.00843   0.00872

  Beta  occ. eigenvalues --  -38.44430 -38.44269 -38.43585 -38.43402 -38.43344
  Beta  occ. eigenvalues --  -38.43290 -38.42882  -2.20221  -2.20094  -2.19428
  Beta  occ. eigenvalues --   -2.19210  -2.19193  -2.19137  -2.18873  -1.13884
  Beta  occ. eigenvalues --   -1.13872  -1.13864  -1.13758  -1.13745  -1.13737
  Beta  occ. eigenvalues --   -1.13123  -1.13076  -1.13059  -1.12980  -1.12926
  Beta  occ. eigenvalues --   -1.12880  -1.12859  -1.12841  -1.12834  -1.12821
  Beta  occ. eigenvalues --   -1.12780  -1.12773  -1.12575  -1.12533  -1.12499
  Beta  occ. eigenvalues --   -0.17881  -0.12879  -0.12095
  Beta virt. eigenvalues --   -0.06578  -0.05987  -0.05187  -0.04515  -0.02329
  Beta virt. eigenvalues --   -0.01942  -0.01784  -0.01319  -0.01091  -0.00505
  Beta virt. eigenvalues --   -0.00415   0.00143   0.00357   0.00810   0.00843

 Mulliken charges and spin densities:
               1          2
     1  Na   0.135705  -0.054521
     2  Na   0.250831  -0.047703
     3  Na   0.172985  -0.000665
     4  Na   0.271556   0.028510
     5  Na  -0.540539   0.783478
     6  Na   0.161095   0.008650
     7  Na  -0.451634   0.282251
 Sum of Mulliken charges =  -0.00000   1.00000

 Dipole moment (field-independent basis, Debye):
    X=             -0.1382    Y=             -0.1787    Z=              0.2154  Tot=              0.3122
 Quadrupole moment (field-independent basis, Debye-Ang):
   XX=            -52.4559   YY=            -63.3836   ZZ=            -75.9916
   XY=              0.2113   XZ=             -0.0523   YZ=              0.4501

 Normal termination of Gaussian 16 at Thu Dec  7 23:17:36 2023.
