 Gaussian 16, Revision B.01,
 Gaussian 16:  ES64L-G16RevB.01 20-Dec-2017

 -------------------------
 #P B3LYP/6-311+g(d) force
 -------------------------

 -----
 DPGEN
 -----
 Symbolic Z-matrix:
 Charge =  0 Multiplicity = 2

                         Standard orientation:
 ---------------------------------------------------------------------
 Center     Atomic      Atomic             Coordinates (Angstroms)
 Number     Number       Type             X           Y           Z
 ---------------------------------------------------------------------
      1         11           0        2.614874    0.452063    0.385663
      2         11           0       -2.761539    1.772003    0.108430
      3         11           0       -2.359874   -2.155282   -0.136465
      4         11           0        1.831548   -2.365034   -0.571461
      5         11           0        0.982594    2.947689   -0.441729
      6         11           0       -0.302193   -0.191869   -1.526965
      7         11           0       -0.005410   -0.459570    2.182527
 ---------------------------------------------------------------------

 SCF Done:  E(UB3LYP) =  -1136.13070781     A.U. after   20 cycles

 The electronic state is 2-A.
 Alpha  occ. eigenvalues --  -38.44475 -38.44186 -38.43897 -38.43746 -38.43496
 Alpha  occ. eigenvalues --  -38.43259 -38.43112  -2.20239  -2.19999  -2.19768
 Alpha  occ. eigenvalues --   -2.19625  -2.19328  -2.19212  -2.19104  -1.13923
 Alpha  occ. eigenvalues --   -1.13900  -1.13871  -1.13704  -1.13659  -1.13617
 Alpha  occ. eigenvalues --   -1.13439  -1.13392  -1.13383  -1.13345  -1.13293
 Alpha  occ. eigenvalues --   -1.13246  -1.13070  -1.12992  -1.12958  -1.12875
 Alpha  occ. eigenvalues --   -1.12857  -1.12820  -1.12784  -1.12742  -1.12730
 Alpha  occ. eigenvalues --   -0.18565  -0.12947  -0.12368  -0.10937
 Alpha virt. eigenvalues --   -0.05949  -0.05114  -0.04525  -0.03294  -0.02836
 Alpha virt. eigenvalues --   -0.02723  -0.01510  -0.01334  -0.00325  -0.00271
 Alpha virt. eigenvalues --    0.00002   0.00353   0.00750   0.00839   0.00878

  Beta  occ. eigenvalues --  -38.44476 -38.44183 -38.43793 -38.43731 -38.43493
  Beta  occ. eigenvalues --  -38.43248 -38.43058  -2.20242  -2.19996  -2.19602
  Beta  occ. eigenvalues --   -2.19576  -2.19323  -2.19196  -2.19006  -1.13913
  Beta  occ. eigenvalues --   -1.13902  -1.13875  -1.13695  -1.13646  -1.13616
  Beta  occ. eigenvalues --   -1.13337  -1.13306  -1.13262  -1.13257  -1.13248
  Beta  occ. eigenvalues --   -1.13220  -1.13068  -1.12975  -1.12955  -1.12864
  Beta  occ. eigenvalues --   -1.12826  -1.12800  -1.12718  -1.12673  -1.12652
  Beta  occ. eigenvalues --   -0.17830  -0.12744  -0.12143
  Beta virt. eigenvalues --   -0.06954  -0.05965  -0.05011  -0.04463  -0.02495
  Beta virt. eigenvalues --   -0.02180  -0.01653  -0.01414  -0.01269  -0.00338
  Beta virt. eigenvalues --   -0.00272   0.00138   0.00397   0.00760   0.00903

 Mulliken charges and spin densities:
               1          2
     1  Na   0.358670   0.262013
     2  Na  -0.055484  -0.001246
     3  Na   0.019314  -0.057672
     4  Na   0.260317   0.018717
     5  Na  -0.070591  -0.044951
     6  Na  -0.119366   0.230392
     7  Na  -0.392859   0.592747
 Sum of Mulliken charges =  -0.00000   1.00000

 Dipole moment (field-independent basis, Debye):
    X=             -0.7605    Y=             -0.2265    Z=              0.1885  Tot=              0.8156
 Quadrupole moment (field-independent basis, Debye-Ang):
   XX=            -59.2567   YY=            -60.7859   ZZ=            -73.7310
   XY=             -0.7844   XZ=             -1.0712   YZ=              0.5838

 Normal termination of Gaussian 16 at Thu Dec  7 05:55:02 2023.
