 Gaussian 16, Revision B.01,
 Gaussian 16:  ES64L-G16RevB.01 20-Dec-2017

 -------------------------
 #P B3LYP/6-311+g(d) force
 -------------------------

 -----
 DPGEN
 -----
 Symbolic Z-matrix:
 Charge =  0 Multiplicity = 2

                         Standard orientation:
 ---------------------------------------------------------------------
 Center     Atomic      Atomic             Coordinates (Angstroms)
 Number     Number       Type             X           Y           Z
 ---------------------------------------------------------------------
      1         11           0       -2.910346    1.778645    1.189428
      2         11           0       -5.102214   -1.138506   -0.124912
      3         11           0       -1.968089   -1.223861   -0.957813
      4         11           0        4.969736   -1.560140    0.124841
      5         11           0        1.284647   -1.675997    0.766801
      6         11           0        0.001677    1.977473   -0.819839
      7         11           0        3.724589    1.842387   -0.178506
 ---------------------------------------------------------------------

 SCF Done:  E(UB3LYP) =  -1136.11152962     A.U. after   27 cycles

 The electronic state is 2-A.
 Alpha  occ. eigenvalues --  -38.45782 -38.45252 -38.44742 -38.44230 -38.44219
 Alpha  occ. eigenvalues --  -38.43580 -38.42647  -2.21546  -2.21012  -2.20525
 Alpha  occ. eigenvalues --   -2.20072  -2.19978  -2.19388  -2.18447  -1.15237
 Alpha  occ. eigenvalues --   -1.15198  -1.15154  -1.14695  -1.14661  -1.14621
 Alpha  occ. eigenvalues --   -1.14206  -1.14172  -1.14132  -1.13762  -1.13725
 Alpha  occ. eigenvalues --   -1.13720  -1.13655  -1.13639  -1.13618  -1.13052
 Alpha  occ. eigenvalues --   -1.13042  -1.13018  -1.12130  -1.12112  -1.12099
 Alpha  occ. eigenvalues --   -0.16643  -0.14140  -0.11233  -0.11009
 Alpha virt. eigenvalues --   -0.07460  -0.05533  -0.04538  -0.03301  -0.03084
 Alpha virt. eigenvalues --   -0.02679  -0.02048  -0.01519  -0.01138  -0.00864
 Alpha virt. eigenvalues --   -0.00468  -0.00051   0.00106   0.00411   0.00471

  Beta  occ. eigenvalues --  -38.45753 -38.45208 -38.44671 -38.44220 -38.44203
  Beta  occ. eigenvalues --  -38.43554 -38.42647  -2.21493  -2.20929  -2.20397
  Beta  occ. eigenvalues --   -2.20027  -2.19981  -2.19339  -2.18449  -1.15200
  Beta  occ. eigenvalues --   -1.15164  -1.15109  -1.14639  -1.14607  -1.14561
  Beta  occ. eigenvalues --   -1.14120  -1.14087  -1.14029  -1.13736  -1.13699
  Beta  occ. eigenvalues --   -1.13658  -1.13648  -1.13635  -1.13618  -1.13022
  Beta  occ. eigenvalues --   -1.13009  -1.12980  -1.12130  -1.12104  -1.12100
  Beta  occ. eigenvalues --   -0.15925  -0.13748  -0.10977
  Beta virt. eigenvalues --   -0.07518  -0.07203  -0.05197  -0.04053  -0.02989
  Beta virt. eigenvalues --   -0.02768  -0.02461  -0.01855  -0.01162  -0.00819
  Beta virt. eigenvalues --   -0.00732  -0.00233   0.00057   0.00203   0.00521

 Mulliken charges and spin densities:
               1          2
     1  Na   0.171963   0.169855
     2  Na   0.204092   0.235470
     3  Na   0.019908   0.058121
     4  Na   0.219786   0.010260
     5  Na  -0.338739   0.234308
     6  Na  -0.377614  -0.028089
     7  Na   0.100603   0.320074
 Sum of Mulliken charges =  -0.00000   1.00000

 Dipole moment (field-independent basis, Debye):
    X=              0.1760    Y=              0.3639    Z=              0.6738  Tot=              0.7857
 Quadrupole moment (field-independent basis, Debye-Ang):
   XX=            -60.3897   YY=            -71.2513   ZZ=            -67.1968
   XY=             -2.5461   XZ=             -3.5143   YZ=              2.4545

 Normal termination of Gaussian 16 at Sun Dec  3 13:48:45 2023.
