 Gaussian 16, Revision B.01,
 Gaussian 16:  ES64L-G16RevB.01 20-Dec-2017

 -------------------------
 #P B3LYP/6-311+g(d) force
 -------------------------

 -----
 DPGEN
 -----
 Symbolic Z-matrix:
 Charge =  0 Multiplicity = 2

                         Standard orientation:
 ---------------------------------------------------------------------
 Center     Atomic      Atomic             Coordinates (Angstroms)
 Number     Number       Type             X           Y           Z
 ---------------------------------------------------------------------
      1         11           0       -1.671673    2.336033   -0.071774
      2         11           0        1.595338   -0.572370   -1.110339
      3         11           0        4.916264    0.412007   -0.662423
      4         11           0        2.616102    0.739746    1.407697
      5         11           0       -0.099010   -2.107902    1.178737
      6         11           0       -2.375837   -1.294900   -0.903323
      7         11           0       -4.981185    0.487385    0.161425
 ---------------------------------------------------------------------

 SCF Done:  E(UB3LYP) =  -1136.11375417     A.U. after   22 cycles

 The electronic state is 2-A.
 Alpha  occ. eigenvalues --  -38.45162 -38.44887 -38.44021 -38.43639 -38.43517
 Alpha  occ. eigenvalues --  -38.43512 -38.43304  -2.21042  -2.20795  -2.19804
 Alpha  occ. eigenvalues --   -2.19512  -2.19374  -2.19302  -2.19170  -1.14808
 Alpha  occ. eigenvalues --   -1.14693  -1.14671  -1.14487  -1.14472  -1.14368
 Alpha  occ. eigenvalues --   -1.13486  -1.13457  -1.13395  -1.13230  -1.13183
 Alpha  occ. eigenvalues --   -1.13129  -1.13036  -1.13015  -1.13010  -1.12970
 Alpha  occ. eigenvalues --   -1.12964  -1.12924  -1.12838  -1.12814  -1.12807
 Alpha  occ. eigenvalues --   -0.17454  -0.14395  -0.11436  -0.10349
 Alpha virt. eigenvalues --   -0.06993  -0.05218  -0.04919  -0.03478  -0.02870
 Alpha virt. eigenvalues --   -0.01955  -0.01851  -0.01718  -0.01185  -0.00709
 Alpha virt. eigenvalues --   -0.00103   0.00033   0.00313   0.00481   0.00689

  Beta  occ. eigenvalues --  -38.45156 -38.44884 -38.43944 -38.43610 -38.43502
  Beta  occ. eigenvalues --  -38.43483 -38.43296  -2.21033  -2.20790  -2.19661
  Beta  occ. eigenvalues --   -2.19459  -2.19311  -2.19285  -2.19157  -1.14805
  Beta  occ. eigenvalues --   -1.14688  -1.14636  -1.14485  -1.14447  -1.14369
  Beta  occ. eigenvalues --   -1.13389  -1.13361  -1.13288  -1.13193  -1.13137
  Beta  occ. eigenvalues --   -1.13096  -1.12995  -1.12970  -1.12969  -1.12959
  Beta  occ. eigenvalues --   -1.12940  -1.12915  -1.12828  -1.12805  -1.12789
  Beta  occ. eigenvalues --   -0.16980  -0.14048  -0.11189
  Beta virt. eigenvalues --   -0.06902  -0.06662  -0.05003  -0.04340  -0.03263
  Beta virt. eigenvalues --   -0.02529  -0.01847  -0.01534  -0.01407  -0.00773
  Beta virt. eigenvalues --   -0.00419  -0.00032   0.00219   0.00417   0.00594

 Mulliken charges and spin densities:
               1          2
     1  Na  -0.351099   0.427534
     2  Na  -0.586928  -0.074730
     3  Na   0.714067   0.124622
     4  Na  -0.031196   0.116756
     5  Na   0.133546   0.053807
     6  Na  -0.076078   0.293819
     7  Na   0.197688   0.058191
 Sum of Mulliken charges =  -0.00000   1.00000

 Dipole moment (field-independent basis, Debye):
    X=              1.1082    Y=             -0.2665    Z=              0.5665  Tot=              1.2728
 Quadrupole moment (field-independent basis, Debye-Ang):
   XX=            -67.1384   YY=            -75.7948   ZZ=            -60.6892
   XY=              0.1338   XZ=             -1.4333   YZ=              0.2225

 Normal termination of Gaussian 16 at Mon Dec  4 01:08:43 2023.
