 Gaussian 16, Revision B.01,
 Gaussian 16:  ES64L-G16RevB.01 20-Dec-2017

 -------------------------
 #P B3LYP/6-311+g(d) force
 -------------------------

 -----
 DPGEN
 -----
 Symbolic Z-matrix:
 Charge =  0 Multiplicity = 2

                         Standard orientation:
 ---------------------------------------------------------------------
 Center     Atomic      Atomic             Coordinates (Angstroms)
 Number     Number       Type             X           Y           Z
 ---------------------------------------------------------------------
      1         11           0       -2.064176    1.052670   -1.244895
      2         11           0       -0.287953    0.313389    2.294830
      3         11           0        0.444924   -2.187124    0.391059
      4         11           0       -0.143315    3.353777    0.492821
      5         11           0        3.730385   -0.699330   -0.128281
      6         11           0        1.094221    0.320476   -1.691285
      7         11           0       -2.774086   -2.153858   -0.114249
 ---------------------------------------------------------------------

 SCF Done:  E(UB3LYP) =  -1136.12995210     A.U. after   20 cycles

 The electronic state is 2-A.
 Alpha  occ. eigenvalues --  -38.44642 -38.43971 -38.43791 -38.43738 -38.43613
 Alpha  occ. eigenvalues --  -38.43566 -38.43373  -2.20492  -2.19772  -2.19697
 Alpha  occ. eigenvalues --   -2.19611  -2.19417  -2.19384  -2.19284  -1.14168
 Alpha  occ. eigenvalues --   -1.14114  -1.14102  -1.13480  -1.13429  -1.13417
 Alpha  occ. eigenvalues --   -1.13409  -1.13337  -1.13332  -1.13263  -1.13254
 Alpha  occ. eigenvalues --   -1.13219  -1.13084  -1.13079  -1.13075  -1.13050
 Alpha  occ. eigenvalues --   -1.13037  -1.13034  -1.12999  -1.12969  -1.12846
 Alpha  occ. eigenvalues --   -0.18162  -0.12727  -0.12309  -0.11575
 Alpha virt. eigenvalues --   -0.05848  -0.05031  -0.04329  -0.03374  -0.03159
 Alpha virt. eigenvalues --   -0.03059  -0.01749  -0.01241  -0.00323  -0.00068
 Alpha virt. eigenvalues --    0.00168   0.00295   0.00753   0.00772   0.00881

  Beta  occ. eigenvalues --  -38.44539 -38.43974 -38.43745 -38.43698 -38.43606
  Beta  occ. eigenvalues --  -38.43568 -38.43358  -2.20302  -2.19779  -2.19613
  Beta  occ. eigenvalues --   -2.19539  -2.19407  -2.19388  -2.19260  -1.14037
  Beta  occ. eigenvalues --   -1.13986  -1.13963  -1.13468  -1.13431  -1.13418
  Beta  occ. eigenvalues --   -1.13355  -1.13283  -1.13275  -1.13211  -1.13198
  Beta  occ. eigenvalues --   -1.13174  -1.13079  -1.13075  -1.13062  -1.13042
  Beta  occ. eigenvalues --   -1.13035  -1.13024  -1.12977  -1.12929  -1.12838
  Beta  occ. eigenvalues --   -0.17395  -0.12545  -0.12133
  Beta virt. eigenvalues --   -0.07597  -0.05627  -0.04858  -0.04164  -0.02708
  Beta virt. eigenvalues --   -0.02577  -0.02210  -0.01651  -0.01129  -0.00180
  Beta virt. eigenvalues --   -0.00014   0.00260   0.00333   0.00824   0.00867

 Mulliken charges and spin densities:
               1          2
     1  Na   0.135428   0.258501
     2  Na  -0.045190   0.428996
     3  Na  -0.241708   0.281349
     4  Na  -0.192135   0.028507
     5  Na   0.280523  -0.041778
     6  Na   0.112948   0.125482
     7  Na  -0.049866  -0.081058
 Sum of Mulliken charges =  -0.00000   1.00000

 Dipole moment (field-independent basis, Debye):
    X=              0.3258    Y=              0.2831    Z=              0.3362  Tot=              0.5472
 Quadrupole moment (field-independent basis, Debye-Ang):
   XX=            -58.9092   YY=            -65.9387   ZZ=            -70.0415
   XY=              1.3777   XZ=              2.4011   YZ=              0.1928

 Normal termination of Gaussian 16 at Mon Dec  4 00:21:36 2023.
