 Gaussian 16, Revision B.01,
 Gaussian 16:  ES64L-G16RevB.01 20-Dec-2017

 -------------------------
 #P B3LYP/6-311+g(d) force
 -------------------------

 -----
 DPGEN
 -----
 Symbolic Z-matrix:
 Charge =  0 Multiplicity = 2

                         Standard orientation:
 ---------------------------------------------------------------------
 Center     Atomic      Atomic             Coordinates (Angstroms)
 Number     Number       Type             X           Y           Z
 ---------------------------------------------------------------------
      1         11           0       -1.013429    2.213943    0.880705
      2         11           0        1.999955   -0.370863    2.109306
      3         11           0       -3.942936   -0.171196   -0.112951
      4         11           0       -0.847982   -1.548207    0.940864
      5         11           0       -0.331871    0.050328   -2.030603
      6         11           0        2.462554    1.654893   -0.831532
      7         11           0        1.673709   -1.828899   -0.955790
 ---------------------------------------------------------------------

 SCF Done:  E(UB3LYP) =  -1136.12538488     A.U. after   24 cycles

 The electronic state is 2-A.
 Alpha  occ. eigenvalues --  -38.44814 -38.44406 -38.44400 -38.43926 -38.43359
 Alpha  occ. eigenvalues --  -38.43209 -38.42650  -2.20573  -2.20342  -2.20278
 Alpha  occ. eigenvalues --   -2.19715  -2.19324  -2.19040  -2.18585  -1.14251
 Alpha  occ. eigenvalues --   -1.14236  -1.14200  -1.14085  -1.13975  -1.13955
 Alpha  occ. eigenvalues --   -1.13931  -1.13915  -1.13880  -1.13410  -1.13384
 Alpha  occ. eigenvalues --   -1.13316  -1.13047  -1.12951  -1.12935  -1.12718
 Alpha  occ. eigenvalues --   -1.12704  -1.12676  -1.12294  -1.12274  -1.12176
 Alpha  occ. eigenvalues --   -0.18715  -0.13169  -0.12164  -0.11201
 Alpha virt. eigenvalues --   -0.06381  -0.04507  -0.04341  -0.03446  -0.03118
 Alpha virt. eigenvalues --   -0.02897  -0.02063  -0.00700  -0.00614   0.00021
 Alpha virt. eigenvalues --    0.00250   0.00257   0.00377   0.00816   0.00876

  Beta  occ. eigenvalues --  -38.44819 -38.44333 -38.44321 -38.43905 -38.43325
  Beta  occ. eigenvalues --  -38.43204 -38.42635  -2.20583  -2.20201  -2.20142
  Beta  occ. eigenvalues --   -2.19676  -2.19268  -2.19036  -2.18562  -1.14256
  Beta  occ. eigenvalues --   -1.14243  -1.14207  -1.13985  -1.13865  -1.13854
  Beta  occ. eigenvalues --   -1.13831  -1.13830  -1.13783  -1.13380  -1.13352
  Beta  occ. eigenvalues --   -1.13290  -1.12997  -1.12904  -1.12883  -1.12707
  Beta  occ. eigenvalues --   -1.12694  -1.12669  -1.12284  -1.12223  -1.12163
  Beta  occ. eigenvalues --   -0.17858  -0.13023  -0.10993
  Beta virt. eigenvalues --   -0.08047  -0.06242  -0.04333  -0.03806  -0.03066
  Beta virt. eigenvalues --   -0.02426  -0.02195  -0.01958  -0.00607  -0.00311
  Beta virt. eigenvalues --    0.00082   0.00281   0.00356   0.00455   0.00889

 Mulliken charges and spin densities:
               1          2
     1  Na  -0.308251   0.098781
     2  Na   0.021520   0.391374
     3  Na   0.210338  -0.069386
     4  Na  -0.308341   0.254097
     5  Na  -0.059512   0.382387
     6  Na  -0.191157  -0.050885
     7  Na   0.635401  -0.006369
 Sum of Mulliken charges =  -0.00000   1.00000

 Dipole moment (field-independent basis, Debye):
    X=             -0.6515    Y=              0.1580    Z=              0.1264  Tot=              0.6822
 Quadrupole moment (field-independent basis, Debye-Ang):
   XX=            -52.0301   YY=            -76.6871   ZZ=            -65.2587
   XY=             -0.4999   XZ=              1.7903   YZ=              3.5314

 Normal termination of Gaussian 16 at Thu Dec  7 07:39:32 2023.
