 Gaussian 16, Revision B.01,
 Gaussian 16:  ES64L-G16RevB.01 20-Dec-2017

 -------------------------
 #P B3LYP/6-311+g(d) force
 -------------------------

 -----
 DPGEN
 -----
 Symbolic Z-matrix:
 Charge =  0 Multiplicity = 2

                         Standard orientation:
 ---------------------------------------------------------------------
 Center     Atomic      Atomic             Coordinates (Angstroms)
 Number     Number       Type             X           Y           Z
 ---------------------------------------------------------------------
      1         11           0       -3.060252    1.475467    0.161836
      2         11           0       -2.409593   -1.656946   -0.751235
      3         11           0       -0.100870    0.879978    1.975691
      4         11           0        1.633472    2.511326   -0.430312
      5         11           0        3.437309   -0.561252   -0.412954
      6         11           0       -0.157645   -0.220996   -1.672932
      7         11           0        0.657579   -2.427577    1.129906
 ---------------------------------------------------------------------

 SCF Done:  E(UB3LYP) =  -1136.12658190     A.U. after   20 cycles

 The electronic state is 2-A.
 Alpha  occ. eigenvalues --  -38.44907 -38.44413 -38.43948 -38.43721 -38.43717
 Alpha  occ. eigenvalues --  -38.43456 -38.43068  -2.20682  -2.20216  -2.19905
 Alpha  occ. eigenvalues --   -2.19628  -2.19595  -2.19284  -2.18909  -1.14361
 Alpha  occ. eigenvalues --   -1.14328  -1.14324  -1.13893  -1.13876  -1.13861
 Alpha  occ. eigenvalues --   -1.13752  -1.13563  -1.13500  -1.13266  -1.13263
 Alpha  occ. eigenvalues --   -1.13243  -1.13238  -1.13219  -1.13216  -1.12964
 Alpha  occ. eigenvalues --   -1.12952  -1.12907  -1.12593  -1.12548  -1.12540
 Alpha  occ. eigenvalues --   -0.18300  -0.13367  -0.11734  -0.11231
 Alpha virt. eigenvalues --   -0.06410  -0.04991  -0.03968  -0.03542  -0.03197
 Alpha virt. eigenvalues --   -0.02708  -0.02044  -0.00994  -0.00288  -0.00247
 Alpha virt. eigenvalues --    0.00105   0.00285   0.00515   0.00774   0.00777

  Beta  occ. eigenvalues --  -38.44903 -38.44410 -38.43894 -38.43702 -38.43637
  Beta  occ. eigenvalues --  -38.43450 -38.43030  -2.20676  -2.20215  -2.19807
  Beta  occ. eigenvalues --   -2.19597  -2.19448  -2.19275  -2.18842  -1.14351
  Beta  occ. eigenvalues --   -1.14324  -1.14317  -1.13892  -1.13864  -1.13856
  Beta  occ. eigenvalues --   -1.13687  -1.13490  -1.13436  -1.13222  -1.13219
  Beta  occ. eigenvalues --   -1.13195  -1.13167  -1.13137  -1.13104  -1.12952
  Beta  occ. eigenvalues --   -1.12940  -1.12893  -1.12540  -1.12502  -1.12489
  Beta  occ. eigenvalues --   -0.17594  -0.13082  -0.11509
  Beta virt. eigenvalues --   -0.07352  -0.06354  -0.04909  -0.03761  -0.02861
  Beta virt. eigenvalues --   -0.02578  -0.01961  -0.01711  -0.00927  -0.00300
  Beta virt. eigenvalues --   -0.00066   0.00125   0.00331   0.00647   0.00793

 Mulliken charges and spin densities:
               1          2
     1  Na  -0.202179  -0.037378
     2  Na   0.419854   0.178010
     3  Na   0.096832   0.447683
     4  Na  -0.100682   0.025645
     5  Na   0.030662  -0.011092
     6  Na   0.070683   0.195826
     7  Na  -0.315170   0.201306
 Sum of Mulliken charges =  -0.00000   1.00000

 Dipole moment (field-independent basis, Debye):
    X=              0.1986    Y=              0.2019    Z=             -0.0645  Tot=              0.2904
 Quadrupole moment (field-independent basis, Debye-Ang):
   XX=            -52.7064   YY=            -69.2149   ZZ=            -72.0710
   XY=             -1.3775   XZ=             -0.8339   YZ=             -1.4316

 Normal termination of Gaussian 16 at Tue Dec  5 16:00:20 2023.
