 Gaussian 16, Revision B.01,
 Gaussian 16:  ES64L-G16RevB.01 20-Dec-2017

 -------------------------
 #P B3LYP/6-311+g(d) force
 -------------------------

 -----
 DPGEN
 -----
 Symbolic Z-matrix:
 Charge =  0 Multiplicity = 2

                         Standard orientation:
 ---------------------------------------------------------------------
 Center     Atomic      Atomic             Coordinates (Angstroms)
 Number     Number       Type             X           Y           Z
 ---------------------------------------------------------------------
      1         11           0       -2.275356    2.160380   -0.297529
      2         11           0       -3.664723   -0.918821    1.077921
      3         11           0        3.555045    1.151285    0.953621
      4         11           0        2.707781   -1.939936   -0.489965
      5         11           0        0.320776   -0.166554    1.712921
      6         11           0       -1.159737   -1.736149   -1.304823
      7         11           0        0.516216    1.449795   -1.652146
 ---------------------------------------------------------------------

 SCF Done:  E(UB3LYP) =  -1136.12302397     A.U. after   23 cycles

 The electronic state is 2-A.
 Alpha  occ. eigenvalues --  -38.45276 -38.44807 -38.44429 -38.44198 -38.43812
 Alpha  occ. eigenvalues --  -38.43382 -38.42790  -2.21085  -2.20609  -2.20219
 Alpha  occ. eigenvalues --   -2.19993  -2.19639  -2.19205  -2.18661  -1.14789
 Alpha  occ. eigenvalues --   -1.14742  -1.14698  -1.14279  -1.14246  -1.14238
 Alpha  occ. eigenvalues --   -1.13896  -1.13876  -1.13856  -1.13660  -1.13645
 Alpha  occ. eigenvalues --   -1.13622  -1.13326  -1.13291  -1.13260  -1.12895
 Alpha  occ. eigenvalues --   -1.12876  -1.12842  -1.12343  -1.12302  -1.12285
 Alpha  occ. eigenvalues --   -0.17850  -0.13858  -0.11228  -0.10913
 Alpha virt. eigenvalues --   -0.06696  -0.05765  -0.04512  -0.03077  -0.02883
 Alpha virt. eigenvalues --   -0.02550  -0.02370  -0.01344  -0.00873  -0.00399
 Alpha virt. eigenvalues --    0.00086   0.00168   0.00341   0.00487   0.00578

  Beta  occ. eigenvalues --  -38.45249 -38.44771 -38.44417 -38.44168 -38.43772
  Beta  occ. eigenvalues --  -38.43384 -38.42749  -2.21036  -2.20541  -2.20199
  Beta  occ. eigenvalues --   -2.19936  -2.19567  -2.19211  -2.18587  -1.14745
  Beta  occ. eigenvalues --   -1.14710  -1.14658  -1.14226  -1.14200  -1.14196
  Beta  occ. eigenvalues --   -1.13883  -1.13861  -1.13824  -1.13620  -1.13604
  Beta  occ. eigenvalues --   -1.13587  -1.13279  -1.13234  -1.13196  -1.12890
  Beta  occ. eigenvalues --   -1.12877  -1.12842  -1.12294  -1.12238  -1.12235
  Beta  occ. eigenvalues --   -0.17177  -0.13513  -0.10734
  Beta virt. eigenvalues --   -0.07559  -0.06427  -0.05592  -0.03995  -0.02887
  Beta virt. eigenvalues --   -0.02484  -0.02132  -0.01660  -0.01211  -0.00627
  Beta virt. eigenvalues --   -0.00295   0.00155   0.00212   0.00416   0.00599

 Mulliken charges and spin densities:
               1          2
     1  Na  -0.086460  -0.066655
     2  Na   0.380170   0.212650
     3  Na   0.411431   0.073823
     4  Na   0.067655   0.098068
     5  Na  -0.470542   0.258937
     6  Na  -0.177852   0.146435
     7  Na  -0.124402   0.276742
 Sum of Mulliken charges =  -0.00000   1.00000

 Dipole moment (field-independent basis, Debye):
    X=              0.8146    Y=             -0.0913    Z=              0.4786  Tot=              0.9492
 Quadrupole moment (field-independent basis, Debye-Ang):
   XX=            -50.3710   YY=            -75.8423   ZZ=            -69.2116
   XY=             -0.1048   XZ=             -1.6136   YZ=              3.9987

 Normal termination of Gaussian 16 at Tue Dec  5 16:36:44 2023.
