 Gaussian 16, Revision B.01,
 Gaussian 16:  ES64L-G16RevB.01 20-Dec-2017

 -------------------------
 #P B3LYP/6-311+g(d) force
 -------------------------

 -----
 DPGEN
 -----
 Symbolic Z-matrix:
 Charge =  0 Multiplicity = 2

                         Standard orientation:
 ---------------------------------------------------------------------
 Center     Atomic      Atomic             Coordinates (Angstroms)
 Number     Number       Type             X           Y           Z
 ---------------------------------------------------------------------
      1         11           0       -0.284038    1.888519   -0.289309
      2         11           0       -3.144075    1.738410    0.205868
      3         11           0       -0.451014   -0.864674    2.135728
      4         11           0       -2.780692   -1.542087   -0.695253
      5         11           0        3.280894    1.803219   -0.442914
      6         11           0        0.362743   -1.706079   -1.434120
      7         11           0        3.016183   -1.317310    0.520000
 ---------------------------------------------------------------------

 SCF Done:  E(UB3LYP) =  -1136.11996137     A.U. after   23 cycles

 The electronic state is 2-A.
 Alpha  occ. eigenvalues --  -38.44855 -38.44438 -38.44307 -38.44295 -38.43908
 Alpha  occ. eigenvalues --  -38.43718 -38.43562  -2.20679  -2.20294  -2.20143
 Alpha  occ. eigenvalues --   -2.20104  -2.19748  -2.19591  -2.19427  -1.14363
 Alpha  occ. eigenvalues --   -1.14337  -1.14325  -1.14051  -1.13939  -1.13919
 Alpha  occ. eigenvalues --   -1.13825  -1.13791  -1.13771  -1.13769  -1.13758
 Alpha  occ. eigenvalues --   -1.13747  -1.13421  -1.13376  -1.13355  -1.13263
 Alpha  occ. eigenvalues --   -1.13253  -1.13224  -1.13109  -1.13075  -1.13057
 Alpha  occ. eigenvalues --   -0.18112  -0.14007  -0.11812  -0.10661
 Alpha virt. eigenvalues --   -0.06753  -0.06311  -0.03845  -0.03577  -0.02629
 Alpha virt. eigenvalues --   -0.02376  -0.02344  -0.01789  -0.00697  -0.00309
 Alpha virt. eigenvalues --    0.00067   0.00179   0.00433   0.00516   0.00644

  Beta  occ. eigenvalues --  -38.44850 -38.44436 -38.44299 -38.44267 -38.43809
  Beta  occ. eigenvalues --  -38.43711 -38.43530  -2.20673  -2.20293  -2.20094
  Beta  occ. eigenvalues --   -2.20091  -2.19581  -2.19565  -2.19370  -1.14360
  Beta  occ. eigenvalues --   -1.14335  -1.14301  -1.14052  -1.13935  -1.13909
  Beta  occ. eigenvalues --   -1.13784  -1.13760  -1.13751  -1.13748  -1.13737
  Beta  occ. eigenvalues --   -1.13737  -1.13299  -1.13254  -1.13248  -1.13231
  Beta  occ. eigenvalues --   -1.13225  -1.13216  -1.13072  -1.13021  -1.13017
  Beta  occ. eigenvalues --   -0.17495  -0.13837  -0.11533
  Beta virt. eigenvalues --   -0.06860  -0.06633  -0.06168  -0.03414  -0.03200
  Beta virt. eigenvalues --   -0.02355  -0.01978  -0.01709  -0.01413  -0.00676
  Beta virt. eigenvalues --   -0.00016   0.00099   0.00239   0.00517   0.00638

 Mulliken charges and spin densities:
               1          2
     1  Na  -1.588187   0.075707
     2  Na   1.441306   0.097657
     3  Na  -0.265723   0.421063
     4  Na   0.049803   0.117615
     5  Na   0.049674  -0.094984
     6  Na  -0.022479   0.148988
     7  Na   0.335606   0.233954
 Sum of Mulliken charges =  -0.00000   1.00000

 Dipole moment (field-independent basis, Debye):
    X=              0.0500    Y=             -0.2766    Z=              0.2637  Tot=              0.3855
 Quadrupole moment (field-independent basis, Debye-Ang):
   XX=            -48.0155   YY=            -73.4938   ZZ=            -74.1339
   XY=             -1.0635   XZ=             -0.3922   YZ=             -0.8773

 Normal termination of Gaussian 16 at Thu Dec  7 06:24:36 2023.
