 Gaussian 16, Revision B.01,
 Gaussian 16:  ES64L-G16RevB.01 20-Dec-2017

 -------------------------
 #P B3LYP/6-311+g(d) force
 -------------------------

 -----
 DPGEN
 -----
 Symbolic Z-matrix:
 Charge =  0 Multiplicity = 2

                         Standard orientation:
 ---------------------------------------------------------------------
 Center     Atomic      Atomic             Coordinates (Angstroms)
 Number     Number       Type             X           Y           Z
 ---------------------------------------------------------------------
      1         11           0       -4.577289   -1.393548   -0.255358
      2         11           0        6.306761    0.184799   -0.635454
      3         11           0       -0.525267   -1.658790    1.015011
      4         11           0       -3.415574    2.177370   -0.153497
      5         11           0        3.225070   -0.623467    0.215274
      6         11           0        0.419832    1.573018    1.018044
      7         11           0       -1.433532   -0.259382   -1.204019
 ---------------------------------------------------------------------

 SCF Done:  E(UB3LYP) =  -1136.11116715     A.U. after   23 cycles

 The electronic state is 2-A.
 Alpha  occ. eigenvalues --  -38.45442 -38.45067 -38.44965 -38.44819 -38.44586
 Alpha  occ. eigenvalues --  -38.42730 -38.42308  -2.21418  -2.20888  -2.20887
 Alpha  occ. eigenvalues --   -2.20671  -2.20376  -2.18544  -2.18080  -1.15290
 Alpha  occ. eigenvalues --   -1.15085  -1.14994  -1.14568  -1.14553  -1.14536
 Alpha  occ. eigenvalues --   -1.14515  -1.14481  -1.14446  -1.14352  -1.14318
 Alpha  occ. eigenvalues --   -1.14280  -1.14052  -1.14032  -1.13999  -1.12246
 Alpha  occ. eigenvalues --   -1.12238  -1.12142  -1.11744  -1.11743  -1.11719
 Alpha  occ. eigenvalues --   -0.18383  -0.13657  -0.12240  -0.10745
 Alpha virt. eigenvalues --   -0.06637  -0.05683  -0.05345  -0.03614  -0.02803
 Alpha virt. eigenvalues --   -0.02203  -0.02023  -0.01782  -0.00992  -0.00666
 Alpha virt. eigenvalues --   -0.00407  -0.00151   0.00211   0.00261   0.00493

  Beta  occ. eigenvalues --  -38.45420 -38.44999 -38.44913 -38.44786 -38.44562
  Beta  occ. eigenvalues --  -38.42728 -38.42313  -2.21387  -2.20792  -2.20763
  Beta  occ. eigenvalues --   -2.20612  -2.20333  -2.18539  -2.18089  -1.15240
  Beta  occ. eigenvalues --   -1.15035  -1.14970  -1.14494  -1.14478  -1.14453
  Beta  occ. eigenvalues --   -1.14451  -1.14386  -1.14375  -1.14312  -1.14274
  Beta  occ. eigenvalues --   -1.14225  -1.14023  -1.13990  -1.13972  -1.12240
  Beta  occ. eigenvalues --   -1.12235  -1.12143  -1.11750  -1.11750  -1.11725
  Beta  occ. eigenvalues --   -0.17556  -0.13499  -0.10745
  Beta virt. eigenvalues --   -0.08178  -0.06415  -0.05265  -0.04806  -0.02834
  Beta virt. eigenvalues --   -0.02762  -0.02039  -0.01537  -0.01323  -0.00943
  Beta virt. eigenvalues --   -0.00618  -0.00317   0.00077   0.00358   0.00433

 Mulliken charges and spin densities:
               1          2
     1  Na   0.226015   0.066883
     2  Na   0.288054   0.000455
     3  Na   0.266282   0.182899
     4  Na   0.033235   0.331908
     5  Na  -0.782645  -0.091288
     6  Na  -0.077161   0.242017
     7  Na   0.046220   0.267126
 Sum of Mulliken charges =  -0.00000   1.00000

 Dipole moment (field-independent basis, Debye):
    X=             -4.2469    Y=              0.3284    Z=              0.8557  Tot=              4.3447
 Quadrupole moment (field-independent basis, Debye-Ang):
   XX=            -81.5190   YY=            -64.1601   ZZ=            -67.3881
   XY=              3.4368   XZ=             -2.4521   YZ=             -0.2401

 Normal termination of Gaussian 16 at Tue Dec  5 13:32:29 2023.
