 Gaussian 16, Revision B.01,
 Gaussian 16:  ES64L-G16RevB.01 20-Dec-2017

 -------------------------
 #P B3LYP/6-311+g(d) force
 -------------------------

 -----
 DPGEN
 -----
 Symbolic Z-matrix:
 Charge =  0 Multiplicity = 2

                         Standard orientation:
 ---------------------------------------------------------------------
 Center     Atomic      Atomic             Coordinates (Angstroms)
 Number     Number       Type             X           Y           Z
 ---------------------------------------------------------------------
      1         11           0        0.065564   -0.005700    0.516153
      2         11           0       -3.665144   -0.581016    0.102932
      3         11           0       -1.543170   -3.001208   -0.183978
      4         11           0        2.329611   -2.952713   -0.326920
      5         11           0        3.523721    0.418872    0.386027
      6         11           0        1.323026    3.304336   -0.460039
      7         11           0       -2.033607    2.817429   -0.034174
 ---------------------------------------------------------------------

 SCF Done:  E(UB3LYP) =  -1136.12775946     A.U. after   22 cycles

 The electronic state is 2-A.
 Alpha  occ. eigenvalues --  -38.44580 -38.44443 -38.44379 -38.43948 -38.43705
 Alpha  occ. eigenvalues --  -38.43475 -38.43311  -2.20378  -2.20271  -2.20238
 Alpha  occ. eigenvalues --   -2.19782  -2.19530  -2.19285  -2.19152  -1.14068
 Alpha  occ. eigenvalues --   -1.14045  -1.14013  -1.13981  -1.13962  -1.13951
 Alpha  occ. eigenvalues --   -1.13907  -1.13872  -1.13865  -1.13446  -1.13430
 Alpha  occ. eigenvalues --   -1.13414  -1.13205  -1.13183  -1.13150  -1.12949
 Alpha  occ. eigenvalues --   -1.12926  -1.12910  -1.12810  -1.12796  -1.12785
 Alpha  occ. eigenvalues --   -0.17105  -0.13738  -0.13400  -0.09557
 Alpha virt. eigenvalues --   -0.06719  -0.05962  -0.04173  -0.03159  -0.02631
 Alpha virt. eigenvalues --   -0.02376  -0.02182  -0.01825  -0.01521  -0.00166
 Alpha virt. eigenvalues --    0.00116   0.00328   0.00454   0.00631   0.00704

  Beta  occ. eigenvalues --  -38.44572 -38.44427 -38.44392 -38.43914 -38.43662
  Beta  occ. eigenvalues --  -38.43419 -38.43261  -2.20371  -2.20260  -2.20249
  Beta  occ. eigenvalues --   -2.19723  -2.19452  -2.19180  -2.19057  -1.14070
  Beta  occ. eigenvalues --   -1.14048  -1.13992  -1.13962  -1.13959  -1.13942
  Beta  occ. eigenvalues --   -1.13893  -1.13885  -1.13840  -1.13408  -1.13385
  Beta  occ. eigenvalues --   -1.13363  -1.13154  -1.13134  -1.13081  -1.12878
  Beta  occ. eigenvalues --   -1.12851  -1.12843  -1.12745  -1.12734  -1.12721
  Beta  occ. eigenvalues --   -0.16858  -0.13025  -0.12763
  Beta virt. eigenvalues --   -0.06796  -0.06325  -0.05678  -0.04044  -0.02614
  Beta virt. eigenvalues --   -0.02216  -0.02132  -0.01835  -0.01576  -0.01344
  Beta virt. eigenvalues --   -0.00090   0.00388   0.00435   0.00554   0.00717

 Mulliken charges and spin densities:
               1          2
     1  Na  -2.611034  -0.192060
     2  Na   0.956274   0.200324
     3  Na   0.175770   0.121029
     4  Na   0.375063   0.294296
     5  Na   0.450625   0.255538
     6  Na   0.567170   0.055968
     7  Na   0.086133   0.264904
 Sum of Mulliken charges =  -0.00000   1.00000

 Dipole moment (field-independent basis, Debye):
    X=             -0.2391    Y=              0.1849    Z=             -0.2863  Tot=              0.4164
 Quadrupole moment (field-independent basis, Debye-Ang):
   XX=            -61.6526   YY=            -64.4674   ZZ=            -71.7904
   XY=              0.3408   XZ=             -0.5870   YZ=             -0.7747

 Normal termination of Gaussian 16 at Tue Dec  5 16:16:48 2023.
