 Gaussian 16, Revision B.01,
 Gaussian 16:  ES64L-G16RevB.01 20-Dec-2017

 -------------------------
 #P B3LYP/6-311+g(d) force
 -------------------------

 -----
 DPGEN
 -----
 Symbolic Z-matrix:
 Charge =  0 Multiplicity = 2

                         Standard orientation:
 ---------------------------------------------------------------------
 Center     Atomic      Atomic             Coordinates (Angstroms)
 Number     Number       Type             X           Y           Z
 ---------------------------------------------------------------------
      1         11           0        0.283245   -1.437399    2.060069
      2         11           0        3.716128   -0.692526   -0.751003
      3         11           0        1.399111    2.013204    0.377082
      4         11           0       -2.660420   -1.703785   -1.015576
      5         11           0       -1.692256    0.918682    1.401149
      6         11           0        0.357511   -0.879494   -0.884982
      7         11           0       -1.403318    1.781318   -1.186740
 ---------------------------------------------------------------------

 SCF Done:  E(UB3LYP) =  -1136.11971468     A.U. after   22 cycles

 The electronic state is 2-A.
 Alpha  occ. eigenvalues --  -38.44397 -38.44370 -38.43901 -38.43743 -38.43323
 Alpha  occ. eigenvalues --  -38.43021 -38.42825  -2.20270  -2.20182  -2.19930
 Alpha  occ. eigenvalues --   -2.19590  -2.19323  -2.18922  -2.18904  -1.14002
 Alpha  occ. eigenvalues --   -1.13926  -1.13859  -1.13845  -1.13831  -1.13808
 Alpha  occ. eigenvalues --   -1.13774  -1.13593  -1.13487  -1.13295  -1.13225
 Alpha  occ. eigenvalues --   -1.13213  -1.13009  -1.12967  -1.12887  -1.12659
 Alpha  occ. eigenvalues --   -1.12622  -1.12599  -1.12552  -1.12514  -1.12481
 Alpha  occ. eigenvalues --   -0.19289  -0.13139  -0.11968  -0.11663
 Alpha virt. eigenvalues --   -0.05960  -0.04733  -0.03936  -0.03209  -0.02986
 Alpha virt. eigenvalues --   -0.02719  -0.01805  -0.01000  -0.00471   0.00215
 Alpha virt. eigenvalues --    0.00264   0.00390   0.00599   0.00754   0.00921

  Beta  occ. eigenvalues --  -38.44383 -38.44287 -38.43855 -38.43717 -38.43300
  Beta  occ. eigenvalues --  -38.43016 -38.42799  -2.20157  -2.20121  -2.19853
  Beta  occ. eigenvalues --   -2.19545  -2.19282  -2.18915  -2.18863  -1.13902
  Beta  occ. eigenvalues --   -1.13837  -1.13813  -1.13804  -1.13794  -1.13747
  Beta  occ. eigenvalues --   -1.13711  -1.13519  -1.13440  -1.13257  -1.13198
  Beta  occ. eigenvalues --   -1.13176  -1.12978  -1.12933  -1.12846  -1.12646
  Beta  occ. eigenvalues --   -1.12575  -1.12565  -1.12528  -1.12508  -1.12456
  Beta  occ. eigenvalues --   -0.18486  -0.12846  -0.11513
  Beta virt. eigenvalues --   -0.07839  -0.05729  -0.04623  -0.03561  -0.02847
  Beta virt. eigenvalues --   -0.02454  -0.01796  -0.01629  -0.00882  -0.00227
  Beta virt. eigenvalues --    0.00271   0.00312   0.00426   0.00733   0.00799

 Mulliken charges and spin densities:
               1          2
     1  Na  -0.152086   0.285257
     2  Na   0.850191   0.013230
     3  Na  -0.014421   0.105258
     4  Na   0.164837  -0.064286
     5  Na   0.288799   0.112886
     6  Na  -1.521009   0.209401
     7  Na   0.383688   0.338253
 Sum of Mulliken charges =  -0.00000   1.00000

 Dipole moment (field-independent basis, Debye):
    X=              0.3015    Y=             -0.2428    Z=              0.1650  Tot=              0.4207
 Quadrupole moment (field-independent basis, Debye-Ang):
   XX=            -53.8440   YY=            -72.7021   ZZ=            -65.7881
   XY=              0.5012   XZ=              0.6449   YZ=             -0.1259

 Normal termination of Gaussian 16 at Thu Dec  7 14:39:25 2023.
