 Gaussian 16, Revision B.01,
 Gaussian 16:  ES64L-G16RevB.01 20-Dec-2017

 -------------------------
 #P B3LYP/6-311+g(d) force
 -------------------------

 -----
 DPGEN
 -----
 Symbolic Z-matrix:
 Charge =  0 Multiplicity = 2

                         Standard orientation:
 ---------------------------------------------------------------------
 Center     Atomic      Atomic             Coordinates (Angstroms)
 Number     Number       Type             X           Y           Z
 ---------------------------------------------------------------------
      1         11           0       -2.376440    0.102451   -0.665957
      2         11           0       -2.307401    3.732749    0.558248
      3         11           0        2.806083   -0.399712   -0.927307
      4         11           0       -2.891434   -3.151503    1.062367
      5         11           0        5.021719   -0.250170    1.004187
      6         11           0        0.301243    2.459888   -0.274408
      7         11           0       -0.553771   -2.493702   -0.757130
 ---------------------------------------------------------------------

 SCF Done:  E(UB3LYP) =  -1136.11600638     A.U. after   19 cycles

 The electronic state is 2-A.
 Alpha  occ. eigenvalues --  -38.45317 -38.44759 -38.44208 -38.44190 -38.44187
 Alpha  occ. eigenvalues --  -38.43581 -38.42937  -2.21142  -2.20594  -2.20097
 Alpha  occ. eigenvalues --   -2.20034  -2.20027  -2.19419  -2.18785  -1.14859
 Alpha  occ. eigenvalues --   -1.14842  -1.14735  -1.14283  -1.14261  -1.14250
 Alpha  occ. eigenvalues --   -1.13845  -1.13783  -1.13745  -1.13691  -1.13672
 Alpha  occ. eigenvalues --   -1.13670  -1.13667  -1.13643  -1.13592  -1.13131
 Alpha  occ. eigenvalues --   -1.13044  -1.13041  -1.12458  -1.12449  -1.12428
 Alpha  occ. eigenvalues --   -0.16952  -0.13817  -0.13315  -0.09993
 Alpha virt. eigenvalues --   -0.06483  -0.05802  -0.04233  -0.04069  -0.03006
 Alpha virt. eigenvalues --   -0.01922  -0.01818  -0.01699  -0.01589  -0.00761
 Alpha virt. eigenvalues --   -0.00128  -0.00061   0.00191   0.00428   0.00596

  Beta  occ. eigenvalues --  -38.45311 -38.44753 -38.44185 -38.44168 -38.44138
  Beta  occ. eigenvalues --  -38.43514 -38.42931  -2.21136  -2.20587  -2.20060
  Beta  occ. eigenvalues --   -2.19984  -2.19942  -2.19294  -2.18783  -1.14847
  Beta  occ. eigenvalues --   -1.14813  -1.14739  -1.14275  -1.14253  -1.14235
  Beta  occ. eigenvalues --   -1.13798  -1.13753  -1.13715  -1.13663  -1.13639
  Beta  occ. eigenvalues --   -1.13616  -1.13608  -1.13602  -1.13535  -1.13053
  Beta  occ. eigenvalues --   -1.12957  -1.12955  -1.12460  -1.12454  -1.12372
  Beta  occ. eigenvalues --   -0.16429  -0.13560  -0.12771
  Beta virt. eigenvalues --   -0.06773  -0.06222  -0.05322  -0.03976  -0.03736
  Beta virt. eigenvalues --   -0.02855  -0.01771  -0.01707  -0.01424  -0.01040
  Beta virt. eigenvalues --   -0.00516   0.00097   0.00208   0.00402   0.00568

 Mulliken charges and spin densities:
               1          2
     1  Na  -0.543903   0.042409
     2  Na   0.624475   0.155163
     3  Na  -0.260720  -0.216586
     4  Na   0.605033   0.384015
     5  Na   0.116400   0.434267
     6  Na  -0.310178   0.101756
     7  Na  -0.231107   0.098975
 Sum of Mulliken charges =  -0.00000   1.00000

 Dipole moment (field-independent basis, Debye):
    X=             -1.9708    Y=              0.3874    Z=              0.2857  Tot=              2.0287
 Quadrupole moment (field-independent basis, Debye-Ang):
   XX=            -69.5994   YY=            -61.2912   ZZ=            -69.9017
   XY=             -1.4098   XZ=              0.8642   YZ=              0.3586

 Normal termination of Gaussian 16 at Tue Nov 28 19:12:22 2023.
