 Gaussian 16, Revision B.01,
 Gaussian 16:  ES64L-G16RevB.01 20-Dec-2017

 -------------------------
 #P B3LYP/6-311+g(d) force
 -------------------------

 -----
 DPGEN
 -----
 Symbolic Z-matrix:
 Charge =  0 Multiplicity = 2

                         Standard orientation:
 ---------------------------------------------------------------------
 Center     Atomic      Atomic             Coordinates (Angstroms)
 Number     Number       Type             X           Y           Z
 ---------------------------------------------------------------------
      1         11           0       -1.088659   -1.803320    1.328921
      2         11           0        1.169999   -1.610232   -0.580726
      3         11           0        1.292361    0.955827    2.135290
      4         11           0        3.826177   -0.040563   -0.754626
      5         11           0        0.140231    1.814632   -1.277746
      6         11           0       -2.798640   -1.258775   -1.050121
      7         11           0       -2.541468    1.942431    0.199009
 ---------------------------------------------------------------------

 SCF Done:  E(UB3LYP) =  -1136.12272205     A.U. after   20 cycles

 The electronic state is 2-A.
 Alpha  occ. eigenvalues --  -38.44793 -38.44453 -38.44231 -38.43640 -38.43551
 Alpha  occ. eigenvalues --  -38.43471 -38.43126  -2.20609  -2.20279  -2.20094
 Alpha  occ. eigenvalues --   -2.19489  -2.19409  -2.19392  -2.19063  -1.14304
 Alpha  occ. eigenvalues --   -1.14253  -1.14226  -1.13941  -1.13907  -1.13895
 Alpha  occ. eigenvalues --   -1.13810  -1.13743  -1.13711  -1.13232  -1.13177
 Alpha  occ. eigenvalues --   -1.13171  -1.13137  -1.13076  -1.13039  -1.13034
 Alpha  occ. eigenvalues --   -1.13022  -1.12999  -1.12723  -1.12708  -1.12669
 Alpha  occ. eigenvalues --   -0.18310  -0.13680  -0.11668  -0.11283
 Alpha virt. eigenvalues --   -0.06414  -0.05122  -0.04179  -0.03410  -0.02968
 Alpha virt. eigenvalues --   -0.02692  -0.02217  -0.00995  -0.00649  -0.00001
 Alpha virt. eigenvalues --    0.00149   0.00262   0.00539   0.00705   0.00787

  Beta  occ. eigenvalues --  -38.44766 -38.44360 -38.44214 -38.43630 -38.43554
  Beta  occ. eigenvalues --  -38.43455 -38.43102  -2.20560  -2.20107  -2.20062
  Beta  occ. eigenvalues --   -2.19471  -2.19400  -2.19382  -2.19021  -1.14266
  Beta  occ. eigenvalues --   -1.14213  -1.14195  -1.13820  -1.13791  -1.13782
  Beta  occ. eigenvalues --   -1.13779  -1.13719  -1.13688  -1.13225  -1.13161
  Beta  occ. eigenvalues --   -1.13132  -1.13116  -1.13053  -1.13042  -1.13027
  Beta  occ. eigenvalues --   -1.13009  -1.12998  -1.12697  -1.12677  -1.12618
  Beta  occ. eigenvalues --   -0.17638  -0.13368  -0.11553
  Beta virt. eigenvalues --   -0.07398  -0.06206  -0.04858  -0.03766  -0.03314
  Beta virt. eigenvalues --   -0.02320  -0.02080  -0.01785  -0.00851  -0.00300
  Beta virt. eigenvalues --    0.00076   0.00208   0.00303   0.00638   0.00806

 Mulliken charges and spin densities:
               1          2
     1  Na   0.458668   0.345648
     2  Na  -0.700941   0.078843
     3  Na  -0.277649   0.335706
     4  Na   0.643567   0.063561
     5  Na  -0.330175   0.134476
     6  Na   0.174039  -0.011718
     7  Na   0.032491   0.053484
 Sum of Mulliken charges =  -0.00000   1.00000

 Dipole moment (field-independent basis, Debye):
    X=              0.5734    Y=              0.3236    Z=              0.0179  Tot=              0.6587
 Quadrupole moment (field-independent basis, Debye-Ang):
   XX=            -51.8285   YY=            -76.4784   ZZ=            -67.1976
   XY=              2.2130   XZ=              0.0902   YZ=              2.7307

 Normal termination of Gaussian 16 at Thu Dec  7 07:41:53 2023.
