 Gaussian 16, Revision B.01,
 Gaussian 16:  ES64L-G16RevB.01 20-Dec-2017

 -------------------------
 #P B3LYP/6-311+g(d) force
 -------------------------

 -----
 DPGEN
 -----
 Symbolic Z-matrix:
 Charge =  0 Multiplicity = 2

                         Standard orientation:
 ---------------------------------------------------------------------
 Center     Atomic      Atomic             Coordinates (Angstroms)
 Number     Number       Type             X           Y           Z
 ---------------------------------------------------------------------
      1         11           0       -0.798575   -0.736319   -1.577162
      2         11           0       -2.459849    2.079024   -0.087355
      3         11           0        3.804288    0.253844    0.616658
      4         11           0        2.066448   -1.977395   -0.661237
      5         11           0        1.150793    2.345492   -0.361274
      6         11           0       -3.511195   -1.366090    0.465316
      7         11           0       -0.251909   -0.598556    1.605054
 ---------------------------------------------------------------------

 SCF Done:  E(UB3LYP) =  -1136.12388976     A.U. after   23 cycles

 The electronic state is 2-A.
 Alpha  occ. eigenvalues --  -38.45285 -38.44553 -38.44364 -38.43967 -38.43576
 Alpha  occ. eigenvalues --  -38.43238 -38.42910  -2.21136  -2.20391  -2.20191
 Alpha  occ. eigenvalues --   -2.19780  -2.19466  -2.19194  -2.18724  -1.14863
 Alpha  occ. eigenvalues --   -1.14782  -1.14746  -1.14076  -1.14034  -1.14016
 Alpha  occ. eigenvalues --   -1.13859  -1.13836  -1.13825  -1.13468  -1.13441
 Alpha  occ. eigenvalues --   -1.13408  -1.13156  -1.13117  -1.13113  -1.12892
 Alpha  occ. eigenvalues --   -1.12823  -1.12790  -1.12414  -1.12401  -1.12350
 Alpha  occ. eigenvalues --   -0.18374  -0.14203  -0.11479  -0.10490
 Alpha virt. eigenvalues --   -0.07071  -0.05691  -0.04192  -0.03284  -0.02843
 Alpha virt. eigenvalues --   -0.02355  -0.02011  -0.01448  -0.00773  -0.00371
 Alpha virt. eigenvalues --    0.00027   0.00083   0.00385   0.00594   0.00698

  Beta  occ. eigenvalues --  -38.45266 -38.44516 -38.44336 -38.43964 -38.43553
  Beta  occ. eigenvalues --  -38.43161 -38.42907  -2.21102  -2.20322  -2.20139
  Beta  occ. eigenvalues --   -2.19776  -2.19430  -2.19057  -2.18721  -1.14824
  Beta  occ. eigenvalues --   -1.14763  -1.14719  -1.14031  -1.13985  -1.13969
  Beta  occ. eigenvalues --   -1.13816  -1.13800  -1.13791  -1.13461  -1.13441
  Beta  occ. eigenvalues --   -1.13394  -1.13115  -1.13095  -1.13067  -1.12804
  Beta  occ. eigenvalues --   -1.12718  -1.12687  -1.12415  -1.12391  -1.12337
  Beta  occ. eigenvalues --   -0.17772  -0.13823  -0.11205
  Beta virt. eigenvalues --   -0.06946  -0.06727  -0.05653  -0.03728  -0.03023
  Beta virt. eigenvalues --   -0.02580  -0.01720  -0.01466  -0.01281  -0.00597
  Beta virt. eigenvalues --   -0.00154   0.00095   0.00143   0.00561   0.00693

 Mulliken charges and spin densities:
               1          2
     1  Na   0.172424   0.362654
     2  Na  -0.047068   0.013395
     3  Na   0.380370   0.314619
     4  Na  -0.044898  -0.028643
     5  Na  -0.496444  -0.131602
     6  Na   0.379149   0.205308
     7  Na  -0.343534   0.264268
 Sum of Mulliken charges =  -0.00000   1.00000

 Dipole moment (field-independent basis, Debye):
    X=             -0.4681    Y=             -0.2775    Z=              0.1336  Tot=              0.5604
 Quadrupole moment (field-independent basis, Debye-Ang):
   XX=            -50.9458   YY=            -74.0177   ZZ=            -71.1250
   XY=             -1.0553   XZ=              0.9846   YZ=              0.3209

 Normal termination of Gaussian 16 at Thu Dec  7 09:58:13 2023.
