 Gaussian 16, Revision B.01,
 Gaussian 16:  ES64L-G16RevB.01 20-Dec-2017

 -------------------------
 #P B3LYP/6-311+g(d) force
 -------------------------

 -----
 DPGEN
 -----
 Symbolic Z-matrix:
 Charge =  0 Multiplicity = 2

                         Standard orientation:
 ---------------------------------------------------------------------
 Center     Atomic      Atomic             Coordinates (Angstroms)
 Number     Number       Type             X           Y           Z
 ---------------------------------------------------------------------
      1         11           0        1.129334   -1.993598    0.042872
      2         11           0        4.361887   -2.445259   -0.568444
      3         11           0        3.445908    0.640452    0.707157
      4         11           0        1.515585    3.643863   -0.512586
      5         11           0       -0.244426    1.352287    0.243379
      6         11           0       -3.591984   -0.795633    0.466337
      7         11           0       -6.616303   -0.402112   -0.378716
 ---------------------------------------------------------------------

 SCF Done:  E(UB3LYP) =  -1136.12029132     A.U. after   21 cycles

 The electronic state is 2-A.
 Alpha  occ. eigenvalues --  -38.45166 -38.44534 -38.44484 -38.44094 -38.43817
 Alpha  occ. eigenvalues --  -38.43745 -38.43284  -2.20984  -2.20372  -2.20299
 Alpha  occ. eigenvalues --   -2.19930  -2.19693  -2.19551  -2.19066  -1.14691
 Alpha  occ. eigenvalues --   -1.14667  -1.14566  -1.14057  -1.14050  -1.14007
 Alpha  occ. eigenvalues --   -1.13958  -1.13952  -1.13898  -1.13679  -1.13575
 Alpha  occ. eigenvalues --   -1.13553  -1.13368  -1.13362  -1.13278  -1.13203
 Alpha  occ. eigenvalues --   -1.13189  -1.13189  -1.12749  -1.12747  -1.12704
 Alpha  occ. eigenvalues --   -0.17026  -0.13454  -0.12843  -0.10957
 Alpha virt. eigenvalues --   -0.06352  -0.05520  -0.04441  -0.04057  -0.02591
 Alpha virt. eigenvalues --   -0.02328  -0.01924  -0.01878  -0.01250  -0.00868
 Alpha virt. eigenvalues --   -0.00275  -0.00165   0.00100   0.00351   0.00625

  Beta  occ. eigenvalues --  -38.45135 -38.44485 -38.44472 -38.44079 -38.43789
  Beta  occ. eigenvalues --  -38.43681 -38.43294  -2.20928  -2.20284  -2.20276
  Beta  occ. eigenvalues --   -2.19902  -2.19645  -2.19431  -2.19091  -1.14646
  Beta  occ. eigenvalues --   -1.14629  -1.14523  -1.14000  -1.13994  -1.13966
  Beta  occ. eigenvalues --   -1.13942  -1.13924  -1.13850  -1.13659  -1.13556
  Beta  occ. eigenvalues --   -1.13529  -1.13339  -1.13327  -1.13228  -1.13128
  Beta  occ. eigenvalues --   -1.13108  -1.13107  -1.12772  -1.12770  -1.12674
  Beta  occ. eigenvalues --   -0.16412  -0.13165  -0.12329
  Beta virt. eigenvalues --   -0.07562  -0.06204  -0.04914  -0.04005  -0.03868
  Beta virt. eigenvalues --   -0.02499  -0.02045  -0.01735  -0.01439  -0.01130
  Beta virt. eigenvalues --   -0.00560  -0.00048   0.00055   0.00313   0.00464

 Mulliken charges and spin densities:
               1          2
     1  Na  -0.939570   0.107895
     2  Na   1.140883   0.270891
     3  Na  -0.162721   0.283217
     4  Na   1.364618   0.261885
     5  Na  -1.392261   0.076977
     6  Na  -0.304519  -0.298232
     7  Na   0.293570   0.297367
 Sum of Mulliken charges =  -0.00000   1.00000

 Dipole moment (field-independent basis, Debye):
    X=              2.6147    Y=              0.0318    Z=             -0.4732  Tot=              2.6574
 Quadrupole moment (field-independent basis, Debye-Ang):
   XX=            -61.1039   YY=            -62.4070   ZZ=            -71.0122
   XY=             -4.9328   XZ=              1.0104   YZ=              0.0591

 Normal termination of Gaussian 16 at Wed Nov 29 00:12:15 2023.
