 Gaussian 16, Revision B.01,
 Gaussian 16:  ES64L-G16RevB.01 20-Dec-2017

 -------------------------
 #P B3LYP/6-311+g(d) force
 -------------------------

 -----
 DPGEN
 -----
 Symbolic Z-matrix:
 Charge =  0 Multiplicity = 2

                         Standard orientation:
 ---------------------------------------------------------------------
 Center     Atomic      Atomic             Coordinates (Angstroms)
 Number     Number       Type             X           Y           Z
 ---------------------------------------------------------------------
      1         11           0        2.956568   -0.577941   -0.281543
      2         11           0        1.249970    0.082866    1.760257
      3         11           0       -3.689325   -1.276413   -0.098943
      4         11           0       -1.095230   -0.033224    0.338557
      5         11           0        0.631461   -2.027131   -0.443143
      6         11           0        0.908874    0.976468   -1.234243
      7         11           0       -0.962318    2.855376   -0.040943
 ---------------------------------------------------------------------

 SCF Done:  E(UB3LYP) =  -1136.07062891     A.U. after   24 cycles

 The electronic state is 2-A.
 Alpha  occ. eigenvalues --  -38.45209 -38.44859 -38.44274 -38.44252 -38.43618
 Alpha  occ. eigenvalues --  -38.43520 -38.43343  -2.21329  -2.20653  -2.20407
 Alpha  occ. eigenvalues --   -2.20381  -2.19867  -2.19670  -2.19445  -1.15186
 Alpha  occ. eigenvalues --   -1.15024  -1.15001  -1.14419  -1.14326  -1.14297
 Alpha  occ. eigenvalues --   -1.14277  -1.14166  -1.14022  -1.13999  -1.13963
 Alpha  occ. eigenvalues --   -1.13884  -1.13776  -1.13538  -1.13435  -1.13335
 Alpha  occ. eigenvalues --   -1.13254  -1.13193  -1.13077  -1.13033  -1.13017
 Alpha  occ. eigenvalues --   -0.20747  -0.13847  -0.12249  -0.11326
 Alpha virt. eigenvalues --   -0.06750  -0.05047  -0.03508  -0.03225  -0.02464
 Alpha virt. eigenvalues --   -0.02219  -0.01942  -0.00997  -0.00237   0.00116
 Alpha virt. eigenvalues --    0.00290   0.00394   0.00734   0.00773   0.00984

  Beta  occ. eigenvalues --  -38.45182 -38.44875 -38.44244 -38.44153 -38.43559
  Beta  occ. eigenvalues --  -38.43520 -38.43311  -2.21288  -2.20681  -2.20337
  Beta  occ. eigenvalues --   -2.20225  -2.19766  -2.19619  -2.19448  -1.15165
  Beta  occ. eigenvalues --   -1.14982  -1.14915  -1.14423  -1.14313  -1.14297
  Beta  occ. eigenvalues --   -1.14283  -1.14076  -1.13940  -1.13903  -1.13896
  Beta  occ. eigenvalues --   -1.13768  -1.13708  -1.13479  -1.13354  -1.13299
  Beta  occ. eigenvalues --   -1.13186  -1.13123  -1.13055  -1.13028  -1.13004
  Beta  occ. eigenvalues --   -0.19857  -0.13621  -0.12074
  Beta virt. eigenvalues --   -0.07005  -0.06538  -0.05003  -0.03378  -0.02547
  Beta virt. eigenvalues --   -0.02244  -0.01653  -0.01048  -0.00914   0.00042
  Beta virt. eigenvalues --    0.00166   0.00297   0.00456   0.00785   0.00917

 Mulliken charges and spin densities:
               1          2
     1  Na   2.360446   0.391681
     2  Na  -0.243510   0.163500
     3  Na   0.707476  -0.447734
     4  Na  -1.260573   0.704089
     5  Na  -0.613637   0.100498
     6  Na  -1.263130   0.079437
     7  Na   0.312928   0.008529
 Sum of Mulliken charges =  -0.00000   1.00000

 Dipole moment (field-independent basis, Debye):
    X=             -0.1267    Y=              0.1292    Z=              0.0574  Tot=              0.1899
 Quadrupole moment (field-independent basis, Debye-Ang):
   XX=            -51.5286   YY=            -66.4369   ZZ=            -73.2313
   XY=             -1.6627   XZ=              0.4049   YZ=              1.5987

 Normal termination of Gaussian 16 at Sat Dec  9 05:23:43 2023.
