 Gaussian 16, Revision B.01,
 Gaussian 16:  ES64L-G16RevB.01 20-Dec-2017

 -------------------------
 #P B3LYP/6-311+g(d) force
 -------------------------

 -----
 DPGEN
 -----
 Symbolic Z-matrix:
 Charge =  0 Multiplicity = 2

                         Standard orientation:
 ---------------------------------------------------------------------
 Center     Atomic      Atomic             Coordinates (Angstroms)
 Number     Number       Type             X           Y           Z
 ---------------------------------------------------------------------
      1         11           0       -1.885344   -0.148273    2.095233
      2         11           0       -3.381944    0.834199   -1.353907
      3         11           0        2.001773   -2.980821   -1.181003
      4         11           0       -1.087960   -1.917509   -0.222457
      5         11           0        1.871333   -0.906627    1.196403
      6         11           0        0.087901    1.793827   -0.231439
      7         11           0        2.394242    3.325205   -0.302831
 ---------------------------------------------------------------------

 SCF Done:  E(UB3LYP) =  -1136.12155517     A.U. after   21 cycles

 The electronic state is 2-A.
 Alpha  occ. eigenvalues --  -38.44305 -38.44297 -38.44143 -38.44042 -38.43716
 Alpha  occ. eigenvalues --  -38.43709 -38.43003  -2.20160  -2.20103  -2.20030
 Alpha  occ. eigenvalues --   -2.19957  -2.19560  -2.19549  -2.18939  -1.13867
 Alpha  occ. eigenvalues --   -1.13840  -1.13824  -1.13782  -1.13763  -1.13758
 Alpha  occ. eigenvalues --   -1.13708  -1.13680  -1.13642  -1.13618  -1.13602
 Alpha  occ. eigenvalues --   -1.13521  -1.13378  -1.13219  -1.13202  -1.13188
 Alpha  occ. eigenvalues --   -1.13175  -1.13160  -1.12603  -1.12597  -1.12538
 Alpha  occ. eigenvalues --   -0.18029  -0.13140  -0.12528  -0.10942
 Alpha virt. eigenvalues --   -0.05944  -0.05324  -0.04810  -0.03380  -0.02675
 Alpha virt. eigenvalues --   -0.02324  -0.01595  -0.01393  -0.00916  -0.00350
 Alpha virt. eigenvalues --    0.00100   0.00179   0.00307   0.00540   0.00675

  Beta  occ. eigenvalues --  -38.44285 -38.44244 -38.44075 -38.44031 -38.43711
  Beta  occ. eigenvalues --  -38.43688 -38.42995  -2.20140  -2.19989  -2.19945
  Beta  occ. eigenvalues --   -2.19904  -2.19553  -2.19506  -2.18927  -1.13855
  Beta  occ. eigenvalues --   -1.13791  -1.13777  -1.13757  -1.13680  -1.13678
  Beta  occ. eigenvalues --   -1.13646  -1.13635  -1.13586  -1.13553  -1.13521
  Beta  occ. eigenvalues --   -1.13494  -1.13381  -1.13182  -1.13177  -1.13164
  Beta  occ. eigenvalues --   -1.13162  -1.13154  -1.12596  -1.12567  -1.12532
  Beta  occ. eigenvalues --   -0.17361  -0.12786  -0.12419
  Beta virt. eigenvalues --   -0.07243  -0.05649  -0.05043  -0.04385  -0.03137
  Beta virt. eigenvalues --   -0.02291  -0.01787  -0.01385  -0.01219  -0.00496
  Beta virt. eigenvalues --   -0.00221   0.00233   0.00351   0.00384   0.00712

 Mulliken charges and spin densities:
               1          2
     1  Na   0.577545   0.322396
     2  Na   0.787825   0.276957
     3  Na  -0.072917   0.023623
     4  Na   0.143144   0.377758
     5  Na   0.135969   0.097344
     6  Na  -1.383968   0.122183
     7  Na  -0.187598  -0.220260
 Sum of Mulliken charges =  -0.00000   1.00000

 Dipole moment (field-independent basis, Debye):
    X=             -0.1650    Y=             -0.4804    Z=              0.2335  Tot=              0.5590
 Quadrupole moment (field-independent basis, Debye-Ang):
   XX=            -58.9685   YY=            -67.6887   ZZ=            -67.6284
   XY=             -0.8568   XZ=              0.0596   YZ=              1.4872

 Normal termination of Gaussian 16 at Wed Nov 29 16:34:23 2023.
