 Gaussian 16, Revision B.01,
 Gaussian 16:  ES64L-G16RevB.01 20-Dec-2017

 -------------------------
 #P B3LYP/6-311+g(d) force
 -------------------------

 -----
 DPGEN
 -----
 Symbolic Z-matrix:
 Charge =  0 Multiplicity = 2

                         Standard orientation:
 ---------------------------------------------------------------------
 Center     Atomic      Atomic             Coordinates (Angstroms)
 Number     Number       Type             X           Y           Z
 ---------------------------------------------------------------------
      1         11           0       -1.808384   -1.244340    1.601531
      2         11           0       -3.796430    1.464168   -0.112562
      3         11           0        3.497847    0.864409    0.472332
      4         11           0       -3.807954   -1.820550   -0.818389
      5         11           0        6.061665   -0.737473   -0.350061
      6         11           0       -0.719008    2.339441   -0.213735
      7         11           0        0.572264   -0.865655   -0.579116
 ---------------------------------------------------------------------

 SCF Done:  E(UB3LYP) =  -1136.11338334     A.U. after   23 cycles

 The electronic state is 2-A.
 Alpha  occ. eigenvalues --  -38.45296 -38.44856 -38.44694 -38.43793 -38.43742
 Alpha  occ. eigenvalues --  -38.43630 -38.42924  -2.21166  -2.20711  -2.20571
 Alpha  occ. eigenvalues --   -2.19628  -2.19557  -2.19428  -2.18764  -1.14864
 Alpha  occ. eigenvalues --   -1.14804  -1.14790  -1.14392  -1.14342  -1.14320
 Alpha  occ. eigenvalues --   -1.14237  -1.14221  -1.14174  -1.13296  -1.13286
 Alpha  occ. eigenvalues --   -1.13280  -1.13254  -1.13238  -1.13219  -1.13074
 Alpha  occ. eigenvalues --   -1.13072  -1.13032  -1.12449  -1.12436  -1.12393
 Alpha  occ. eigenvalues --   -0.17681  -0.13890  -0.11923  -0.11176
 Alpha virt. eigenvalues --   -0.06558  -0.05418  -0.04669  -0.03492  -0.02978
 Alpha virt. eigenvalues --   -0.02539  -0.01891  -0.01517  -0.01037  -0.00759
 Alpha virt. eigenvalues --   -0.00475  -0.00026   0.00389   0.00431   0.00521

  Beta  occ. eigenvalues --  -38.45254 -38.44799 -38.44606 -38.43791 -38.43743
  Beta  occ. eigenvalues --  -38.43600 -38.42911  -2.21091  -2.20608  -2.20410
  Beta  occ. eigenvalues --   -2.19628  -2.19562  -2.19372  -2.18744  -1.14794
  Beta  occ. eigenvalues --   -1.14750  -1.14737  -1.14311  -1.14279  -1.14250
  Beta  occ. eigenvalues --   -1.14128  -1.14116  -1.14054  -1.13295  -1.13286
  Beta  occ. eigenvalues --   -1.13262  -1.13255  -1.13241  -1.13207  -1.13037
  Beta  occ. eigenvalues --   -1.13034  -1.13002  -1.12436  -1.12424  -1.12360
  Beta  occ. eigenvalues --   -0.16885  -0.13567  -0.10921
  Beta virt. eigenvalues --   -0.08152  -0.06309  -0.05138  -0.04129  -0.03046
  Beta virt. eigenvalues --   -0.02793  -0.02229  -0.01423  -0.01272  -0.00810
  Beta virt. eigenvalues --   -0.00556  -0.00405   0.00103   0.00426   0.00540

 Mulliken charges and spin densities:
               1          2
     1  Na   0.144918   0.322402
     2  Na   0.040106   0.360219
     3  Na  -0.069468   0.063954
     4  Na   0.354556  -0.061455
     5  Na   0.275336   0.079559
     6  Na  -0.116088   0.018930
     7  Na  -0.629360   0.216391
 Sum of Mulliken charges =  -0.00000   1.00000

 Dipole moment (field-independent basis, Debye):
    X=             -1.2063    Y=             -0.6018    Z=              0.1018  Tot=              1.3519
 Quadrupole moment (field-independent basis, Debye-Ang):
   XX=            -71.0132   YY=            -71.0405   ZZ=            -64.1854
   XY=             -3.7128   XZ=             -0.7446   YZ=              3.5580

 Normal termination of Gaussian 16 at Tue Nov 28 20:38:09 2023.
