 Gaussian 16, Revision B.01,
 Gaussian 16:  ES64L-G16RevB.01 20-Dec-2017

 -------------------------
 #P B3LYP/6-311+g(d) force
 -------------------------

 -----
 DPGEN
 -----
 Symbolic Z-matrix:
 Charge =  0 Multiplicity = 2

                         Standard orientation:
 ---------------------------------------------------------------------
 Center     Atomic      Atomic             Coordinates (Angstroms)
 Number     Number       Type             X           Y           Z
 ---------------------------------------------------------------------
      1         11           0        1.835288   -2.862635   -0.279561
      2         11           0        0.016384    3.076614   -1.092218
      3         11           0        4.217403   -0.902078    1.175372
      4         11           0        2.949730    2.198119   -0.342592
      5         11           0       -2.903934    1.876140    1.116778
      6         11           0       -4.389966   -0.799719    0.438660
      7         11           0       -1.724905   -2.586442   -1.016438
 ---------------------------------------------------------------------

 SCF Done:  E(UB3LYP) =  -1136.11099908     A.U. after   21 cycles

 The electronic state is 2-A.
 Alpha  occ. eigenvalues --  -38.45236 -38.44840 -38.44647 -38.44635 -38.44291
 Alpha  occ. eigenvalues --  -38.43897 -38.43662  -2.21029  -2.20627  -2.20463
 Alpha  occ. eigenvalues --   -2.20394  -2.20078  -2.19707  -2.19469  -1.14701
 Alpha  occ. eigenvalues --   -1.14692  -1.14666  -1.14312  -1.14299  -1.14262
 Alpha  occ. eigenvalues --   -1.14127  -1.14120  -1.14106  -1.14084  -1.14073
 Alpha  occ. eigenvalues --   -1.14033  -1.13741  -1.13732  -1.13694  -1.13356
 Alpha  occ. eigenvalues --   -1.13347  -1.13338  -1.13134  -1.13119  -1.13107
 Alpha  occ. eigenvalues --   -0.15790  -0.14163  -0.13031  -0.10907
 Alpha virt. eigenvalues --   -0.07405  -0.04808  -0.04583  -0.03666  -0.03520
 Alpha virt. eigenvalues --   -0.02260  -0.01909  -0.01636  -0.01288  -0.00916
 Alpha virt. eigenvalues --   -0.00738  -0.00135  -0.00043   0.00467   0.00711

  Beta  occ. eigenvalues --  -38.45201 -38.44824 -38.44633 -38.44631 -38.44230
  Beta  occ. eigenvalues --  -38.43835 -38.43633  -2.20966  -2.20604  -2.20442
  Beta  occ. eigenvalues --   -2.20392  -2.19965  -2.19590  -2.19415  -1.14657
  Beta  occ. eigenvalues --   -1.14652  -1.14611  -1.14292  -1.14288  -1.14222
  Beta  occ. eigenvalues --   -1.14110  -1.14106  -1.14088  -1.14077  -1.14077
  Beta  occ. eigenvalues --   -1.13990  -1.13666  -1.13656  -1.13614  -1.13277
  Beta  occ. eigenvalues --   -1.13269  -1.13263  -1.13094  -1.13084  -1.13069
  Beta  occ. eigenvalues --   -0.15274  -0.13523  -0.12313
  Beta virt. eigenvalues --   -0.07728  -0.07520  -0.04210  -0.04183  -0.03479
  Beta virt. eigenvalues --   -0.03186  -0.02081  -0.01754  -0.01418  -0.00971
  Beta virt. eigenvalues --   -0.00719  -0.00521   0.00114   0.00149   0.00483

 Mulliken charges and spin densities:
               1          2
     1  Na  -0.097072  -0.042262
     2  Na  -0.142099   0.098914
     3  Na   0.132851   0.293634
     4  Na   0.008701   0.116254
     5  Na  -0.310395   0.174275
     6  Na   0.644195   0.068996
     7  Na  -0.236179   0.290190
 Sum of Mulliken charges =  -0.00000   1.00000

 Dipole moment (field-independent basis, Debye):
    X=             -0.7312    Y=              0.1738    Z=              0.3478  Tot=              0.8281
 Quadrupole moment (field-independent basis, Debye-Ang):
   XX=            -59.0287   YY=            -70.5047   ZZ=            -70.6091
   XY=              2.2665   XZ=              1.1791   YZ=              1.3861

 Normal termination of Gaussian 16 at Mon Dec  4 03:48:35 2023.
