 Gaussian 16, Revision B.01,
 Gaussian 16:  ES64L-G16RevB.01 20-Dec-2017

 -------------------------
 #P B3LYP/6-311+g(d) force
 -------------------------

 -----
 DPGEN
 -----
 Symbolic Z-matrix:
 Charge =  0 Multiplicity = 2

                         Standard orientation:
 ---------------------------------------------------------------------
 Center     Atomic      Atomic             Coordinates (Angstroms)
 Number     Number       Type             X           Y           Z
 ---------------------------------------------------------------------
      1         11           0        3.147527   -0.105184   -0.012155
      2         11           0       -0.258707   -0.155161   -1.505729
      3         11           0       -3.016124   -1.311074   -0.416520
      4         11           0       -0.438612   -0.584087    2.162448
      5         11           0        1.218932    2.892111   -0.139587
      6         11           0       -1.853675    2.147930    0.125308
      7         11           0        1.200659   -2.884535   -0.213764
 ---------------------------------------------------------------------

 SCF Done:  E(UB3LYP) =  -1136.13492488     A.U. after   18 cycles

 The electronic state is 2-A.
 Alpha  occ. eigenvalues --  -38.44105 -38.44078 -38.43947 -38.43706 -38.43658
 Alpha  occ. eigenvalues --  -38.43338 -38.43137  -2.19933  -2.19884  -2.19773
 Alpha  occ. eigenvalues --   -2.19589  -2.19512  -2.19175  -2.19122  -1.13628
 Alpha  occ. eigenvalues --   -1.13577  -1.13569  -1.13559  -1.13551  -1.13538
 Alpha  occ. eigenvalues --   -1.13455  -1.13431  -1.13399  -1.13302  -1.13254
 Alpha  occ. eigenvalues --   -1.13222  -1.13166  -1.13138  -1.13126  -1.12841
 Alpha  occ. eigenvalues --   -1.12833  -1.12824  -1.12803  -1.12762  -1.12745
 Alpha  occ. eigenvalues --   -0.18374  -0.12982  -0.12574  -0.10607
 Alpha virt. eigenvalues --   -0.05854  -0.05168  -0.04920  -0.03104  -0.02875
 Alpha virt. eigenvalues --   -0.02517  -0.01601  -0.01247  -0.00579  -0.00400
 Alpha virt. eigenvalues --   -0.00022   0.00328   0.00796   0.00802   0.00862

  Beta  occ. eigenvalues --  -38.44094 -38.44078 -38.43943 -38.43699 -38.43556
  Beta  occ. eigenvalues --  -38.43339 -38.43082  -2.19915  -2.19886  -2.19769
  Beta  occ. eigenvalues --   -2.19579  -2.19322  -2.19177  -2.19023  -1.13606
  Beta  occ. eigenvalues --   -1.13561  -1.13555  -1.13551  -1.13547  -1.13540
  Beta  occ. eigenvalues --   -1.13447  -1.13412  -1.13400  -1.13296  -1.13225
  Beta  occ. eigenvalues --   -1.13214  -1.13040  -1.13006  -1.12993  -1.12841
  Beta  occ. eigenvalues --   -1.12827  -1.12822  -1.12733  -1.12692  -1.12669
  Beta  occ. eigenvalues --   -0.17686  -0.12780  -0.12366
  Beta virt. eigenvalues --   -0.06655  -0.05843  -0.05100  -0.04866  -0.02344
  Beta virt. eigenvalues --   -0.02167  -0.01522  -0.01452  -0.01176  -0.00619
  Beta virt. eigenvalues --   -0.00426   0.00157   0.00380   0.00799   0.00845

 Mulliken charges and spin densities:
               1          2
     1  Na   0.005731   0.019454
     2  Na  -0.190200   0.260734
     3  Na   0.325755  -0.006488
     4  Na  -0.505667   0.673931
     5  Na  -0.126286  -0.044103
     6  Na   0.275293   0.135783
     7  Na   0.215374  -0.039310
 Sum of Mulliken charges =  -0.00000   1.00000

 Dipole moment (field-independent basis, Debye):
    X=             -0.0785    Y=             -0.4180    Z=              0.1183  Tot=              0.4415
 Quadrupole moment (field-independent basis, Debye-Ang):
   XX=            -57.0421   YY=            -61.1856   ZZ=            -75.5457
   XY=              0.7242   XZ=              0.4261   YZ=              0.8793

 Normal termination of Gaussian 16 at Thu Dec  7 05:07:33 2023.
