 Gaussian 16, Revision B.01,
 Gaussian 16:  ES64L-G16RevB.01 20-Dec-2017

 -------------------------
 #P B3LYP/6-311+g(d) force
 -------------------------

 -----
 DPGEN
 -----
 Symbolic Z-matrix:
 Charge =  0 Multiplicity = 2

                         Standard orientation:
 ---------------------------------------------------------------------
 Center     Atomic      Atomic             Coordinates (Angstroms)
 Number     Number       Type             X           Y           Z
 ---------------------------------------------------------------------
      1         11           0        3.798201    0.663827   -0.389953
      2         11           0        0.273082    0.173132   -2.136448
      3         11           0       -0.712120   -1.265255    2.204030
      4         11           0       -3.175502   -1.123556   -0.998172
      5         11           0        1.494629   -2.103960   -0.014332
      6         11           0       -2.788961    2.039490    0.255615
      7         11           0        1.110670    1.616322    1.079260
 ---------------------------------------------------------------------

 SCF Done:  E(UB3LYP) =  -1136.12012368     A.U. after   26 cycles

 The electronic state is 2-A.
 Alpha  occ. eigenvalues --  -38.45176 -38.45169 -38.44736 -38.43985 -38.43925
 Alpha  occ. eigenvalues --  -38.42989 -38.42903  -2.20997  -2.20940  -2.20543
 Alpha  occ. eigenvalues --   -2.19794  -2.19757  -2.18831  -2.18773  -1.14683
 Alpha  occ. eigenvalues --   -1.14656  -1.14617  -1.14596  -1.14581  -1.14571
 Alpha  occ. eigenvalues --   -1.14234  -1.14198  -1.14176  -1.13472  -1.13434
 Alpha  occ. eigenvalues --   -1.13428  -1.13426  -1.13414  -1.13406  -1.12536
 Alpha  occ. eigenvalues --   -1.12490  -1.12472  -1.12456  -1.12414  -1.12377
 Alpha  occ. eigenvalues --   -0.17971  -0.13525  -0.11638  -0.10877
 Alpha virt. eigenvalues --   -0.06831  -0.05549  -0.04183  -0.03289  -0.03032
 Alpha virt. eigenvalues --   -0.02689  -0.02466  -0.01233  -0.00579  -0.00323
 Alpha virt. eigenvalues --    0.00081   0.00180   0.00306   0.00579   0.00742

  Beta  occ. eigenvalues --  -38.45151 -38.45109 -38.44740 -38.43981 -38.43873
  Beta  occ. eigenvalues --  -38.42944 -38.42896  -2.20907  -2.20875  -2.20552
  Beta  occ. eigenvalues --   -2.19751  -2.19699  -2.18764  -2.18749  -1.14605
  Beta  occ. eigenvalues --   -1.14582  -1.14568  -1.14559  -1.14552  -1.14501
  Beta  occ. eigenvalues --   -1.14235  -1.14206  -1.14177  -1.13422  -1.13414
  Beta  occ. eigenvalues --   -1.13404  -1.13399  -1.13360  -1.13350  -1.12500
  Beta  occ. eigenvalues --   -1.12448  -1.12424  -1.12409  -1.12399  -1.12350
  Beta  occ. eigenvalues --   -0.17189  -0.13402  -0.10707
  Beta virt. eigenvalues --   -0.07763  -0.06590  -0.05246  -0.03751  -0.02943
  Beta virt. eigenvalues --   -0.02517  -0.02313  -0.01929  -0.00950  -0.00468
  Beta virt. eigenvalues --   -0.00240   0.00167   0.00223   0.00374   0.00665

 Mulliken charges and spin densities:
               1          2
     1  Na   0.618866  -0.024037
     2  Na  -0.051811   0.563020
     3  Na   0.219380   0.247887
     4  Na   0.078402  -0.009944
     5  Na  -0.265585  -0.059921
     6  Na  -0.096616  -0.008098
     7  Na  -0.502636   0.291092
 Sum of Mulliken charges =  -0.00000   1.00000

 Dipole moment (field-independent basis, Debye):
    X=              0.0770    Y=             -0.1543    Z=             -0.6805  Tot=              0.7020
 Quadrupole moment (field-independent basis, Debye-Ang):
   XX=            -51.2621   YY=            -75.5647   ZZ=            -68.9732
   XY=              1.2819   XZ=             -1.1374   YZ=              4.8461

 Normal termination of Gaussian 16 at Sun Dec  3 14:59:03 2023.
