 Gaussian 16, Revision B.01,
 Gaussian 16:  ES64L-G16RevB.01 20-Dec-2017

 -------------------------
 #P B3LYP/6-311+g(d) force
 -------------------------

 -----
 DPGEN
 -----
 Symbolic Z-matrix:
 Charge =  0 Multiplicity = 2

                         Standard orientation:
 ---------------------------------------------------------------------
 Center     Atomic      Atomic             Coordinates (Angstroms)
 Number     Number       Type             X           Y           Z
 ---------------------------------------------------------------------
      1         11           0       -0.590837   -2.565262   -0.574302
      2         11           0       -0.601489    2.488211   -0.196411
      3         11           0        3.022544   -1.813635   -0.524446
      4         11           0        2.253210    2.064629   -0.538230
      5         11           0       -2.750973    0.176054   -1.586808
      6         11           0       -2.253904   -0.509410    1.630166
      7         11           0        0.921448    0.159414    1.790030
 ---------------------------------------------------------------------

 SCF Done:  E(UB3LYP) =  -1136.12936434     A.U. after   20 cycles

 The electronic state is 2-A.
 Alpha  occ. eigenvalues --  -38.44100 -38.43990 -38.43962 -38.43923 -38.43915
 Alpha  occ. eigenvalues --  -38.43762 -38.43282  -2.19947  -2.19865  -2.19862
 Alpha  occ. eigenvalues --   -2.19729  -2.19691  -2.19686  -2.19188  -1.13622
 Alpha  occ. eigenvalues --   -1.13614  -1.13606  -1.13581  -1.13573  -1.13526
 Alpha  occ. eigenvalues --   -1.13504  -1.13485  -1.13471  -1.13416  -1.13400
 Alpha  occ. eigenvalues --   -1.13369  -1.13366  -1.13354  -1.13337  -1.13321
 Alpha  occ. eigenvalues --   -1.13315  -1.13294  -1.12866  -1.12838  -1.12813
 Alpha  occ. eigenvalues --   -0.18216  -0.13377  -0.12307  -0.11226
 Alpha virt. eigenvalues --   -0.05833  -0.05244  -0.04694  -0.03729  -0.03075
 Alpha virt. eigenvalues --   -0.02575  -0.01350  -0.00805  -0.00463  -0.00292
 Alpha virt. eigenvalues --   -0.00167   0.00414   0.00562   0.00674   0.00698

  Beta  occ. eigenvalues --  -38.44050 -38.43985 -38.43914 -38.43910 -38.43906
  Beta  occ. eigenvalues --  -38.43697 -38.43273  -2.19856  -2.19855  -2.19771
  Beta  occ. eigenvalues --   -2.19714  -2.19673  -2.19573  -2.19175  -1.13616
  Beta  occ. eigenvalues --   -1.13556  -1.13541  -1.13516  -1.13513  -1.13492
  Beta  occ. eigenvalues --   -1.13477  -1.13446  -1.13401  -1.13397  -1.13374
  Beta  occ. eigenvalues --   -1.13352  -1.13344  -1.13324  -1.13311  -1.13296
  Beta  occ. eigenvalues --   -1.13230  -1.13204  -1.12859  -1.12813  -1.12796
  Beta  occ. eigenvalues --   -0.17526  -0.13192  -0.12087
  Beta virt. eigenvalues --   -0.07334  -0.05668  -0.05109  -0.04265  -0.03442
  Beta virt. eigenvalues --   -0.02446  -0.01701  -0.01237  -0.00753  -0.00284
  Beta virt. eigenvalues --   -0.00190  -0.00015   0.00479   0.00654   0.00812

 Mulliken charges and spin densities:
               1          2
     1  Na  -0.484940   0.192241
     2  Na  -0.506828   0.273948
     3  Na   0.105125   0.036159
     4  Na   0.471491  -0.045455
     5  Na   0.190156   0.232832
     6  Na   0.354407   0.142279
     7  Na  -0.129411   0.167995
 Sum of Mulliken charges =  -0.00000   1.00000

 Dipole moment (field-independent basis, Debye):
    X=             -0.0068    Y=             -0.1388    Z=             -0.3277  Tot=              0.3559
 Quadrupole moment (field-independent basis, Debye-Ang):
   XX=            -58.3699   YY=            -69.7254   ZZ=            -68.9441
   XY=              1.0632   XZ=             -1.5299   YZ=             -0.1323

 Normal termination of Gaussian 16 at Sun Dec  3 12:51:56 2023.
