 Gaussian 16, Revision B.01,
 Gaussian 16:  ES64L-G16RevB.01 20-Dec-2017

 -------------------------
 #P B3LYP/6-311+g(d) force
 -------------------------

 -----
 DPGEN
 -----
 Symbolic Z-matrix:
 Charge =  0 Multiplicity = 2

                         Standard orientation:
 ---------------------------------------------------------------------
 Center     Atomic      Atomic             Coordinates (Angstroms)
 Number     Number       Type             X           Y           Z
 ---------------------------------------------------------------------
      1         11           0       -2.335174    1.759329   -0.658680
      2         11           0       -2.913182   -1.655866   -1.043562
      3         11           0        1.578894   -1.436095    1.119104
      4         11           0        0.451984    0.148940   -1.445091
      5         11           0        0.744159    2.066304    1.080672
      6         11           0        3.899199   -0.246294   -0.966201
      7         11           0       -1.425881   -0.636318    1.913758
 ---------------------------------------------------------------------

 SCF Done:  E(UB3LYP) =  -1136.12627492     A.U. after   28 cycles

 The electronic state is 2-A.
 Alpha  occ. eigenvalues --  -38.44733 -38.44121 -38.44115 -38.43861 -38.43722
 Alpha  occ. eigenvalues --  -38.43224 -38.42482  -2.20543  -2.20080  -2.20027
 Alpha  occ. eigenvalues --   -2.19778  -2.19597  -2.19045  -2.18374  -1.14213
 Alpha  occ. eigenvalues --   -1.14188  -1.14173  -1.13820  -1.13749  -1.13725
 Alpha  occ. eigenvalues --   -1.13700  -1.13657  -1.13630  -1.13468  -1.13419
 Alpha  occ. eigenvalues --   -1.13387  -1.13294  -1.13254  -1.13195  -1.12712
 Alpha  occ. eigenvalues --   -1.12702  -1.12687  -1.12072  -1.12038  -1.11982
 Alpha  occ. eigenvalues --   -0.18780  -0.13837  -0.11986  -0.10872
 Alpha virt. eigenvalues --   -0.06298  -0.04775  -0.04664  -0.03267  -0.02671
 Alpha virt. eigenvalues --   -0.02534  -0.02281  -0.00977  -0.00720  -0.00021
 Alpha virt. eigenvalues --    0.00192   0.00340   0.00495   0.00663   0.00834

  Beta  occ. eigenvalues --  -38.44709 -38.44087 -38.44043 -38.43821 -38.43700
  Beta  occ. eigenvalues --  -38.43214 -38.42467  -2.20499  -2.20018  -2.19900
  Beta  occ. eigenvalues --   -2.19711  -2.19559  -2.19028  -2.18350  -1.14179
  Beta  occ. eigenvalues --   -1.14158  -1.14145  -1.13771  -1.13684  -1.13652
  Beta  occ. eigenvalues --   -1.13646  -1.13570  -1.13535  -1.13428  -1.13362
  Beta  occ. eigenvalues --   -1.13313  -1.13255  -1.13234  -1.13166  -1.12702
  Beta  occ. eigenvalues --   -1.12683  -1.12674  -1.12060  -1.11994  -1.11970
  Beta  occ. eigenvalues --   -0.17981  -0.13543  -0.10723
  Beta virt. eigenvalues --   -0.07958  -0.06053  -0.04621  -0.04181  -0.02815
  Beta virt. eigenvalues --   -0.02217  -0.02122  -0.01794  -0.00678  -0.00562
  Beta virt. eigenvalues --    0.00077   0.00229   0.00435   0.00547   0.00732

 Mulliken charges and spin densities:
               1          2
     1  Na   0.295742   0.078061
     2  Na  -0.189668   0.042754
     3  Na  -0.223716   0.129325
     4  Na  -0.363741   0.335113
     5  Na  -0.395446   0.140654
     6  Na   0.475655   0.126079
     7  Na   0.401173   0.148014
 Sum of Mulliken charges =  -0.00000   1.00000

 Dipole moment (field-independent basis, Debye):
    X=              0.7858    Y=              0.3970    Z=             -0.1747  Tot=              0.8976
 Quadrupole moment (field-independent basis, Debye-Ang):
   XX=            -52.3692   YY=            -76.4329   ZZ=            -65.4141
   XY=             -0.9684   XZ=             -0.8074   YZ=             -0.4984

 Normal termination of Gaussian 16 at Tue Dec  5 23:27:31 2023.
