 Gaussian 16, Revision B.01,
 Gaussian 16:  ES64L-G16RevB.01 20-Dec-2017

 -------------------------
 #P B3LYP/6-311+g(d) force
 -------------------------

 -----
 DPGEN
 -----
 Symbolic Z-matrix:
 Charge =  0 Multiplicity = 2

                         Standard orientation:
 ---------------------------------------------------------------------
 Center     Atomic      Atomic             Coordinates (Angstroms)
 Number     Number       Type             X           Y           Z
 ---------------------------------------------------------------------
      1         11           0       -3.138477    0.521297   -0.276562
      2         11           0       -0.221151    0.263302    2.085115
      3         11           0        0.054277    0.135296   -1.681862
      4         11           0        1.911568   -2.171993   -0.022680
      5         11           0       -0.140992    3.221491   -0.039004
      6         11           0       -1.554449   -2.665341    0.016559
      7         11           0        3.089225    0.695949   -0.081566
 ---------------------------------------------------------------------

 SCF Done:  E(UB3LYP) =  -1136.13721385     A.U. after   19 cycles

 The electronic state is 2-A.
 Alpha  occ. eigenvalues --  -38.44301 -38.44019 -38.43849 -38.43607 -38.43521
 Alpha  occ. eigenvalues --  -38.43367 -38.43268  -2.20103  -2.19860  -2.19639
 Alpha  occ. eigenvalues --   -2.19467  -2.19344  -2.19250  -2.19206  -1.13784
 Alpha  occ. eigenvalues --   -1.13765  -1.13733  -1.13561  -1.13522  -1.13491
 Alpha  occ. eigenvalues --   -1.13318  -1.13304  -1.13277  -1.13133  -1.13094
 Alpha  occ. eigenvalues --   -1.13085  -1.13021  -1.13010  -1.12991  -1.12944
 Alpha  occ. eigenvalues --   -1.12907  -1.12887  -1.12880  -1.12830  -1.12828
 Alpha  occ. eigenvalues --   -0.18356  -0.12954  -0.12383  -0.10613
 Alpha virt. eigenvalues --   -0.05876  -0.05102  -0.04885  -0.03145  -0.02874
 Alpha virt. eigenvalues --   -0.02557  -0.01565  -0.01291  -0.00580  -0.00399
 Alpha virt. eigenvalues --   -0.00020   0.00359   0.00773   0.00838   0.00878

  Beta  occ. eigenvalues --  -38.44294 -38.44017 -38.43848 -38.43519 -38.43511
  Beta  occ. eigenvalues --  -38.43363 -38.43205  -2.20094  -2.19858  -2.19639
  Beta  occ. eigenvalues --   -2.19343  -2.19289  -2.19245  -2.19091  -1.13766
  Beta  occ. eigenvalues --   -1.13751  -1.13730  -1.13563  -1.13505  -1.13488
  Beta  occ. eigenvalues --   -1.13307  -1.13293  -1.13280  -1.13026  -1.13011
  Beta  occ. eigenvalues --   -1.12995  -1.12989  -1.12969  -1.12954  -1.12930
  Beta  occ. eigenvalues --   -1.12895  -1.12870  -1.12808  -1.12750  -1.12745
  Beta  occ. eigenvalues --   -0.17633  -0.12732  -0.12176
  Beta virt. eigenvalues --   -0.06710  -0.05877  -0.05002  -0.04890  -0.02367
  Beta virt. eigenvalues --   -0.02123  -0.01508  -0.01467  -0.01211  -0.00638
  Beta virt. eigenvalues --   -0.00453   0.00127   0.00386   0.00783   0.00868

 Mulliken charges and spin densities:
               1          2
     1  Na   0.163523  -0.081788
     2  Na  -0.493828   0.797604
     3  Na  -0.162201   0.492195
     4  Na   0.113298   0.006686
     5  Na   0.058861  -0.145947
     6  Na   0.096591  -0.015771
     7  Na   0.223756  -0.052979
 Sum of Mulliken charges =  -0.00000   1.00000

 Dipole moment (field-independent basis, Debye):
    X=             -0.2084    Y=              0.3389    Z=              0.0529  Tot=              0.4014
 Quadrupole moment (field-independent basis, Debye-Ang):
   XX=            -57.3076   YY=            -60.8272   ZZ=            -75.2322
   XY=              0.5436   XZ=              0.5946   YZ=             -0.3679

 Normal termination of Gaussian 16 at Thu Dec  7 18:21:41 2023.
