 Gaussian 16, Revision B.01,
 Gaussian 16:  ES64L-G16RevB.01 20-Dec-2017

 -------------------------
 #P B3LYP/6-311+g(d) force
 -------------------------

 -----
 DPGEN
 -----
 Symbolic Z-matrix:
 Charge =  0 Multiplicity = 2

                         Standard orientation:
 ---------------------------------------------------------------------
 Center     Atomic      Atomic             Coordinates (Angstroms)
 Number     Number       Type             X           Y           Z
 ---------------------------------------------------------------------
      1         11           0       -0.325225    3.040899   -0.159748
      2         11           0       -3.060114    0.611165    0.252272
      3         11           0        2.827803    1.190401    0.209695
      4         11           0       -1.656982   -2.364638   -0.527675
      5         11           0        0.024129   -0.619232    2.083193
      6         11           0        0.137735    0.310808   -1.574860
      7         11           0        2.052654   -2.169405   -0.282877
 ---------------------------------------------------------------------

 SCF Done:  E(UB3LYP) =  -1136.13904708     A.U. after   18 cycles

 The electronic state is 2-A.
 Alpha  occ. eigenvalues --  -38.43926 -38.43910 -38.43648 -38.43585 -38.43505
 Alpha  occ. eigenvalues --  -38.43466 -38.43026  -2.19762  -2.19730  -2.19522
 Alpha  occ. eigenvalues --   -2.19442  -2.19367  -2.19303  -2.19025  -1.13447
 Alpha  occ. eigenvalues --   -1.13429  -1.13404  -1.13396  -1.13394  -1.13374
 Alpha  occ. eigenvalues --   -1.13193  -1.13164  -1.13142  -1.13124  -1.13091
 Alpha  occ. eigenvalues --   -1.13075  -1.13053  -1.13036  -1.13019  -1.12993
 Alpha  occ. eigenvalues --   -1.12957  -1.12923  -1.12699  -1.12654  -1.12645
 Alpha  occ. eigenvalues --   -0.18592  -0.12950  -0.12540  -0.10719
 Alpha virt. eigenvalues --   -0.05503  -0.05241  -0.04779  -0.03195  -0.02952
 Alpha virt. eigenvalues --   -0.02510  -0.01408  -0.01148  -0.00446  -0.00328
 Alpha virt. eigenvalues --   -0.00006   0.00367   0.00826   0.00865   0.00890

  Beta  occ. eigenvalues --  -38.43922 -38.43906 -38.43577 -38.43557 -38.43491
  Beta  occ. eigenvalues --  -38.43464 -38.42966  -2.19757  -2.19726  -2.19432
  Beta  occ. eigenvalues --   -2.19354  -2.19345  -2.19302  -2.18917  -1.13442
  Beta  occ. eigenvalues --   -1.13412  -1.13398  -1.13390  -1.13383  -1.13369
  Beta  occ. eigenvalues --   -1.13126  -1.13092  -1.13068  -1.13065  -1.13043
  Beta  occ. eigenvalues --   -1.13028  -1.13024  -1.13010  -1.12985  -1.12976
  Beta  occ. eigenvalues --   -1.12946  -1.12925  -1.12626  -1.12573  -1.12570
  Beta  occ. eigenvalues --   -0.17873  -0.12741  -0.12308
  Beta virt. eigenvalues --   -0.06801  -0.05463  -0.05234  -0.04692  -0.02423
  Beta virt. eigenvalues --   -0.02227  -0.01461  -0.01320  -0.01064  -0.00470
  Beta virt. eigenvalues --   -0.00377   0.00145   0.00397   0.00862   0.00881

 Mulliken charges and spin densities:
               1          2
     1  Na   0.095752  -0.048938
     2  Na   0.027824   0.013495
     3  Na   0.069435  -0.011072
     4  Na   0.199864   0.008836
     5  Na  -0.550352   0.719959
     6  Na  -0.100509   0.344728
     7  Na   0.257986  -0.027009
 Sum of Mulliken charges =  -0.00000   1.00000

 Dipole moment (field-independent basis, Debye):
    X=              0.0686    Y=              0.0002    Z=              0.2222  Tot=              0.2326
 Quadrupole moment (field-independent basis, Debye-Ang):
   XX=            -57.3575   YY=            -61.7642   ZZ=            -74.2717
   XY=             -0.2220   XZ=              0.1152   YZ=              2.1546

 Normal termination of Gaussian 16 at Tue Dec  5 17:49:47 2023.
