 Gaussian 16, Revision B.01,
 Gaussian 16:  ES64L-G16RevB.01 20-Dec-2017

 -------------------------
 #P B3LYP/6-311+g(d) force
 -------------------------

 -----
 DPGEN
 -----
 Symbolic Z-matrix:
 Charge =  0 Multiplicity = 2

                         Standard orientation:
 ---------------------------------------------------------------------
 Center     Atomic      Atomic             Coordinates (Angstroms)
 Number     Number       Type             X           Y           Z
 ---------------------------------------------------------------------
      1         11           0       -1.350071    2.482039    0.865474
      2         11           0        0.738323    0.150996    2.254702
      3         11           0        0.948723    1.929372   -1.203665
      4         11           0        0.252680   -0.901049   -1.877588
      5         11           0        3.262607   -0.644274   -0.078052
      6         11           0       -1.024682   -2.658137    0.823906
      7         11           0       -2.827578   -0.358947   -0.784777
 ---------------------------------------------------------------------

 SCF Done:  E(UB3LYP) =  -1136.12976197     A.U. after   21 cycles

 The electronic state is 2-A.
 Alpha  occ. eigenvalues --  -38.44646 -38.43968 -38.43837 -38.43822 -38.43771
 Alpha  occ. eigenvalues --  -38.43634 -38.42847  -2.20506  -2.19915  -2.19690
 Alpha  occ. eigenvalues --   -2.19682  -2.19627  -2.19468  -2.18711  -1.14162
 Alpha  occ. eigenvalues --   -1.14135  -1.14133  -1.13697  -1.13557  -1.13541
 Alpha  occ. eigenvalues --   -1.13365  -1.13358  -1.13345  -1.13339  -1.13303
 Alpha  occ. eigenvalues --   -1.13302  -1.13294  -1.13280  -1.13259  -1.13141
 Alpha  occ. eigenvalues --   -1.13120  -1.13093  -1.12383  -1.12377  -1.12344
 Alpha  occ. eigenvalues --   -0.18548  -0.12675  -0.12245  -0.12055
 Alpha virt. eigenvalues --   -0.05532  -0.04689  -0.04181  -0.03652  -0.03553
 Alpha virt. eigenvalues --   -0.03500  -0.01364  -0.00690  -0.00414   0.00213
 Alpha virt. eigenvalues --    0.00381   0.00419   0.00582   0.00836   0.00926

  Beta  occ. eigenvalues --  -38.44553 -38.43906 -38.43830 -38.43825 -38.43738
  Beta  occ. eigenvalues --  -38.43618 -38.42839  -2.20335  -2.19803  -2.19670
  Beta  occ. eigenvalues --   -2.19636  -2.19632  -2.19440  -2.18699  -1.14047
  Beta  occ. eigenvalues --   -1.14019  -1.14004  -1.13615  -1.13479  -1.13466
  Beta  occ. eigenvalues --   -1.13338  -1.13335  -1.13314  -1.13301  -1.13299
  Beta  occ. eigenvalues --   -1.13287  -1.13278  -1.13274  -1.13238  -1.13114
  Beta  occ. eigenvalues --   -1.13101  -1.13069  -1.12378  -1.12356  -1.12332
  Beta  occ. eigenvalues --   -0.17718  -0.12502  -0.11884
  Beta virt. eigenvalues --   -0.08180  -0.05380  -0.04335  -0.04056  -0.03106
  Beta virt. eigenvalues --   -0.02867  -0.02604  -0.01287  -0.00618  -0.00189
  Beta virt. eigenvalues --    0.00253   0.00396   0.00462   0.00748   0.00845

 Mulliken charges and spin densities:
               1          2
     1  Na   0.395496  -0.027066
     2  Na  -0.176844   0.643327
     3  Na  -0.606203   0.120092
     4  Na   0.794177   0.248999
     5  Na   0.026680  -0.077855
     6  Na  -0.295650  -0.029001
     7  Na  -0.137656   0.121505
 Sum of Mulliken charges =  -0.00000   1.00000

 Dipole moment (field-independent basis, Debye):
    X=              0.2502    Y=             -0.3551    Z=              0.2169  Tot=              0.4856
 Quadrupole moment (field-independent basis, Debye-Ang):
   XX=            -61.5397   YY=            -70.0471   ZZ=            -65.4290
   XY=             -0.9599   XZ=              0.3453   YZ=             -1.9600

 Normal termination of Gaussian 16 at Sun Dec  3 12:18:45 2023.
