 Gaussian 16, Revision B.01,
 Gaussian 16:  ES64L-G16RevB.01 20-Dec-2017

 -------------------------
 #P B3LYP/6-311+g(d) force
 -------------------------

 -----
 DPGEN
 -----
 Symbolic Z-matrix:
 Charge =  0 Multiplicity = 2

                         Standard orientation:
 ---------------------------------------------------------------------
 Center     Atomic      Atomic             Coordinates (Angstroms)
 Number     Number       Type             X           Y           Z
 ---------------------------------------------------------------------
      1         11           0       -3.748101   -1.338033    0.080681
      2         11           0       -3.080335    2.083128   -0.548548
      3         11           0       -1.150464    1.093428    1.099545
      4         11           0        4.393478   -0.139634   -0.813912
      5         11           0        1.861480   -2.008743    1.177312
      6         11           0       -0.844923   -1.820950   -1.118480
      7         11           0        2.568865    2.130805    0.123403
 ---------------------------------------------------------------------

 SCF Done:  E(UB3LYP) =  -1136.10889425     A.U. after   21 cycles

 The electronic state is 2-A.
 Alpha  occ. eigenvalues --  -38.44622 -38.44607 -38.44429 -38.44257 -38.44081
 Alpha  occ. eigenvalues --  -38.43720 -38.43682  -2.20493  -2.20400  -2.20211
 Alpha  occ. eigenvalues --   -2.20117  -2.19925  -2.19617  -2.19547  -1.14347
 Alpha  occ. eigenvalues --   -1.14127  -1.14105  -1.14091  -1.14068  -1.14047
 Alpha  occ. eigenvalues --   -1.13887  -1.13862  -1.13837  -1.13789  -1.13769
 Alpha  occ. eigenvalues --   -1.13727  -1.13576  -1.13562  -1.13539  -1.13291
 Alpha  occ. eigenvalues --   -1.13244  -1.13224  -1.13223  -1.13197  -1.13182
 Alpha  occ. eigenvalues --   -0.17319  -0.14579  -0.11596  -0.10397
 Alpha virt. eigenvalues --   -0.06715  -0.05825  -0.04478  -0.03371  -0.02814
 Alpha virt. eigenvalues --   -0.02691  -0.01771  -0.01444  -0.01155  -0.00488
 Alpha virt. eigenvalues --   -0.00097  -0.00042   0.00316   0.00447   0.00527

  Beta  occ. eigenvalues --  -38.44624 -38.44600 -38.44398 -38.44197 -38.44020
  Beta  occ. eigenvalues --  -38.43724 -38.43636  -2.20500  -2.20393  -2.20153
  Beta  occ. eigenvalues --   -2.20005  -2.19813  -2.19559  -2.19534  -1.14343
  Beta  occ. eigenvalues --   -1.14135  -1.14091  -1.14076  -1.14068  -1.14012
  Beta  occ. eigenvalues --   -1.13846  -1.13817  -1.13798  -1.13717  -1.13690
  Beta  occ. eigenvalues --   -1.13652  -1.13499  -1.13487  -1.13460  -1.13243
  Beta  occ. eigenvalues --   -1.13233  -1.13228  -1.13176  -1.13162  -1.13145
  Beta  occ. eigenvalues --   -0.16775  -0.13992  -0.11233
  Beta virt. eigenvalues --   -0.07006  -0.06609  -0.05575  -0.04036  -0.03186
  Beta virt. eigenvalues --   -0.02494  -0.02080  -0.01646  -0.01169  -0.00834
  Beta virt. eigenvalues --   -0.00261   0.00013   0.00189   0.00425   0.00516

 Mulliken charges and spin densities:
               1          2
     1  Na   0.364864   0.369305
     2  Na   0.442643   0.000436
     3  Na  -0.684842   0.311536
     4  Na   0.146613   0.356902
     5  Na   0.075406   0.133080
     6  Na  -0.230260  -0.128322
     7  Na  -0.114423  -0.042937
 Sum of Mulliken charges =  -0.00000   1.00000

 Dipole moment (field-independent basis, Debye):
    X=             -0.2584    Y=             -0.2456    Z=             -0.0591  Tot=              0.3614
 Quadrupole moment (field-independent basis, Debye-Ang):
   XX=            -63.0680   YY=            -72.5904   ZZ=            -66.0807
   XY=             -5.8196   XZ=              0.9327   YZ=             -3.5968

 Normal termination of Gaussian 16 at Tue Dec  5 21:12:19 2023.
