 Gaussian 16, Revision B.01,
 Gaussian 16:  ES64L-G16RevB.01 20-Dec-2017

 -------------------------
 #P B3LYP/6-311+g(d) force
 -------------------------

 -----
 DPGEN
 -----
 Symbolic Z-matrix:
 Charge =  0 Multiplicity = 2

                         Standard orientation:
 ---------------------------------------------------------------------
 Center     Atomic      Atomic             Coordinates (Angstroms)
 Number     Number       Type             X           Y           Z
 ---------------------------------------------------------------------
      1         11           0       -2.234360    3.559870   -0.048227
      2         11           0        0.584422   -3.262749    0.247112
      3         11           0       -2.956476   -2.681126   -0.013178
      4         11           0        4.033853   -1.481075   -0.555911
      5         11           0        0.902044    2.554096   -0.262099
      6         11           0        4.057127    1.344840    0.587586
      7         11           0       -4.386611   -0.033856    0.044718
 ---------------------------------------------------------------------

 SCF Done:  E(UB3LYP) =  -1136.10721693     A.U. after   22 cycles

 The electronic state is 2-A.
 Alpha  occ. eigenvalues --  -38.45542 -38.44612 -38.44606 -38.44528 -38.44199
 Alpha  occ. eigenvalues --  -38.44164 -38.44046  -2.21328  -2.20432  -2.20387
 Alpha  occ. eigenvalues --   -2.20372  -2.19981  -2.19942  -2.19861  -1.15026
 Alpha  occ. eigenvalues --   -1.14993  -1.14971  -1.14138  -1.14074  -1.14073
 Alpha  occ. eigenvalues --   -1.14062  -1.14045  -1.14044  -1.14025  -1.14010
 Alpha  occ. eigenvalues --   -1.13986  -1.13634  -1.13627  -1.13603  -1.13600
 Alpha  occ. eigenvalues --   -1.13590  -1.13585  -1.13535  -1.13523  -1.13499
 Alpha  occ. eigenvalues --   -0.15779  -0.14250  -0.13137  -0.10912
 Alpha virt. eigenvalues --   -0.07594  -0.04850  -0.04541  -0.03456  -0.03403
 Alpha virt. eigenvalues --   -0.02690  -0.02184  -0.02046  -0.01242  -0.00423
 Alpha virt. eigenvalues --   -0.00379  -0.00243   0.00081   0.00326   0.00534

  Beta  occ. eigenvalues --  -38.45541 -38.44593 -38.44546 -38.44488 -38.44143
  Beta  occ. eigenvalues --  -38.44112 -38.44042  -2.21331  -2.20367  -2.20313
  Beta  occ. eigenvalues --   -2.20299  -2.19905  -2.19863  -2.19819  -1.15019
  Beta  occ. eigenvalues --   -1.14999  -1.14951  -1.14060  -1.14056  -1.14049
  Beta  occ. eigenvalues --   -1.14010  -1.13993  -1.13978  -1.13960  -1.13959
  Beta  occ. eigenvalues --   -1.13942  -1.13579  -1.13567  -1.13550  -1.13535
  Beta  occ. eigenvalues --   -1.13532  -1.13523  -1.13517  -1.13500  -1.13451
  Beta  occ. eigenvalues --   -0.15300  -0.13565  -0.12385
  Beta virt. eigenvalues --   -0.07723  -0.07665  -0.04425  -0.04210  -0.03140
  Beta virt. eigenvalues --   -0.02955  -0.02498  -0.02088  -0.01826  -0.01067
  Beta virt. eigenvalues --   -0.00117  -0.00089  -0.00064   0.00277   0.00350

 Mulliken charges and spin densities:
               1          2
     1  Na   0.739013  -0.014675
     2  Na  -0.327445   0.396103
     3  Na   0.319053  -0.049043
     4  Na   0.007798   0.004429
     5  Na  -0.979270   0.115260
     6  Na   0.311514   0.232860
     7  Na  -0.070665   0.315067
 Sum of Mulliken charges =  -0.00000   1.00000

 Dipole moment (field-independent basis, Debye):
    X=              0.9605    Y=              0.3764    Z=             -0.0214  Tot=              1.0318
 Quadrupole moment (field-independent basis, Debye-Ang):
   XX=            -57.1743   YY=            -69.1855   ZZ=            -72.9508
   XY=             -6.0257   XZ=             -0.6974   YZ=              2.2334

 Normal termination of Gaussian 16 at Sun Dec  3 11:46:06 2023.
