 Gaussian 16, Revision B.01,
 Gaussian 16:  ES64L-G16RevB.01 20-Dec-2017

 -------------------------
 #P B3LYP/6-311+g(d) force
 -------------------------

 -----
 DPGEN
 -----
 Symbolic Z-matrix:
 Charge =  0 Multiplicity = 2

                         Standard orientation:
 ---------------------------------------------------------------------
 Center     Atomic      Atomic             Coordinates (Angstroms)
 Number     Number       Type             X           Y           Z
 ---------------------------------------------------------------------
      1         11           0       -0.967533    0.605030    2.127182
      2         11           0       -2.169563   -2.166775   -0.285853
      3         11           0        1.247730   -1.710120    0.820224
      4         11           0        3.629949    0.152107   -0.120534
      5         11           0       -2.621781    1.334204   -0.619636
      6         11           0        0.384091   -0.676360   -1.616056
      7         11           0        0.497107    2.461913   -0.305326
 ---------------------------------------------------------------------

 SCF Done:  E(UB3LYP) =  -1136.12970558     A.U. after   22 cycles

 The electronic state is 2-A.
 Alpha  occ. eigenvalues --  -38.44554 -38.43920 -38.43776 -38.43721 -38.43421
 Alpha  occ. eigenvalues --  -38.43187 -38.43024  -2.20366  -2.19793  -2.19726
 Alpha  occ. eigenvalues --   -2.19680  -2.19394  -2.19043  -2.18894  -1.14057
 Alpha  occ. eigenvalues --   -1.14021  -1.13998  -1.13614  -1.13488  -1.13465
 Alpha  occ. eigenvalues --   -1.13422  -1.13364  -1.13350  -1.13311  -1.13300
 Alpha  occ. eigenvalues --   -1.13286  -1.13041  -1.13021  -1.12968  -1.12721
 Alpha  occ. eigenvalues --   -1.12691  -1.12685  -1.12592  -1.12569  -1.12499
 Alpha  occ. eigenvalues --   -0.18909  -0.13387  -0.11980  -0.11216
 Alpha virt. eigenvalues --   -0.06155  -0.04790  -0.03930  -0.03599  -0.02855
 Alpha virt. eigenvalues --   -0.02733  -0.01962  -0.00903  -0.00255  -0.00000
 Alpha virt. eigenvalues --    0.00225   0.00326   0.00662   0.00846   0.00928

  Beta  occ. eigenvalues --  -38.44557 -38.43908 -38.43687 -38.43670 -38.43396
  Beta  occ. eigenvalues --  -38.43181 -38.43014  -2.20373  -2.19774  -2.19634
  Beta  occ. eigenvalues --   -2.19516  -2.19350  -2.19036  -2.18878  -1.14059
  Beta  occ. eigenvalues --   -1.14021  -1.14002  -1.13555  -1.13466  -1.13438
  Beta  occ. eigenvalues --   -1.13405  -1.13300  -1.13243  -1.13238  -1.13194
  Beta  occ. eigenvalues --   -1.13167  -1.13007  -1.12955  -1.12943  -1.12707
  Beta  occ. eigenvalues --   -1.12688  -1.12668  -1.12582  -1.12533  -1.12493
  Beta  occ. eigenvalues --   -0.18150  -0.13217  -0.11762
  Beta virt. eigenvalues --   -0.07186  -0.06048  -0.04776  -0.03763  -0.02997
  Beta virt. eigenvalues --   -0.02123  -0.01911  -0.01654  -0.00861  -0.00072
  Beta virt. eigenvalues --    0.00049   0.00226   0.00348   0.00814   0.00869

 Mulliken charges and spin densities:
               1          2
     1  Na  -0.628617   0.331186
     2  Na   0.466201  -0.010014
     3  Na   0.662087   0.289082
     4  Na   0.076573  -0.155229
     5  Na   0.228387   0.057170
     6  Na  -0.912163   0.441637
     7  Na   0.107531   0.046169
 Sum of Mulliken charges =  -0.00000   1.00000

 Dipole moment (field-independent basis, Debye):
    X=              0.2986    Y=              0.2201    Z=              0.0198  Tot=              0.3715
 Quadrupole moment (field-independent basis, Debye-Ang):
   XX=            -51.6515   YY=            -71.2642   ZZ=            -70.5667
   XY=              1.6090   XZ=              0.8623   YZ=             -1.4806

 Normal termination of Gaussian 16 at Tue Dec  5 12:01:30 2023.
