 Gaussian 16, Revision B.01,
 Gaussian 16:  ES64L-G16RevB.01 20-Dec-2017

 -------------------------
 #P B3LYP/6-311+g(d) force
 -------------------------

 -----
 DPGEN
 -----
 Symbolic Z-matrix:
 Charge =  0 Multiplicity = 2

                         Standard orientation:
 ---------------------------------------------------------------------
 Center     Atomic      Atomic             Coordinates (Angstroms)
 Number     Number       Type             X           Y           Z
 ---------------------------------------------------------------------
      1         11           0       -1.327730    0.350708   -0.730970
      2         11           0       -2.823620   -3.253598   -0.740944
      3         11           0       -4.348841   -0.817400    1.095244
      4         11           0       -2.100209    2.976011    0.199965
      5         11           0        1.549035    2.406506   -0.631246
      6         11           0        3.164961   -0.011392    0.609151
      7         11           0        5.886403   -1.650835    0.198800
 ---------------------------------------------------------------------

 SCF Done:  E(UB3LYP) =  -1136.11366585     A.U. after   20 cycles

 The electronic state is 2-A.
 Alpha  occ. eigenvalues --  -38.45374 -38.44636 -38.44321 -38.44125 -38.43991
 Alpha  occ. eigenvalues --  -38.43648 -38.43079  -2.21142  -2.20523  -2.20115
 Alpha  occ. eigenvalues --   -2.19978  -2.19850  -2.19456  -2.18914  -1.14828
 Alpha  occ. eigenvalues --   -1.14796  -1.14775  -1.14307  -1.14213  -1.14108
 Alpha  occ. eigenvalues --   -1.13775  -1.13771  -1.13730  -1.13659  -1.13641
 Alpha  occ. eigenvalues --   -1.13577  -1.13535  -1.13492  -1.13434  -1.13101
 Alpha  occ. eigenvalues --   -1.13093  -1.13091  -1.12602  -1.12580  -1.12563
 Alpha  occ. eigenvalues --   -0.16658  -0.14054  -0.12435  -0.10441
 Alpha virt. eigenvalues --   -0.06653  -0.05615  -0.04446  -0.03633  -0.02799
 Alpha virt. eigenvalues --   -0.02452  -0.01884  -0.01546  -0.01298  -0.00927
 Alpha virt. eigenvalues --   -0.00528  -0.00033   0.00139   0.00376   0.00495

  Beta  occ. eigenvalues --  -38.45374 -38.44630 -38.44282 -38.44082 -38.43954
  Beta  occ. eigenvalues --  -38.43572 -38.43084  -2.21143  -2.20518  -2.20041
  Beta  occ. eigenvalues --   -2.19897  -2.19782  -2.19313  -2.18932  -1.14831
  Beta  occ. eigenvalues --   -1.14796  -1.14758  -1.14270  -1.14214  -1.14102
  Beta  occ. eigenvalues --   -1.13724  -1.13720  -1.13685  -1.13602  -1.13582
  Beta  occ. eigenvalues --   -1.13536  -1.13491  -1.13447  -1.13379  -1.13010
  Beta  occ. eigenvalues --   -1.12995  -1.12994  -1.12610  -1.12599  -1.12532
  Beta  occ. eigenvalues --   -0.16203  -0.13619  -0.11875
  Beta virt. eigenvalues --   -0.07310  -0.06198  -0.05312  -0.04126  -0.03298
  Beta virt. eigenvalues --   -0.02623  -0.02200  -0.01676  -0.01296  -0.01124
  Beta virt. eigenvalues --   -0.00501  -0.00200   0.00132   0.00366   0.00459

 Mulliken charges and spin densities:
               1          2
     1  Na  -1.469137  -0.076905
     2  Na   0.295852   0.163411
     3  Na   0.464910   0.076280
     4  Na   0.690157   0.365258
     5  Na   0.164304   0.074237
     6  Na  -0.573554   0.069373
     7  Na   0.427468   0.328347
 Sum of Mulliken charges =  -0.00000   1.00000

 Dipole moment (field-independent basis, Debye):
    X=             -2.3232    Y=              0.2779    Z=              0.0532  Tot=              2.3404
 Quadrupole moment (field-independent basis, Debye-Ang):
   XX=            -66.6198   YY=            -61.9415   ZZ=            -69.4389
   XY=              1.9272   XZ=             -6.6507   YZ=              1.9400

 Normal termination of Gaussian 16 at Sat Dec  9 07:21:10 2023.
