 Gaussian 16, Revision B.01,
 Gaussian 16:  ES64L-G16RevB.01 20-Dec-2017

 -------------------------
 #P B3LYP/6-311+g(d) force
 -------------------------

 -----
 DPGEN
 -----
 Symbolic Z-matrix:
 Charge =  0 Multiplicity = 2

                         Standard orientation:
 ---------------------------------------------------------------------
 Center     Atomic      Atomic             Coordinates (Angstroms)
 Number     Number       Type             X           Y           Z
 ---------------------------------------------------------------------
      1         11           0        0.101442   -2.675804    0.964773
      2         11           0       -2.524001   -2.961987   -1.173445
      3         11           0       -4.170139    0.549042   -0.216283
      4         11           0       -2.084492    2.497609    1.194629
      5         11           0        0.865347    3.255405   -0.517833
      6         11           0        3.931037    1.035943   -0.914269
      7         11           0        3.880806   -1.700208    0.662428
 ---------------------------------------------------------------------

 SCF Done:  E(UB3LYP) =  -1136.10615837     A.U. after   23 cycles

 The electronic state is 2-A.
 Alpha  occ. eigenvalues --  -38.45214 -38.45082 -38.44719 -38.44425 -38.44175
 Alpha  occ. eigenvalues --  -38.43954 -38.43829  -2.20961  -2.20857  -2.20522
 Alpha  occ. eigenvalues --   -2.20197  -2.19975  -2.19768  -2.19619  -1.14641
 Alpha  occ. eigenvalues --   -1.14633  -1.14585  -1.14538  -1.14531  -1.14505
 Alpha  occ. eigenvalues --   -1.14193  -1.14173  -1.14140  -1.13863  -1.13846
 Alpha  occ. eigenvalues --   -1.13839  -1.13647  -1.13645  -1.13628  -1.13423
 Alpha  occ. eigenvalues --   -1.13415  -1.13401  -1.13276  -1.13267  -1.13237
 Alpha  occ. eigenvalues --   -0.15568  -0.13918  -0.13095  -0.10585
 Alpha virt. eigenvalues --   -0.07706  -0.04893  -0.04544  -0.03596  -0.03537
 Alpha virt. eigenvalues --   -0.02424  -0.01933  -0.01442  -0.01284  -0.01180
 Alpha virt. eigenvalues --   -0.00751  -0.00190   0.00147   0.00352   0.00719

  Beta  occ. eigenvalues --  -38.45199 -38.45079 -38.44655 -38.44403 -38.44177
  Beta  occ. eigenvalues --  -38.43905 -38.43757  -2.20937  -2.20858  -2.20406
  Beta  occ. eigenvalues --   -2.20158  -2.19984  -2.19677  -2.19486  -1.14626
  Beta  occ. eigenvalues --   -1.14619  -1.14552  -1.14541  -1.14534  -1.14472
  Beta  occ. eigenvalues --   -1.14112  -1.14095  -1.14058  -1.13837  -1.13818
  Beta  occ. eigenvalues --   -1.13806  -1.13659  -1.13654  -1.13595  -1.13363
  Beta  occ. eigenvalues --   -1.13354  -1.13339  -1.13185  -1.13178  -1.13150
  Beta  occ. eigenvalues --   -0.15073  -0.13228  -0.12417
  Beta virt. eigenvalues --   -0.07793  -0.07435  -0.04466  -0.04108  -0.03413
  Beta virt. eigenvalues --   -0.03264  -0.02172  -0.01698  -0.01179  -0.01073
  Beta virt. eigenvalues --   -0.00916  -0.00530  -0.00020   0.00177   0.00448

 Mulliken charges and spin densities:
               1          2
     1  Na  -0.625455   0.104414
     2  Na   0.518430   0.057149
     3  Na  -0.009169   0.299600
     4  Na  -0.032917  -0.037464
     5  Na  -0.163508   0.340234
     6  Na   0.103294   0.037459
     7  Na   0.209325   0.198606
 Sum of Mulliken charges =  -0.00000   1.00000

 Dipole moment (field-independent basis, Debye):
    X=             -0.2711    Y=             -0.6811    Z=             -0.2161  Tot=              0.7643
 Quadrupole moment (field-independent basis, Debye-Ang):
   XX=            -63.1358   YY=            -73.3075   ZZ=            -65.9407
   XY=              3.5273   XZ=              2.4199   YZ=             -0.3917

 Normal termination of Gaussian 16 at Sun Dec  3 19:36:53 2023.
