 Gaussian 16, Revision B.01,
 Gaussian 16:  ES64L-G16RevB.01 20-Dec-2017

 -------------------------
 #P B3LYP/6-311+g(d) force
 -------------------------

 -----
 DPGEN
 -----
 Symbolic Z-matrix:
 Charge =  0 Multiplicity = 2

                         Standard orientation:
 ---------------------------------------------------------------------
 Center     Atomic      Atomic             Coordinates (Angstroms)
 Number     Number       Type             X           Y           Z
 ---------------------------------------------------------------------
      1         11           0       -3.004012    0.649283   -0.259244
      2         11           0       -0.195379   -0.120645    1.748244
      3         11           0       -1.949427   -2.577502   -0.026119
      4         11           0        2.406003   -2.295847   -0.182286
      5         11           0        0.269944    0.088759   -1.355476
      6         11           0        2.718882    1.163314    0.112917
      7         11           0       -0.246013    3.092639   -0.038036
 ---------------------------------------------------------------------

 SCF Done:  E(UB3LYP) =  -1136.13503937     A.U. after   20 cycles

 The electronic state is 2-A.
 Alpha  occ. eigenvalues --  -38.44030 -38.43995 -38.43969 -38.43932 -38.43401
 Alpha  occ. eigenvalues --  -38.42835 -38.42832  -2.19843  -2.19822  -2.19816
 Alpha  occ. eigenvalues --   -2.19802  -2.19249  -2.18879  -2.18792  -1.13556
 Alpha  occ. eigenvalues --   -1.13527  -1.13514  -1.13494  -1.13486  -1.13483
 Alpha  occ. eigenvalues --   -1.13478  -1.13477  -1.13466  -1.13449  -1.13427
 Alpha  occ. eigenvalues --   -1.13410  -1.12933  -1.12906  -1.12891  -1.12649
 Alpha  occ. eigenvalues --   -1.12520  -1.12477  -1.12457  -1.12401  -1.12392
 Alpha  occ. eigenvalues --   -0.18734  -0.13262  -0.12479  -0.09945
 Alpha virt. eigenvalues --   -0.05706  -0.05425  -0.05059  -0.02960  -0.02504
 Alpha virt. eigenvalues --   -0.01793  -0.01638  -0.01471  -0.00718  -0.00516
 Alpha virt. eigenvalues --    0.00047   0.00333   0.00786   0.00792   0.00821

  Beta  occ. eigenvalues --  -38.44027 -38.43991 -38.43959 -38.43924 -38.43396
  Beta  occ. eigenvalues --  -38.42781 -38.42747  -2.19841  -2.19811  -2.19801
  Beta  occ. eigenvalues --   -2.19797  -2.19244  -2.18787  -2.18631  -1.13548
  Beta  occ. eigenvalues --   -1.13526  -1.13496  -1.13490  -1.13474  -1.13471
  Beta  occ. eigenvalues --   -1.13462  -1.13451  -1.13443  -1.13436  -1.13422
  Beta  occ. eigenvalues --   -1.13408  -1.12927  -1.12895  -1.12876  -1.12563
  Beta  occ. eigenvalues --   -1.12454  -1.12409  -1.12354  -1.12289  -1.12273
  Beta  occ. eigenvalues --   -0.18035  -0.13006  -0.12243
  Beta virt. eigenvalues --   -0.06118  -0.05675  -0.05362  -0.05048  -0.02182
  Beta virt. eigenvalues --   -0.01816  -0.01546  -0.01404  -0.00854  -0.00758
  Beta virt. eigenvalues --   -0.00529   0.00196   0.00386   0.00798   0.00819

 Mulliken charges and spin densities:
               1          2
     1  Na   0.158476   0.020220
     2  Na  -0.309724   0.680225
     3  Na   0.074084  -0.082255
     4  Na   0.100423  -0.075621
     5  Na  -0.675108   0.425463
     6  Na   0.431532   0.034475
     7  Na   0.220318  -0.002507
 Sum of Mulliken charges =  -0.00000   1.00000

 Dipole moment (field-independent basis, Debye):
    X=             -0.0322    Y=             -0.2536    Z=              0.1278  Tot=              0.2858
 Quadrupole moment (field-independent basis, Debye-Ang):
   XX=            -55.1483   YY=            -56.5028   ZZ=            -78.4910
   XY=             -0.2149   XZ=              1.0669   YZ=              0.5981

 Normal termination of Gaussian 16 at Sat Dec  9 05:44:37 2023.
