 Gaussian 16, Revision B.01,
 Gaussian 16:  ES64L-G16RevB.01 20-Dec-2017

 -------------------------
 #P B3LYP/6-311+g(d) force
 -------------------------

 -----
 DPGEN
 -----
 Symbolic Z-matrix:
 Charge =  0 Multiplicity = 2

                         Standard orientation:
 ---------------------------------------------------------------------
 Center     Atomic      Atomic             Coordinates (Angstroms)
 Number     Number       Type             X           Y           Z
 ---------------------------------------------------------------------
      1         11           0        0.181257    0.433416   -1.653535
      2         11           0       -2.834973   -0.483689   -0.126476
      3         11           0        0.354334   -0.085895    2.218076
      4         11           0        2.357418   -1.733421   -0.476195
      5         11           0       -0.940535   -2.750819    0.001306
      6         11           0        2.497005    1.833745    0.082327
      7         11           0       -1.614505    2.786663   -0.045504
 ---------------------------------------------------------------------

 SCF Done:  E(UB3LYP) =  -1136.13551615     A.U. after   19 cycles

 The electronic state is 2-A.
 Alpha  occ. eigenvalues --  -38.44076 -38.43952 -38.43777 -38.43741 -38.43600
 Alpha  occ. eigenvalues --  -38.43287 -38.43254  -2.19909  -2.19808  -2.19597
 Alpha  occ. eigenvalues --   -2.19583  -2.19485  -2.19226  -2.19173  -1.13606
 Alpha  occ. eigenvalues --   -1.13578  -1.13534  -1.13460  -1.13434  -1.13428
 Alpha  occ. eigenvalues --   -1.13296  -1.13266  -1.13256  -1.13250  -1.13243
 Alpha  occ. eigenvalues --   -1.13223  -1.13222  -1.13139  -1.13117  -1.12901
 Alpha  occ. eigenvalues --   -1.12867  -1.12847  -1.12824  -1.12814  -1.12804
 Alpha  occ. eigenvalues --   -0.18606  -0.12983  -0.12490  -0.10985
 Alpha virt. eigenvalues --   -0.05708  -0.05022  -0.04688  -0.03268  -0.02984
 Alpha virt. eigenvalues --   -0.02830  -0.01340  -0.01246  -0.00345  -0.00203
 Alpha virt. eigenvalues --   -0.00034   0.00361   0.00830   0.00871   0.00913

  Beta  occ. eigenvalues --  -38.44071 -38.43848 -38.43778 -38.43728 -38.43597
  Beta  occ. eigenvalues --  -38.43284 -38.43196  -2.19903  -2.19616  -2.19586
  Beta  occ. eigenvalues --   -2.19575  -2.19483  -2.19171  -2.19120  -1.13598
  Beta  occ. eigenvalues --   -1.13551  -1.13533  -1.13335  -1.13302  -1.13291
  Beta  occ. eigenvalues --   -1.13272  -1.13264  -1.13253  -1.13240  -1.13224
  Beta  occ. eigenvalues --   -1.13220  -1.13211  -1.13119  -1.13114  -1.12834
  Beta  occ. eigenvalues --   -1.12825  -1.12809  -1.12793  -1.12783  -1.12765
  Beta  occ. eigenvalues --   -0.17875  -0.12757  -0.12288
  Beta virt. eigenvalues --   -0.07011  -0.05709  -0.04906  -0.04694  -0.02460
  Beta virt. eigenvalues --   -0.02243  -0.01744  -0.01260  -0.01162  -0.00393
  Beta virt. eigenvalues --   -0.00242   0.00120   0.00395   0.00833   0.00909

 Mulliken charges and spin densities:
               1          2
     1  Na  -0.156559   0.296543
     2  Na   0.054355  -0.022626
     3  Na  -0.597496   0.745865
     4  Na   0.304223   0.039107
     5  Na   0.091363   0.035842
     6  Na   0.167294  -0.044520
     7  Na   0.136820  -0.050212
 Sum of Mulliken charges =  -0.00000   1.00000

 Dipole moment (field-independent basis, Debye):
    X=              0.3788    Y=              0.3712    Z=              0.2021  Tot=              0.5675
 Quadrupole moment (field-independent basis, Debye-Ang):
   XX=            -60.3317   YY=            -61.2069   ZZ=            -73.2708
   XY=             -0.2221   XZ=             -0.4640   YZ=              1.2179

 Normal termination of Gaussian 16 at Thu Dec  7 10:39:19 2023.
