 Gaussian 16, Revision B.01,
 Gaussian 16:  ES64L-G16RevB.01 20-Dec-2017

 -------------------------
 #P B3LYP/6-311+g(d) force
 -------------------------

 -----
 DPGEN
 -----
 Symbolic Z-matrix:
 Charge =  0 Multiplicity = 2

                         Standard orientation:
 ---------------------------------------------------------------------
 Center     Atomic      Atomic             Coordinates (Angstroms)
 Number     Number       Type             X           Y           Z
 ---------------------------------------------------------------------
      1         11           0       -0.248119    0.197123   -1.768899
      2         11           0        2.465739    1.914781   -0.283388
      3         11           0       -1.334957    2.452350    0.284249
      4         11           0        2.752048   -1.722335   -0.060863
      5         11           0        0.089343    0.191893    1.915178
      6         11           0       -3.024061   -0.516551   -0.247550
      7         11           0       -0.699992   -2.517262    0.161274
 ---------------------------------------------------------------------

 SCF Done:  E(UB3LYP) =  -1136.13605626     A.U. after   19 cycles

 The electronic state is 2-A.
 Alpha  occ. eigenvalues --  -38.43991 -38.43955 -38.43867 -38.43470 -38.43419
 Alpha  occ. eigenvalues --  -38.43314 -38.42972  -2.19800  -2.19770  -2.19751
 Alpha  occ. eigenvalues --   -2.19418  -2.19392  -2.19215  -2.18892  -1.13482
 Alpha  occ. eigenvalues --   -1.13473  -1.13464  -1.13436  -1.13435  -1.13426
 Alpha  occ. eigenvalues --   -1.13406  -1.13405  -1.13391  -1.13132  -1.13083
 Alpha  occ. eigenvalues --   -1.13069  -1.13044  -1.13025  -1.13004  -1.12875
 Alpha  occ. eigenvalues --   -1.12866  -1.12820  -1.12577  -1.12551  -1.12519
 Alpha  occ. eigenvalues --   -0.18970  -0.13126  -0.12406  -0.10923
 Alpha virt. eigenvalues --   -0.05543  -0.05453  -0.04271  -0.03243  -0.02925
 Alpha virt. eigenvalues --   -0.02589  -0.01566  -0.01149  -0.00268  -0.00099
 Alpha virt. eigenvalues --    0.00001   0.00348   0.00778   0.00873   0.00939

  Beta  occ. eigenvalues --  -38.43985 -38.43957 -38.43859 -38.43379 -38.43347
  Beta  occ. eigenvalues --  -38.43301 -38.42963  -2.19792  -2.19760  -2.19756
  Beta  occ. eigenvalues --   -2.19262  -2.19253  -2.19196  -2.18880  -1.13467
  Beta  occ. eigenvalues --   -1.13464  -1.13455  -1.13432  -1.13421  -1.13420
  Beta  occ. eigenvalues --   -1.13408  -1.13393  -1.13380  -1.13046  -1.12986
  Beta  occ. eigenvalues --   -1.12966  -1.12951  -1.12911  -1.12904  -1.12842
  Beta  occ. eigenvalues --   -1.12813  -1.12809  -1.12571  -1.12521  -1.12503
  Beta  occ. eigenvalues --   -0.18219  -0.12886  -0.12139
  Beta virt. eigenvalues --   -0.06981  -0.05506  -0.05429  -0.04258  -0.02474
  Beta virt. eigenvalues --   -0.02116  -0.01555  -0.01442  -0.01098  -0.00310
  Beta virt. eigenvalues --   -0.00125   0.00120   0.00377   0.00832   0.00876

 Mulliken charges and spin densities:
               1          2
     1  Na  -0.356100   0.643617
     2  Na  -0.004112  -0.111009
     3  Na   0.281585  -0.079539
     4  Na  -0.106996  -0.105038
     5  Na  -0.316388   0.660823
     6  Na   0.415730   0.047427
     7  Na   0.086279  -0.056282
 Sum of Mulliken charges =  -0.00000   1.00000

 Dipole moment (field-independent basis, Debye):
    X=              0.2810    Y=              0.1915    Z=             -0.0337  Tot=              0.3417
 Quadrupole moment (field-independent basis, Debye-Ang):
   XX=            -55.1619   YY=            -64.8897   ZZ=            -73.5563
   XY=             -0.0883   XZ=             -0.4986   YZ=             -0.0605

 Normal termination of Gaussian 16 at Thu Dec  7 20:50:42 2023.
