 Gaussian 16, Revision B.01,
 Gaussian 16:  ES64L-G16RevB.01 20-Dec-2017

 -------------------------
 #P B3LYP/6-311+g(d) force
 -------------------------

 -----
 DPGEN
 -----
 Symbolic Z-matrix:
 Charge =  0 Multiplicity = 2

                         Standard orientation:
 ---------------------------------------------------------------------
 Center     Atomic      Atomic             Coordinates (Angstroms)
 Number     Number       Type             X           Y           Z
 ---------------------------------------------------------------------
      1         11           0       -0.025032    1.814061   -0.114965
      2         11           0        0.363664   -0.275238   -1.837816
      3         11           0       -3.991814   -0.061414   -0.021171
      4         11           0       -1.216004   -0.583042    0.357980
      5         11           0        2.431574    0.723777   -0.347739
      6         11           0        0.917909    0.181867    1.865162
      7         11           0        1.519703   -1.800012    0.098551
 ---------------------------------------------------------------------

 SCF Done:  E(UB3LYP) =  -1136.03115994     A.U. after   44 cycles

 The electronic state is 2-A.
 Alpha  occ. eigenvalues --  -38.46084 -38.45254 -38.44863 -38.44775 -38.44016
 Alpha  occ. eigenvalues --  -38.43721 -38.43547  -2.21879  -2.21554  -2.21149
 Alpha  occ. eigenvalues --   -2.21073  -2.20341  -2.19991  -2.19781  -1.15627
 Alpha  occ. eigenvalues --   -1.15561  -1.15513  -1.15502  -1.15371  -1.15218
 Alpha  occ. eigenvalues --   -1.15029  -1.14934  -1.14802  -1.14728  -1.14673
 Alpha  occ. eigenvalues --   -1.14607  -1.14127  -1.13945  -1.13880  -1.13627
 Alpha  occ. eigenvalues --   -1.13548  -1.13465  -1.13439  -1.13366  -1.13339
 Alpha  occ. eigenvalues --   -0.22012  -0.14045  -0.13051  -0.11530
 Alpha virt. eigenvalues --   -0.07374  -0.03858  -0.03790  -0.03288  -0.02704
 Alpha virt. eigenvalues --   -0.02408  -0.02179  -0.00572  -0.00265   0.00078
 Alpha virt. eigenvalues --    0.00342   0.00444   0.00608   0.00850   0.01136

  Beta  occ. eigenvalues --  -38.46100 -38.45216 -38.44777 -38.44688 -38.43983
  Beta  occ. eigenvalues --  -38.43681 -38.43512  -2.21909  -2.21495  -2.20999
  Beta  occ. eigenvalues --   -2.20918  -2.20288  -2.19927  -2.19726  -1.15645
  Beta  occ. eigenvalues --   -1.15530  -1.15524  -1.15520  -1.15248  -1.15181
  Beta  occ. eigenvalues --   -1.14948  -1.14832  -1.14681  -1.14601  -1.14564
  Beta  occ. eigenvalues --   -1.14505  -1.14085  -1.13888  -1.13809  -1.13584
  Beta  occ. eigenvalues --   -1.13450  -1.13421  -1.13414  -1.13305  -1.13260
  Beta  occ. eigenvalues --   -0.21048  -0.13899  -0.11326
  Beta virt. eigenvalues --   -0.08324  -0.07204  -0.03447  -0.03229  -0.03082
  Beta virt. eigenvalues --   -0.02255  -0.01823  -0.01542  -0.00341  -0.00177
  Beta virt. eigenvalues --    0.00136   0.00403   0.00594   0.00615   0.00891

 Mulliken charges and spin densities:
               1          2
     1  Na  -0.329346   0.021573
     2  Na  -0.245243   0.370755
     3  Na   0.496183   0.045767
     4  Na   0.246653   0.211496
     5  Na   0.298775   0.141535
     6  Na  -0.173317   0.317545
     7  Na  -0.293705  -0.108672
 Sum of Mulliken charges =  -0.00000   1.00000

 Dipole moment (field-independent basis, Debye):
    X=             -1.3182    Y=              0.1307    Z=             -0.0582  Tot=              1.3260
 Quadrupole moment (field-independent basis, Debye-Ang):
   XX=            -47.3650   YY=            -76.9803   ZZ=            -68.4980
   XY=             -0.7425   XZ=              0.6537   YZ=             -5.4542

 Normal termination of Gaussian 16 at Fri Dec  8 18:02:46 2023.
