 Gaussian 16, Revision B.01,
 Gaussian 16:  ES64L-G16RevB.01 20-Dec-2017

 -------------------------
 #P B3LYP/6-311+g(d) force
 -------------------------

 -----
 DPGEN
 -----
 Symbolic Z-matrix:
 Charge =  0 Multiplicity = 2

                         Standard orientation:
 ---------------------------------------------------------------------
 Center     Atomic      Atomic             Coordinates (Angstroms)
 Number     Number       Type             X           Y           Z
 ---------------------------------------------------------------------
      1         11           0       -1.010434   -2.817544   -0.147008
      2         11           0       -3.003853    0.298191   -0.303014
      3         11           0       -0.617997   -0.252325    1.941237
      4         11           0        0.094662    0.199222   -1.686525
      5         11           0        2.824912    1.250916    0.155626
      6         11           0       -0.589503    3.009359    0.079681
      7         11           0        2.302214   -1.687819   -0.039996
 ---------------------------------------------------------------------

 SCF Done:  E(UB3LYP) =  -1136.13774100     A.U. after   20 cycles

 The electronic state is 2-A.
 Alpha  occ. eigenvalues --  -38.44080 -38.43814 -38.43687 -38.43498 -38.43450
 Alpha  occ. eigenvalues --  -38.43393 -38.43098  -2.19934  -2.19674  -2.19506
 Alpha  occ. eigenvalues --   -2.19400  -2.19307  -2.19306  -2.19073  -1.13616
 Alpha  occ. eigenvalues --   -1.13614  -1.13553  -1.13431  -1.13328  -1.13307
 Alpha  occ. eigenvalues --   -1.13188  -1.13172  -1.13138  -1.13079  -1.13050
 Alpha  occ. eigenvalues --   -1.13035  -1.13010  -1.12973  -1.12956  -1.12942
 Alpha  occ. eigenvalues --   -1.12932  -1.12902  -1.12752  -1.12704  -1.12695
 Alpha  occ. eigenvalues --   -0.18774  -0.13168  -0.12537  -0.10628
 Alpha virt. eigenvalues --   -0.05669  -0.04968  -0.04937  -0.03240  -0.02894
 Alpha virt. eigenvalues --   -0.02405  -0.01394  -0.01201  -0.00404  -0.00281
 Alpha virt. eigenvalues --    0.00000   0.00374   0.00832   0.00889   0.00915

  Beta  occ. eigenvalues --  -38.44070 -38.43812 -38.43684 -38.43493 -38.43444
  Beta  occ. eigenvalues --  -38.43309 -38.43028  -2.19921  -2.19672  -2.19503
  Beta  occ. eigenvalues --   -2.19394  -2.19300  -2.19151  -2.18946  -1.13610
  Beta  occ. eigenvalues --   -1.13572  -1.13549  -1.13432  -1.13315  -1.13300
  Beta  occ. eigenvalues --   -1.13182  -1.13154  -1.13140  -1.13071  -1.13035
  Beta  occ. eigenvalues --   -1.13018  -1.12985  -1.12942  -1.12937  -1.12864
  Beta  occ. eigenvalues --   -1.12827  -1.12803  -1.12666  -1.12611  -1.12601
  Beta  occ. eigenvalues --   -0.18047  -0.12933  -0.12309
  Beta virt. eigenvalues --   -0.06729  -0.05647  -0.04952  -0.04877  -0.02446
  Beta virt. eigenvalues --   -0.02128  -0.01373  -0.01302  -0.01131  -0.00453
  Beta virt. eigenvalues --   -0.00333   0.00146   0.00401   0.00843   0.00902

 Mulliken charges and spin densities:
               1          2
     1  Na   0.273258  -0.051747
     2  Na   0.258169  -0.102421
     3  Na  -0.499032   0.776794
     4  Na  -0.199659   0.547502
     5  Na  -0.015313  -0.045117
     6  Na   0.021178  -0.093798
     7  Na   0.161399  -0.031213
 Sum of Mulliken charges =  -0.00000   1.00000

 Dipole moment (field-independent basis, Debye):
    X=             -0.2827    Y=              0.1695    Z=              0.0678  Tot=              0.3365
 Quadrupole moment (field-independent basis, Debye-Ang):
   XX=            -58.3185   YY=            -60.5545   ZZ=            -74.7602
   XY=              0.5547   XZ=              1.5483   YZ=              1.1682

 Normal termination of Gaussian 16 at Thu Dec  7 23:58:06 2023.
