 Gaussian 16, Revision B.01,
 Gaussian 16:  ES64L-G16RevB.01 20-Dec-2017

 -------------------------
 #P B3LYP/6-311+g(d) force
 -------------------------

 -----
 DPGEN
 -----
 Symbolic Z-matrix:
 Charge =  0 Multiplicity = 2

                         Standard orientation:
 ---------------------------------------------------------------------
 Center     Atomic      Atomic             Coordinates (Angstroms)
 Number     Number       Type             X           Y           Z
 ---------------------------------------------------------------------
      1         11           0       -0.934133   -1.733858    0.505723
      2         11           0        1.816227   -0.163337    2.157136
      3         11           0        2.019619   -2.351766   -0.856427
      4         11           0        2.377273    0.664035   -1.398718
      5         11           0        0.422994    2.891515    0.519661
      6         11           0       -1.596657    1.383868   -0.963710
      7         11           0       -4.105323   -0.690457    0.036336
 ---------------------------------------------------------------------

 SCF Done:  E(UB3LYP) =  -1136.12772479     A.U. after   20 cycles

 The electronic state is 2-A.
 Alpha  occ. eigenvalues --  -38.44419 -38.44219 -38.44199 -38.43787 -38.43615
 Alpha  occ. eigenvalues --  -38.43604 -38.43224  -2.20219  -2.20094  -2.20046
 Alpha  occ. eigenvalues --   -2.19678  -2.19492  -2.19472  -2.19096  -1.13887
 Alpha  occ. eigenvalues --   -1.13878  -1.13862  -1.13786  -1.13756  -1.13716
 Alpha  occ. eigenvalues --   -1.13715  -1.13675  -1.13652  -1.13424  -1.13357
 Alpha  occ. eigenvalues --   -1.13292  -1.13199  -1.13168  -1.13158  -1.13140
 Alpha  occ. eigenvalues --   -1.13114  -1.13050  -1.12779  -1.12726  -1.12723
 Alpha  occ. eigenvalues --   -0.18085  -0.13547  -0.12350  -0.11033
 Alpha virt. eigenvalues --   -0.06400  -0.04933  -0.04501  -0.03345  -0.03028
 Alpha virt. eigenvalues --   -0.02739  -0.02012  -0.00937  -0.00566  -0.00342
 Alpha virt. eigenvalues --    0.00125   0.00264   0.00358   0.00684   0.00850

  Beta  occ. eigenvalues --  -38.44424 -38.44166 -38.44109 -38.43778 -38.43592
  Beta  occ. eigenvalues --  -38.43590 -38.43219  -2.20228  -2.19998  -2.19879
  Beta  occ. eigenvalues --   -2.19662  -2.19452  -2.19449  -2.19089  -1.13892
  Beta  occ. eigenvalues --   -1.13885  -1.13868  -1.13719  -1.13685  -1.13638
  Beta  occ. eigenvalues --   -1.13595  -1.13565  -1.13534  -1.13414  -1.13346
  Beta  occ. eigenvalues --   -1.13277  -1.13180  -1.13151  -1.13122  -1.13106
  Beta  occ. eigenvalues --   -1.13076  -1.13031  -1.12775  -1.12722  -1.12699
  Beta  occ. eigenvalues --   -0.17452  -0.13307  -0.12212
  Beta virt. eigenvalues --   -0.07041  -0.06225  -0.04780  -0.04381  -0.02875
  Beta virt. eigenvalues --   -0.02431  -0.02177  -0.01465  -0.00885  -0.00436
  Beta virt. eigenvalues --   -0.00060   0.00178   0.00333   0.00524   0.00731

 Mulliken charges and spin densities:
               1          2
     1  Na  -0.904383   0.230818
     2  Na  -0.077773   0.374918
     3  Na   0.564531   0.002777
     4  Na  -0.242707   0.373011
     5  Na   0.184508   0.094825
     6  Na  -0.029611   0.010627
     7  Na   0.505435  -0.086977
 Sum of Mulliken charges =  -0.00000   1.00000

 Dipole moment (field-independent basis, Debye):
    X=             -0.5073    Y=             -0.1504    Z=              0.1835  Tot=              0.5600
 Quadrupole moment (field-independent basis, Debye-Ang):
   XX=            -55.0031   YY=            -68.5665   ZZ=            -71.3268
   XY=              0.9484   XZ=              0.2407   YZ=              1.0403

 Normal termination of Gaussian 16 at Fri Dec  8 18:32:11 2023.
