 Gaussian 16, Revision B.01,
 Gaussian 16:  ES64L-G16RevB.01 20-Dec-2017

 -------------------------
 #P B3LYP/6-311+g(d) force
 -------------------------

 -----
 DPGEN
 -----
 Symbolic Z-matrix:
 Charge =  0 Multiplicity = 2

                         Standard orientation:
 ---------------------------------------------------------------------
 Center     Atomic      Atomic             Coordinates (Angstroms)
 Number     Number       Type             X           Y           Z
 ---------------------------------------------------------------------
      1         11           0        0.340208    1.542651   -0.256129
      2         11           0       -2.512018    3.368199    0.051945
      3         11           0       -3.076060    0.492786    0.164321
      4         11           0       -0.296302   -1.751542   -0.831528
      5         11           0        2.749942   -0.961004   -0.894555
      6         11           0       -2.853623   -3.149406    0.827754
      7         11           0        5.647853    0.458316    0.938192
 ---------------------------------------------------------------------

 SCF Done:  E(UB3LYP) =  -1136.12383318     A.U. after   20 cycles

 The electronic state is 2-A.
 Alpha  occ. eigenvalues --  -38.44844 -38.44515 -38.44117 -38.43961 -38.43594
 Alpha  occ. eigenvalues --  -38.43456 -38.43386  -2.20635  -2.20369  -2.20006
 Alpha  occ. eigenvalues --   -2.19828  -2.19438  -2.19297  -2.19260  -1.14266
 Alpha  occ. eigenvalues --   -1.14265  -1.14236  -1.14080  -1.14063  -1.13953
 Alpha  occ. eigenvalues --   -1.13750  -1.13692  -1.13686  -1.13463  -1.13460
 Alpha  occ. eigenvalues --   -1.13410  -1.13155  -1.13102  -1.13097  -1.12995
 Alpha  occ. eigenvalues --   -1.12975  -1.12938  -1.12920  -1.12901  -1.12845
 Alpha  occ. eigenvalues --   -0.17253  -0.14011  -0.12629  -0.11267
 Alpha virt. eigenvalues --   -0.05852  -0.05360  -0.04619  -0.04058  -0.02573
 Alpha virt. eigenvalues --   -0.02303  -0.01872  -0.01578  -0.01351  -0.00782
 Alpha virt. eigenvalues --   -0.00230   0.00010   0.00245   0.00446   0.00687

  Beta  occ. eigenvalues --  -38.44710 -38.44496 -38.44104 -38.43958 -38.43591
  Beta  occ. eigenvalues --  -38.43437 -38.43362  -2.20386  -2.20334  -2.19983
  Beta  occ. eigenvalues --   -2.19823  -2.19440  -2.19256  -2.19223  -1.14097
  Beta  occ. eigenvalues --   -1.14096  -1.14071  -1.14054  -1.14037  -1.13928
  Beta  occ. eigenvalues --   -1.13735  -1.13675  -1.13670  -1.13459  -1.13453
  Beta  occ. eigenvalues --   -1.13402  -1.13138  -1.13108  -1.13071  -1.12969
  Beta  occ. eigenvalues --   -1.12952  -1.12909  -1.12894  -1.12870  -1.12802
  Beta  occ. eigenvalues --   -0.16866  -0.13311  -0.12257
  Beta virt. eigenvalues --   -0.07564  -0.05628  -0.05233  -0.04135  -0.03874
  Beta virt. eigenvalues --   -0.02242  -0.02024  -0.01434  -0.01366  -0.00988
  Beta virt. eigenvalues --   -0.00496   0.00084   0.00151   0.00397   0.00572

 Mulliken charges and spin densities:
               1          2
     1  Na  -1.126815  -0.073608
     2  Na   1.279102   0.029015
     3  Na  -0.685456   0.210075
     4  Na  -1.148969  -0.004943
     5  Na   0.499573   0.017321
     6  Na   1.118781   0.152812
     7  Na   0.063783   0.669328
 Sum of Mulliken charges =  -0.00000   1.00000

 Dipole moment (field-independent basis, Debye):
    X=             -0.5352    Y=              0.8476    Z=              0.1931  Tot=              1.0209
 Quadrupole moment (field-independent basis, Debye-Ang):
   XX=            -66.9414   YY=            -60.8050   ZZ=            -70.8232
   XY=             -1.8128   XZ=             -0.6179   YZ=              0.1884

 Normal termination of Gaussian 16 at Wed Nov 29 03:38:47 2023.
