 Gaussian 16, Revision B.01,
 Gaussian 16:  ES64L-G16RevB.01 20-Dec-2017

 -------------------------
 #P B3LYP/6-311+g(d) force
 -------------------------

 -----
 DPGEN
 -----
 Symbolic Z-matrix:
 Charge =  0 Multiplicity = 2

                         Standard orientation:
 ---------------------------------------------------------------------
 Center     Atomic      Atomic             Coordinates (Angstroms)
 Number     Number       Type             X           Y           Z
 ---------------------------------------------------------------------
      1         11           0        2.135577   -2.154618    0.626864
      2         11           0       -1.415045    2.309356   -0.710352
      3         11           0       -3.626589   -0.599226    0.485496
      4         11           0        1.950509   -0.013716   -1.902870
      5         11           0       -0.252432    0.050302    2.083133
      6         11           0       -1.229672   -1.292816   -1.383456
      7         11           0        2.437653    1.700718    0.801185
 ---------------------------------------------------------------------

 SCF Done:  E(UB3LYP) =  -1136.12679187     A.U. after   24 cycles

 The electronic state is 2-A.
 Alpha  occ. eigenvalues --  -38.44730 -38.44162 -38.44150 -38.43980 -38.43753
 Alpha  occ. eigenvalues --  -38.43576 -38.43243  -2.20547  -2.20026  -2.19934
 Alpha  occ. eigenvalues --   -2.19866  -2.19581  -2.19409  -2.19120  -1.14237
 Alpha  occ. eigenvalues --   -1.14206  -1.14171  -1.13703  -1.13659  -1.13655
 Alpha  occ. eigenvalues --   -1.13623  -1.13589  -1.13549  -1.13543  -1.13531
 Alpha  occ. eigenvalues --   -1.13486  -1.13256  -1.13228  -1.13210  -1.13098
 Alpha  occ. eigenvalues --   -1.13072  -1.13028  -1.12812  -1.12794  -1.12737
 Alpha  occ. eigenvalues --   -0.18260  -0.13645  -0.11700  -0.11000
 Alpha virt. eigenvalues --   -0.06271  -0.05235  -0.04669  -0.03279  -0.03003
 Alpha virt. eigenvalues --   -0.02768  -0.01916  -0.00937  -0.00641  -0.00099
 Alpha virt. eigenvalues --    0.00150   0.00245   0.00380   0.00572   0.00794

  Beta  occ. eigenvalues --  -38.44729 -38.44126 -38.44090 -38.43930 -38.43733
  Beta  occ. eigenvalues --  -38.43573 -38.43223  -2.20546  -2.19896  -2.19890
  Beta  occ. eigenvalues --   -2.19774  -2.19546  -2.19406  -2.19086  -1.14238
  Beta  occ. eigenvalues --   -1.14195  -1.14172  -1.13620  -1.13587  -1.13567
  Beta  occ. eigenvalues --   -1.13561  -1.13545  -1.13520  -1.13481  -1.13467
  Beta  occ. eigenvalues --   -1.13419  -1.13220  -1.13208  -1.13178  -1.13082
  Beta  occ. eigenvalues --   -1.13065  -1.13025  -1.12783  -1.12752  -1.12715
  Beta  occ. eigenvalues --   -0.17473  -0.13497  -0.10820
  Beta virt. eigenvalues --   -0.07792  -0.06035  -0.05044  -0.04125  -0.02970
  Beta virt. eigenvalues --   -0.02406  -0.02006  -0.01816  -0.00755  -0.00419
  Beta virt. eigenvalues --    0.00006   0.00226   0.00336   0.00434   0.00684

 Mulliken charges and spin densities:
               1          2
     1  Na   0.057543  -0.020636
     2  Na  -0.271012   0.045121
     3  Na   0.548987  -0.103198
     4  Na   0.142779   0.441159
     5  Na  -0.319896   0.547141
     6  Na  -0.352122   0.172207
     7  Na   0.193721  -0.081794
 Sum of Mulliken charges =  -0.00000   1.00000

 Dipole moment (field-independent basis, Debye):
    X=             -0.6876    Y=              0.0952    Z=              0.2880  Tot=              0.7515
 Quadrupole moment (field-independent basis, Debye-Ang):
   XX=            -53.1568   YY=            -73.9839   ZZ=            -68.0262
   XY=             -0.1824   XZ=             -1.2493   YZ=             -5.4581

 Normal termination of Gaussian 16 at Thu Dec  7 02:41:59 2023.
