 Gaussian 16, Revision B.01,
 Gaussian 16:  ES64L-G16RevB.01 20-Dec-2017

 -------------------------
 #P B3LYP/6-311+g(d) force
 -------------------------

 -----
 DPGEN
 -----
 Symbolic Z-matrix:
 Charge =  0 Multiplicity = 2

                         Standard orientation:
 ---------------------------------------------------------------------
 Center     Atomic      Atomic             Coordinates (Angstroms)
 Number     Number       Type             X           Y           Z
 ---------------------------------------------------------------------
      1         11           0        2.290637    0.123518    0.221143
      2         11           0       -0.906077    1.500996    0.123453
      3         11           0        2.234484    3.406651    0.001065
      4         11           0        2.528531   -3.029265    0.052586
      5         11           0       -0.365806   -1.871111   -0.442150
      6         11           0       -2.749922    0.154558   -1.981645
      7         11           0       -3.031848   -0.285346    2.025548
 ---------------------------------------------------------------------

 SCF Done:  E(UB3LYP) =  -1136.12775237     A.U. after   21 cycles

 The electronic state is 2-A.
 Alpha  occ. eigenvalues --  -38.44177 -38.44150 -38.43918 -38.43778 -38.43631
 Alpha  occ. eigenvalues --  -38.43442 -38.43401  -2.20020  -2.20009  -2.19824
 Alpha  occ. eigenvalues --   -2.19637  -2.19563  -2.19316  -2.19244  -1.13715
 Alpha  occ. eigenvalues --   -1.13668  -1.13666  -1.13650  -1.13623  -1.13602
 Alpha  occ. eigenvalues --   -1.13554  -1.13503  -1.13462  -1.13322  -1.13287
 Alpha  occ. eigenvalues --   -1.13278  -1.13261  -1.13253  -1.13135  -1.13033
 Alpha  occ. eigenvalues --   -1.12998  -1.12954  -1.12904  -1.12893  -1.12836
 Alpha  occ. eigenvalues --   -0.17936  -0.13829  -0.12383  -0.10831
 Alpha virt. eigenvalues --   -0.05943  -0.05527  -0.04741  -0.03405  -0.02633
 Alpha virt. eigenvalues --   -0.02090  -0.01771  -0.01565  -0.00768  -0.00550
 Alpha virt. eigenvalues --   -0.00015   0.00119   0.00161   0.00638   0.00703

  Beta  occ. eigenvalues --  -38.44078 -38.44074 -38.43907 -38.43780 -38.43620
  Beta  occ. eigenvalues --  -38.43446 -38.43400  -2.19888  -2.19817  -2.19807
  Beta  occ. eigenvalues --   -2.19642  -2.19548  -2.19315  -2.19251  -1.13629
  Beta  occ. eigenvalues --   -1.13574  -1.13546  -1.13534  -1.13529  -1.13517
  Beta  occ. eigenvalues --   -1.13480  -1.13465  -1.13452  -1.13325  -1.13282
  Beta  occ. eigenvalues --   -1.13279  -1.13253  -1.13198  -1.13133  -1.13033
  Beta  occ. eigenvalues --   -1.12994  -1.12957  -1.12908  -1.12897  -1.12839
  Beta  occ. eigenvalues --   -0.17438  -0.13470  -0.12356
  Beta virt. eigenvalues --   -0.06705  -0.05696  -0.05327  -0.04676  -0.02984
  Beta virt. eigenvalues --   -0.02153  -0.01738  -0.01584  -0.01082  -0.00653
  Beta virt. eigenvalues --   -0.00117   0.00014   0.00248   0.00519   0.00690

 Mulliken charges and spin densities:
               1          2
     1  Na  -1.336279  -0.005037
     2  Na  -0.674946   0.428054
     3  Na   0.551556  -0.156400
     4  Na   1.146410  -0.116902
     5  Na  -0.563890   0.263922
     6  Na   0.709788   0.205189
     7  Na   0.167361   0.381173
 Sum of Mulliken charges =  -0.00000   1.00000

 Dipole moment (field-independent basis, Debye):
    X=             -0.0420    Y=             -0.4660    Z=             -0.3660  Tot=              0.5940
 Quadrupole moment (field-independent basis, Debye-Ang):
   XX=            -58.5891   YY=            -60.9492   ZZ=            -73.5013
   XY=             -1.1768   XZ=              2.1121   YZ=             -1.2707

 Normal termination of Gaussian 16 at Wed Nov 29 17:23:55 2023.
