 Gaussian 16, Revision B.01,
 Gaussian 16:  ES64L-G16RevB.01 20-Dec-2017

 -------------------------
 #P B3LYP/6-311+g(d) force
 -------------------------

 -----
 DPGEN
 -----
 Symbolic Z-matrix:
 Charge =  0 Multiplicity = 2

                         Standard orientation:
 ---------------------------------------------------------------------
 Center     Atomic      Atomic             Coordinates (Angstroms)
 Number     Number       Type             X           Y           Z
 ---------------------------------------------------------------------
      1         11           0        0.906655    0.068851    1.696271
      2         11           0        0.338768    1.871555   -0.299329
      3         11           0       -4.435429   -0.408711   -0.393329
      4         11           0       -1.851644    0.277570    0.769271
      5         11           0        0.055649   -0.712643   -1.202029
      6         11           0        2.185941   -1.815558    0.148771
      7         11           0        2.800059    0.718937   -0.719629
 ---------------------------------------------------------------------

 SCF Done:  E(UB3LYP) =  -1136.05682607     A.U. after   30 cycles

 The electronic state is 2-A.
 Alpha  occ. eigenvalues --  -38.45563 -38.45426 -38.45342 -38.44228 -38.43618
 Alpha  occ. eigenvalues --  -38.43491 -38.43048  -2.21623  -2.21476  -2.21364
 Alpha  occ. eigenvalues --   -2.20502  -2.19744  -2.19605  -2.19274  -1.15429
 Alpha  occ. eigenvalues --   -1.15359  -1.15302  -1.15187  -1.15162  -1.15088
 Alpha  occ. eigenvalues --   -1.15056  -1.15000  -1.14986  -1.14263  -1.14232
 Alpha  occ. eigenvalues --   -1.14124  -1.13507  -1.13381  -1.13338  -1.13272
 Alpha  occ. eigenvalues --   -1.13215  -1.13185  -1.12958  -1.12875  -1.12836
 Alpha  occ. eigenvalues --   -0.21240  -0.14609  -0.12037  -0.11473
 Alpha virt. eigenvalues --   -0.07973  -0.04241  -0.03834  -0.03294  -0.02978
 Alpha virt. eigenvalues --   -0.02200  -0.02084  -0.01004  -0.00790  -0.00075
 Alpha virt. eigenvalues --    0.00201   0.00374   0.00391   0.00785   0.01045

  Beta  occ. eigenvalues --  -38.45557 -38.45389 -38.45298 -38.44133 -38.43593
  Beta  occ. eigenvalues --  -38.43474 -38.43021  -2.21562  -2.21400  -2.21354
  Beta  occ. eigenvalues --   -2.20331  -2.19706  -2.19580  -2.19234  -1.15394
  Beta  occ. eigenvalues --   -1.15320  -1.15209  -1.15125  -1.15112  -1.15083
  Beta  occ. eigenvalues --   -1.14992  -1.14978  -1.14977  -1.14153  -1.14115
  Beta  occ. eigenvalues --   -1.13994  -1.13487  -1.13329  -1.13291  -1.13257
  Beta  occ. eigenvalues --   -1.13203  -1.13113  -1.12936  -1.12853  -1.12743
  Beta  occ. eigenvalues --   -0.20383  -0.14364  -0.11261
  Beta virt. eigenvalues --   -0.07895  -0.07514  -0.04130  -0.03346  -0.03056
  Beta virt. eigenvalues --   -0.02767  -0.01539  -0.01216  -0.00764  -0.00564
  Beta virt. eigenvalues --    0.00005   0.00220   0.00398   0.00524   0.00857

 Mulliken charges and spin densities:
               1          2
     1  Na  -0.183578   0.190151
     2  Na  -0.091709   0.237395
     3  Na   0.316634   0.008183
     4  Na  -0.228741   0.083526
     5  Na  -0.786392   0.324679
     6  Na   0.837121   0.058584
     7  Na   0.136665   0.097482
 Sum of Mulliken charges =  -0.00000   1.00000

 Dipole moment (field-independent basis, Debye):
    X=             -0.5834    Y=              0.4550    Z=             -0.0438  Tot=              0.7412
 Quadrupole moment (field-independent basis, Debye-Ang):
   XX=            -48.9857   YY=            -76.2098   ZZ=            -69.8382
   XY=              3.1604   XZ=              1.7821   YZ=             -0.9076

 Normal termination of Gaussian 16 at Fri Dec  8 05:40:03 2023.
