 Gaussian 16, Revision B.01,
 Gaussian 16:  ES64L-G16RevB.01 20-Dec-2017

 -------------------------
 #P B3LYP/6-311+g(d) force
 -------------------------

 -----
 DPGEN
 -----
 Symbolic Z-matrix:
 Charge =  0 Multiplicity = 2

                         Standard orientation:
 ---------------------------------------------------------------------
 Center     Atomic      Atomic             Coordinates (Angstroms)
 Number     Number       Type             X           Y           Z
 ---------------------------------------------------------------------
      1         11           0        1.961190    0.611878   -1.449910
      2         11           0       -3.747929   -0.218600    0.813787
      3         11           0        3.120761   -1.107700    1.049851
      4         11           0       -0.029890   -0.144074    1.800976
      5         11           0        0.128892   -2.369896   -0.985220
      6         11           0       -2.064583    0.111348   -1.325798
      7         11           0        0.631560    3.117044    0.096313
 ---------------------------------------------------------------------

 SCF Done:  E(UB3LYP) =  -1136.12070580     A.U. after   21 cycles

 The electronic state is 2-A.
 Alpha  occ. eigenvalues --  -38.45051 -38.44511 -38.44392 -38.44119 -38.43667
 Alpha  occ. eigenvalues --  -38.43620 -38.42455  -2.20903  -2.20348  -2.20263
 Alpha  occ. eigenvalues --   -2.20050  -2.19572  -2.19477  -2.18264  -1.14736
 Alpha  occ. eigenvalues --   -1.14515  -1.14509  -1.14034  -1.14022  -1.13960
 Alpha  occ. eigenvalues --   -1.13947  -1.13896  -1.13875  -1.13726  -1.13695
 Alpha  occ. eigenvalues --   -1.13640  -1.13257  -1.13236  -1.13199  -1.13161
 Alpha  occ. eigenvalues --   -1.13134  -1.13075  -1.11937  -1.11925  -1.11910
 Alpha  occ. eigenvalues --   -0.18372  -0.13741  -0.11419  -0.11296
 Alpha virt. eigenvalues --   -0.06715  -0.04875  -0.04187  -0.03516  -0.02840
 Alpha virt. eigenvalues --   -0.02585  -0.02315  -0.01073  -0.00600  -0.00027
 Alpha virt. eigenvalues --    0.00139   0.00213   0.00265   0.00829   0.00854

  Beta  occ. eigenvalues --  -38.45040 -38.44486 -38.44329 -38.44096 -38.43636
  Beta  occ. eigenvalues --  -38.43579 -38.42459  -2.20884  -2.20303  -2.20148
  Beta  occ. eigenvalues --   -2.20010  -2.19516  -2.19405  -2.18273  -1.14724
  Beta  occ. eigenvalues --   -1.14496  -1.14493  -1.13999  -1.13978  -1.13929
  Beta  occ. eigenvalues --   -1.13870  -1.13819  -1.13790  -1.13680  -1.13664
  Beta  occ. eigenvalues --   -1.13613  -1.13208  -1.13195  -1.13158  -1.13115
  Beta  occ. eigenvalues --   -1.13063  -1.13028  -1.11939  -1.11927  -1.11917
  Beta  occ. eigenvalues --   -0.17612  -0.13554  -0.11172
  Beta virt. eigenvalues --   -0.07471  -0.06553  -0.04260  -0.04077  -0.03383
  Beta virt. eigenvalues --   -0.02222  -0.01996  -0.01889  -0.00741  -0.00469
  Beta virt. eigenvalues --    0.00023   0.00217   0.00293   0.00354   0.00875

 Mulliken charges and spin densities:
               1          2
     1  Na   0.144915   0.237820
     2  Na  -0.086646   0.146358
     3  Na   0.311566   0.027678
     4  Na  -0.177050   0.448309
     5  Na  -0.296865   0.280332
     6  Na   0.334362  -0.122674
     7  Na  -0.230283  -0.017823
 Sum of Mulliken charges =  -0.00000   1.00000

 Dipole moment (field-independent basis, Debye):
    X=             -0.3295    Y=             -0.6837    Z=              0.4742  Tot=              0.8949
 Quadrupole moment (field-independent basis, Debye-Ang):
   XX=            -52.7668   YY=            -74.1233   ZZ=            -68.1104
   XY=             -1.8258   XZ=             -1.3863   YZ=              0.6021

 Normal termination of Gaussian 16 at Tue Dec  5 14:07:44 2023.
