 Gaussian 16, Revision B.01,
 Gaussian 16:  ES64L-G16RevB.01 20-Dec-2017

 -------------------------
 #P B3LYP/6-311+g(d) force
 -------------------------

 -----
 DPGEN
 -----
 Symbolic Z-matrix:
 Charge =  0 Multiplicity = 2

                         Standard orientation:
 ---------------------------------------------------------------------
 Center     Atomic      Atomic             Coordinates (Angstroms)
 Number     Number       Type             X           Y           Z
 ---------------------------------------------------------------------
      1         11           0        0.599907    1.423277   -0.902400
      2         11           0        0.600067   -1.419823   -0.906500
      3         11           0        2.819777    0.000447    0.034200
      4         11           0        0.554187   -0.003022    1.682200
      5         11           0       -1.480892    1.466706    0.770300
      6         11           0       -1.613913    0.001108   -1.444300
      7         11           0       -1.479133   -1.468694    0.766500
 ---------------------------------------------------------------------

 SCF Done:  E(UB3LYP) =  -1136.02931226     A.U. after   25 cycles

 The electronic state is 2-A.
 Alpha  occ. eigenvalues --  -38.45353 -38.45151 -38.44618 -38.44165 -38.44164
 Alpha  occ. eigenvalues --  -38.43887 -38.43878  -2.21699  -2.21523  -2.20691
 Alpha  occ. eigenvalues --   -2.20452  -2.20433  -2.20254  -2.20212  -1.15663
 Alpha  occ. eigenvalues --   -1.15449  -1.15439  -1.15403  -1.15259  -1.15173
 Alpha  occ. eigenvalues --   -1.14563  -1.14363  -1.14334  -1.14294  -1.14274
 Alpha  occ. eigenvalues --   -1.14133  -1.14051  -1.14018  -1.14010  -1.13890
 Alpha  occ. eigenvalues --   -1.13792  -1.13779  -1.13721  -1.13662  -1.13591
 Alpha  occ. eigenvalues --   -0.22638  -0.14322  -0.13548  -0.12287
 Alpha virt. eigenvalues --   -0.05591  -0.04230  -0.04100  -0.03653  -0.03115
 Alpha virt. eigenvalues --   -0.02908  -0.01032  -0.00348  -0.00180   0.00261
 Alpha virt. eigenvalues --    0.00833   0.01065   0.01107   0.01113   0.01140

  Beta  occ. eigenvalues --  -38.45285 -38.45057 -38.44614 -38.44135 -38.44134
  Beta  occ. eigenvalues --  -38.43844 -38.43834  -2.21581  -2.21357  -2.20686
  Beta  occ. eigenvalues --   -2.20403  -2.20385  -2.20184  -2.20143  -1.15597
  Beta  occ. eigenvalues --   -1.15326  -1.15323  -1.15321  -1.15154  -1.15056
  Beta  occ. eigenvalues --   -1.14542  -1.14352  -1.14304  -1.14258  -1.14249
  Beta  occ. eigenvalues --   -1.14088  -1.13987  -1.13938  -1.13934  -1.13861
  Beta  occ. eigenvalues --   -1.13706  -1.13697  -1.13685  -1.13618  -1.13531
  Beta  occ. eigenvalues --   -0.21747  -0.14055  -0.12012
  Beta virt. eigenvalues --   -0.08918  -0.05538  -0.03643  -0.03478  -0.03396
  Beta virt. eigenvalues --   -0.02320  -0.02104  -0.00994  -0.00174  -0.00096
  Beta virt. eigenvalues --    0.00300   0.00922   0.01124   0.01132   0.01158

 Mulliken charges and spin densities:
               1          2
     1  Na  -0.668017   0.287191
     2  Na  -0.666639   0.287950
     3  Na   0.982286  -0.022303
     4  Na  -0.226509   0.182361
     5  Na   0.096744   0.094115
     6  Na   0.385369   0.076906
     7  Na   0.096767   0.093779
 Sum of Mulliken charges =  -0.00000   1.00000

 Dipole moment (field-independent basis, Debye):
    X=              0.4256    Y=              0.0023    Z=              0.1521  Tot=              0.4520
 Quadrupole moment (field-independent basis, Debye-Ang):
   XX=            -59.3424   YY=            -76.2425   ZZ=            -63.7238
   XY=             -0.0016   XZ=             -0.1946   YZ=              0.0061

 Normal termination of Gaussian 16 at Thu Dec  7 05:45:23 2023.
