 Gaussian 16, Revision B.01,
 Gaussian 16:  ES64L-G16RevB.01 20-Dec-2017

 -------------------------
 #P B3LYP/6-311+g(d) force
 -------------------------

 -----
 DPGEN
 -----
 Symbolic Z-matrix:
 Charge =  0 Multiplicity = 2

                         Standard orientation:
 ---------------------------------------------------------------------
 Center     Atomic      Atomic             Coordinates (Angstroms)
 Number     Number       Type             X           Y           Z
 ---------------------------------------------------------------------
      1         11           0        3.325490    0.850422    1.210345
      2         11           0       -0.703278   -1.369292   -1.575610
      3         11           0        1.228652    1.360419   -1.225642
      4         11           0       -3.750552   -0.923818    0.578987
      5         11           0       -0.524778   -0.519097    1.870583
      6         11           0        2.570528   -1.676892   -0.491198
      7         11           0       -2.146062    2.278259   -0.367466
 ---------------------------------------------------------------------

 SCF Done:  E(UB3LYP) =  -1136.12134632     A.U. after   26 cycles

 The electronic state is 2-A.
 Alpha  occ. eigenvalues --  -38.45189 -38.45011 -38.44639 -38.43877 -38.43766
 Alpha  occ. eigenvalues --  -38.42999 -38.42916  -2.20995  -2.20803  -2.20505
 Alpha  occ. eigenvalues --   -2.19758  -2.19651  -2.18830  -2.18790  -1.14687
 Alpha  occ. eigenvalues --   -1.14639  -1.14621  -1.14478  -1.14445  -1.14432
 Alpha  occ. eigenvalues --   -1.14176  -1.14145  -1.14139  -1.13442  -1.13418
 Alpha  occ. eigenvalues --   -1.13403  -1.13343  -1.13281  -1.13259  -1.12528
 Alpha  occ. eigenvalues --   -1.12503  -1.12472  -1.12466  -1.12441  -1.12420
 Alpha  occ. eigenvalues --   -0.18364  -0.14238  -0.11509  -0.10680
 Alpha virt. eigenvalues --   -0.06893  -0.05341  -0.04806  -0.03172  -0.02702
 Alpha virt. eigenvalues --   -0.02527  -0.02395  -0.01036  -0.00925  -0.00266
 Alpha virt. eigenvalues --    0.00121   0.00233   0.00251   0.00564   0.00661

  Beta  occ. eigenvalues --  -38.45155 -38.44999 -38.44591 -38.43863 -38.43697
  Beta  occ. eigenvalues --  -38.43003 -38.42886  -2.20930  -2.20780  -2.20414
  Beta  occ. eigenvalues --   -2.19738  -2.19529  -2.18800  -2.18778  -1.14638
  Beta  occ. eigenvalues --   -1.14597  -1.14571  -1.14455  -1.14433  -1.14418
  Beta  occ. eigenvalues --   -1.14122  -1.14083  -1.14071  -1.13420  -1.13395
  Beta  occ. eigenvalues --   -1.13369  -1.13264  -1.13187  -1.13166  -1.12491
  Beta  occ. eigenvalues --   -1.12476  -1.12461  -1.12442  -1.12435  -1.12401
  Beta  occ. eigenvalues --   -0.17614  -0.13944  -0.10467
  Beta virt. eigenvalues --   -0.07692  -0.06633  -0.05323  -0.04137  -0.02868
  Beta virt. eigenvalues --   -0.02494  -0.01950  -0.01703  -0.01014  -0.00562
  Beta virt. eigenvalues --   -0.00203   0.00182   0.00245   0.00355   0.00675

 Mulliken charges and spin densities:
               1          2
     1  Na   0.510991   0.236247
     2  Na  -0.160383   0.234982
     3  Na  -0.356765   0.184302
     4  Na   0.598888   0.102815
     5  Na  -0.540031   0.264473
     6  Na   0.223942   0.089792
     7  Na  -0.276643  -0.112612
 Sum of Mulliken charges =  -0.00000   1.00000

 Dipole moment (field-independent basis, Debye):
    X=             -0.3665    Y=             -0.6132    Z=              0.7166  Tot=              1.0119
 Quadrupole moment (field-independent basis, Debye-Ang):
   XX=            -48.1511   YY=            -79.1408   ZZ=            -67.8936
   XY=              1.0825   XZ=              1.5425   YZ=              3.2977

 Normal termination of Gaussian 16 at Tue Dec  5 15:56:22 2023.
