 Gaussian 16, Revision B.01,
 Gaussian 16:  ES64L-G16RevB.01 20-Dec-2017

 -------------------------
 #P B3LYP/6-311+g(d) force
 -------------------------

 -----
 DPGEN
 -----
 Symbolic Z-matrix:
 Charge =  0 Multiplicity = 2

                         Standard orientation:
 ---------------------------------------------------------------------
 Center     Atomic      Atomic             Coordinates (Angstroms)
 Number     Number       Type             X           Y           Z
 ---------------------------------------------------------------------
      1         11           0       -2.389432    0.620212   -1.089675
      2         11           0       -0.019730    0.510689    1.856011
      3         11           0        3.742206   -1.116448    0.040355
      4         11           0       -0.157315    3.255352    0.731461
      5         11           0        0.582143   -2.018425   -0.221781
      6         11           0       -2.590144   -2.454005    0.402741
      7         11           0        0.832272    1.202625   -1.719110
 ---------------------------------------------------------------------

 SCF Done:  E(UB3LYP) =  -1136.12988733     A.U. after   20 cycles

 The electronic state is 2-A.
 Alpha  occ. eigenvalues --  -38.44097 -38.44087 -38.43987 -38.43831 -38.43738
 Alpha  occ. eigenvalues --  -38.43546 -38.43079  -2.20018  -2.19942  -2.19762
 Alpha  occ. eigenvalues --   -2.19722  -2.19618  -2.19371  -2.18996  -1.13741
 Alpha  occ. eigenvalues --   -1.13683  -1.13646  -1.13626  -1.13598  -1.13551
 Alpha  occ. eigenvalues --   -1.13438  -1.13425  -1.13415  -1.13398  -1.13380
 Alpha  occ. eigenvalues --   -1.13322  -1.13283  -1.13254  -1.13217  -1.13057
 Alpha  occ. eigenvalues --   -1.13023  -1.13012  -1.12712  -1.12681  -1.12583
 Alpha  occ. eigenvalues --   -0.18374  -0.12900  -0.12432  -0.11147
 Alpha virt. eigenvalues --   -0.05812  -0.05365  -0.04232  -0.03387  -0.02856
 Alpha virt. eigenvalues --   -0.02750  -0.01736  -0.01422  -0.00398  -0.00194
 Alpha virt. eigenvalues --    0.00212   0.00250   0.00653   0.00740   0.00882

  Beta  occ. eigenvalues --  -38.44048 -38.44017 -38.43993 -38.43769 -38.43717
  Beta  occ. eigenvalues --  -38.43546 -38.43070  -2.19876  -2.19871  -2.19774
  Beta  occ. eigenvalues --   -2.19610  -2.19584  -2.19373  -2.18983  -1.13643
  Beta  occ. eigenvalues --   -1.13592  -1.13573  -1.13547  -1.13520  -1.13507
  Beta  occ. eigenvalues --   -1.13447  -1.13428  -1.13405  -1.13337  -1.13312
  Beta  occ. eigenvalues --   -1.13239  -1.13233  -1.13228  -1.13179  -1.13059
  Beta  occ. eigenvalues --   -1.13018  -1.13013  -1.12704  -1.12647  -1.12579
  Beta  occ. eigenvalues --   -0.17638  -0.12629  -0.12336
  Beta virt. eigenvalues --   -0.07133  -0.05687  -0.05223  -0.04163  -0.02679
  Beta virt. eigenvalues --   -0.02343  -0.01888  -0.01581  -0.01281  -0.00231
  Beta virt. eigenvalues --   -0.00110   0.00274   0.00312   0.00745   0.00822

 Mulliken charges and spin densities:
               1          2
     1  Na  -0.245141   0.112159
     2  Na   0.085824   0.610371
     3  Na   0.045564  -0.110412
     4  Na  -0.154819  -0.164636
     5  Na  -0.725477   0.065923
     6  Na   0.683201  -0.001867
     7  Na   0.310849   0.488462
 Sum of Mulliken charges =  -0.00000   1.00000

 Dipole moment (field-independent basis, Debye):
    X=              0.0348    Y=              0.4377    Z=              0.0351  Tot=              0.4404
 Quadrupole moment (field-independent basis, Debye-Ang):
   XX=            -58.3176   YY=            -63.2120   ZZ=            -72.1308
   XY=              1.3455   XZ=              0.2854   YZ=             -1.4052

 Normal termination of Gaussian 16 at Fri Dec  8 07:13:42 2023.
