 Gaussian 16, Revision B.01,
 Gaussian 16:  ES64L-G16RevB.01 20-Dec-2017

 -------------------------
 #P B3LYP/6-311+g(d) force
 -------------------------

 -----
 DPGEN
 -----
 Symbolic Z-matrix:
 Charge =  0 Multiplicity = 2

                         Standard orientation:
 ---------------------------------------------------------------------
 Center     Atomic      Atomic             Coordinates (Angstroms)
 Number     Number       Type             X           Y           Z
 ---------------------------------------------------------------------
      1         11           0       -0.100413    0.168131   -1.713490
      2         11           0       -3.341031   -0.002310   -0.083320
      3         11           0        2.950824   -1.393492   -0.280570
      4         11           0        0.555647   -0.676035    1.915429
      5         11           0       -1.220914   -2.292459   -0.165116
      6         11           0        2.333772    1.890976   -0.143284
      7         11           0       -1.177886    2.305189    0.470350
 ---------------------------------------------------------------------

 SCF Done:  E(UB3LYP) =  -1136.13110145     A.U. after   21 cycles

 The electronic state is 2-A.
 Alpha  occ. eigenvalues --  -38.44675 -38.44429 -38.43703 -38.43487 -38.43434
 Alpha  occ. eigenvalues --  -38.43150 -38.42885  -2.20540  -2.20261  -2.19562
 Alpha  occ. eigenvalues --   -2.19470  -2.19357  -2.19078  -2.18775  -1.14217
 Alpha  occ. eigenvalues --   -1.14201  -1.14187  -1.13939  -1.13921  -1.13901
 Alpha  occ. eigenvalues --   -1.13256  -1.13224  -1.13199  -1.13180  -1.13125
 Alpha  occ. eigenvalues --   -1.13072  -1.13049  -1.12987  -1.12975  -1.12756
 Alpha  occ. eigenvalues --   -1.12731  -1.12693  -1.12461  -1.12427  -1.12410
 Alpha  occ. eigenvalues --   -0.18978  -0.13763  -0.11953  -0.10805
 Alpha virt. eigenvalues --   -0.06333  -0.05294  -0.03823  -0.03545  -0.02784
 Alpha virt. eigenvalues --   -0.02379  -0.02037  -0.01092  -0.00247  -0.00057
 Alpha virt. eigenvalues --    0.00037   0.00316   0.00714   0.00818   0.00887

  Beta  occ. eigenvalues --  -38.44675 -38.44424 -38.43698 -38.43419 -38.43352
  Beta  occ. eigenvalues --  -38.43139 -38.42872  -2.20542  -2.20256  -2.19555
  Beta  occ. eigenvalues --   -2.19346  -2.19206  -2.19062  -2.18753  -1.14220
  Beta  occ. eigenvalues --   -1.14203  -1.14171  -1.13933  -1.13901  -1.13898
  Beta  occ. eigenvalues --   -1.13242  -1.13204  -1.13193  -1.13100  -1.13038
  Beta  occ. eigenvalues --   -1.12984  -1.12953  -1.12883  -1.12864  -1.12740
  Beta  occ. eigenvalues --   -1.12695  -1.12670  -1.12448  -1.12400  -1.12388
  Beta  occ. eigenvalues --   -0.18247  -0.13527  -0.11708
  Beta virt. eigenvalues --   -0.06899  -0.06244  -0.05297  -0.03763  -0.02781
  Beta virt. eigenvalues --   -0.02038  -0.01910  -0.01360  -0.01045  -0.00273
  Beta virt. eigenvalues --    0.00010   0.00113   0.00344   0.00788   0.00859

 Mulliken charges and spin densities:
               1          2
     1  Na  -0.536361   0.472531
     2  Na   0.003475  -0.015007
     3  Na   0.310292  -0.093389
     4  Na  -0.551055   0.593794
     5  Na   0.542677  -0.052627
     6  Na   0.088447   0.021628
     7  Na   0.142526   0.073070
 Sum of Mulliken charges =  -0.00000   1.00000

 Dipole moment (field-independent basis, Debye):
    X=              0.1674    Y=             -0.1369    Z=             -0.0091  Tot=              0.2164
 Quadrupole moment (field-independent basis, Debye-Ang):
   XX=            -50.0655   YY=            -69.6355   ZZ=            -73.6480
   XY=             -0.4825   XZ=             -1.1008   YZ=              1.5817

 Normal termination of Gaussian 16 at Thu Dec  7 14:25:59 2023.
