 Gaussian 16, Revision B.01,
 Gaussian 16:  ES64L-G16RevB.01 20-Dec-2017

 -------------------------
 #P B3LYP/6-311+g(d) force
 -------------------------

 -----
 DPGEN
 -----
 Symbolic Z-matrix:
 Charge =  0 Multiplicity = 2

                         Standard orientation:
 ---------------------------------------------------------------------
 Center     Atomic      Atomic             Coordinates (Angstroms)
 Number     Number       Type             X           Y           Z
 ---------------------------------------------------------------------
      1         11           0       -3.015053   -1.189990    0.112590
      2         11           0        2.880548   -1.046519   -0.210425
      3         11           0        1.991833    2.104960    0.014044
      4         11           0       -0.006796    0.187307    1.919399
      5         11           0       -0.471948    0.219312   -1.736255
      6         11           0       -1.668487    2.339444   -0.071516
      7         11           0        0.289903   -2.614514   -0.027836
 ---------------------------------------------------------------------

 SCF Done:  E(UB3LYP) =  -1136.13558121     A.U. after   19 cycles

 The electronic state is 2-A.
 Alpha  occ. eigenvalues --  -38.44161 -38.43732 -38.43673 -38.43553 -38.43394
 Alpha  occ. eigenvalues --  -38.43324 -38.43111  -2.19978  -2.19612  -2.19571
 Alpha  occ. eigenvalues --   -2.19422  -2.19338  -2.19315  -2.19020  -1.13652
 Alpha  occ. eigenvalues --   -1.13633  -1.13622  -1.13368  -1.13329  -1.13278
 Alpha  occ. eigenvalues --   -1.13255  -1.13240  -1.13169  -1.13110  -1.13089
 Alpha  occ. eigenvalues --   -1.13046  -1.13012  -1.12971  -1.12966  -1.12944
 Alpha  occ. eigenvalues --   -1.12941  -1.12909  -1.12698  -1.12676  -1.12644
 Alpha  occ. eigenvalues --   -0.19049  -0.13192  -0.12555  -0.10827
 Alpha virt. eigenvalues --   -0.05693  -0.05244  -0.04368  -0.03245  -0.02914
 Alpha virt. eigenvalues --   -0.02529  -0.01601  -0.01071  -0.00223  -0.00069
 Alpha virt. eigenvalues --   -0.00011   0.00352   0.00826   0.00882   0.00957

  Beta  occ. eigenvalues --  -38.44159 -38.43729 -38.43663 -38.43548 -38.43305
  Beta  occ. eigenvalues --  -38.43252 -38.43104  -2.19976  -2.19609  -2.19559
  Beta  occ. eigenvalues --   -2.19417  -2.19184  -2.19173  -2.19011  -1.13640
  Beta  occ. eigenvalues --   -1.13626  -1.13622  -1.13341  -1.13331  -1.13278
  Beta  occ. eigenvalues --   -1.13232  -1.13202  -1.13165  -1.13097  -1.13060
  Beta  occ. eigenvalues --   -1.13046  -1.12913  -1.12878  -1.12855  -1.12851
  Beta  occ. eigenvalues --   -1.12828  -1.12815  -1.12692  -1.12645  -1.12635
  Beta  occ. eigenvalues --   -0.18307  -0.12955  -0.12289
  Beta virt. eigenvalues --   -0.06897  -0.05675  -0.05201  -0.04366  -0.02444
  Beta virt. eigenvalues --   -0.02100  -0.01525  -0.01458  -0.01014  -0.00286
  Beta virt. eigenvalues --   -0.00111   0.00122   0.00377   0.00873   0.00883

 Mulliken charges and spin densities:
               1          2
     1  Na   0.159256  -0.102132
     2  Na  -0.096869  -0.039077
     3  Na   0.327216  -0.044166
     4  Na  -0.506159   0.743466
     5  Na  -0.431151   0.631039
     6  Na   0.365214  -0.151597
     7  Na   0.182493  -0.037534
 Sum of Mulliken charges =  -0.00000   1.00000

 Dipole moment (field-independent basis, Debye):
    X=             -0.3382    Y=              0.1313    Z=              0.1039  Tot=              0.3774
 Quadrupole moment (field-independent basis, Debye-Ang):
   XX=            -55.3429   YY=            -64.4238   ZZ=            -73.9963
   XY=              0.8911   XZ=             -1.1691   YZ=              0.0626

 Normal termination of Gaussian 16 at Thu Dec  7 01:42:13 2023.
