 Gaussian 16, Revision B.01,
 Gaussian 16:  ES64L-G16RevB.01 20-Dec-2017

 -------------------------
 #P B3LYP/6-311+g(d) force
 -------------------------

 -----
 DPGEN
 -----
 Symbolic Z-matrix:
 Charge =  0 Multiplicity = 2

                         Standard orientation:
 ---------------------------------------------------------------------
 Center     Atomic      Atomic             Coordinates (Angstroms)
 Number     Number       Type             X           Y           Z
 ---------------------------------------------------------------------
      1         11           0        0.936301    2.703893   -0.013572
      2         11           0       -2.622570    1.551827    0.114726
      3         11           0       -0.182509    0.345961   -1.621308
      4         11           0        1.233219   -2.558152   -0.281065
      5         11           0        3.231839    0.062294   -0.141534
      6         11           0        0.018989   -0.361618    2.240681
      7         11           0       -2.615268   -1.744205   -0.297929
 ---------------------------------------------------------------------

 SCF Done:  E(UB3LYP) =  -1136.13635803     A.U. after   19 cycles

 The electronic state is 2-A.
 Alpha  occ. eigenvalues --  -38.44245 -38.43947 -38.43898 -38.43868 -38.43306
 Alpha  occ. eigenvalues --  -38.43255 -38.43118  -2.20071  -2.19803  -2.19745
 Alpha  occ. eigenvalues --   -2.19695  -2.19293  -2.19104  -2.18983  -1.13744
 Alpha  occ. eigenvalues --   -1.13730  -1.13718  -1.13509  -1.13466  -1.13446
 Alpha  occ. eigenvalues --   -1.13399  -1.13372  -1.13369  -1.13365  -1.13342
 Alpha  occ. eigenvalues --   -1.13327  -1.13011  -1.12951  -1.12917  -1.12780
 Alpha  occ. eigenvalues --   -1.12769  -1.12737  -1.12661  -1.12634  -1.12600
 Alpha  occ. eigenvalues --   -0.18552  -0.13235  -0.12177  -0.10880
 Alpha virt. eigenvalues --   -0.05809  -0.05304  -0.04357  -0.03327  -0.02964
 Alpha virt. eigenvalues --   -0.02650  -0.01648  -0.01071  -0.00369  -0.00272
 Alpha virt. eigenvalues --   -0.00050   0.00351   0.00748   0.00881   0.00902

  Beta  occ. eigenvalues --  -38.44243 -38.43943 -38.43863 -38.43793 -38.43251
  Beta  occ. eigenvalues --  -38.43249 -38.43114  -2.20070  -2.19798  -2.19689
  Beta  occ. eigenvalues --   -2.19551  -2.19194  -2.19095  -2.18979  -1.13739
  Beta  occ. eigenvalues --   -1.13723  -1.13716  -1.13504  -1.13453  -1.13435
  Beta  occ. eigenvalues --   -1.13352  -1.13335  -1.13325  -1.13270  -1.13233
  Beta  occ. eigenvalues --   -1.13228  -1.12944  -1.12885  -1.12846  -1.12772
  Beta  occ. eigenvalues --   -1.12738  -1.12735  -1.12647  -1.12613  -1.12599
  Beta  occ. eigenvalues --   -0.17829  -0.13035  -0.11960
  Beta virt. eigenvalues --   -0.06915  -0.05749  -0.05314  -0.04303  -0.02552
  Beta virt. eigenvalues --   -0.02129  -0.01626  -0.01556  -0.01010  -0.00415
  Beta virt. eigenvalues --   -0.00317   0.00119   0.00382   0.00828   0.00875

 Mulliken charges and spin densities:
               1          2
     1  Na   0.223467   0.014312
     2  Na   0.235047   0.041940
     3  Na  -0.226092   0.296160
     4  Na   0.156065  -0.030920
     5  Na   0.117860  -0.022922
     6  Na  -0.662475   0.746352
     7  Na   0.156128  -0.044922
 Sum of Mulliken charges =  -0.00000   1.00000

 Dipole moment (field-independent basis, Debye):
    X=             -0.0696    Y=             -0.0366    Z=              0.1887  Tot=              0.2044
 Quadrupole moment (field-independent basis, Debye-Ang):
   XX=            -55.0146   YY=            -65.5083   ZZ=            -73.6203
   XY=              0.3933   XZ=             -0.3511   YZ=              1.6834

 Normal termination of Gaussian 16 at Thu Dec  7 05:38:21 2023.
