 Gaussian 16, Revision B.01,
 Gaussian 16:  ES64L-G16RevB.01 20-Dec-2017

 -------------------------
 #P B3LYP/6-311+g(d) force
 -------------------------

 -----
 DPGEN
 -----
 Symbolic Z-matrix:
 Charge =  0 Multiplicity = 2

                         Standard orientation:
 ---------------------------------------------------------------------
 Center     Atomic      Atomic             Coordinates (Angstroms)
 Number     Number       Type             X           Y           Z
 ---------------------------------------------------------------------
      1         11           0        3.122041   -1.905523    0.587149
      2         11           0        1.219620    0.106571    1.871905
      3         11           0        2.622708    1.422180   -1.468853
      4         11           0       -1.999962    0.527190    2.164118
      5         11           0       -3.641062   -1.067929   -0.676599
      6         11           0       -0.695795    2.477384   -0.673745
      7         11           0       -0.627550   -1.559873   -1.803975
 ---------------------------------------------------------------------

 SCF Done:  E(UB3LYP) =  -1136.11898648     A.U. after   24 cycles

 The electronic state is 2-A.
 Alpha  occ. eigenvalues --  -38.45364 -38.44511 -38.44239 -38.43872 -38.43795
 Alpha  occ. eigenvalues --  -38.43719 -38.43616  -2.21152  -2.20301  -2.20062
 Alpha  occ. eigenvalues --   -2.19770  -2.19629  -2.19496  -2.19414  -1.14822
 Alpha  occ. eigenvalues --   -1.14804  -1.14761  -1.13983  -1.13952  -1.13928
 Alpha  occ. eigenvalues --   -1.13803  -1.13696  -1.13674  -1.13464  -1.13407
 Alpha  occ. eigenvalues --   -1.13402  -1.13299  -1.13259  -1.13248  -1.13185
 Alpha  occ. eigenvalues --   -1.13178  -1.13147  -1.13084  -1.13058  -1.13033
 Alpha  occ. eigenvalues --   -0.17484  -0.13386  -0.12276  -0.11210
 Alpha virt. eigenvalues --   -0.06082  -0.05519  -0.04774  -0.03618  -0.03106
 Alpha virt. eigenvalues --   -0.02660  -0.01869  -0.01101  -0.00949  -0.00246
 Alpha virt. eigenvalues --    0.00090   0.00153   0.00295   0.00346   0.00551

  Beta  occ. eigenvalues --  -38.45304 -38.44478 -38.44205 -38.43822 -38.43760
  Beta  occ. eigenvalues --  -38.43710 -38.43621  -2.21043  -2.20243  -2.20002
  Beta  occ. eigenvalues --   -2.19680  -2.19564  -2.19479  -2.19424  -1.14743
  Beta  occ. eigenvalues --   -1.14731  -1.14676  -1.13941  -1.13914  -1.13872
  Beta  occ. eigenvalues --   -1.13747  -1.13657  -1.13635  -1.13402  -1.13344
  Beta  occ. eigenvalues --   -1.13331  -1.13245  -1.13218  -1.13206  -1.13177
  Beta  occ. eigenvalues --   -1.13159  -1.13141  -1.13088  -1.13065  -1.13034
  Beta  occ. eigenvalues --   -0.16756  -0.13158  -0.10999
  Beta virt. eigenvalues --   -0.08327  -0.05882  -0.04969  -0.04552  -0.03161
  Beta virt. eigenvalues --   -0.02586  -0.02189  -0.01782  -0.00841  -0.00624
  Beta virt. eigenvalues --   -0.00055   0.00188   0.00233   0.00393   0.00412

 Mulliken charges and spin densities:
               1          2
     1  Na   0.655958  -0.000908
     2  Na  -0.681921   0.416309
     3  Na   0.109446   0.265265
     4  Na   0.306882   0.120606
     5  Na   0.135622  -0.099319
     6  Na  -0.038446   0.175496
     7  Na  -0.487541   0.122551
 Sum of Mulliken charges =  -0.00000   1.00000

 Dipole moment (field-independent basis, Debye):
    X=              0.6867    Y=              0.5694    Z=             -0.2481  Tot=              0.9260
 Quadrupole moment (field-independent basis, Debye-Ang):
   XX=            -55.8786   YY=            -72.0233   ZZ=            -69.9851
   XY=             -2.6879   XZ=             -5.0269   YZ=             -6.7442

 Normal termination of Gaussian 16 at Sun Dec  3 13:55:14 2023.
