 Gaussian 16, Revision B.01,
 Gaussian 16:  ES64L-G16RevB.01 20-Dec-2017

 -------------------------
 #P B3LYP/6-311+g(d) force
 -------------------------

 -----
 DPGEN
 -----
 Symbolic Z-matrix:
 Charge =  0 Multiplicity = 2

                         Standard orientation:
 ---------------------------------------------------------------------
 Center     Atomic      Atomic             Coordinates (Angstroms)
 Number     Number       Type             X           Y           Z
 ---------------------------------------------------------------------
      1         11           0       -0.150099   -2.720491    0.190083
      2         11           0        2.782822   -1.287155   -0.224752
      3         11           0        0.182632    0.446174    1.984248
      4         11           0       -2.095053    2.753399   -0.152004
      5         11           0       -0.345326   -0.181928   -1.483442
      6         11           0       -2.944688   -1.134080   -0.048617
      7         11           0        2.569713    2.124080   -0.265516
 ---------------------------------------------------------------------

 SCF Done:  E(UB3LYP) =  -1136.13036233     A.U. after   21 cycles

 The electronic state is 2-A.
 Alpha  occ. eigenvalues --  -38.44397 -38.44314 -38.44236 -38.43804 -38.43300
 Alpha  occ. eigenvalues --  -38.43225 -38.43034  -2.20182  -2.20172  -2.19993
 Alpha  occ. eigenvalues --   -2.19661  -2.19220  -2.19173  -2.18974  -1.13886
 Alpha  occ. eigenvalues --   -1.13853  -1.13839  -1.13831  -1.13827  -1.13792
 Alpha  occ. eigenvalues --   -1.13671  -1.13644  -1.13638  -1.13340  -1.13324
 Alpha  occ. eigenvalues --   -1.13301  -1.12968  -1.12874  -1.12844  -1.12838
 Alpha  occ. eigenvalues --   -1.12796  -1.12787  -1.12636  -1.12615  -1.12603
 Alpha  occ. eigenvalues --   -0.18513  -0.13155  -0.12294  -0.10316
 Alpha virt. eigenvalues --   -0.06204  -0.05434  -0.04571  -0.03093  -0.02789
 Alpha virt. eigenvalues --   -0.02161  -0.01702  -0.01456  -0.00765  -0.00342
 Alpha virt. eigenvalues --    0.00007   0.00325   0.00701   0.00802   0.00884

  Beta  occ. eigenvalues --  -38.44392 -38.44309 -38.44237 -38.43796 -38.43205
  Beta  occ. eigenvalues --  -38.43173 -38.43023  -2.20176  -2.20167  -2.19996
  Beta  occ. eigenvalues --   -2.19650  -2.19127  -2.18999  -2.18959  -1.13880
  Beta  occ. eigenvalues --   -1.13839  -1.13833  -1.13822  -1.13808  -1.13790
  Beta  occ. eigenvalues --   -1.13663  -1.13645  -1.13642  -1.13335  -1.13300
  Beta  occ. eigenvalues --   -1.13288  -1.12907  -1.12799  -1.12775  -1.12729
  Beta  occ. eigenvalues --   -1.12672  -1.12663  -1.12618  -1.12608  -1.12556
  Beta  occ. eigenvalues --   -0.17797  -0.12916  -0.12093
  Beta virt. eigenvalues --   -0.06438  -0.06202  -0.05333  -0.04554  -0.02347
  Beta virt. eigenvalues --   -0.02045  -0.01611  -0.01450  -0.01116  -0.00796
  Beta virt. eigenvalues --   -0.00371   0.00161   0.00371   0.00723   0.00854

 Mulliken charges and spin densities:
               1          2
     1  Na   0.335654   0.171392
     2  Na   0.184707   0.077320
     3  Na  -0.526396   0.634054
     4  Na  -0.057715  -0.123806
     5  Na  -0.400887   0.289062
     6  Na   0.407355   0.014380
     7  Na   0.057282  -0.062403
 Sum of Mulliken charges =  -0.00000   1.00000

 Dipole moment (field-independent basis, Debye):
    X=             -0.1205    Y=              0.4546    Z=              0.0801  Tot=              0.4771
 Quadrupole moment (field-independent basis, Debye-Ang):
   XX=            -54.9248   YY=            -60.5379   ZZ=            -76.6606
   XY=              0.5980   XZ=             -1.1166   YZ=             -1.4045

 Normal termination of Gaussian 16 at Thu Dec  7 15:59:56 2023.
