 Gaussian 16, Revision B.01,
 Gaussian 16:  ES64L-G16RevB.01 20-Dec-2017

 -------------------------
 #P B3LYP/6-311+g(d) force
 -------------------------

 -----
 DPGEN
 -----
 Symbolic Z-matrix:
 Charge =  0 Multiplicity = 2

                         Standard orientation:
 ---------------------------------------------------------------------
 Center     Atomic      Atomic             Coordinates (Angstroms)
 Number     Number       Type             X           Y           Z
 ---------------------------------------------------------------------
      1         11           0       -1.367793   -2.004574   -0.315281
      2         11           0       -4.556886   -2.149583    0.563246
      3         11           0       -3.218469    0.521396   -0.392569
      4         11           0       -1.503026    3.664544    0.245997
      5         11           0        0.309186    1.199665   -0.173995
      6         11           0        3.690792   -0.833145   -0.275070
      7         11           0        6.646196   -0.398304    0.347673
 ---------------------------------------------------------------------

 SCF Done:  E(UB3LYP) =  -1136.12005372     A.U. after   20 cycles

 The electronic state is 2-A.
 Alpha  occ. eigenvalues --  -38.44649 -38.44537 -38.44476 -38.43839 -38.43793
 Alpha  occ. eigenvalues --  -38.43733 -38.43362  -2.20529  -2.20453  -2.20329
 Alpha  occ. eigenvalues --   -2.19679  -2.19609  -2.19606  -2.19160  -1.14294
 Alpha  occ. eigenvalues --   -1.14199  -1.14158  -1.14147  -1.14113  -1.14072
 Alpha  occ. eigenvalues --   -1.13974  -1.13963  -1.13919  -1.13410  -1.13327
 Alpha  occ. eigenvalues --   -1.13315  -1.13289  -1.13282  -1.13280  -1.13243
 Alpha  occ. eigenvalues --   -1.13242  -1.13178  -1.12833  -1.12831  -1.12799
 Alpha  occ. eigenvalues --   -0.17394  -0.13650  -0.12855  -0.11000
 Alpha virt. eigenvalues --   -0.06100  -0.05467  -0.04376  -0.04196  -0.02537
 Alpha virt. eigenvalues --   -0.02265  -0.02007  -0.01747  -0.01352  -0.00673
 Alpha virt. eigenvalues --   -0.00349  -0.00045   0.00140   0.00385   0.00727

  Beta  occ. eigenvalues --  -38.44600 -38.44514 -38.44455 -38.43812 -38.43743
  Beta  occ. eigenvalues --  -38.43705 -38.43370  -2.20440  -2.20413  -2.20291
  Beta  occ. eigenvalues --   -2.19628  -2.19561  -2.19514  -2.19180  -1.14243
  Beta  occ. eigenvalues --   -1.14146  -1.14121  -1.14079  -1.14077  -1.14019
  Beta  occ. eigenvalues --   -1.13948  -1.13926  -1.13894  -1.13373  -1.13293
  Beta  occ. eigenvalues --   -1.13277  -1.13254  -1.13243  -1.13232  -1.13180
  Beta  occ. eigenvalues --   -1.13179  -1.13126  -1.12852  -1.12850  -1.12771
  Beta  occ. eigenvalues --   -0.16760  -0.13339  -0.12407
  Beta virt. eigenvalues --   -0.07564  -0.05854  -0.04890  -0.04137  -0.03839
  Beta virt. eigenvalues --   -0.02400  -0.02063  -0.01614  -0.01519  -0.01176
  Beta virt. eigenvalues --   -0.00350  -0.00016   0.00149   0.00343   0.00455

 Mulliken charges and spin densities:
               1          2
     1  Na  -0.829601  -0.054097
     2  Na   1.044533   0.204373
     3  Na  -0.331583   0.394574
     4  Na   1.791525   0.371489
     5  Na  -1.811550   0.056820
     6  Na  -0.610241  -0.192746
     7  Na   0.746917   0.219587
 Sum of Mulliken charges =  -0.00000   1.00000

 Dipole moment (field-independent basis, Debye):
    X=             -2.2126    Y=             -0.2890    Z=              0.4008  Tot=              2.2672
 Quadrupole moment (field-independent basis, Debye-Ang):
   XX=            -59.3728   YY=            -61.9579   ZZ=            -72.2252
   XY=              5.9283   XZ=             -0.1294   YZ=             -0.1559

 Normal termination of Gaussian 16 at Tue Nov 28 23:23:51 2023.
