 Gaussian 16, Revision B.01,
 Gaussian 16:  ES64L-G16RevB.01 20-Dec-2017

 -------------------------
 #P B3LYP/6-311+g(d) force
 -------------------------

 -----
 DPGEN
 -----
 Symbolic Z-matrix:
 Charge =  0 Multiplicity = 2

                         Standard orientation:
 ---------------------------------------------------------------------
 Center     Atomic      Atomic             Coordinates (Angstroms)
 Number     Number       Type             X           Y           Z
 ---------------------------------------------------------------------
      1         11           0        0.112182   -0.082813    1.894622
      2         11           0        0.101711   -0.226128   -1.797566
      3         11           0        2.137603   -1.534594   -0.056044
      4         11           0        2.181839    1.416138   -0.023930
      5         11           0       -0.670817    2.194676   -0.035076
      6         11           0       -2.725951    0.197275   -0.087595
      7         11           0       -1.136566   -1.964554    0.105589
 ---------------------------------------------------------------------

 SCF Done:  E(UB3LYP) =  -1136.10406237     A.U. after   19 cycles

 The electronic state is 2-A.
 Alpha  occ. eigenvalues --  -38.44158 -38.43963 -38.43867 -38.43491 -38.43438
 Alpha  occ. eigenvalues --  -38.43424 -38.42940  -2.20204  -2.20081  -2.20027
 Alpha  occ. eigenvalues --   -2.19545  -2.19527  -2.19458  -2.19013  -1.14090
 Alpha  occ. eigenvalues --   -1.13930  -1.13836  -1.13813  -1.13765  -1.13741
 Alpha  occ. eigenvalues --   -1.13692  -1.13681  -1.13659  -1.13309  -1.13239
 Alpha  occ. eigenvalues --   -1.13168  -1.13161  -1.13143  -1.13125  -1.13101
 Alpha  occ. eigenvalues --   -1.13064  -1.12999  -1.12683  -1.12640  -1.12635
 Alpha  occ. eigenvalues --   -0.21037  -0.13905  -0.12658  -0.12039
 Alpha virt. eigenvalues --   -0.05336  -0.04542  -0.03929  -0.03777  -0.03061
 Alpha virt. eigenvalues --   -0.02926  -0.01194  -0.00558  -0.00090   0.00354
 Alpha virt. eigenvalues --    0.00618   0.00645   0.00967   0.01098   0.01115

  Beta  occ. eigenvalues --  -38.44151 -38.43867 -38.43777 -38.43483 -38.43428
  Beta  occ. eigenvalues --  -38.43408 -38.42928  -2.20196  -2.19906  -2.19866
  Beta  occ. eigenvalues --   -2.19523  -2.19516  -2.19446  -2.18998  -1.14085
  Beta  occ. eigenvalues --   -1.13921  -1.13761  -1.13741  -1.13665  -1.13626
  Beta  occ. eigenvalues --   -1.13580  -1.13562  -1.13545  -1.13303  -1.13231
  Beta  occ. eigenvalues --   -1.13145  -1.13118  -1.13107  -1.13067  -1.13064
  Beta  occ. eigenvalues --   -1.13043  -1.12997  -1.12677  -1.12633  -1.12579
  Beta  occ. eigenvalues --   -0.20207  -0.13552  -0.12320
  Beta virt. eigenvalues --   -0.07907  -0.05350  -0.04540  -0.03910  -0.02808
  Beta virt. eigenvalues --   -0.02168  -0.01836  -0.01111  -0.00520   0.00058
  Beta virt. eigenvalues --    0.00377   0.00579   0.00622   0.01015   0.01094

 Mulliken charges and spin densities:
               1          2
     1  Na  -0.296263   0.487499
     2  Na  -0.212969   0.443687
     3  Na   0.170285  -0.012641
     4  Na   0.064031   0.004132
     5  Na   0.112279   0.057695
     6  Na  -0.044439  -0.044904
     7  Na   0.207076   0.064533
 Sum of Mulliken charges =  -0.00000   1.00000

 Dipole moment (field-independent basis, Debye):
    X=              0.1466    Y=             -0.0003    Z=              0.0787  Tot=              0.1664
 Quadrupole moment (field-independent basis, Debye-Ang):
   XX=            -58.7851   YY=            -69.6636   ZZ=            -68.8455
   XY=             -0.5053   XZ=              0.1053   YZ=             -0.2478

 Normal termination of Gaussian 16 at Sat Dec  9 06:31:34 2023.
