 Gaussian 16, Revision B.01,
 Gaussian 16:  ES64L-G16RevB.01 20-Dec-2017

 -------------------------
 #P B3LYP/6-311+g(d) force
 -------------------------

 -----
 DPGEN
 -----
 Symbolic Z-matrix:
 Charge =  0 Multiplicity = 2

                         Standard orientation:
 ---------------------------------------------------------------------
 Center     Atomic      Atomic             Coordinates (Angstroms)
 Number     Number       Type             X           Y           Z
 ---------------------------------------------------------------------
      1         11           0       -1.856564   -2.650852   -0.557531
      2         11           0       -0.427455   -0.026340    2.582794
      3         11           0       -2.892515    0.687383   -0.057272
      4         11           0        2.664630   -1.956594   -0.041761
      5         11           0        2.642186    1.294520    0.029943
      6         11           0       -0.356992    3.002289   -0.649168
      7         11           0        0.226710   -0.350407   -1.307005
 ---------------------------------------------------------------------

 SCF Done:  E(UB3LYP) =  -1136.13170432     A.U. after   19 cycles

 The electronic state is 2-A.
 Alpha  occ. eigenvalues --  -38.44444 -38.44039 -38.44024 -38.43795 -38.43765
 Alpha  occ. eigenvalues --  -38.43078 -38.43018  -2.20253  -2.19873  -2.19861
 Alpha  occ. eigenvalues --   -2.19664  -2.19583  -2.19036  -2.18913  -1.13884
 Alpha  occ. eigenvalues --   -1.13876  -1.13873  -1.13574  -1.13540  -1.13534
 Alpha  occ. eigenvalues --   -1.13532  -1.13513  -1.13493  -1.13364  -1.13323
 Alpha  occ. eigenvalues --   -1.13282  -1.13278  -1.13229  -1.13211  -1.12725
 Alpha  occ. eigenvalues --   -1.12687  -1.12677  -1.12580  -1.12562  -1.12557
 Alpha  occ. eigenvalues --   -0.18194  -0.13153  -0.12146  -0.11066
 Alpha virt. eigenvalues --   -0.05732  -0.05230  -0.04637  -0.03400  -0.02951
 Alpha virt. eigenvalues --   -0.02670  -0.01481  -0.01228  -0.00525  -0.00360
 Alpha virt. eigenvalues --   -0.00073   0.00332   0.00733   0.00812   0.00874

  Beta  occ. eigenvalues --  -38.44318 -38.44040 -38.44021 -38.43792 -38.43756
  Beta  occ. eigenvalues --  -38.43069 -38.42984  -2.20019  -2.19876  -2.19858
  Beta  occ. eigenvalues --   -2.19661  -2.19567  -2.18974  -2.18897  -1.13726
  Beta  occ. eigenvalues --   -1.13715  -1.13711  -1.13575  -1.13539  -1.13528
  Beta  occ. eigenvalues --   -1.13514  -1.13506  -1.13496  -1.13360  -1.13307
  Beta  occ. eigenvalues --   -1.13280  -1.13264  -1.13212  -1.13203  -1.12675
  Beta  occ. eigenvalues --   -1.12643  -1.12634  -1.12558  -1.12551  -1.12545
  Beta  occ. eigenvalues --   -0.17555  -0.12984  -0.11944
  Beta virt. eigenvalues --   -0.06966  -0.05675  -0.05147  -0.04582  -0.02594
  Beta virt. eigenvalues --   -0.02045  -0.01851  -0.01407  -0.01155  -0.00555
  Beta virt. eigenvalues --   -0.00357   0.00140   0.00385   0.00806   0.00864

 Mulliken charges and spin densities:
               1          2
     1  Na   0.073234   0.093364
     2  Na  -0.607156   0.714121
     3  Na   0.257373   0.116384
     4  Na   0.058680   0.077209
     5  Na   0.194472   0.110539
     6  Na   0.023165   0.080198
     7  Na   0.000232  -0.191815
 Sum of Mulliken charges =  -0.00000   1.00000

 Dipole moment (field-independent basis, Debye):
    X=              0.0956    Y=             -0.3426    Z=              0.3027  Tot=              0.4670
 Quadrupole moment (field-independent basis, Debye-Ang):
   XX=            -58.2098   YY=            -62.5589   ZZ=            -73.9275
   XY=             -0.6186   XZ=              1.3161   YZ=             -0.5219

 Normal termination of Gaussian 16 at Fri Dec  8 05:33:36 2023.
