 Gaussian 16, Revision B.01,
 Gaussian 16:  ES64L-G16RevB.01 20-Dec-2017

 -------------------------
 #P B3LYP/6-311+g(d) force
 -------------------------

 -----
 DPGEN
 -----
 Symbolic Z-matrix:
 Charge =  0 Multiplicity = 2

                         Standard orientation:
 ---------------------------------------------------------------------
 Center     Atomic      Atomic             Coordinates (Angstroms)
 Number     Number       Type             X           Y           Z
 ---------------------------------------------------------------------
      1         11           0        1.731314   -1.571529   -1.787624
      2         11           0        0.051270   -0.584937    2.216342
      3         11           0        3.091262   -0.524103    0.841754
      4         11           0       -1.257146    2.861134    0.770730
      5         11           0       -3.565031    0.421729   -1.041232
      6         11           0       -1.923050   -2.793147    0.129811
      7         11           0        1.871380    2.190853   -1.129780
 ---------------------------------------------------------------------

 SCF Done:  E(UB3LYP) =  -1136.11678900     A.U. after   22 cycles

 The electronic state is 2-A.
 Alpha  occ. eigenvalues --  -38.45164 -38.44662 -38.44567 -38.44418 -38.44269
 Alpha  occ. eigenvalues --  -38.43880 -38.43498  -2.20896  -2.20475  -2.20423
 Alpha  occ. eigenvalues --   -2.20192  -2.20104  -2.19632  -2.19257  -1.14577
 Alpha  occ. eigenvalues --   -1.14540  -1.14527  -1.14212  -1.14135  -1.14105
 Alpha  occ. eigenvalues --   -1.14086  -1.14061  -1.14028  -1.13880  -1.13854
 Alpha  occ. eigenvalues --   -1.13809  -1.13757  -1.13735  -1.13724  -1.13313
 Alpha  occ. eigenvalues --   -1.13296  -1.13277  -1.12936  -1.12921  -1.12900
 Alpha  occ. eigenvalues --   -0.17103  -0.13129  -0.11751  -0.11176
 Alpha virt. eigenvalues --   -0.06544  -0.05909  -0.04249  -0.03754  -0.03269
 Alpha virt. eigenvalues --   -0.03031  -0.01536  -0.01061  -0.00773  -0.00587
 Alpha virt. eigenvalues --   -0.00159  -0.00035   0.00294   0.00375   0.00651

  Beta  occ. eigenvalues --  -38.45142 -38.44615 -38.44556 -38.44402 -38.44173
  Beta  occ. eigenvalues --  -38.43884 -38.43497  -2.20854  -2.20410  -2.20386
  Beta  occ. eigenvalues --   -2.20163  -2.19927  -2.19643  -2.19257  -1.14546
  Beta  occ. eigenvalues --   -1.14513  -1.14498  -1.14175  -1.14086  -1.14062
  Beta  occ. eigenvalues --   -1.14049  -1.14024  -1.13983  -1.13857  -1.13837
  Beta  occ. eigenvalues --   -1.13784  -1.13640  -1.13608  -1.13600  -1.13312
  Beta  occ. eigenvalues --   -1.13305  -1.13281  -1.12929  -1.12921  -1.12901
  Beta  occ. eigenvalues --   -0.16389  -0.12851  -0.11653
  Beta virt. eigenvalues --   -0.07501  -0.06321  -0.05625  -0.04025  -0.03252
  Beta virt. eigenvalues --   -0.02764  -0.02263  -0.01470  -0.00927  -0.00735
  Beta virt. eigenvalues --   -0.00482   0.00020   0.00200   0.00430   0.00474

 Mulliken charges and spin densities:
               1          2
     1  Na  -0.185845   0.326194
     2  Na   0.482969   0.456740
     3  Na   0.094979   0.030569
     4  Na  -0.359298   0.006181
     5  Na   0.107316   0.045600
     6  Na  -0.196471   0.074648
     7  Na   0.056351   0.060068
 Sum of Mulliken charges =  -0.00000   1.00000

 Dipole moment (field-independent basis, Debye):
    X=              0.3086    Y=             -0.2074    Z=             -0.6026  Tot=              0.7080
 Quadrupole moment (field-independent basis, Debye-Ang):
   XX=            -59.8421   YY=            -70.4848   ZZ=            -68.4153
   XY=             -0.1131   XZ=              2.3660   YZ=              0.6180

 Normal termination of Gaussian 16 at Sun Dec  3 23:06:04 2023.
