 Gaussian 16, Revision B.01,
 Gaussian 16:  ES64L-G16RevB.01 20-Dec-2017

 -------------------------
 #P B3LYP/6-311+g(d) force
 -------------------------

 -----
 DPGEN
 -----
 Symbolic Z-matrix:
 Charge =  0 Multiplicity = 2

                         Standard orientation:
 ---------------------------------------------------------------------
 Center     Atomic      Atomic             Coordinates (Angstroms)
 Number     Number       Type             X           Y           Z
 ---------------------------------------------------------------------
      1         11           0        2.620225    2.530137   -0.066897
      2         11           0        4.738159   -0.398886    0.246491
      3         11           0        2.130211   -2.554795   -0.470561
      4         11           0       -1.194918   -2.734219    0.754646
      5         11           0       -3.961487   -1.332597   -0.933474
      6         11           0       -3.359180    1.456038    0.976180
      7         11           0       -0.973011    3.034322   -0.506386
 ---------------------------------------------------------------------

 SCF Done:  E(UB3LYP) =  -1136.11106369     A.U. after   23 cycles

 The electronic state is 2-A.
 Alpha  occ. eigenvalues --  -38.45448 -38.45119 -38.44625 -38.44543 -38.44143
 Alpha  occ. eigenvalues --  -38.43758 -38.43408  -2.21188  -2.20916  -2.20423
 Alpha  occ. eigenvalues --   -2.20320  -2.19927  -2.19565  -2.19213  -1.14880
 Alpha  occ. eigenvalues --   -1.14862  -1.14806  -1.14600  -1.14588  -1.14550
 Alpha  occ. eigenvalues --   -1.14083  -1.14067  -1.14062  -1.14002  -1.13990
 Alpha  occ. eigenvalues --   -1.13948  -1.13605  -1.13596  -1.13545  -1.13219
 Alpha  occ. eigenvalues --   -1.13211  -1.13196  -1.12880  -1.12868  -1.12852
 Alpha  occ. eigenvalues --   -0.15826  -0.14065  -0.12933  -0.10385
 Alpha virt. eigenvalues --   -0.07503  -0.05367  -0.04090  -0.03566  -0.03016
 Alpha virt. eigenvalues --   -0.02863  -0.02288  -0.01758  -0.00836  -0.00607
 Alpha virt. eigenvalues --   -0.00437  -0.00175   0.00147   0.00321   0.00613

  Beta  occ. eigenvalues --  -38.45429 -38.45116 -38.44588 -38.44512 -38.44113
  Beta  occ. eigenvalues --  -38.43703 -38.43379  -2.21158  -2.20912  -2.20356
  Beta  occ. eigenvalues --   -2.20269  -2.19875  -2.19464  -2.19161  -1.14865
  Beta  occ. eigenvalues --   -1.14846  -1.14749  -1.14602  -1.14583  -1.14531
  Beta  occ. eigenvalues --   -1.14038  -1.14025  -1.14010  -1.13971  -1.13958
  Beta  occ. eigenvalues --   -1.13881  -1.13575  -1.13563  -1.13485  -1.13150
  Beta  occ. eigenvalues --   -1.13144  -1.13128  -1.12850  -1.12833  -1.12811
  Beta  occ. eigenvalues --   -0.15390  -0.13444  -0.12237
  Beta virt. eigenvalues --   -0.07663  -0.07128  -0.05062  -0.03581  -0.03328
  Beta virt. eigenvalues --   -0.02654  -0.02469  -0.02084  -0.01690  -0.00722
  Beta virt. eigenvalues --   -0.00462  -0.00099   0.00130   0.00164   0.00392

 Mulliken charges and spin densities:
               1          2
     1  Na   0.018069   0.133103
     2  Na   0.321874   0.271152
     3  Na  -0.262656   0.138338
     4  Na  -0.364037   0.065972
     5  Na   0.339625   0.213573
     6  Na   0.272997   0.099919
     7  Na  -0.325873   0.077943
 Sum of Mulliken charges =  -0.00000   1.00000

 Dipole moment (field-independent basis, Debye):
    X=             -0.6615    Y=             -0.0218    Z=             -0.0044  Tot=              0.6618
 Quadrupole moment (field-independent basis, Debye-Ang):
   XX=            -62.2006   YY=            -70.9400   ZZ=            -67.4960
   XY=              0.5576   XZ=             -0.1424   YZ=              2.1039

 Normal termination of Gaussian 16 at Sun Dec  3 22:42:44 2023.
