 Gaussian 16, Revision B.01,
 Gaussian 16:  ES64L-G16RevB.01 20-Dec-2017

 -------------------------
 #P B3LYP/6-311+g(d) force
 -------------------------

 -----
 DPGEN
 -----
 Symbolic Z-matrix:
 Charge =  0 Multiplicity = 2

                         Standard orientation:
 ---------------------------------------------------------------------
 Center     Atomic      Atomic             Coordinates (Angstroms)
 Number     Number       Type             X           Y           Z
 ---------------------------------------------------------------------
      1         11           0        2.974763   -1.043892    0.369113
      2         11           0       -0.070212   -2.667784   -1.006153
      3         11           0       -0.342641   -0.289219    1.998924
      4         11           0        0.205471    0.474303   -1.657822
      5         11           0        2.163818    2.123721    0.213925
      6         11           0       -2.935993   -0.983367    0.470224
      7         11           0       -1.995206    2.386239   -0.388210
 ---------------------------------------------------------------------

 SCF Done:  E(UB3LYP) =  -1136.13355623     A.U. after   19 cycles

 The electronic state is 2-A.
 Alpha  occ. eigenvalues --  -38.44055 -38.44025 -38.43996 -38.43761 -38.43603
 Alpha  occ. eigenvalues --  -38.43268 -38.43171  -2.19945  -2.19855  -2.19849
 Alpha  occ. eigenvalues --   -2.19612  -2.19428  -2.19252  -2.19027  -1.13690
 Alpha  occ. eigenvalues --   -1.13599  -1.13563  -1.13532  -1.13524  -1.13498
 Alpha  occ. eigenvalues --   -1.13494  -1.13474  -1.13470  -1.13320  -1.13269
 Alpha  occ. eigenvalues --   -1.13231  -1.13150  -1.13079  -1.13055  -1.12927
 Alpha  occ. eigenvalues --   -1.12905  -1.12866  -1.12706  -1.12659  -1.12647
 Alpha  occ. eigenvalues --   -0.18539  -0.13241  -0.12101  -0.11163
 Alpha virt. eigenvalues --   -0.05545  -0.05383  -0.04254  -0.03520  -0.03017
 Alpha virt. eigenvalues --   -0.02705  -0.01548  -0.01103  -0.00334  -0.00153
 Alpha virt. eigenvalues --    0.00052   0.00364   0.00778   0.00846   0.00918

  Beta  occ. eigenvalues --  -38.44019 -38.43984 -38.43978 -38.43757 -38.43597
  Beta  occ. eigenvalues --  -38.43201 -38.43137  -2.19848  -2.19833  -2.19802
  Beta  occ. eigenvalues --   -2.19607  -2.19419  -2.19131  -2.18967  -1.13622
  Beta  occ. eigenvalues --   -1.13531  -1.13516  -1.13497  -1.13484  -1.13476
  Beta  occ. eigenvalues --   -1.13465  -1.13453  -1.13416  -1.13312  -1.13257
  Beta  occ. eigenvalues --   -1.13223  -1.13130  -1.13068  -1.13048  -1.12848
  Beta  occ. eigenvalues --   -1.12814  -1.12786  -1.12650  -1.12617  -1.12605
  Beta  occ. eigenvalues --   -0.17836  -0.12971  -0.11823
  Beta virt. eigenvalues --   -0.07293  -0.05434  -0.05352  -0.04150  -0.02769
  Beta virt. eigenvalues --   -0.02348  -0.01708  -0.01431  -0.01048  -0.00284
  Beta virt. eigenvalues --   -0.00130   0.00128   0.00399   0.00829   0.00874

 Mulliken charges and spin densities:
               1          2
     1  Na   0.056245   0.048404
     2  Na  -0.025669   0.086532
     3  Na  -0.215466   0.500661
     4  Na   0.207693   0.350567
     5  Na  -0.094559   0.002197
     6  Na   0.185309   0.099010
     7  Na  -0.113553  -0.087371
 Sum of Mulliken charges =  -0.00000   1.00000

 Dipole moment (field-independent basis, Debye):
    X=              0.0516    Y=              0.0444    Z=              0.3598  Tot=              0.3662
 Quadrupole moment (field-independent basis, Debye-Ang):
   XX=            -56.5305   YY=            -65.4675   ZZ=            -72.4233
   XY=             -0.2967   XZ=              1.3081   YZ=              1.4076

 Normal termination of Gaussian 16 at Thu Dec  7 03:03:09 2023.
