 Gaussian 16, Revision B.01,
 Gaussian 16:  ES64L-G16RevB.01 20-Dec-2017

 -------------------------
 #P B3LYP/6-311+g(d) force
 -------------------------

 -----
 DPGEN
 -----
 Symbolic Z-matrix:
 Charge =  0 Multiplicity = 2

                         Standard orientation:
 ---------------------------------------------------------------------
 Center     Atomic      Atomic             Coordinates (Angstroms)
 Number     Number       Type             X           Y           Z
 ---------------------------------------------------------------------
      1         11           0        3.317722   -1.417008   -1.229346
      2         11           0        3.219815    1.674991    0.545117
      3         11           0       -3.076876   -1.864123   -0.406705
      4         11           0       -0.234172    0.141018    1.362677
      5         11           0       -0.346622    3.282640   -0.455899
      6         11           0        0.303143   -3.167364    0.521871
      7         11           0       -3.183010    1.349847   -0.337714
 ---------------------------------------------------------------------

 SCF Done:  E(UB3LYP) =  -1136.12198632     A.U. after   22 cycles

 The electronic state is 2-A.
 Alpha  occ. eigenvalues --  -38.44841 -38.44413 -38.44295 -38.44182 -38.44052
 Alpha  occ. eigenvalues --  -38.43780 -38.43554  -2.20594  -2.20199  -2.20109
 Alpha  occ. eigenvalues --   -2.19963  -2.19903  -2.19580  -2.19413  -1.14285
 Alpha  occ. eigenvalues --   -1.14259  -1.14230  -1.13877  -1.13855  -1.13835
 Alpha  occ. eigenvalues --   -1.13792  -1.13782  -1.13730  -1.13626  -1.13598
 Alpha  occ. eigenvalues --   -1.13596  -1.13592  -1.13560  -1.13515  -1.13248
 Alpha  occ. eigenvalues --   -1.13236  -1.13210  -1.13081  -1.13077  -1.13040
 Alpha  occ. eigenvalues --   -0.16952  -0.13585  -0.12774  -0.10013
 Alpha virt. eigenvalues --   -0.06918  -0.05926  -0.04225  -0.03515  -0.03039
 Alpha virt. eigenvalues --   -0.02208  -0.01773  -0.01476  -0.01244  -0.01126
 Alpha virt. eigenvalues --    0.00179   0.00232   0.00308   0.00503   0.00636

  Beta  occ. eigenvalues --  -38.44842 -38.44407 -38.44265 -38.44118 -38.44007
  Beta  occ. eigenvalues --  -38.43753 -38.43521  -2.20599  -2.20188  -2.20059
  Beta  occ. eigenvalues --   -2.19844  -2.19819  -2.19531  -2.19354  -1.14290
  Beta  occ. eigenvalues --   -1.14266  -1.14206  -1.13869  -1.13851  -1.13825
  Beta  occ. eigenvalues --   -1.13756  -1.13752  -1.13668  -1.13546  -1.13542
  Beta  occ. eigenvalues --   -1.13516  -1.13512  -1.13505  -1.13446  -1.13210
  Beta  occ. eigenvalues --   -1.13202  -1.13175  -1.13044  -1.13040  -1.12978
  Beta  occ. eigenvalues --   -0.16494  -0.12799  -0.12555
  Beta virt. eigenvalues --   -0.06866  -0.06617  -0.05783  -0.04029  -0.02992
  Beta virt. eigenvalues --   -0.02462  -0.02056  -0.01523  -0.01338  -0.01125
  Beta virt. eigenvalues --   -0.00756   0.00329   0.00365   0.00509   0.00577

 Mulliken charges and spin densities:
               1          2
     1  Na  -0.185797   0.349798
     2  Na   0.228554   0.066887
     3  Na   0.042622   0.119505
     4  Na  -0.343196   0.141486
     5  Na   0.077702  -0.001776
     6  Na   0.120770   0.082091
     7  Na   0.059345   0.242011
 Sum of Mulliken charges =  -0.00000   1.00000

 Dipole moment (field-independent basis, Debye):
    X=              0.1043    Y=              0.4305    Z=             -0.0427  Tot=              0.4450
 Quadrupole moment (field-independent basis, Debye-Ang):
   XX=            -72.0541   YY=            -57.3243   ZZ=            -70.7642
   XY=              2.8739   XZ=              1.8882   YZ=              1.0431

 Normal termination of Gaussian 16 at Mon Dec  4 05:24:28 2023.
