 Gaussian 16, Revision B.01,
 Gaussian 16:  ES64L-G16RevB.01 20-Dec-2017

 -------------------------
 #P B3LYP/6-311+g(d) force
 -------------------------

 -----
 DPGEN
 -----
 Symbolic Z-matrix:
 Charge =  0 Multiplicity = 2

                         Standard orientation:
 ---------------------------------------------------------------------
 Center     Atomic      Atomic             Coordinates (Angstroms)
 Number     Number       Type             X           Y           Z
 ---------------------------------------------------------------------
      1         11           0       -2.642449   -1.656048   -0.950184
      2         11           0        1.341550   -1.372178   -1.442140
      3         11           0       -0.338137   -0.909497    1.813890
      4         11           0       -0.842552    1.650907   -0.833114
      5         11           0        3.645168   -0.660804    0.921687
      6         11           0        2.211632    1.952058   -0.424396
      7         11           0       -3.375211    0.995561    0.914256
 ---------------------------------------------------------------------

 SCF Done:  E(UB3LYP) =  -1136.12044609     A.U. after   26 cycles

 The electronic state is 2-A.
 Alpha  occ. eigenvalues --  -38.44910 -38.44773 -38.44666 -38.44529 -38.43990
 Alpha  occ. eigenvalues --  -38.43194 -38.42428  -2.20711  -2.20603  -2.20533
 Alpha  occ. eigenvalues --   -2.20352  -2.19845  -2.19072  -2.18352  -1.14411
 Alpha  occ. eigenvalues --   -1.14372  -1.14321  -1.14268  -1.14264  -1.14228
 Alpha  occ. eigenvalues --   -1.14207  -1.14195  -1.14158  -1.14015  -1.13998
 Alpha  occ. eigenvalues --   -1.13989  -1.13532  -1.13489  -1.13472  -1.12780
 Alpha  occ. eigenvalues --   -1.12730  -1.12708  -1.12043  -1.12016  -1.11985
 Alpha  occ. eigenvalues --   -0.18364  -0.14528  -0.11002  -0.10866
 Alpha virt. eigenvalues --   -0.07108  -0.05590  -0.04764  -0.03143  -0.02726
 Alpha virt. eigenvalues --   -0.02456  -0.02136  -0.01242  -0.00915  -0.00297
 Alpha virt. eigenvalues --    0.00110   0.00187   0.00262   0.00514   0.00638

  Beta  occ. eigenvalues --  -38.44878 -38.44746 -38.44635 -38.44505 -38.43946
  Beta  occ. eigenvalues --  -38.43191 -38.42412  -2.20653  -2.20552  -2.20476
  Beta  occ. eigenvalues --   -2.20311  -2.19766  -2.19070  -2.18327  -1.14372
  Beta  occ. eigenvalues --   -1.14320  -1.14277  -1.14232  -1.14229  -1.14194
  Beta  occ. eigenvalues --   -1.14172  -1.14153  -1.14116  -1.13984  -1.13969
  Beta  occ. eigenvalues --   -1.13947  -1.13480  -1.13422  -1.13407  -1.12773
  Beta  occ. eigenvalues --   -1.12714  -1.12711  -1.12031  -1.11982  -1.11955
  Beta  occ. eigenvalues --   -0.17718  -0.14278  -0.10722
  Beta virt. eigenvalues --   -0.07256  -0.06844  -0.05448  -0.04144  -0.02970
  Beta virt. eigenvalues --   -0.02532  -0.01875  -0.01441  -0.01050  -0.00570
  Beta virt. eigenvalues --   -0.00250   0.00148   0.00227   0.00399   0.00626

 Mulliken charges and spin densities:
               1          2
     1  Na   0.085839   0.050537
     2  Na  -0.162119   0.225909
     3  Na  -0.553844   0.265515
     4  Na  -0.886688   0.253297
     5  Na   0.505077   0.255197
     6  Na  -0.059743  -0.118505
     7  Na   1.071478   0.068050
 Sum of Mulliken charges =  -0.00000   1.00000

 Dipole moment (field-independent basis, Debye):
    X=             -0.3019    Y=             -0.6754    Z=              0.4191  Tot=              0.8503
 Quadrupole moment (field-independent basis, Debye-Ang):
   XX=            -46.3595   YY=            -78.8929   ZZ=            -69.4809
   XY=              0.2393   XZ=              0.9571   YZ=              3.8662

 Normal termination of Gaussian 16 at Fri Dec  8 01:59:23 2023.
