 Gaussian 16, Revision B.01,
 Gaussian 16:  ES64L-G16RevB.01 20-Dec-2017

 -------------------------
 #P B3LYP/6-311+g(d) force
 -------------------------

 -----
 DPGEN
 -----
 Symbolic Z-matrix:
 Charge =  0 Multiplicity = 2

                         Standard orientation:
 ---------------------------------------------------------------------
 Center     Atomic      Atomic             Coordinates (Angstroms)
 Number     Number       Type             X           Y           Z
 ---------------------------------------------------------------------
      1         11           0       -0.667270    3.027866    0.082809
      2         11           0       -0.357649    0.092171    1.946230
      3         11           0        2.565639   -1.713839    0.173071
      4         11           0       -1.146134   -2.706232   -0.018405
      5         11           0        0.144767   -0.000667   -1.746684
      6         11           0        2.525263    1.312193   -0.143160
      7         11           0       -3.064616   -0.011492   -0.293861
 ---------------------------------------------------------------------

 SCF Done:  E(UB3LYP) =  -1136.13852213     A.U. after   19 cycles

 The electronic state is 2-A.
 Alpha  occ. eigenvalues --  -38.44076 -38.43658 -38.43632 -38.43465 -38.43436
 Alpha  occ. eigenvalues --  -38.43371 -38.43297  -2.19922  -2.19543  -2.19516
 Alpha  occ. eigenvalues --   -2.19346  -2.19320  -2.19262  -2.19193  -1.13596
 Alpha  occ. eigenvalues --   -1.13592  -1.13555  -1.13338  -1.13246  -1.13185
 Alpha  occ. eigenvalues --   -1.13166  -1.13151  -1.13091  -1.13033  -1.13001
 Alpha  occ. eigenvalues --   -1.13000  -1.12973  -1.12955  -1.12953  -1.12933
 Alpha  occ. eigenvalues --   -1.12889  -1.12882  -1.12860  -1.12841  -1.12836
 Alpha  occ. eigenvalues --   -0.18778  -0.13219  -0.12388  -0.10752
 Alpha virt. eigenvalues --   -0.05560  -0.04982  -0.04886  -0.03309  -0.02846
 Alpha virt. eigenvalues --   -0.02529  -0.01433  -0.01154  -0.00323  -0.00274
 Alpha virt. eigenvalues --   -0.00004   0.00376   0.00820   0.00902   0.00909

  Beta  occ. eigenvalues --  -38.44069 -38.43655 -38.43625 -38.43460 -38.43369
  Beta  occ. eigenvalues --  -38.43350 -38.43225  -2.19911  -2.19535  -2.19512
  Beta  occ. eigenvalues --   -2.19315  -2.19193  -2.19187  -2.19130  -1.13590
  Beta  occ. eigenvalues --   -1.13563  -1.13550  -1.13336  -1.13226  -1.13164
  Beta  occ. eigenvalues --   -1.13157  -1.13134  -1.13091  -1.13004  -1.12966
  Beta  occ. eigenvalues --   -1.12950  -1.12917  -1.12874  -1.12860  -1.12852
  Beta  occ. eigenvalues --   -1.12839  -1.12838  -1.12821  -1.12794  -1.12775
  Beta  occ. eigenvalues --   -0.18039  -0.12973  -0.12157
  Beta virt. eigenvalues --   -0.06847  -0.05530  -0.04984  -0.04831  -0.02488
  Beta virt. eigenvalues --   -0.02089  -0.01484  -0.01336  -0.01080  -0.00387
  Beta virt. eigenvalues --   -0.00317   0.00131   0.00393   0.00852   0.00898

 Mulliken charges and spin densities:
               1          2
     1  Na   0.068476  -0.121031
     2  Na  -0.440629   0.788575
     3  Na   0.021111  -0.048487
     4  Na   0.105141  -0.066091
     5  Na  -0.203656   0.554743
     6  Na   0.293701  -0.019311
     7  Na   0.155855  -0.088397
 Sum of Mulliken charges =  -0.00000   1.00000

 Dipole moment (field-independent basis, Debye):
    X=             -0.2595    Y=             -0.0454    Z=              0.0541  Tot=              0.2689
 Quadrupole moment (field-independent basis, Debye-Ang):
   XX=            -58.0443   YY=            -61.4664   ZZ=            -74.2732
   XY=             -0.7954   XZ=              1.1659   YZ=             -0.4130

 Normal termination of Gaussian 16 at Fri Dec  8 06:03:26 2023.
