 Gaussian 16, Revision B.01,
 Gaussian 16:  ES64L-G16RevB.01 20-Dec-2017

 -------------------------
 #P B3LYP/6-311+g(d) force
 -------------------------

 -----
 DPGEN
 -----
 Symbolic Z-matrix:
 Charge =  0 Multiplicity = 2

                         Standard orientation:
 ---------------------------------------------------------------------
 Center     Atomic      Atomic             Coordinates (Angstroms)
 Number     Number       Type             X           Y           Z
 ---------------------------------------------------------------------
      1         11           0       -3.107056   -0.279590   -0.009841
      2         11           0       -0.133228    0.109357   -1.202194
      3         11           0       -1.063316    2.626512   -0.203041
      4         11           0        2.334894    1.655914   -0.122470
      5         11           0        2.859072   -1.418896   -0.079707
      6         11           0       -0.082835   -0.063331    1.950037
      7         11           0       -0.807530   -2.629965   -0.332784
 ---------------------------------------------------------------------

 SCF Done:  E(UB3LYP) =  -1136.12901491     A.U. after   19 cycles

 The electronic state is 2-A.
 Alpha  occ. eigenvalues --  -38.44242 -38.44007 -38.43658 -38.43307 -38.43191
 Alpha  occ. eigenvalues --  -38.43154 -38.42790  -2.20122  -2.19853  -2.19575
 Alpha  occ. eigenvalues --   -2.19217  -2.19113  -2.19109  -2.18989  -1.13811
 Alpha  occ. eigenvalues --   -1.13778  -1.13760  -1.13567  -1.13511  -1.13489
 Alpha  occ. eigenvalues --   -1.13290  -1.13221  -1.13193  -1.13048  -1.12958
 Alpha  occ. eigenvalues --   -1.12870  -1.12829  -1.12820  -1.12748  -1.12717
 Alpha  occ. eigenvalues --   -1.12710  -1.12702  -1.12623  -1.12580  -1.12535
 Alpha  occ. eigenvalues --   -0.19372  -0.13528  -0.12491  -0.10463
 Alpha virt. eigenvalues --   -0.05872  -0.05087  -0.04446  -0.03091  -0.02529
 Alpha virt. eigenvalues --   -0.02118  -0.01786  -0.01082  -0.00256  -0.00173
 Alpha virt. eigenvalues --    0.00031   0.00346   0.00804   0.00908   0.00911

  Beta  occ. eigenvalues --  -38.44236 -38.44006 -38.43652 -38.43296 -38.43183
  Beta  occ. eigenvalues --  -38.43054 -38.42738  -2.20115  -2.19853  -2.19566
  Beta  occ. eigenvalues --   -2.19201  -2.19100  -2.18925  -2.18900  -1.13805
  Beta  occ. eigenvalues --   -1.13761  -1.13746  -1.13569  -1.13494  -1.13486
  Beta  occ. eigenvalues --   -1.13281  -1.13193  -1.13188  -1.13022  -1.12933
  Beta  occ. eigenvalues --   -1.12826  -1.12814  -1.12736  -1.12712  -1.12696
  Beta  occ. eigenvalues --   -1.12583  -1.12575  -1.12534  -1.12520  -1.12484
  Beta  occ. eigenvalues --   -0.18638  -0.13274  -0.12216
  Beta virt. eigenvalues --   -0.06510  -0.05833  -0.05082  -0.04423  -0.02295
  Beta virt. eigenvalues --   -0.01772  -0.01710  -0.01052  -0.01023  -0.00294
  Beta virt. eigenvalues --   -0.00212   0.00181   0.00389   0.00841   0.00910

 Mulliken charges and spin densities:
               1          2
     1  Na   0.489777   0.075771
     2  Na  -1.527958  -0.028508
     3  Na   0.576394   0.093674
     4  Na   0.423256   0.072381
     5  Na   0.195388   0.012190
     6  Na  -0.502787   0.723293
     7  Na   0.345930   0.051200
 Sum of Mulliken charges =  -0.00000   1.00000

 Dipole moment (field-independent basis, Debye):
    X=             -0.0690    Y=             -0.1504    Z=              0.3591  Tot=              0.3954
 Quadrupole moment (field-independent basis, Debye-Ang):
   XX=            -52.4139   YY=            -62.7621   ZZ=            -76.1744
   XY=             -0.7767   XZ=             -0.2206   YZ=              0.3642

 Normal termination of Gaussian 16 at Fri Dec  8 20:01:30 2023.
