 Gaussian 16, Revision B.01,
 Gaussian 16:  ES64L-G16RevB.01 20-Dec-2017

 -------------------------
 #P B3LYP/6-311+g(d) force
 -------------------------

 -----
 DPGEN
 -----
 Symbolic Z-matrix:
 Charge =  0 Multiplicity = 2

                         Standard orientation:
 ---------------------------------------------------------------------
 Center     Atomic      Atomic             Coordinates (Angstroms)
 Number     Number       Type             X           Y           Z
 ---------------------------------------------------------------------
      1         11           0        3.690784   -1.165505   -0.542611
      2         11           0        1.098707   -1.192359    1.791737
      3         11           0       -0.247138   -0.803868   -1.693163
      4         11           0        1.569160    1.966855    0.037060
      5         11           0       -1.377814    3.099109   -0.376970
      6         11           0       -1.680985    0.571267    1.043381
      7         11           0       -3.052715   -2.475498   -0.259435
 ---------------------------------------------------------------------

 SCF Done:  E(UB3LYP) =  -1136.12753762     A.U. after   19 cycles

 The electronic state is 2-A.
 Alpha  occ. eigenvalues --  -38.44347 -38.44044 -38.43990 -38.43944 -38.43665
 Alpha  occ. eigenvalues --  -38.43601 -38.43260  -2.20127  -2.19892  -2.19854
 Alpha  occ. eigenvalues --   -2.19717  -2.19536  -2.19488  -2.19237  -1.13800
 Alpha  occ. eigenvalues --   -1.13790  -1.13756  -1.13601  -1.13554  -1.13543
 Alpha  occ. eigenvalues --   -1.13540  -1.13492  -1.13475  -1.13392  -1.13381
 Alpha  occ. eigenvalues --   -1.13345  -1.13281  -1.13226  -1.13177  -1.13136
 Alpha  occ. eigenvalues --   -1.13116  -1.13107  -1.12928  -1.12884  -1.12799
 Alpha  occ. eigenvalues --   -0.18247  -0.12995  -0.12361  -0.10619
 Alpha virt. eigenvalues --   -0.06159  -0.05542  -0.04379  -0.03193  -0.02776
 Alpha virt. eigenvalues --   -0.02378  -0.01936  -0.01566  -0.00576  -0.00269
 Alpha virt. eigenvalues --    0.00145   0.00246   0.00614   0.00698   0.00733

  Beta  occ. eigenvalues --  -38.44342 -38.43991 -38.43980 -38.43946 -38.43599
  Beta  occ. eigenvalues --  -38.43590 -38.43227  -2.20117  -2.19838  -2.19793
  Beta  occ. eigenvalues --   -2.19722  -2.19485  -2.19399  -2.19179  -1.13792
  Beta  occ. eigenvalues --   -1.13774  -1.13751  -1.13554  -1.13523  -1.13500
  Beta  occ. eigenvalues --   -1.13472  -1.13470  -1.13422  -1.13394  -1.13374
  Beta  occ. eigenvalues --   -1.13345  -1.13271  -1.13132  -1.13114  -1.13097
  Beta  occ. eigenvalues --   -1.13079  -1.13036  -1.12890  -1.12814  -1.12767
  Beta  occ. eigenvalues --   -0.17515  -0.12867  -0.12175
  Beta virt. eigenvalues --   -0.06720  -0.05971  -0.05485  -0.04112  -0.02727
  Beta virt. eigenvalues --   -0.02217  -0.01850  -0.01643  -0.01315  -0.00421
  Beta virt. eigenvalues --   -0.00108   0.00200   0.00338   0.00699   0.00724

 Mulliken charges and spin densities:
               1          2
     1  Na   0.195172   0.084867
     2  Na  -0.007140   0.142695
     3  Na  -0.555893   0.489381
     4  Na  -0.237015   0.199608
     5  Na   0.491305  -0.170785
     6  Na   0.116106   0.344989
     7  Na  -0.002534  -0.090754
 Sum of Mulliken charges =  -0.00000   1.00000

 Dipole moment (field-independent basis, Debye):
    X=              0.3887    Y=             -0.2485    Z=             -0.2753  Tot=              0.5372
 Quadrupole moment (field-independent basis, Debye-Ang):
   XX=            -55.2269   YY=            -63.3160   ZZ=            -73.5507
   XY=             -0.7561   XZ=             -1.4522   YZ=             -1.1126

 Normal termination of Gaussian 16 at Fri Dec  8 03:55:09 2023.
