 Gaussian 16, Revision B.01,
 Gaussian 16:  ES64L-G16RevB.01 20-Dec-2017

 -------------------------
 #P B3LYP/6-311+g(d) force
 -------------------------

 -----
 DPGEN
 -----
 Symbolic Z-matrix:
 Charge =  0 Multiplicity = 2

                         Standard orientation:
 ---------------------------------------------------------------------
 Center     Atomic      Atomic             Coordinates (Angstroms)
 Number     Number       Type             X           Y           Z
 ---------------------------------------------------------------------
      1         11           0       -0.314806   -1.924071    0.969853
      2         11           0        5.470069    0.005782    0.102042
      3         11           0        2.486005   -1.335119   -0.625601
      4         11           0        1.867166    2.076027    0.130529
      5         11           0       -1.153600    1.854825    0.007287
      6         11           0       -2.640661   -0.951946   -0.738773
      7         11           0       -5.714174    0.274502    0.154663
 ---------------------------------------------------------------------

 SCF Done:  E(UB3LYP) =  -1136.10983301     A.U. after   27 cycles

 The electronic state is 2-A.
 Alpha  occ. eigenvalues --  -38.45678 -38.44369 -38.44354 -38.44207 -38.44004
 Alpha  occ. eigenvalues --  -38.43857 -38.43522  -2.21558  -2.20196  -2.20141
 Alpha  occ. eigenvalues --   -2.20086  -2.19860  -2.19635  -2.19407  -1.15243
 Alpha  occ. eigenvalues --   -1.15204  -1.15137  -1.13893  -1.13858  -1.13825
 Alpha  occ. eigenvalues --   -1.13804  -1.13796  -1.13794  -1.13775  -1.13764
 Alpha  occ. eigenvalues --   -1.13685  -1.13547  -1.13527  -1.13492  -1.13300
 Alpha  occ. eigenvalues --   -1.13297  -1.13266  -1.13074  -1.13045  -1.13028
 Alpha  occ. eigenvalues --   -0.17583  -0.14045  -0.12279  -0.11203
 Alpha virt. eigenvalues --   -0.06338  -0.05548  -0.04938  -0.03673  -0.02821
 Alpha virt. eigenvalues --   -0.02549  -0.02051  -0.01572  -0.00878  -0.00631
 Alpha virt. eigenvalues --   -0.00270   0.00026   0.00074   0.00476   0.00707

  Beta  occ. eigenvalues --  -38.45578 -38.44338 -38.44325 -38.44208 -38.43971
  Beta  occ. eigenvalues --  -38.43849 -38.43496  -2.21376  -2.20171  -2.20094
  Beta  occ. eigenvalues --   -2.20058  -2.19799  -2.19621  -2.19359  -1.15123
  Beta  occ. eigenvalues --   -1.15070  -1.15017  -1.13871  -1.13847  -1.13785
  Beta  occ. eigenvalues --   -1.13782  -1.13779  -1.13742  -1.13739  -1.13733
  Beta  occ. eigenvalues --   -1.13657  -1.13509  -1.13488  -1.13442  -1.13291
  Beta  occ. eigenvalues --   -1.13287  -1.13256  -1.13042  -1.13009  -1.12997
  Beta  occ. eigenvalues --   -0.16847  -0.13720  -0.10786
  Beta virt. eigenvalues --   -0.08687  -0.05866  -0.05220  -0.04581  -0.03089
  Beta virt. eigenvalues --   -0.02693  -0.02355  -0.01670  -0.01078  -0.00781
  Beta virt. eigenvalues --   -0.00419  -0.00157   0.00193   0.00221   0.00485

 Mulliken charges and spin densities:
               1          2
     1  Na   0.037129   0.428300
     2  Na   0.297700   0.006850
     3  Na  -0.313937   0.004556
     4  Na  -0.123175   0.311366
     5  Na  -0.329933   0.073882
     6  Na   0.170777   0.077894
     7  Na   0.261439   0.097152
 Sum of Mulliken charges =  -0.00000   1.00000

 Dipole moment (field-independent basis, Debye):
    X=              0.0432    Y=              0.0108    Z=              0.6514  Tot=              0.6529
 Quadrupole moment (field-independent basis, Debye-Ang):
   XX=            -63.6327   YY=            -70.2126   ZZ=            -68.8973
   XY=              0.5980   XZ=             -0.3841   YZ=              0.0448

 Normal termination of Gaussian 16 at Tue Nov 28 22:06:31 2023.
