 Gaussian 16, Revision B.01,
 Gaussian 16:  ES64L-G16RevB.01 20-Dec-2017

 -------------------------
 #P B3LYP/6-311+g(d) force
 -------------------------

 -----
 DPGEN
 -----
 Symbolic Z-matrix:
 Charge =  0 Multiplicity = 2

                         Standard orientation:
 ---------------------------------------------------------------------
 Center     Atomic      Atomic             Coordinates (Angstroms)
 Number     Number       Type             X           Y           Z
 ---------------------------------------------------------------------
      1         11           0        1.666059   -1.607308    0.137203
      2         11           0       -1.154163   -1.956114    0.160912
      3         11           0        2.111407    0.954616   -0.298686
      4         11           0       -0.065116   -0.241406   -1.814422
      5         11           0        0.166817    0.202151    1.867240
      6         11           0       -0.289403    2.238746    0.014392
      7         11           0       -2.435600    0.409316   -0.066639
 ---------------------------------------------------------------------

 SCF Done:  E(UB3LYP) =  -1136.07381135     A.U. after   19 cycles

 The electronic state is 2-A.
 Alpha  occ. eigenvalues --  -38.44370 -38.44296 -38.44007 -38.43831 -38.43763
 Alpha  occ. eigenvalues --  -38.43628 -38.43510  -2.20589  -2.20545  -2.20206
 Alpha  occ. eigenvalues --   -2.19954  -2.19938  -2.19783  -2.19670  -1.14464
 Alpha  occ. eigenvalues --   -1.14339  -1.14317  -1.14289  -1.14222  -1.14194
 Alpha  occ. eigenvalues --   -1.14136  -1.13930  -1.13882  -1.13757  -1.13714
 Alpha  occ. eigenvalues --   -1.13674  -1.13545  -1.13514  -1.13425  -1.13379
 Alpha  occ. eigenvalues --   -1.13338  -1.13288  -1.13259  -1.13247  -1.13156
 Alpha  occ. eigenvalues --   -0.21953  -0.13719  -0.13196  -0.12653
 Alpha virt. eigenvalues --   -0.05012  -0.04203  -0.04130  -0.03783  -0.03454
 Alpha virt. eigenvalues --   -0.03116  -0.00745  -0.00496  -0.00149   0.00346
 Alpha virt. eigenvalues --    0.00905   0.00967   0.01120   0.01221   0.01277

  Beta  occ. eigenvalues --  -38.44271 -38.44200 -38.43989 -38.43821 -38.43747
  Beta  occ. eigenvalues --  -38.43613 -38.43496  -2.20411  -2.20374  -2.20180
  Beta  occ. eigenvalues --   -2.19941  -2.19917  -2.19763  -2.19652  -1.14392
  Beta  occ. eigenvalues --   -1.14238  -1.14218  -1.14171  -1.14123  -1.14084
  Beta  occ. eigenvalues --   -1.14064  -1.13910  -1.13851  -1.13703  -1.13671
  Beta  occ. eigenvalues --   -1.13656  -1.13485  -1.13438  -1.13416  -1.13334
  Beta  occ. eigenvalues --   -1.13302  -1.13272  -1.13242  -1.13193  -1.13152
  Beta  occ. eigenvalues --   -0.21083  -0.13330  -0.12814
  Beta virt. eigenvalues --   -0.08412  -0.05039  -0.04187  -0.04109  -0.02796
  Beta virt. eigenvalues --   -0.02516  -0.02008  -0.00684  -0.00447   0.00010
  Beta virt. eigenvalues --    0.00366   0.00882   0.00935   0.01165   0.01210

 Mulliken charges and spin densities:
               1          2
     1  Na   0.123764   0.015158
     2  Na   0.090703   0.051979
     3  Na   0.166088   0.043032
     4  Na  -0.245656   0.402647
     5  Na  -0.303821   0.431976
     6  Na   0.199209   0.066781
     7  Na  -0.030287  -0.011572
 Sum of Mulliken charges =  -0.00000   1.00000

 Dipole moment (field-independent basis, Debye):
    X=             -0.1351    Y=              0.0190    Z=              0.0694  Tot=              0.1531
 Quadrupole moment (field-independent basis, Debye-Ang):
   XX=            -64.2965   YY=            -68.4254   ZZ=            -66.7833
   XY=             -0.2373   XZ=             -0.3464   YZ=             -0.8360

 Normal termination of Gaussian 16 at Thu Dec  7 21:33:36 2023.
