 Gaussian 16, Revision B.01,
 Gaussian 16:  ES64L-G16RevB.01 20-Dec-2017

 -------------------------
 #P B3LYP/6-311+g(d) force
 -------------------------

 -----
 DPGEN
 -----
 Symbolic Z-matrix:
 Charge =  0 Multiplicity = 2

                         Standard orientation:
 ---------------------------------------------------------------------
 Center     Atomic      Atomic             Coordinates (Angstroms)
 Number     Number       Type             X           Y           Z
 ---------------------------------------------------------------------
      1         11           0       -2.301271    2.217243    0.654819
      2         11           0       -3.643488   -0.322731   -1.375170
      3         11           0        1.102386    0.097676    2.330899
      4         11           0       -2.033462   -2.055555    0.790350
      5         11           0        1.633301   -1.758921   -0.799864
      6         11           0        1.000046    1.609635   -1.120416
      7         11           0        4.242488    0.212654   -0.480618
 ---------------------------------------------------------------------

 SCF Done:  E(UB3LYP) =  -1136.11609119     A.U. after   26 cycles

 The electronic state is 2-A.
 Alpha  occ. eigenvalues --  -38.45480 -38.44827 -38.44512 -38.44268 -38.44128
 Alpha  occ. eigenvalues --  -38.43386 -38.43127  -2.21292  -2.20640  -2.20330
 Alpha  occ. eigenvalues --   -2.20101  -2.19935  -2.19158  -2.18923  -1.14955
 Alpha  occ. eigenvalues --   -1.14946  -1.14915  -1.14288  -1.14273  -1.14252
 Alpha  occ. eigenvalues --   -1.13996  -1.13982  -1.13950  -1.13819  -1.13769
 Alpha  occ. eigenvalues --   -1.13712  -1.13645  -1.13614  -1.13528  -1.12835
 Alpha  occ. eigenvalues --   -1.12822  -1.12806  -1.12607  -1.12590  -1.12569
 Alpha  occ. eigenvalues --   -0.17523  -0.14153  -0.11199  -0.10690
 Alpha virt. eigenvalues --   -0.06913  -0.05487  -0.05001  -0.03035  -0.02976
 Alpha virt. eigenvalues --   -0.02614  -0.02483  -0.01183  -0.01052  -0.00358
 Alpha virt. eigenvalues --   -0.00045   0.00057   0.00284   0.00463   0.00569

  Beta  occ. eigenvalues --  -38.45450 -38.44718 -38.44469 -38.44264 -38.44120
  Beta  occ. eigenvalues --  -38.43388 -38.43128  -2.21236  -2.20439  -2.20249
  Beta  occ. eigenvalues --   -2.20096  -2.19923  -2.19165  -2.18929  -1.14912
  Beta  occ. eigenvalues --   -1.14901  -1.14881  -1.14151  -1.14137  -1.14106
  Beta  occ. eigenvalues --   -1.13942  -1.13927  -1.13896  -1.13819  -1.13760
  Beta  occ. eigenvalues --   -1.13693  -1.13641  -1.13595  -1.13512  -1.12835
  Beta  occ. eigenvalues --   -1.12828  -1.12800  -1.12608  -1.12593  -1.12557
  Beta  occ. eigenvalues --   -0.16894  -0.13706  -0.10573
  Beta virt. eigenvalues --   -0.07534  -0.06622  -0.05368  -0.04446  -0.02908
  Beta virt. eigenvalues --   -0.02557  -0.02058  -0.01908  -0.01110  -0.00593
  Beta virt. eigenvalues --   -0.00274   0.00041   0.00086   0.00390   0.00590

 Mulliken charges and spin densities:
               1          2
     1  Na  -0.014056   0.057868
     2  Na   0.126330   0.177642
     3  Na  -0.242600   0.503642
     4  Na  -0.096269   0.062747
     5  Na  -0.082548   0.067838
     6  Na  -0.347497   0.052151
     7  Na   0.656640   0.078113
 Sum of Mulliken charges =  -0.00000   1.00000

 Dipole moment (field-independent basis, Debye):
    X=              1.7834    Y=              0.2029    Z=             -0.0767  Tot=              1.7966
 Quadrupole moment (field-independent basis, Debye-Ang):
   XX=            -49.8234   YY=            -81.0806   ZZ=            -65.5548
   XY=              0.1429   XZ=              3.0426   YZ=              2.1376

 Normal termination of Gaussian 16 at Fri Dec  8 03:16:54 2023.
