 Gaussian 16, Revision B.01,
 Gaussian 16:  ES64L-G16RevB.01 20-Dec-2017

 -------------------------
 #P B3LYP/6-311+g(d) force
 -------------------------

 -----
 DPGEN
 -----
 Symbolic Z-matrix:
 Charge =  0 Multiplicity = 2

                         Standard orientation:
 ---------------------------------------------------------------------
 Center     Atomic      Atomic             Coordinates (Angstroms)
 Number     Number       Type             X           Y           Z
 ---------------------------------------------------------------------
      1         11           0       -0.126401   -0.638551    1.982825
      2         11           0        2.388119    1.947320   -0.376728
      3         11           0        3.168031   -1.310096    0.212551
      4         11           0       -0.528877   -2.368519   -0.719353
      5         11           0       -0.087241    0.322362   -1.313709
      6         11           0       -3.406199   -0.538552   -0.141911
      7         11           0       -1.407431    2.586037    0.356325
 ---------------------------------------------------------------------

 SCF Done:  E(UB3LYP) =  -1136.12575134     A.U. after   21 cycles

 The electronic state is 2-A.
 Alpha  occ. eigenvalues --  -38.44945 -38.44457 -38.43800 -38.43529 -38.43280
 Alpha  occ. eigenvalues --  -38.43229 -38.43119  -2.20747  -2.20247  -2.19642
 Alpha  occ. eigenvalues --   -2.19426  -2.19224  -2.19166  -2.19118  -1.14420
 Alpha  occ. eigenvalues --   -1.14398  -1.14390  -1.13922  -1.13912  -1.13883
 Alpha  occ. eigenvalues --   -1.13371  -1.13293  -1.13259  -1.13201  -1.13117
 Alpha  occ. eigenvalues --   -1.13065  -1.13020  -1.12926  -1.12836  -1.12800
 Alpha  occ. eigenvalues --   -1.12777  -1.12764  -1.12735  -1.12720  -1.12691
 Alpha  occ. eigenvalues --   -0.18700  -0.13326  -0.12067  -0.10525
 Alpha virt. eigenvalues --   -0.06415  -0.05261  -0.04051  -0.03149  -0.02660
 Alpha virt. eigenvalues --   -0.02275  -0.02234  -0.01203  -0.00328  -0.00178
 Alpha virt. eigenvalues --   -0.00025   0.00276   0.00712   0.00826   0.00853

  Beta  occ. eigenvalues --  -38.44942 -38.44456 -38.43792 -38.43440 -38.43273
  Beta  occ. eigenvalues --  -38.43201 -38.43065  -2.20745  -2.20248  -2.19630
  Beta  occ. eigenvalues --   -2.19261  -2.19151  -2.19110  -2.19098  -1.14408
  Beta  occ. eigenvalues --   -1.14393  -1.14384  -1.13922  -1.13899  -1.13885
  Beta  occ. eigenvalues --   -1.13354  -1.13276  -1.13254  -1.13147  -1.13014
  Beta  occ. eigenvalues --   -1.12952  -1.12901  -1.12879  -1.12774  -1.12756
  Beta  occ. eigenvalues --   -1.12748  -1.12727  -1.12721  -1.12679  -1.12637
  Beta  occ. eigenvalues --   -0.17993  -0.13109  -0.11820
  Beta virt. eigenvalues --   -0.06609  -0.06361  -0.05204  -0.04004  -0.02473
  Beta virt. eigenvalues --   -0.02153  -0.01945  -0.01214  -0.01136  -0.00331
  Beta virt. eigenvalues --   -0.00167   0.00120   0.00311   0.00761   0.00839

 Mulliken charges and spin densities:
               1          2
     1  Na  -0.565348   0.793712
     2  Na   0.114650  -0.013213
     3  Na   0.139608   0.015147
     4  Na   0.414408   0.086384
     5  Na  -0.181623   0.074521
     6  Na   0.197979  -0.008411
     7  Na  -0.119674   0.051860
 Sum of Mulliken charges =  -0.00000   1.00000

 Dipole moment (field-independent basis, Debye):
    X=             -0.2088    Y=             -0.1808    Z=              0.3796  Tot=              0.4695
 Quadrupole moment (field-independent basis, Debye-Ang):
   XX=            -48.0004   YY=            -67.0603   ZZ=            -75.6621
   XY=             -0.5137   XZ=              0.0033   YZ=              1.3319

 Normal termination of Gaussian 16 at Tue Dec  5 22:27:48 2023.
