 Gaussian 16, Revision B.01,
 Gaussian 16:  ES64L-G16RevB.01 20-Dec-2017

 -------------------------
 #P B3LYP/6-311+g(d) force
 -------------------------

 -----
 DPGEN
 -----
 Symbolic Z-matrix:
 Charge =  0 Multiplicity = 2

                         Standard orientation:
 ---------------------------------------------------------------------
 Center     Atomic      Atomic             Coordinates (Angstroms)
 Number     Number       Type             X           Y           Z
 ---------------------------------------------------------------------
      1         11           0       -0.719645    0.286766    1.950407
      2         11           0        3.391866   -0.850481    0.148165
      3         11           0        2.258583    2.063396    0.048544
      4         11           0       -0.124147   -2.732525    0.179432
      5         11           0        0.404014   -0.370570   -1.716427
      6         11           0       -3.329495   -0.868266   -0.248149
      7         11           0       -1.881176    2.471680   -0.361971
 ---------------------------------------------------------------------

 SCF Done:  E(UB3LYP) =  -1136.12997336     A.U. after   20 cycles

 The electronic state is 2-A.
 Alpha  occ. eigenvalues --  -38.45122 -38.44751 -38.43833 -38.43516 -38.43495
 Alpha  occ. eigenvalues --  -38.43424 -38.42975  -2.20906  -2.20567  -2.19664
 Alpha  occ. eigenvalues --   -2.19413  -2.19325  -2.19305  -2.18835  -1.14584
 Alpha  occ. eigenvalues --   -1.14556  -1.14545  -1.14257  -1.14229  -1.14198
 Alpha  occ. eigenvalues --   -1.13340  -1.13332  -1.13299  -1.13128  -1.13065
 Alpha  occ. eigenvalues --   -1.13024  -1.13017  -1.12989  -1.12970  -1.12963
 Alpha  occ. eigenvalues --   -1.12926  -1.12918  -1.12536  -1.12496  -1.12442
 Alpha  occ. eigenvalues --   -0.18177  -0.13530  -0.11872  -0.10325
 Alpha virt. eigenvalues --   -0.06566  -0.05449  -0.04250  -0.03410  -0.02660
 Alpha virt. eigenvalues --   -0.02272  -0.02202  -0.01249  -0.00560  -0.00382
 Alpha virt. eigenvalues --   -0.00082   0.00307   0.00655   0.00721   0.00814

  Beta  occ. eigenvalues --  -38.45119 -38.44751 -38.43830 -38.43508 -38.43432
  Beta  occ. eigenvalues --  -38.43342 -38.42966  -2.20902  -2.20569  -2.19660
  Beta  occ. eigenvalues --   -2.19313  -2.19297  -2.19154  -2.18823  -1.14561
  Beta  occ. eigenvalues --   -1.14555  -1.14545  -1.14261  -1.14215  -1.14202
  Beta  occ. eigenvalues --   -1.13340  -1.13312  -1.13296  -1.13048  -1.13003
  Beta  occ. eigenvalues --   -1.12982  -1.12964  -1.12957  -1.12931  -1.12872
  Beta  occ. eigenvalues --   -1.12822  -1.12815  -1.12525  -1.12458  -1.12438
  Beta  occ. eigenvalues --   -0.17484  -0.13352  -0.11647
  Beta virt. eigenvalues --   -0.06527  -0.06434  -0.05455  -0.04171  -0.02716
  Beta virt. eigenvalues --   -0.02105  -0.01916  -0.01301  -0.01177  -0.00594
  Beta virt. eigenvalues --   -0.00400   0.00102   0.00346   0.00763   0.00812

 Mulliken charges and spin densities:
               1          2
     1  Na  -0.246240   0.748694
     2  Na   0.136081  -0.031621
     3  Na   0.007360  -0.110158
     4  Na   0.034477  -0.152833
     5  Na  -0.052793   0.649496
     6  Na   0.205099  -0.028560
     7  Na  -0.083984  -0.075019
 Sum of Mulliken charges =  -0.00000   1.00000

 Dipole moment (field-independent basis, Debye):
    X=             -0.0844    Y=             -0.1971    Z=             -0.0195  Tot=              0.2153
 Quadrupole moment (field-independent basis, Debye-Ang):
   XX=            -49.4306   YY=            -67.1032   ZZ=            -75.9750
   XY=              0.0412   XZ=              2.3161   YZ=             -1.4333

 Normal termination of Gaussian 16 at Tue Dec  5 16:44:55 2023.
