 Gaussian 16, Revision B.01,
 Gaussian 16:  ES64L-G16RevB.01 20-Dec-2017

 -------------------------
 #P B3LYP/6-311+g(d) force
 -------------------------

 -----
 DPGEN
 -----
 Symbolic Z-matrix:
 Charge =  0 Multiplicity = 2

                         Standard orientation:
 ---------------------------------------------------------------------
 Center     Atomic      Atomic             Coordinates (Angstroms)
 Number     Number       Type             X           Y           Z
 ---------------------------------------------------------------------
      1         11           0        3.183402   -1.573262   -0.658135
      2         11           0       -0.697338   -0.810364    1.858021
      3         11           0        2.469051    0.931676    1.068766
      4         11           0        0.276995   -0.129867   -1.809080
      5         11           0       -2.589783    0.888092   -0.591206
      6         11           0       -2.320979   -2.351302    0.117897
      7         11           0       -0.321348    3.045028    0.013736
 ---------------------------------------------------------------------

 SCF Done:  E(UB3LYP) =  -1136.12785735     A.U. after   19 cycles

 The electronic state is 2-A.
 Alpha  occ. eigenvalues --  -38.44067 -38.44062 -38.44037 -38.43944 -38.43820
 Alpha  occ. eigenvalues --  -38.43640 -38.42895  -2.19990  -2.19933  -2.19893
 Alpha  occ. eigenvalues --   -2.19807  -2.19746  -2.19536  -2.18735  -1.13775
 Alpha  occ. eigenvalues --   -1.13636  -1.13621  -1.13611  -1.13610  -1.13596
 Alpha  occ. eigenvalues --   -1.13565  -1.13535  -1.13525  -1.13473  -1.13452
 Alpha  occ. eigenvalues --   -1.13419  -1.13415  -1.13405  -1.13369  -1.13186
 Alpha  occ. eigenvalues --   -1.13157  -1.13150  -1.12412  -1.12390  -1.12383
 Alpha  occ. eigenvalues --   -0.18488  -0.13669  -0.12042  -0.11211
 Alpha virt. eigenvalues --   -0.05759  -0.05142  -0.04723  -0.03475  -0.02974
 Alpha virt. eigenvalues --   -0.02758  -0.01656  -0.01094  -0.00326  -0.00070
 Alpha virt. eigenvalues --    0.00074   0.00319   0.00687   0.00700   0.00838

  Beta  occ. eigenvalues --  -38.44048 -38.44003 -38.43966 -38.43917 -38.43805
  Beta  occ. eigenvalues --  -38.43639 -38.42896  -2.19873  -2.19869  -2.19803
  Beta  occ. eigenvalues --   -2.19758  -2.19721  -2.19537  -2.18738  -1.13700
  Beta  occ. eigenvalues --   -1.13600  -1.13555  -1.13540  -1.13533  -1.13525
  Beta  occ. eigenvalues --   -1.13515  -1.13479  -1.13466  -1.13432  -1.13419
  Beta  occ. eigenvalues --   -1.13397  -1.13377  -1.13370  -1.13350  -1.13169
  Beta  occ. eigenvalues --   -1.13156  -1.13138  -1.12418  -1.12393  -1.12366
  Beta  occ. eigenvalues --   -0.17784  -0.13445  -0.11827
  Beta virt. eigenvalues --   -0.07381  -0.05626  -0.04910  -0.04386  -0.03068
  Beta virt. eigenvalues --   -0.02328  -0.01861  -0.01529  -0.00980  -0.00287
  Beta virt. eigenvalues --    0.00044   0.00179   0.00360   0.00801   0.00838

 Mulliken charges and spin densities:
               1          2
     1  Na   0.015331   0.050079
     2  Na  -0.332948   0.212077
     3  Na   0.053395   0.162353
     4  Na  -0.161019   0.282979
     5  Na   0.354370   0.174903
     6  Na   0.379783   0.061986
     7  Na  -0.308912   0.055623
 Sum of Mulliken charges =  -0.00000   1.00000

 Dipole moment (field-independent basis, Debye):
    X=              0.1439    Y=             -0.4315    Z=             -0.1014  Tot=              0.4660
 Quadrupole moment (field-independent basis, Debye-Ang):
   XX=            -58.6847   YY=            -66.2725   ZZ=            -71.4812
   XY=             -0.0698   XZ=              1.9594   YZ=              3.0291

 Normal termination of Gaussian 16 at Tue Dec  5 22:36:28 2023.
