 Gaussian 16, Revision B.01,
 Gaussian 16:  ES64L-G16RevB.01 20-Dec-2017

 -------------------------
 #P B3LYP/6-311+g(d) force
 -------------------------

 -----
 DPGEN
 -----
 Symbolic Z-matrix:
 Charge =  0 Multiplicity = 2

                         Standard orientation:
 ---------------------------------------------------------------------
 Center     Atomic      Atomic             Coordinates (Angstroms)
 Number     Number       Type             X           Y           Z
 ---------------------------------------------------------------------
      1         11           0       -0.058622    1.599964   -0.795884
      2         11           0        3.603611    2.284021    0.077881
      3         11           0       -5.726863    0.427027    0.106908
      4         11           0       -2.768195   -0.188060    0.204272
      5         11           0        0.326009   -1.897001   -1.397888
      6         11           0        1.112156   -0.926671    2.096822
      7         11           0        3.511905   -1.299280   -0.292112
 ---------------------------------------------------------------------

 SCF Done:  E(UB3LYP) =  -1136.10826162     A.U. after   29 cycles

 The electronic state is 2-A.
 Alpha  occ. eigenvalues --  -38.47067 -38.44615 -38.44387 -38.44227 -38.44160
 Alpha  occ. eigenvalues --  -38.43186 -38.42594  -2.22824  -2.20460  -2.20225
 Alpha  occ. eigenvalues --   -2.20070  -2.19992  -2.19053  -2.18367  -1.16504
 Alpha  occ. eigenvalues --   -1.16481  -1.16449  -1.14157  -1.14119  -1.14054
 Alpha  occ. eigenvalues --   -1.13918  -1.13866  -1.13846  -1.13757  -1.13718
 Alpha  occ. eigenvalues --   -1.13671  -1.13657  -1.13614  -1.13611  -1.12744
 Alpha  occ. eigenvalues --   -1.12730  -1.12695  -1.12050  -1.12028  -1.12020
 Alpha  occ. eigenvalues --   -0.17705  -0.13946  -0.11291  -0.11089
 Alpha virt. eigenvalues --   -0.07959  -0.04811  -0.04545  -0.03397  -0.03245
 Alpha virt. eigenvalues --   -0.02250  -0.02177  -0.01783  -0.01321  -0.01193
 Alpha virt. eigenvalues --   -0.00332   0.00048   0.00123   0.00543   0.00610

  Beta  occ. eigenvalues --  -38.47067 -38.44575 -38.44360 -38.44149 -38.44076
  Beta  occ. eigenvalues --  -38.43183 -38.42604  -2.22827  -2.20385  -2.20176
  Beta  occ. eigenvalues --   -2.19927  -2.19838  -2.19057  -2.18388  -1.16487
  Beta  occ. eigenvalues --   -1.16484  -1.16453  -1.14100  -1.14071  -1.14003
  Beta  occ. eigenvalues --   -1.13887  -1.13826  -1.13798  -1.13663  -1.13623
  Beta  occ. eigenvalues --   -1.13569  -1.13552  -1.13509  -1.13506  -1.12748
  Beta  occ. eigenvalues --   -1.12732  -1.12648  -1.12066  -1.12037  -1.12029
  Beta  occ. eigenvalues --   -0.17082  -0.13142  -0.10860
  Beta virt. eigenvalues --   -0.07890  -0.07788  -0.04589  -0.04007  -0.03102
  Beta virt. eigenvalues --   -0.02916  -0.02106  -0.01985  -0.01440  -0.00939
  Beta virt. eigenvalues --   -0.00748  -0.00219   0.00162   0.00189   0.00632

 Mulliken charges and spin densities:
               1          2
     1  Na   0.001588   0.332459
     2  Na  -0.102618  -0.116770
     3  Na  -0.697026  -0.066191
     4  Na  -0.667172   0.278928
     5  Na   0.880647   0.175262
     6  Na   0.693918   0.231907
     7  Na  -0.109338   0.164405
 Sum of Mulliken charges =  -0.00000   1.00000

 Dipole moment (field-independent basis, Debye):
    X=              0.3446    Y=             -1.3173    Z=              0.5962  Tot=              1.4865
 Quadrupole moment (field-independent basis, Debye-Ang):
   XX=            -69.5094   YY=            -77.1217   ZZ=            -59.5696
   XY=             -5.0397   XZ=             -0.1999   YZ=              1.8284

 Normal termination of Gaussian 16 at Sun Dec  3 22:48:32 2023.
