 Gaussian 16, Revision B.01,
 Gaussian 16:  ES64L-G16RevB.01 20-Dec-2017

 -------------------------
 #P B3LYP/6-311+g(d) force
 -------------------------

 -----
 DPGEN
 -----
 Symbolic Z-matrix:
 Charge =  0 Multiplicity = 2

                         Standard orientation:
 ---------------------------------------------------------------------
 Center     Atomic      Atomic             Coordinates (Angstroms)
 Number     Number       Type             X           Y           Z
 ---------------------------------------------------------------------
      1         11           0       -2.602856   -1.658420    0.191362
      2         11           0       -5.661006   -0.335251    0.734168
      3         11           0       -3.909168    1.951765    0.381305
      4         11           0        0.089190    1.338098   -1.212960
      5         11           0        0.580479   -1.732473   -0.821609
      6         11           0        4.376933    0.293698   -0.561474
      7         11           0        7.126427    0.142584    1.289207
 ---------------------------------------------------------------------

 SCF Done:  E(UB3LYP) =  -1136.11322847     A.U. after   19 cycles

 The electronic state is 2-A.
 Alpha  occ. eigenvalues --  -38.44940 -38.44759 -38.44609 -38.44480 -38.44257
 Alpha  occ. eigenvalues --  -38.43843 -38.43760  -2.20790  -2.20622  -2.20420
 Alpha  occ. eigenvalues --   -2.20332  -2.20101  -2.19602  -2.19523  -1.14580
 Alpha  occ. eigenvalues --   -1.14439  -1.14423  -1.14268  -1.14259  -1.14207
 Alpha  occ. eigenvalues --   -1.14094  -1.14083  -1.14053  -1.14011  -1.13986
 Alpha  occ. eigenvalues --   -1.13951  -1.13761  -1.13747  -1.13736  -1.13267
 Alpha  occ. eigenvalues --   -1.13267  -1.13262  -1.13208  -1.13201  -1.13116
 Alpha  occ. eigenvalues --   -0.16912  -0.14173  -0.12098  -0.11081
 Alpha virt. eigenvalues --   -0.06926  -0.05798  -0.04553  -0.03851  -0.03086
 Alpha virt. eigenvalues --   -0.02562  -0.02238  -0.01571  -0.01126  -0.00855
 Alpha virt. eigenvalues --   -0.00644  -0.00288   0.00115   0.00129   0.00556

  Beta  occ. eigenvalues --  -38.44895 -38.44756 -38.44560 -38.44409 -38.44245
  Beta  occ. eigenvalues --  -38.43844 -38.43758  -2.20707  -2.20618  -2.20328
  Beta  occ. eigenvalues --   -2.20203  -2.20081  -2.19604  -2.19520  -1.14538
  Beta  occ. eigenvalues --   -1.14383  -1.14366  -1.14258  -1.14248  -1.14182
  Beta  occ. eigenvalues --   -1.14036  -1.14020  -1.13986  -1.13926  -1.13895
  Beta  occ. eigenvalues --   -1.13857  -1.13750  -1.13733  -1.13694  -1.13269
  Beta  occ. eigenvalues --   -1.13268  -1.13263  -1.13206  -1.13200  -1.13115
  Beta  occ. eigenvalues --   -0.16232  -0.14066  -0.11945
  Beta virt. eigenvalues --   -0.07465  -0.06563  -0.04956  -0.04413  -0.03698
  Beta virt. eigenvalues --   -0.02566  -0.02386  -0.01959  -0.01471  -0.01068
  Beta virt. eigenvalues --   -0.00436  -0.00325   0.00038   0.00174   0.00356

 Mulliken charges and spin densities:
               1          2
     1  Na  -0.304695   0.451796
     2  Na   0.500582   0.000262
     3  Na  -0.163737   0.211504
     4  Na  -0.213666   0.353011
     5  Na   0.141847  -0.002148
     6  Na  -0.323327  -0.012715
     7  Na   0.362996  -0.001710
 Sum of Mulliken charges =  -0.00000   1.00000

 Dipole moment (field-independent basis, Debye):
    X=             -2.3838    Y=             -0.0783    Z=              0.2149  Tot=              2.3948
 Quadrupole moment (field-independent basis, Debye-Ang):
   XX=            -57.8592   YY=            -69.7393   ZZ=            -70.6272
   XY=             -1.0042   XZ=              0.9666   YZ=             -0.1893

 Normal termination of Gaussian 16 at Tue Nov 28 23:44:03 2023.
