 Gaussian 16, Revision B.01,
 Gaussian 16:  ES64L-G16RevB.01 20-Dec-2017

 -------------------------
 #P B3LYP/6-311+g(d) force
 -------------------------

 -----
 DPGEN
 -----
 Symbolic Z-matrix:
 Charge =  0 Multiplicity = 2

                         Standard orientation:
 ---------------------------------------------------------------------
 Center     Atomic      Atomic             Coordinates (Angstroms)
 Number     Number       Type             X           Y           Z
 ---------------------------------------------------------------------
      1         11           0       -1.681900   -1.035501    2.151837
      2         11           0       -1.626646    2.253858    0.097641
      3         11           0        0.729711    1.255454   -2.149844
      4         11           0       -2.487353   -1.089923   -1.287337
      5         11           0        1.307025    1.827040    1.382779
      6         11           0        3.093560   -0.804505    0.192435
      7         11           0        0.665604   -2.406423   -0.387511
 ---------------------------------------------------------------------

 SCF Done:  E(UB3LYP) =  -1136.13174997     A.U. after   18 cycles

 The electronic state is 2-A.
 Alpha  occ. eigenvalues --  -38.44569 -38.44560 -38.43972 -38.43737 -38.43407
 Alpha  occ. eigenvalues --  -38.43321 -38.43207  -2.20397  -2.20362  -2.19787
 Alpha  occ. eigenvalues --   -2.19595  -2.19270  -2.19176  -2.19071  -1.14064
 Alpha  occ. eigenvalues --   -1.14030  -1.14025  -1.14021  -1.14002  -1.13986
 Alpha  occ. eigenvalues --   -1.13461  -1.13439  -1.13424  -1.13275  -1.13249
 Alpha  occ. eigenvalues --   -1.13236  -1.13047  -1.12921  -1.12895  -1.12855
 Alpha  occ. eigenvalues --   -1.12847  -1.12801  -1.12736  -1.12726  -1.12674
 Alpha  occ. eigenvalues --   -0.18071  -0.12768  -0.12199  -0.11668
 Alpha virt. eigenvalues --   -0.05335  -0.05010  -0.04800  -0.03742  -0.03330
 Alpha virt. eigenvalues --   -0.03237  -0.01006  -0.00676  -0.00657   0.00023
 Alpha virt. eigenvalues --    0.00197   0.00395   0.00454   0.00601   0.00808

  Beta  occ. eigenvalues --  -38.44507 -38.44502 -38.43954 -38.43706 -38.43407
  Beta  occ. eigenvalues --  -38.43317 -38.43202  -2.20282  -2.20255  -2.19755
  Beta  occ. eigenvalues --   -2.19538  -2.19270  -2.19171  -2.19064  -1.13987
  Beta  occ. eigenvalues --   -1.13948  -1.13946  -1.13939  -1.13931  -1.13909
  Beta  occ. eigenvalues --   -1.13434  -1.13421  -1.13390  -1.13239  -1.13211
  Beta  occ. eigenvalues --   -1.13185  -1.13049  -1.12911  -1.12894  -1.12854
  Beta  occ. eigenvalues --   -1.12815  -1.12800  -1.12725  -1.12709  -1.12674
  Beta  occ. eigenvalues --   -0.17320  -0.12592  -0.12038
  Beta virt. eigenvalues --   -0.07856  -0.04957  -0.04924  -0.04333  -0.03551
  Beta virt. eigenvalues --   -0.02674  -0.02300  -0.00974  -0.00630  -0.00264
  Beta virt. eigenvalues --    0.00078   0.00221   0.00507   0.00563   0.00747

 Mulliken charges and spin densities:
               1          2
     1  Na  -0.217454   0.198547
     2  Na   0.210670   0.044618
     3  Na  -0.373503   0.387612
     4  Na   0.214666   0.095047
     5  Na   0.079076   0.237709
     6  Na   0.231732  -0.125169
     7  Na  -0.145187   0.161635
 Sum of Mulliken charges =  -0.00000   1.00000

 Dipole moment (field-independent basis, Debye):
    X=             -0.3201    Y=              0.1978    Z=             -0.0252  Tot=              0.3771
 Quadrupole moment (field-independent basis, Debye-Ang):
   XX=            -63.1949   YY=            -71.9258   ZZ=            -62.6802
   XY=              0.9013   XZ=              0.4483   YZ=             -0.2695

 Normal termination of Gaussian 16 at Mon Dec  4 03:55:07 2023.
