 Gaussian 16, Revision B.01,
 Gaussian 16:  ES64L-G16RevB.01 20-Dec-2017

 -------------------------
 #P B3LYP/6-311+g(d) force
 -------------------------

 -----
 DPGEN
 -----
 Symbolic Z-matrix:
 Charge =  0 Multiplicity = 2

                         Standard orientation:
 ---------------------------------------------------------------------
 Center     Atomic      Atomic             Coordinates (Angstroms)
 Number     Number       Type             X           Y           Z
 ---------------------------------------------------------------------
      1         11           0        0.133789   -1.614151   -0.189215
      2         11           0        2.819917   -3.152996    0.136609
      3         11           0        3.386378   -0.111213   -0.499971
      4         11           0        1.970030    3.335166    0.786081
      5         11           0       -0.757098    2.649178   -0.986588
      6         11           0       -2.567876   -0.245903    1.154967
      7         11           0       -4.985140   -0.860079   -0.401883
 ---------------------------------------------------------------------

 SCF Done:  E(UB3LYP) =  -1136.11469778     A.U. after   20 cycles

 The electronic state is 2-A.
 Alpha  occ. eigenvalues --  -38.44816 -38.44512 -38.44348 -38.44034 -38.43847
 Alpha  occ. eigenvalues --  -38.43684 -38.43562  -2.20584  -2.20369  -2.20181
 Alpha  occ. eigenvalues --   -2.19810  -2.19731  -2.19535  -2.19433  -1.14267
 Alpha  occ. eigenvalues --   -1.14237  -1.14212  -1.14057  -1.14052  -1.14015
 Alpha  occ. eigenvalues --   -1.13857  -1.13844  -1.13771  -1.13481  -1.13463
 Alpha  occ. eigenvalues --   -1.13456  -1.13413  -1.13388  -1.13352  -1.13329
 Alpha  occ. eigenvalues --   -1.13159  -1.13154  -1.13087  -1.13063  -1.13015
 Alpha  occ. eigenvalues --   -0.16744  -0.14000  -0.12797  -0.09993
 Alpha virt. eigenvalues --   -0.06354  -0.05796  -0.04991  -0.03277  -0.02790
 Alpha virt. eigenvalues --   -0.02574  -0.01815  -0.01740  -0.00925  -0.00487
 Alpha virt. eigenvalues --   -0.00432   0.00035   0.00365   0.00486   0.00501

  Beta  occ. eigenvalues --  -38.44805 -38.44511 -38.44303 -38.44029 -38.43800
  Beta  occ. eigenvalues --  -38.43595 -38.43559  -2.20563  -2.20370  -2.20097
  Beta  occ. eigenvalues --   -2.19801  -2.19644  -2.19440  -2.19368  -1.14253
  Beta  occ. eigenvalues --   -1.14222  -1.14200  -1.14057  -1.14028  -1.14018
  Beta  occ. eigenvalues --   -1.13799  -1.13784  -1.13715  -1.13477  -1.13452
  Beta  occ. eigenvalues --   -1.13446  -1.13351  -1.13327  -1.13295  -1.13260
  Beta  occ. eigenvalues --   -1.13100  -1.13073  -1.13034  -1.13024  -1.12945
  Beta  occ. eigenvalues --   -0.16235  -0.13501  -0.12505
  Beta virt. eigenvalues --   -0.06715  -0.05943  -0.05533  -0.04565  -0.02955
  Beta virt. eigenvalues --   -0.02555  -0.02457  -0.01694  -0.01364  -0.00729
  Beta virt. eigenvalues --   -0.00225  -0.00080   0.00254   0.00499   0.00558

 Mulliken charges and spin densities:
               1          2
     1  Na  -1.675775  -0.001192
     2  Na   1.306863   0.125813
     3  Na  -0.005046   0.403182
     4  Na   0.084529   0.075160
     5  Na  -0.048884   0.000979
     6  Na   0.081636  -0.069415
     7  Na   0.256677   0.465472
 Sum of Mulliken charges =  -0.00000   1.00000

 Dipole moment (field-independent basis, Debye):
    X=              1.1845    Y=             -0.3230    Z=             -0.2354  Tot=              1.2501
 Quadrupole moment (field-independent basis, Debye-Ang):
   XX=            -74.9897   YY=            -61.9244   ZZ=            -66.2462
   XY=             -7.3321   XZ=              5.1275   YZ=              0.0808

 Normal termination of Gaussian 16 at Wed Nov 29 03:08:09 2023.
