 Gaussian 16, Revision B.01,
 Gaussian 16:  ES64L-G16RevB.01 20-Dec-2017

 -------------------------
 #P B3LYP/6-311+g(d) force
 -------------------------

 -----
 DPGEN
 -----
 Symbolic Z-matrix:
 Charge =  0 Multiplicity = 2

                         Standard orientation:
 ---------------------------------------------------------------------
 Center     Atomic      Atomic             Coordinates (Angstroms)
 Number     Number       Type             X           Y           Z
 ---------------------------------------------------------------------
      1         11           0       -0.225892   -0.480657   -1.361305
      2         11           0        3.247283    0.564503   -0.119610
      3         11           0        0.347930    2.925581   -0.243487
      4         11           0       -0.036028    0.233355    1.662087
      5         11           0       -2.624214    1.515233   -0.024568
      6         11           0        1.503037   -2.557136    0.095076
      7         11           0       -2.212116   -2.200878   -0.008192
 ---------------------------------------------------------------------

 SCF Done:  E(UB3LYP) =  -1136.13311617     A.U. after   23 cycles

 The electronic state is 2-A.
 Alpha  occ. eigenvalues --  -38.44091 -38.43925 -38.43895 -38.43797 -38.43595
 Alpha  occ. eigenvalues --  -38.42790 -38.42687  -2.19888  -2.19797  -2.19763
 Alpha  occ. eigenvalues --   -2.19675  -2.19458  -2.18872  -2.18689  -1.13560
 Alpha  occ. eigenvalues --   -1.13545  -1.13543  -1.13539  -1.13486  -1.13440
 Alpha  occ. eigenvalues --   -1.13423  -1.13414  -1.13366  -1.13365  -1.13341
 Alpha  occ. eigenvalues --   -1.13313  -1.13138  -1.13121  -1.13084  -1.12618
 Alpha  occ. eigenvalues --   -1.12494  -1.12486  -1.12368  -1.12300  -1.12289
 Alpha  occ. eigenvalues --   -0.18980  -0.13087  -0.12865  -0.09933
 Alpha virt. eigenvalues --   -0.05634  -0.05404  -0.05066  -0.02816  -0.02681
 Alpha virt. eigenvalues --   -0.01678  -0.01605  -0.01402  -0.00572  -0.00492
 Alpha virt. eigenvalues --    0.00065   0.00342   0.00810   0.00828   0.00862

  Beta  occ. eigenvalues --  -38.44090 -38.43918 -38.43888 -38.43790 -38.43587
  Beta  occ. eigenvalues --  -38.42735 -38.42604  -2.19887  -2.19789  -2.19755
  Beta  occ. eigenvalues --   -2.19666  -2.19447  -2.18773  -2.18537  -1.13546
  Beta  occ. eigenvalues --   -1.13541  -1.13540  -1.13534  -1.13478  -1.13415
  Beta  occ. eigenvalues --   -1.13409  -1.13389  -1.13365  -1.13362  -1.13313
  Beta  occ. eigenvalues --   -1.13300  -1.13130  -1.13090  -1.13079  -1.12533
  Beta  occ. eigenvalues --   -1.12423  -1.12415  -1.12266  -1.12190  -1.12179
  Beta  occ. eigenvalues --   -0.18277  -0.12829  -0.12616
  Beta virt. eigenvalues --   -0.06081  -0.05610  -0.05391  -0.05018  -0.02027
  Beta virt. eigenvalues --   -0.01957  -0.01538  -0.01334  -0.00759  -0.00592
  Beta virt. eigenvalues --   -0.00536   0.00208   0.00397   0.00833   0.00847

 Mulliken charges and spin densities:
               1          2
     1  Na  -0.707932   0.543894
     2  Na  -0.019050  -0.046623
     3  Na  -0.004446  -0.018444
     4  Na  -0.320142   0.669179
     5  Na   0.344021  -0.009443
     6  Na   0.220570  -0.076229
     7  Na   0.486978  -0.062334
 Sum of Mulliken charges =  -0.00000   1.00000

 Dipole moment (field-independent basis, Debye):
    X=              0.0771    Y=             -0.0784    Z=              0.1413  Tot=              0.1791
 Quadrupole moment (field-independent basis, Debye-Ang):
   XX=            -53.8837   YY=            -57.6999   ZZ=            -78.5472
   XY=              0.3539   XZ=             -0.5040   YZ=             -1.6097

 Normal termination of Gaussian 16 at Thu Dec  7 17:36:58 2023.
