 Gaussian 16, Revision B.01,
 Gaussian 16:  ES64L-G16RevB.01 20-Dec-2017

 -------------------------
 #P B3LYP/6-311+g(d) force
 -------------------------

 -----
 DPGEN
 -----
 Symbolic Z-matrix:
 Charge =  0 Multiplicity = 2

                         Standard orientation:
 ---------------------------------------------------------------------
 Center     Atomic      Atomic             Coordinates (Angstroms)
 Number     Number       Type             X           Y           Z
 ---------------------------------------------------------------------
      1         11           0        0.195957   -0.212742   -1.375243
      2         11           0       -1.298423    1.364876    0.800757
      3         11           0       -1.153863   -1.815826    0.827957
      4         11           0       -2.494943   -0.281209   -0.939643
      5         11           0        1.157889    2.295726   -0.345343
      6         11           0        0.964261    0.053848    1.436757
      7         11           0        2.629123   -1.404673   -0.405243
 ---------------------------------------------------------------------

 SCF Done:  E(UB3LYP) =  -1136.07227267     A.U. after   21 cycles

 The electronic state is 2-A.
 Alpha  occ. eigenvalues --  -38.44749 -38.43993 -38.43876 -38.43691 -38.43683
 Alpha  occ. eigenvalues --  -38.43611 -38.43374  -2.20888  -2.20210  -2.20057
 Alpha  occ. eigenvalues --   -2.19933  -2.19872  -2.19809  -2.19426  -1.14813
 Alpha  occ. eigenvalues --   -1.14596  -1.14559  -1.14241  -1.14051  -1.13932
 Alpha  occ. eigenvalues --   -1.13806  -1.13703  -1.13670  -1.13571  -1.13515
 Alpha  occ. eigenvalues --   -1.13503  -1.13476  -1.13462  -1.13444  -1.13427
 Alpha  occ. eigenvalues --   -1.13389  -1.13330  -1.13080  -1.13044  -1.12971
 Alpha  occ. eigenvalues --   -0.21387  -0.13950  -0.12552  -0.12168
 Alpha virt. eigenvalues --   -0.05364  -0.04454  -0.03813  -0.03528  -0.02887
 Alpha virt. eigenvalues --   -0.02696  -0.01199  -0.00668  -0.00195   0.00335
 Alpha virt. eigenvalues --    0.00735   0.00870   0.00951   0.01064   0.01109

  Beta  occ. eigenvalues --  -38.44720 -38.43986 -38.43805 -38.43660 -38.43610
  Beta  occ. eigenvalues --  -38.43576 -38.43365  -2.20837  -2.20088  -2.19939
  Beta  occ. eigenvalues --   -2.19913  -2.19817  -2.19758  -2.19413  -1.14780
  Beta  occ. eigenvalues --   -1.14550  -1.14500  -1.14165  -1.13973  -1.13843
  Beta  occ. eigenvalues --   -1.13741  -1.13617  -1.13601  -1.13532  -1.13496
  Beta  occ. eigenvalues --   -1.13456  -1.13441  -1.13423  -1.13390  -1.13355
  Beta  occ. eigenvalues --   -1.13306  -1.13281  -1.13066  -1.13000  -1.12961
  Beta  occ. eigenvalues --   -0.20555  -0.13689  -0.12277
  Beta virt. eigenvalues --   -0.07785  -0.05329  -0.04423  -0.03520  -0.02975
  Beta virt. eigenvalues --   -0.02122  -0.01522  -0.01116  -0.00641   0.00025
  Beta virt. eigenvalues --    0.00365   0.00739   0.00918   0.00951   0.01104

 Mulliken charges and spin densities:
               1          2
     1  Na  -0.811161   0.367688
     2  Na  -0.148315   0.337245
     3  Na  -0.426953   0.206241
     4  Na   1.366058  -0.080995
     5  Na   0.176023   0.053155
     6  Na  -0.076369   0.106673
     7  Na  -0.079283   0.009994
 Sum of Mulliken charges =  -0.00000   1.00000

 Dipole moment (field-independent basis, Debye):
    X=              0.3004    Y=             -0.2208    Z=             -0.1867  Tot=              0.4170
 Quadrupole moment (field-independent basis, Debye-Ang):
   XX=            -58.3303   YY=            -68.3218   ZZ=            -68.7182
   XY=              0.1068   XZ=             -0.4535   YZ=             -1.0983

 Normal termination of Gaussian 16 at Fri Dec  8 17:47:54 2023.
