 Gaussian 16, Revision B.01,
 Gaussian 16:  ES64L-G16RevB.01 20-Dec-2017

 -------------------------
 #P B3LYP/6-311+g(d) force
 -------------------------

 -----
 DPGEN
 -----
 Symbolic Z-matrix:
 Charge =  0 Multiplicity = 2

                         Standard orientation:
 ---------------------------------------------------------------------
 Center     Atomic      Atomic             Coordinates (Angstroms)
 Number     Number       Type             X           Y           Z
 ---------------------------------------------------------------------
      1         11           0        0.613519   -0.871732    1.242464
      2         11           0        2.178765   -3.011119   -0.341091
      3         11           0        4.103467   -0.343714   -0.448278
      4         11           0       -0.212923    1.451001   -1.078562
      5         11           0       -3.160637    0.002896    1.086739
      6         11           0        1.944090    3.236011    0.337915
      7         11           0       -5.466283   -0.463344   -0.799186
 ---------------------------------------------------------------------

 SCF Done:  E(UB3LYP) =  -1136.11630124     A.U. after   19 cycles

 The electronic state is 2-A.
 Alpha  occ. eigenvalues --  -38.44738 -38.44529 -38.44158 -38.43879 -38.43877
 Alpha  occ. eigenvalues --  -38.43749 -38.43562  -2.20544  -2.20363  -2.20048
 Alpha  occ. eigenvalues --   -2.19725  -2.19707  -2.19550  -2.19386  -1.14219
 Alpha  occ. eigenvalues --   -1.14182  -1.14160  -1.14049  -1.14037  -1.13990
 Alpha  occ. eigenvalues --   -1.13754  -1.13698  -1.13674  -1.13414  -1.13385
 Alpha  occ. eigenvalues --   -1.13378  -1.13358  -1.13335  -1.13334  -1.13219
 Alpha  occ. eigenvalues --   -1.13202  -1.13190  -1.13053  -1.13049  -1.13022
 Alpha  occ. eigenvalues --   -0.17056  -0.13780  -0.12241  -0.10788
 Alpha virt. eigenvalues --   -0.06098  -0.05716  -0.04642  -0.03612  -0.02775
 Alpha virt. eigenvalues --   -0.02292  -0.02034  -0.01526  -0.01109  -0.00596
 Alpha virt. eigenvalues --   -0.00427  -0.00005   0.00304   0.00484   0.00685

  Beta  occ. eigenvalues --  -38.44673 -38.44523 -38.44100 -38.43880 -38.43808
  Beta  occ. eigenvalues --  -38.43742 -38.43565  -2.20422  -2.20354  -2.19944
  Beta  occ. eigenvalues --   -2.19730  -2.19577  -2.19537  -2.19399  -1.14136
  Beta  occ. eigenvalues --   -1.14103  -1.14071  -1.14037  -1.14033  -1.13977
  Beta  occ. eigenvalues --   -1.13691  -1.13628  -1.13592  -1.13384  -1.13371
  Beta  occ. eigenvalues --   -1.13350  -1.13338  -1.13247  -1.13245  -1.13212
  Beta  occ. eigenvalues --   -1.13192  -1.13176  -1.13068  -1.13060  -1.12975
  Beta  occ. eigenvalues --   -0.16448  -0.13187  -0.12018
  Beta virt. eigenvalues --   -0.07457  -0.05838  -0.05100  -0.04400  -0.03311
  Beta virt. eigenvalues --   -0.02496  -0.02183  -0.01615  -0.01182  -0.00953
  Beta virt. eigenvalues --   -0.00397  -0.00147   0.00167   0.00470   0.00569

 Mulliken charges and spin densities:
               1          2
     1  Na  -0.485693   0.281353
     2  Na   0.543521  -0.050159
     3  Na   0.095735   0.425882
     4  Na  -0.356385  -0.081357
     5  Na  -0.006173   0.002132
     6  Na   0.244961   0.092575
     7  Na  -0.035965   0.329574
 Sum of Mulliken charges =  -0.00000   1.00000

 Dipole moment (field-independent basis, Debye):
    X=              1.0255    Y=             -0.1489    Z=             -0.3900  Tot=              1.1072
 Quadrupole moment (field-independent basis, Debye-Ang):
   XX=            -69.6032   YY=            -68.3002   ZZ=            -64.4720
   XY=              1.2746   XZ=              3.9120   YZ=              3.7732

 Normal termination of Gaussian 16 at Tue Nov 28 20:59:34 2023.
