 Gaussian 16, Revision B.01,
 Gaussian 16:  ES64L-G16RevB.01 20-Dec-2017

 -------------------------
 #P B3LYP/6-311+g(d) force
 -------------------------

 -----
 DPGEN
 -----
 Symbolic Z-matrix:
 Charge =  0 Multiplicity = 2

                         Standard orientation:
 ---------------------------------------------------------------------
 Center     Atomic      Atomic             Coordinates (Angstroms)
 Number     Number       Type             X           Y           Z
 ---------------------------------------------------------------------
      1         11           0        0.465206    0.809502    1.187600
      2         11           0        4.161702    1.111335   -0.205775
      3         11           0       -3.028578    1.271878   -0.581020
      4         11           0        3.128786   -2.317842   -0.666626
      5         11           0       -0.497550    3.673699   -0.098563
      6         11           0       -0.303841   -2.740621    0.555342
      7         11           0       -3.925724   -1.807951   -0.190960
 ---------------------------------------------------------------------

 SCF Done:  E(UB3LYP) =  -1136.11961115     A.U. after   21 cycles

 The electronic state is 2-A.
 Alpha  occ. eigenvalues --  -38.45176 -38.44798 -38.44343 -38.44293 -38.43949
 Alpha  occ. eigenvalues --  -38.43682 -38.43493  -2.20923  -2.20606  -2.20162
 Alpha  occ. eigenvalues --   -2.20081  -2.19761  -2.19481  -2.19304  -1.14616
 Alpha  occ. eigenvalues --   -1.14573  -1.14572  -1.14299  -1.14278  -1.14218
 Alpha  occ. eigenvalues --   -1.13849  -1.13835  -1.13787  -1.13736  -1.13715
 Alpha  occ. eigenvalues --   -1.13700  -1.13423  -1.13416  -1.13400  -1.13162
 Alpha  occ. eigenvalues --   -1.13148  -1.13085  -1.12970  -1.12961  -1.12927
 Alpha  occ. eigenvalues --   -0.16494  -0.13752  -0.12673  -0.10535
 Alpha virt. eigenvalues --   -0.06969  -0.05412  -0.04100  -0.03829  -0.03301
 Alpha virt. eigenvalues --   -0.02263  -0.01850  -0.01429  -0.01288  -0.00903
 Alpha virt. eigenvalues --   -0.00314  -0.00065   0.00431   0.00591   0.00689

  Beta  occ. eigenvalues --  -38.45178 -38.44776 -38.44315 -38.44209 -38.43944
  Beta  occ. eigenvalues --  -38.43637 -38.43458  -2.20933  -2.20565  -2.20114
  Beta  occ. eigenvalues --   -2.19925  -2.19752  -2.19398  -2.19241  -1.14628
  Beta  occ. eigenvalues --   -1.14585  -1.14539  -1.14273  -1.14246  -1.14189
  Beta  occ. eigenvalues --   -1.13820  -1.13809  -1.13725  -1.13629  -1.13608
  Beta  occ. eigenvalues --   -1.13595  -1.13416  -1.13410  -1.13394  -1.13102
  Beta  occ. eigenvalues --   -1.13091  -1.13030  -1.12921  -1.12918  -1.12882
  Beta  occ. eigenvalues --   -0.16041  -0.13020  -0.12266
  Beta virt. eigenvalues --   -0.07144  -0.06904  -0.05287  -0.03832  -0.03306
  Beta virt. eigenvalues --   -0.02856  -0.01979  -0.01537  -0.01329  -0.01237
  Beta virt. eigenvalues --   -0.00642  -0.00020   0.00264   0.00452   0.00618

 Mulliken charges and spin densities:
               1          2
     1  Na  -0.614904   0.175862
     2  Na   0.108725   0.471615
     3  Na  -0.221786   0.115023
     4  Na   0.131391  -0.071882
     5  Na   0.502452  -0.052826
     6  Na  -0.032314   0.122710
     7  Na   0.126436   0.239499
 Sum of Mulliken charges =  -0.00000   1.00000

 Dipole moment (field-independent basis, Debye):
    X=              0.5357    Y=              0.3998    Z=             -0.2484  Tot=              0.7131
 Quadrupole moment (field-independent basis, Debye-Ang):
   XX=            -71.3308   YY=            -57.4372   ZZ=            -71.0057
   XY=             -2.3619   XZ=             -0.7854   YZ=             -0.0467

 Normal termination of Gaussian 16 at Sun Dec  3 15:05:16 2023.
