 Gaussian 16, Revision B.01,
 Gaussian 16:  ES64L-G16RevB.01 20-Dec-2017

 -------------------------
 #P B3LYP/6-311+g(d) force
 -------------------------

 -----
 DPGEN
 -----
 Symbolic Z-matrix:
 Charge =  0 Multiplicity = 2

                         Standard orientation:
 ---------------------------------------------------------------------
 Center     Atomic      Atomic             Coordinates (Angstroms)
 Number     Number       Type             X           Y           Z
 ---------------------------------------------------------------------
      1         11           0       -0.059688   -1.297633    0.813491
      2         11           0        6.300923   -0.203458    0.006939
      3         11           0        3.355687   -0.537203   -0.780216
      4         11           0        1.058875    2.283560   -0.040916
      5         11           0       -2.149620    1.183095    0.872955
      6         11           0       -3.101610   -1.991902   -0.074385
      7         11           0       -5.404567    0.563541   -0.797867
 ---------------------------------------------------------------------

 SCF Done:  E(UB3LYP) =  -1136.11814570     A.U. after   20 cycles

 The electronic state is 2-A.
 Alpha  occ. eigenvalues --  -38.44532 -38.44455 -38.44334 -38.44189 -38.44038
 Alpha  occ. eigenvalues --  -38.43784 -38.43554  -2.20405  -2.20261  -2.20197
 Alpha  occ. eigenvalues --   -2.20080  -2.19834  -2.19569  -2.19388  -1.14130
 Alpha  occ. eigenvalues --   -1.14099  -1.14001  -1.13929  -1.13906  -1.13898
 Alpha  occ. eigenvalues --   -1.13872  -1.13868  -1.13815  -1.13752  -1.13734
 Alpha  occ. eigenvalues --   -1.13663  -1.13494  -1.13492  -1.13450  -1.13288
 Alpha  occ. eigenvalues --   -1.13226  -1.13225  -1.13065  -1.13047  -1.12984
 Alpha  occ. eigenvalues --   -0.17319  -0.14046  -0.11637  -0.11570
 Alpha virt. eigenvalues --   -0.06661  -0.05596  -0.04185  -0.03673  -0.03116
 Alpha virt. eigenvalues --   -0.02593  -0.01995  -0.01375  -0.01093  -0.00633
 Alpha virt. eigenvalues --   -0.00425  -0.00102   0.00174   0.00396   0.00643

  Beta  occ. eigenvalues --  -38.44507 -38.44408 -38.44296 -38.44129 -38.43997
  Beta  occ. eigenvalues --  -38.43797 -38.43550  -2.20361  -2.20174  -2.20132
  Beta  occ. eigenvalues --   -2.19974  -2.19757  -2.19594  -2.19380  -1.14081
  Beta  occ. eigenvalues --   -1.14067  -1.13964  -1.13870  -1.13843  -1.13837
  Beta  occ. eigenvalues --   -1.13829  -1.13819  -1.13745  -1.13683  -1.13664
  Beta  occ. eigenvalues --   -1.13566  -1.13441  -1.13434  -1.13402  -1.13302
  Beta  occ. eigenvalues --   -1.13242  -1.13241  -1.13054  -1.13040  -1.12991
  Beta  occ. eigenvalues --   -0.16581  -0.13887  -0.11401
  Beta virt. eigenvalues --   -0.07714  -0.06533  -0.04997  -0.03943  -0.03475
  Beta virt. eigenvalues --   -0.02529  -0.02185  -0.01811  -0.01307  -0.00775
  Beta virt. eigenvalues --   -0.00478  -0.00123   0.00049   0.00362   0.00461

 Mulliken charges and spin densities:
               1          2
     1  Na  -0.131533   0.583360
     2  Na   0.365327  -0.063178
     3  Na  -0.559181  -0.063551
     4  Na   0.323362   0.235615
     5  Na  -0.499433   0.169151
     6  Na   0.323425  -0.047473
     7  Na   0.178034   0.186076
 Sum of Mulliken charges =  -0.00000   1.00000

 Dipole moment (field-independent basis, Debye):
    X=             -0.8839    Y=              0.4407    Z=              0.0888  Tot=              0.9917
 Quadrupole moment (field-independent basis, Debye-Ang):
   XX=            -63.8106   YY=            -66.3687   ZZ=            -70.4563
   XY=              2.8787   XZ=              4.1325   YZ=              0.0140

 Normal termination of Gaussian 16 at Wed Nov 29 02:36:38 2023.
