 Gaussian 16, Revision B.01,
 Gaussian 16:  ES64L-G16RevB.01 20-Dec-2017

 -------------------------
 #P B3LYP/6-311+g(d) force
 -------------------------

 -----
 DPGEN
 -----
 Symbolic Z-matrix:
 Charge =  0 Multiplicity = 2

                         Standard orientation:
 ---------------------------------------------------------------------
 Center     Atomic      Atomic             Coordinates (Angstroms)
 Number     Number       Type             X           Y           Z
 ---------------------------------------------------------------------
      1         11           0       -0.022582    2.651561    0.674725
      2         11           0        5.893952   -0.069292   -0.218470
      3         11           0        2.753931    1.030964   -0.648173
      4         11           0        2.709097   -2.466603    0.501416
      5         11           0       -0.505252   -0.351914   -0.092455
      6         11           0       -3.866678   -0.452111    0.055452
      7         11           0       -6.962468   -0.342605   -0.272494
 ---------------------------------------------------------------------

 SCF Done:  E(UB3LYP) =  -1136.11566881     A.U. after   23 cycles

 The electronic state is 2-A.
 Alpha  occ. eigenvalues --  -38.44957 -38.44471 -38.44358 -38.44188 -38.44177
 Alpha  occ. eigenvalues --  -38.44029 -38.43602  -2.20743  -2.20308  -2.20140
 Alpha  occ. eigenvalues --   -2.20050  -2.19961  -2.19910  -2.19421  -1.14412
 Alpha  occ. eigenvalues --   -1.14397  -1.14338  -1.13979  -1.13956  -1.13953
 Alpha  occ. eigenvalues --   -1.13819  -1.13804  -1.13765  -1.13752  -1.13734
 Alpha  occ. eigenvalues --   -1.13637  -1.13634  -1.13613  -1.13613  -1.13587
 Alpha  occ. eigenvalues --   -1.13572  -1.13536  -1.13088  -1.13081  -1.13056
 Alpha  occ. eigenvalues --   -0.16955  -0.13799  -0.12196  -0.11214
 Alpha virt. eigenvalues --   -0.07110  -0.05721  -0.03925  -0.03565  -0.03115
 Alpha virt. eigenvalues --   -0.02564  -0.02012  -0.01776  -0.01169  -0.01018
 Alpha virt. eigenvalues --   -0.00438  -0.00146   0.00027   0.00263   0.00578

  Beta  occ. eigenvalues --  -38.44880 -38.44439 -38.44332 -38.44174 -38.44161
  Beta  occ. eigenvalues --  -38.44006 -38.43602  -2.20601  -2.20247  -2.20092
  Beta  occ. eigenvalues --   -2.20004  -2.19955  -2.19869  -2.19421  -1.14317
  Beta  occ. eigenvalues --   -1.14299  -1.14232  -1.13943  -1.13915  -1.13903
  Beta  occ. eigenvalues --   -1.13778  -1.13771  -1.13735  -1.13718  -1.13685
  Beta  occ. eigenvalues --   -1.13632  -1.13610  -1.13609  -1.13601  -1.13563
  Beta  occ. eigenvalues --   -1.13547  -1.13480  -1.13086  -1.13079  -1.13058
  Beta  occ. eigenvalues --   -0.16296  -0.13643  -0.11903
  Beta virt. eigenvalues --   -0.07655  -0.06607  -0.05331  -0.03669  -0.03263
  Beta virt. eigenvalues --   -0.02637  -0.02425  -0.01707  -0.01583  -0.00954
  Beta virt. eigenvalues --   -0.00759  -0.00099   0.00079   0.00174   0.00396

 Mulliken charges and spin densities:
               1          2
     1  Na   0.629771   0.158933
     2  Na  -0.008830   0.155863
     3  Na   0.576387   0.276978
     4  Na   0.688779   0.211199
     5  Na  -1.872792   0.189920
     6  Na  -0.539652  -0.043568
     7  Na   0.526338   0.050674
 Sum of Mulliken charges =  -0.00000   1.00000

 Dipole moment (field-independent basis, Debye):
    X=              1.0068    Y=              0.4443    Z=              0.4486  Tot=              1.1884
 Quadrupole moment (field-independent basis, Debye-Ang):
   XX=            -54.2944   YY=            -66.6597   ZZ=            -72.0578
   XY=             -4.5197   XZ=              1.4335   YZ=              0.7040

 Normal termination of Gaussian 16 at Tue Nov 28 19:45:46 2023.
