 Gaussian 16, Revision B.01,
 Gaussian 16:  ES64L-G16RevB.01 20-Dec-2017

 -------------------------
 #P B3LYP/6-311+g(d) force
 -------------------------

 -----
 DPGEN
 -----
 Symbolic Z-matrix:
 Charge =  0 Multiplicity = 2

                         Standard orientation:
 ---------------------------------------------------------------------
 Center     Atomic      Atomic             Coordinates (Angstroms)
 Number     Number       Type             X           Y           Z
 ---------------------------------------------------------------------
      1         11           0        1.674139    2.439537    0.225750
      2         11           0       -0.645918    0.236696    2.271661
      3         11           0        3.477911   -0.349667   -0.374266
      4         11           0        1.325247   -2.333402    0.035806
      5         11           0       -3.020844   -1.555460   -0.041323
      6         11           0       -2.736469    1.579731   -0.774455
      7         11           0       -0.074066   -0.017434   -1.343174
 ---------------------------------------------------------------------

 SCF Done:  E(UB3LYP) =  -1136.12262378     A.U. after   23 cycles

 The electronic state is 2-A.
 Alpha  occ. eigenvalues --  -38.44718 -38.44645 -38.44331 -38.43985 -38.43757
 Alpha  occ. eigenvalues --  -38.43037 -38.42977  -2.20588  -2.20465  -2.20193
 Alpha  occ. eigenvalues --   -2.19831  -2.19754  -2.18940  -2.18803  -1.14294
 Alpha  occ. eigenvalues --   -1.14239  -1.14215  -1.14147  -1.14131  -1.14108
 Alpha  occ. eigenvalues --   -1.13898  -1.13828  -1.13808  -1.13499  -1.13473
 Alpha  occ. eigenvalues --   -1.13460  -1.13437  -1.13415  -1.13363  -1.12638
 Alpha  occ. eigenvalues --   -1.12591  -1.12559  -1.12481  -1.12465  -1.12447
 Alpha  occ. eigenvalues --   -0.18496  -0.14086  -0.11369  -0.10954
 Alpha virt. eigenvalues --   -0.06515  -0.05629  -0.03876  -0.03376  -0.02765
 Alpha virt. eigenvalues --   -0.02453  -0.02309  -0.01343  -0.00489  -0.00134
 Alpha virt. eigenvalues --   -0.00020   0.00238   0.00572   0.00786   0.00809

  Beta  occ. eigenvalues --  -38.44713 -38.44639 -38.44301 -38.43872 -38.43725
  Beta  occ. eigenvalues --  -38.43035 -38.42978  -2.20580  -2.20459  -2.20141
  Beta  occ. eigenvalues --   -2.19698  -2.19623  -2.18939  -2.18806  -1.14292
  Beta  occ. eigenvalues --   -1.14224  -1.14212  -1.14144  -1.14118  -1.14089
  Beta  occ. eigenvalues --   -1.13856  -1.13793  -1.13763  -1.13428  -1.13384
  Beta  occ. eigenvalues --   -1.13340  -1.13324  -1.13319  -1.13285  -1.12637
  Beta  occ. eigenvalues --   -1.12595  -1.12537  -1.12484  -1.12461  -1.12442
  Beta  occ. eigenvalues --   -0.17831  -0.13815  -0.11192
  Beta virt. eigenvalues --   -0.06992  -0.06387  -0.05553  -0.03650  -0.02919
  Beta virt. eigenvalues --   -0.02225  -0.01767  -0.01644  -0.01284  -0.00419
  Beta virt. eigenvalues --   -0.00050   0.00065   0.00294   0.00681   0.00807

 Mulliken charges and spin densities:
               1          2
     1  Na   0.105120   0.062320
     2  Na  -0.577578   0.664482
     3  Na   0.136328  -0.008185
     4  Na   0.300329   0.122222
     5  Na   0.222864   0.110132
     6  Na   0.341528   0.184733
     7  Na  -0.528590  -0.135704
 Sum of Mulliken charges =  -0.00000   1.00000

 Dipole moment (field-independent basis, Debye):
    X=             -0.5134    Y=             -0.0259    Z=              0.1904  Tot=              0.5482
 Quadrupole moment (field-independent basis, Debye-Ang):
   XX=            -49.6475   YY=            -70.9633   ZZ=            -73.4814
   XY=              1.2440   XZ=             -0.0497   YZ=             -1.0078

 Normal termination of Gaussian 16 at Thu Dec  7 02:09:30 2023.
