 Gaussian 16, Revision B.01,
 Gaussian 16:  ES64L-G16RevB.01 20-Dec-2017

 -------------------------
 #P B3LYP/6-311+g(d) force
 -------------------------

 -----
 DPGEN
 -----
 Symbolic Z-matrix:
 Charge =  0 Multiplicity = 2

                         Standard orientation:
 ---------------------------------------------------------------------
 Center     Atomic      Atomic             Coordinates (Angstroms)
 Number     Number       Type             X           Y           Z
 ---------------------------------------------------------------------
      1         11           0        3.347279   -0.643594    0.306349
      2         11           0        0.943511   -2.381728   -1.563309
      3         11           0       -0.342106   -1.866891    2.290699
      4         11           0       -2.908860    0.159421    1.310814
      5         11           0        2.526218    2.723832    0.109777
      6         11           0       -2.042395   -0.783609   -1.984290
      7         11           0       -1.523649    2.792570   -0.470039
 ---------------------------------------------------------------------

 SCF Done:  E(UB3LYP) =  -1136.11853305     A.U. after   20 cycles

 The electronic state is 2-A.
 Alpha  occ. eigenvalues --  -38.45108 -38.44736 -38.44448 -38.44234 -38.44115
 Alpha  occ. eigenvalues --  -38.44031 -38.43854  -2.20895  -2.20551  -2.20277
 Alpha  occ. eigenvalues --   -2.19995  -2.19892  -2.19831  -2.19593  -1.14557
 Alpha  occ. eigenvalues --   -1.14538  -1.14501  -1.14227  -1.14200  -1.14165
 Alpha  occ. eigenvalues --   -1.13955  -1.13935  -1.13907  -1.13683  -1.13661
 Alpha  occ. eigenvalues --   -1.13614  -1.13580  -1.13561  -1.13531  -1.13507
 Alpha  occ. eigenvalues --   -1.13481  -1.13457  -1.13277  -1.13258  -1.13236
 Alpha  occ. eigenvalues --   -0.16886  -0.13094  -0.12003  -0.11922
 Alpha virt. eigenvalues --   -0.06143  -0.05924  -0.04861  -0.03651  -0.03211
 Alpha virt. eigenvalues --   -0.02870  -0.01250  -0.01089  -0.00901  -0.00651
 Alpha virt. eigenvalues --   -0.00425   0.00027   0.00146   0.00474   0.00582

  Beta  occ. eigenvalues --  -38.45019 -38.44673 -38.44420 -38.44226 -38.44113
  Beta  occ. eigenvalues --  -38.44001 -38.43866  -2.20731  -2.20435  -2.20229
  Beta  occ. eigenvalues --   -2.19980  -2.19888  -2.19777  -2.19615  -1.14443
  Beta  occ. eigenvalues --   -1.14428  -1.14382  -1.14143  -1.14128  -1.14075
  Beta  occ. eigenvalues --   -1.13921  -1.13908  -1.13848  -1.13667  -1.13651
  Beta  occ. eigenvalues --   -1.13607  -1.13572  -1.13556  -1.13532  -1.13466
  Beta  occ. eigenvalues --   -1.13448  -1.13413  -1.13291  -1.13272  -1.13250
  Beta  occ. eigenvalues --   -0.16164  -0.13025  -0.11738
  Beta virt. eigenvalues --   -0.07909  -0.05995  -0.05787  -0.04203  -0.03416
  Beta virt. eigenvalues --   -0.02520  -0.02363  -0.01193  -0.00944  -0.00855
  Beta virt. eigenvalues --   -0.00571  -0.00095   0.00220   0.00275   0.00542

 Mulliken charges and spin densities:
               1          2
     1  Na  -0.230978   0.123908
     2  Na  -0.007637   0.200683
     3  Na  -0.086514   0.303084
     4  Na   0.339281   0.271712
     5  Na   0.213750  -0.128119
     6  Na   0.190086   0.147548
     7  Na  -0.417988   0.081184
 Sum of Mulliken charges =  -0.00000   1.00000

 Dipole moment (field-independent basis, Debye):
    X=             -0.6268    Y=             -0.4567    Z=              0.1682  Tot=              0.7936
 Quadrupole moment (field-independent basis, Debye-Ang):
   XX=            -63.7590   YY=            -69.4161   ZZ=            -67.8291
   XY=             -2.9469   XZ=              1.0162   YZ=             -1.0816

 Normal termination of Gaussian 16 at Sun Dec  3 17:05:07 2023.
