 Gaussian 16, Revision B.01,
 Gaussian 16:  ES64L-G16RevB.01 20-Dec-2017

 -------------------------
 #P B3LYP/6-311+g(d) force
 -------------------------

 -----
 DPGEN
 -----
 Symbolic Z-matrix:
 Charge =  0 Multiplicity = 2

                         Standard orientation:
 ---------------------------------------------------------------------
 Center     Atomic      Atomic             Coordinates (Angstroms)
 Number     Number       Type             X           Y           Z
 ---------------------------------------------------------------------
      1         11           0       -1.956796    0.033981    1.981281
      2         11           0        3.536299    1.805414    0.238974
      3         11           0        1.501369   -1.620132    1.335298
      4         11           0       -3.260784    1.638510   -0.878677
      5         11           0        1.949150   -1.220312   -1.696616
      6         11           0        0.283478    1.081802   -0.232561
      7         11           0       -2.052715   -1.719264   -0.747699
 ---------------------------------------------------------------------

 SCF Done:  E(UB3LYP) =  -1136.12195383     A.U. after   25 cycles

 The electronic state is 2-A.
 Alpha  occ. eigenvalues --  -38.44211 -38.44181 -38.44167 -38.44039 -38.43801
 Alpha  occ. eigenvalues --  -38.43744 -38.43234  -2.20076  -2.20054  -2.20049
 Alpha  occ. eigenvalues --   -2.19858  -2.19670  -2.19528  -2.19203  -1.13804
 Alpha  occ. eigenvalues --   -1.13767  -1.13762  -1.13745  -1.13732  -1.13678
 Alpha  occ. eigenvalues --   -1.13671  -1.13649  -1.13621  -1.13523  -1.13513
 Alpha  occ. eigenvalues --   -1.13482  -1.13361  -1.13334  -1.13271  -1.13201
 Alpha  occ. eigenvalues --   -1.13196  -1.13163  -1.12937  -1.12873  -1.12800
 Alpha  occ. eigenvalues --   -0.18438  -0.14086  -0.11022  -0.10832
 Alpha virt. eigenvalues --   -0.06105  -0.05740  -0.05040  -0.03035  -0.02484
 Alpha virt. eigenvalues --   -0.02228  -0.02030  -0.01327  -0.00751  -0.00181
 Alpha virt. eigenvalues --    0.00172   0.00248   0.00338   0.00374   0.00510

  Beta  occ. eigenvalues --  -38.44191 -38.44125 -38.44119 -38.44019 -38.43784
  Beta  occ. eigenvalues --  -38.43747 -38.43216  -2.20017  -2.19972  -2.19964
  Beta  occ. eigenvalues --   -2.19822  -2.19641  -2.19533  -2.19178  -1.13758
  Beta  occ. eigenvalues --   -1.13717  -1.13701  -1.13687  -1.13681  -1.13632
  Beta  occ. eigenvalues --   -1.13618  -1.13574  -1.13563  -1.13495  -1.13481
  Beta  occ. eigenvalues --   -1.13460  -1.13342  -1.13286  -1.13252  -1.13205
  Beta  occ. eigenvalues --   -1.13195  -1.13167  -1.12867  -1.12864  -1.12788
  Beta  occ. eigenvalues --   -0.17724  -0.13897  -0.10689
  Beta virt. eigenvalues --   -0.07189  -0.05925  -0.05609  -0.04332  -0.02805
  Beta virt. eigenvalues --   -0.02203  -0.01751  -0.01547  -0.01198  -0.00290
  Beta virt. eigenvalues --   -0.00122   0.00239   0.00311   0.00403   0.00532

 Mulliken charges and spin densities:
               1          2
     1  Na   0.309849   0.034095
     2  Na   0.562666  -0.190591
     3  Na   0.215189   0.116573
     4  Na   0.753217   0.017569
     5  Na   0.320280  -0.020824
     6  Na  -2.284733   0.668248
     7  Na   0.123533   0.374930
 Sum of Mulliken charges =  -0.00000   1.00000

 Dipole moment (field-independent basis, Debye):
    X=             -0.3598    Y=             -0.5822    Z=              0.0321  Tot=              0.6852
 Quadrupole moment (field-independent basis, Debye-Ang):
   XX=            -52.5068   YY=            -74.1337   ZZ=            -66.8412
   XY=             -1.8407   XZ=              0.9252   YZ=              0.4146

 Normal termination of Gaussian 16 at Tue Dec  5 17:25:44 2023.
