 Gaussian 16, Revision B.01,
 Gaussian 16:  ES64L-G16RevB.01 20-Dec-2017

 -------------------------
 #P B3LYP/6-311+g(d) force
 -------------------------

 -----
 DPGEN
 -----
 Symbolic Z-matrix:
 Charge =  0 Multiplicity = 2

                         Standard orientation:
 ---------------------------------------------------------------------
 Center     Atomic      Atomic             Coordinates (Angstroms)
 Number     Number       Type             X           Y           Z
 ---------------------------------------------------------------------
      1         11           0        1.371428   -0.589007    2.032286
      2         11           0       -0.717219    1.742352    0.107717
      3         11           0       -2.547123   -1.383826    0.547995
      4         11           0       -5.418368    0.169813   -0.428061
      5         11           0        3.933686   -1.377013   -0.503259
      6         11           0        2.504269    2.215858   -0.073357
      7         11           0        0.873327   -0.778176   -1.683321
 ---------------------------------------------------------------------

 SCF Done:  E(UB3LYP) =  -1136.11147432     A.U. after   28 cycles

 The electronic state is 2-A.
 Alpha  occ. eigenvalues --  -38.46222 -38.45293 -38.44639 -38.43942 -38.43854
 Alpha  occ. eigenvalues --  -38.42875 -38.42847  -2.22046  -2.21121  -2.20411
 Alpha  occ. eigenvalues --   -2.19740  -2.19713  -2.18750  -2.18670  -1.15721
 Alpha  occ. eigenvalues --   -1.15699  -1.15681  -1.14788  -1.14768  -1.14734
 Alpha  occ. eigenvalues --   -1.14066  -1.14062  -1.14033  -1.13435  -1.13415
 Alpha  occ. eigenvalues --   -1.13390  -1.13366  -1.13359  -1.13328  -1.12462
 Alpha  occ. eigenvalues --   -1.12416  -1.12363  -1.12345  -1.12329  -1.12320
 Alpha  occ. eigenvalues --   -0.17984  -0.13738  -0.11082  -0.10832
 Alpha virt. eigenvalues --   -0.08113  -0.05011  -0.04447  -0.03198  -0.03086
 Alpha virt. eigenvalues --   -0.02403  -0.02220  -0.01869  -0.01471  -0.00827
 Alpha virt. eigenvalues --   -0.00278   0.00106   0.00167   0.00564   0.00612

  Beta  occ. eigenvalues --  -38.46204 -38.45229 -38.44588 -38.43937 -38.43810
  Beta  occ. eigenvalues --  -38.42879 -38.42848  -2.22016  -2.21004  -2.20315
  Beta  occ. eigenvalues --   -2.19735  -2.19632  -2.18760  -2.18673  -1.15688
  Beta  occ. eigenvalues --   -1.15672  -1.15659  -1.14697  -1.14687  -1.14653
  Beta  occ. eigenvalues --   -1.14000  -1.13997  -1.13972  -1.13437  -1.13418
  Beta  occ. eigenvalues --   -1.13331  -1.13324  -1.13310  -1.13267  -1.12475
  Beta  occ. eigenvalues --   -1.12405  -1.12365  -1.12345  -1.12329  -1.12315
  Beta  occ. eigenvalues --   -0.17401  -0.13377  -0.10792
  Beta virt. eigenvalues --   -0.07838  -0.07283  -0.04597  -0.04316  -0.03016
  Beta virt. eigenvalues --   -0.02793  -0.01954  -0.01775  -0.01394  -0.01114
  Beta virt. eigenvalues --   -0.00660  -0.00192   0.00180   0.00283   0.00594

 Mulliken charges and spin densities:
               1          2
     1  Na   0.022543   0.319588
     2  Na  -0.340375  -0.093270
     3  Na  -0.073423   0.042494
     4  Na   0.071365   0.262287
     5  Na   0.088102  -0.037110
     6  Na   0.143396   0.299912
     7  Na   0.088393   0.206099
 Sum of Mulliken charges =  -0.00000   1.00000

 Dipole moment (field-independent basis, Debye):
    X=              0.0959    Y=              0.3476    Z=              0.2614  Tot=              0.4454
 Quadrupole moment (field-independent basis, Debye-Ang):
   XX=            -61.6155   YY=            -76.7836   ZZ=            -64.7375
   XY=              1.2228   XZ=              5.5886   YZ=             -0.2296

 Normal termination of Gaussian 16 at Thu Dec  7 17:33:10 2023.
