 Gaussian 16, Revision B.01,
 Gaussian 16:  ES64L-G16RevB.01 20-Dec-2017

 -------------------------
 #P B3LYP/6-311+g(d) force
 -------------------------

 -----
 DPGEN
 -----
 Symbolic Z-matrix:
 Charge =  0 Multiplicity = 2

                         Standard orientation:
 ---------------------------------------------------------------------
 Center     Atomic      Atomic             Coordinates (Angstroms)
 Number     Number       Type             X           Y           Z
 ---------------------------------------------------------------------
      1         11           0        3.884217   -0.518930    0.530952
      2         11           0       -1.093144   -0.009605   -1.569430
      3         11           0       -2.199781    2.313441    0.166024
      4         11           0       -3.519297   -1.548876    0.319714
      5         11           0        2.077338    1.747107   -0.874920
      6         11           0        0.856161   -2.317607   -0.536421
      7         11           0       -0.005494    0.334471    1.964081
 ---------------------------------------------------------------------

 SCF Done:  E(UB3LYP) =  -1136.11872391     A.U. after   25 cycles

 The electronic state is 2-A.
 Alpha  occ. eigenvalues --  -38.45253 -38.45044 -38.44412 -38.44048 -38.43584
 Alpha  occ. eigenvalues --  -38.43546 -38.43014  -2.21001  -2.20839  -2.20245
 Alpha  occ. eigenvalues --   -2.19870  -2.19404  -2.19382  -2.18989  -1.14685
 Alpha  occ. eigenvalues --   -1.14651  -1.14637  -1.14526  -1.14493  -1.14470
 Alpha  occ. eigenvalues --   -1.13932  -1.13881  -1.13860  -1.13540  -1.13535
 Alpha  occ. eigenvalues --   -1.13502  -1.13138  -1.13105  -1.13079  -1.13043
 Alpha  occ. eigenvalues --   -1.13001  -1.12998  -1.12682  -1.12633  -1.12577
 Alpha  occ. eigenvalues --   -0.18091  -0.13723  -0.11204  -0.10564
 Alpha virt. eigenvalues --   -0.07232  -0.05705  -0.04032  -0.03192  -0.02792
 Alpha virt. eigenvalues --   -0.02385  -0.02308  -0.01580  -0.00742  -0.00278
 Alpha virt. eigenvalues --   -0.00022   0.00127   0.00418   0.00595   0.00650

  Beta  occ. eigenvalues --  -38.45252 -38.45039 -38.44343 -38.44026 -38.43566
  Beta  occ. eigenvalues --  -38.43545 -38.42952  -2.21000  -2.20831  -2.20118
  Beta  occ. eigenvalues --   -2.19832  -2.19384  -2.19377  -2.18876  -1.14680
  Beta  occ. eigenvalues --   -1.14646  -1.14637  -1.14520  -1.14482  -1.14464
  Beta  occ. eigenvalues --   -1.13844  -1.13792  -1.13766  -1.13513  -1.13490
  Beta  occ. eigenvalues --   -1.13480  -1.13114  -1.13099  -1.13039  -1.13032
  Beta  occ. eigenvalues --   -1.12998  -1.12984  -1.12607  -1.12551  -1.12490
  Beta  occ. eigenvalues --   -0.17373  -0.13594  -0.10962
  Beta virt. eigenvalues --   -0.07089  -0.06729  -0.05621  -0.03686  -0.02904
  Beta virt. eigenvalues --   -0.02541  -0.01797  -0.01482  -0.01379  -0.00611
  Beta virt. eigenvalues --   -0.00130  -0.00020   0.00153   0.00556   0.00665

 Mulliken charges and spin densities:
               1          2
     1  Na   0.207146   0.084488
     2  Na   0.049014   0.215329
     3  Na   0.188223  -0.018848
     4  Na   0.071336   0.014360
     5  Na  -0.024889   0.031795
     6  Na  -0.106016   0.009067
     7  Na  -0.384814   0.663809
 Sum of Mulliken charges =  -0.00000   1.00000

 Dipole moment (field-independent basis, Debye):
    X=              0.1401    Y=             -0.1266    Z=              0.4866  Tot=              0.5220
 Quadrupole moment (field-independent basis, Debye-Ang):
   XX=            -44.8871   YY=            -72.5136   ZZ=            -74.2042
   XY=             -0.0782   XZ=             -0.5380   YZ=             -2.2595

 Normal termination of Gaussian 16 at Thu Dec  7 23:56:41 2023.
