 Gaussian 16, Revision B.01,
 Gaussian 16:  ES64L-G16RevB.01 20-Dec-2017

 -------------------------
 #P B3LYP/6-311+g(d) force
 -------------------------

 -----
 DPGEN
 -----
 Symbolic Z-matrix:
 Charge =  0 Multiplicity = 2

                         Standard orientation:
 ---------------------------------------------------------------------
 Center     Atomic      Atomic             Coordinates (Angstroms)
 Number     Number       Type             X           Y           Z
 ---------------------------------------------------------------------
      1         11           0        0.939620    3.624326   -0.228549
      2         11           0        2.462235   -2.759165    0.319999
      3         11           0       -1.261339   -1.553426   -1.041675
      4         11           0        0.931383   -0.054691    1.981494
      5         11           0       -1.394054    1.349601    0.342237
      6         11           0        2.208168    0.164707   -1.410029
      7         11           0       -3.886013   -0.771352    0.036521
 ---------------------------------------------------------------------

 SCF Done:  E(UB3LYP) =  -1136.12678726     A.U. after   19 cycles

 The electronic state is 2-A.
 Alpha  occ. eigenvalues --  -38.44277 -38.44115 -38.44002 -38.43920 -38.43739
 Alpha  occ. eigenvalues --  -38.43629 -38.43215  -2.20144  -2.20013  -2.19806
 Alpha  occ. eigenvalues --   -2.19760  -2.19623  -2.19419  -2.19172  -1.13925
 Alpha  occ. eigenvalues --   -1.13801  -1.13777  -1.13713  -1.13659  -1.13560
 Alpha  occ. eigenvalues --   -1.13486  -1.13471  -1.13457  -1.13443  -1.13420
 Alpha  occ. eigenvalues --   -1.13346  -1.13329  -1.13252  -1.13216  -1.13106
 Alpha  occ. eigenvalues --   -1.13075  -1.13056  -1.12892  -1.12852  -1.12749
 Alpha  occ. eigenvalues --   -0.18072  -0.13552  -0.12319  -0.10499
 Alpha virt. eigenvalues --   -0.06101  -0.05220  -0.04856  -0.03264  -0.02850
 Alpha virt. eigenvalues --   -0.02321  -0.01901  -0.01606  -0.00540  -0.00170
 Alpha virt. eigenvalues --    0.00010   0.00265   0.00678   0.00770   0.00792

  Beta  occ. eigenvalues --  -38.44280 -38.44094 -38.44001 -38.43868 -38.43648
  Beta  occ. eigenvalues --  -38.43627 -38.43197  -2.20150  -2.19976  -2.19805
  Beta  occ. eigenvalues --   -2.19665  -2.19456  -2.19416  -2.19145  -1.13920
  Beta  occ. eigenvalues --   -1.13804  -1.13776  -1.13691  -1.13620  -1.13542
  Beta  occ. eigenvalues --   -1.13484  -1.13454  -1.13447  -1.13377  -1.13355
  Beta  occ. eigenvalues --   -1.13281  -1.13216  -1.13136  -1.13106  -1.13099
  Beta  occ. eigenvalues --   -1.13061  -1.13054  -1.12874  -1.12794  -1.12740
  Beta  occ. eigenvalues --   -0.17413  -0.13347  -0.12144
  Beta virt. eigenvalues --   -0.06694  -0.05919  -0.05053  -0.04665  -0.02754
  Beta virt. eigenvalues --   -0.02268  -0.01856  -0.01523  -0.01398  -0.00555
  Beta virt. eigenvalues --    0.00076   0.00129   0.00373   0.00778   0.00787

 Mulliken charges and spin densities:
               1          2
     1  Na   0.261838   0.006120
     2  Na   0.305436  -0.063712
     3  Na  -0.466575   0.097548
     4  Na   0.051918   0.380788
     5  Na  -0.653106   0.200379
     6  Na  -0.222635   0.419568
     7  Na   0.723123  -0.040691
 Sum of Mulliken charges =  -0.00000   1.00000

 Dipole moment (field-independent basis, Debye):
    X=             -0.3834    Y=             -0.5333    Z=              0.1312  Tot=              0.6698
 Quadrupole moment (field-independent basis, Debye-Ang):
   XX=            -56.4133   YY=            -61.2669   ZZ=            -74.6246
   XY=             -0.3874   XZ=             -1.2863   YZ=             -0.5252

 Normal termination of Gaussian 16 at Sun Dec  3 19:02:59 2023.
