 Gaussian 16, Revision B.01,
 Gaussian 16:  ES64L-G16RevB.01 20-Dec-2017

 -------------------------
 #P B3LYP/6-311+g(d) force
 -------------------------

 -----
 DPGEN
 -----
 Symbolic Z-matrix:
 Charge =  0 Multiplicity = 2

                         Standard orientation:
 ---------------------------------------------------------------------
 Center     Atomic      Atomic             Coordinates (Angstroms)
 Number     Number       Type             X           Y           Z
 ---------------------------------------------------------------------
      1         11           0        1.543707   -0.955978    1.929442
      2         11           0        1.545285    2.553248    0.891275
      3         11           0       -3.340960    1.985767   -0.474239
      4         11           0       -0.423864    0.436288   -0.441465
      5         11           0       -2.606087   -1.992532    0.613351
      6         11           0        2.526915    0.387760   -1.482851
      7         11           0        0.755004   -2.414553   -1.035514
 ---------------------------------------------------------------------

 SCF Done:  E(UB3LYP) =  -1136.12504666     A.U. after   21 cycles

 The electronic state is 2-A.
 Alpha  occ. eigenvalues --  -38.44683 -38.44108 -38.44104 -38.43817 -38.43721
 Alpha  occ. eigenvalues --  -38.43109 -38.42414  -2.20448  -2.19974  -2.19870
 Alpha  occ. eigenvalues --   -2.19738  -2.19574  -2.19017  -2.18503  -1.14130
 Alpha  occ. eigenvalues --   -1.14117  -1.14064  -1.13656  -1.13618  -1.13575
 Alpha  occ. eigenvalues --   -1.13548  -1.13530  -1.13501  -1.13449  -1.13368
 Alpha  occ. eigenvalues --   -1.13366  -1.13262  -1.13217  -1.13194  -1.12741
 Alpha  occ. eigenvalues --   -1.12669  -1.12627  -1.12215  -1.12154  -1.12140
 Alpha  occ. eigenvalues --   -0.18471  -0.12917  -0.12003  -0.10958
 Alpha virt. eigenvalues --   -0.06130  -0.05288  -0.04310  -0.03076  -0.02671
 Alpha virt. eigenvalues --   -0.02531  -0.01601  -0.01258  -0.00661  -0.00162
 Alpha virt. eigenvalues --   -0.00043   0.00290   0.00423   0.00717   0.00777

  Beta  occ. eigenvalues --  -38.44678 -38.44108 -38.44027 -38.43764 -38.43704
  Beta  occ. eigenvalues --  -38.43086 -38.42394  -2.20440  -2.19869  -2.19832
  Beta  occ. eigenvalues --   -2.19642  -2.19545  -2.18980  -2.18473  -1.14120
  Beta  occ. eigenvalues --   -1.14113  -1.14058  -1.13559  -1.13544  -1.13529
  Beta  occ. eigenvalues --   -1.13519  -1.13501  -1.13470  -1.13382  -1.13305
  Beta  occ. eigenvalues --   -1.13291  -1.13241  -1.13182  -1.13166  -1.12716
  Beta  occ. eigenvalues --   -1.12644  -1.12573  -1.12146  -1.12142  -1.12123
  Beta  occ. eigenvalues --   -0.17731  -0.12752  -0.11776
  Beta virt. eigenvalues --   -0.07020  -0.05936  -0.05081  -0.04202  -0.02548
  Beta virt. eigenvalues --   -0.02200  -0.01811  -0.01355  -0.01059  -0.00375
  Beta virt. eigenvalues --   -0.00123   0.00071   0.00357   0.00540   0.00723

 Mulliken charges and spin densities:
               1          2
     1  Na  -0.258780   0.403345
     2  Na   0.310077   0.073518
     3  Na   0.295602  -0.075253
     4  Na  -2.113546   0.590097
     5  Na   0.271022  -0.020432
     6  Na   0.641184   0.009870
     7  Na   0.854441   0.018857
 Sum of Mulliken charges =  -0.00000   1.00000

 Dipole moment (field-independent basis, Debye):
    X=             -0.0821    Y=             -0.2584    Z=              0.4556  Tot=              0.5302
 Quadrupole moment (field-independent basis, Debye-Ang):
   XX=            -57.1267   YY=            -62.6077   ZZ=            -70.5765
   XY=              2.3425   XZ=             -1.4680   YZ=             -0.1527

 Normal termination of Gaussian 16 at Tue Dec  5 22:09:44 2023.
