 Gaussian 16, Revision B.01,
 Gaussian 16:  ES64L-G16RevB.01 20-Dec-2017

 -------------------------
 #P B3LYP/6-311+g(d) force
 -------------------------

 -----
 DPGEN
 -----
 Symbolic Z-matrix:
 Charge =  0 Multiplicity = 2

                         Standard orientation:
 ---------------------------------------------------------------------
 Center     Atomic      Atomic             Coordinates (Angstroms)
 Number     Number       Type             X           Y           Z
 ---------------------------------------------------------------------
      1         11           0       -3.687030   -0.162526    0.246729
      2         11           0        3.130910   -2.022685   -0.033045
      3         11           0        0.228863   -0.022906    2.019027
      4         11           0       -1.106854   -2.629386   -0.226939
      5         11           0       -1.480382    2.048033   -0.581781
      6         11           0        0.734352    0.152900   -1.758992
      7         11           0        2.180140    2.636570    0.335001
 ---------------------------------------------------------------------

 SCF Done:  E(UB3LYP) =  -1136.12687629     A.U. after   21 cycles

 The electronic state is 2-A.
 Alpha  occ. eigenvalues --  -38.44749 -38.44307 -38.44170 -38.44134 -38.43929
 Alpha  occ. eigenvalues --  -38.43400 -38.43363  -2.20486  -2.20106  -2.19953
 Alpha  occ. eigenvalues --   -2.19917  -2.19768  -2.19282  -2.19271  -1.14164
 Alpha  occ. eigenvalues --   -1.14147  -1.14118  -1.13793  -1.13765  -1.13743
 Alpha  occ. eigenvalues --   -1.13642  -1.13636  -1.13590  -1.13577  -1.13561
 Alpha  occ. eigenvalues --   -1.13556  -1.13442  -1.13394  -1.13385  -1.13064
 Alpha  occ. eigenvalues --   -1.12946  -1.12925  -1.12905  -1.12890  -1.12852
 Alpha  occ. eigenvalues --   -0.17895  -0.12849  -0.12039  -0.10575
 Alpha virt. eigenvalues --   -0.06434  -0.05771  -0.04182  -0.03134  -0.02831
 Alpha virt. eigenvalues --   -0.02573  -0.02069  -0.01640  -0.00675  -0.00221
 Alpha virt. eigenvalues --   -0.00095   0.00245   0.00636   0.00703   0.00737

  Beta  occ. eigenvalues --  -38.44751 -38.44309 -38.44164 -38.44129 -38.43842
  Beta  occ. eigenvalues --  -38.43381 -38.43294  -2.20491  -2.20112  -2.19945
  Beta  occ. eigenvalues --   -2.19910  -2.19607  -2.19250  -2.19146  -1.14159
  Beta  occ. eigenvalues --   -1.14149  -1.14123  -1.13798  -1.13762  -1.13746
  Beta  occ. eigenvalues --   -1.13635  -1.13616  -1.13579  -1.13561  -1.13559
  Beta  occ. eigenvalues --   -1.13551  -1.13334  -1.13282  -1.13267  -1.13013
  Beta  occ. eigenvalues --   -1.12906  -1.12871  -1.12852  -1.12811  -1.12772
  Beta  occ. eigenvalues --   -0.17171  -0.12701  -0.11824
  Beta virt. eigenvalues --   -0.06699  -0.06397  -0.05642  -0.04124  -0.02509
  Beta virt. eigenvalues --   -0.02138  -0.02042  -0.01533  -0.01492  -0.00665
  Beta virt. eigenvalues --   -0.00233   0.00048   0.00284   0.00679   0.00766

 Mulliken charges and spin densities:
               1          2
     1  Na   0.041133  -0.035158
     2  Na  -0.053634  -0.122387
     3  Na  -0.320855   0.770382
     4  Na  -0.055633  -0.031274
     5  Na   0.138015   0.120602
     6  Na   0.219754   0.352587
     7  Na   0.031219  -0.054752
 Sum of Mulliken charges =  -0.00000   1.00000

 Dipole moment (field-independent basis, Debye):
    X=              0.4154    Y=             -0.2237    Z=              0.2448  Tot=              0.5315
 Quadrupole moment (field-independent basis, Debye-Ang):
   XX=            -51.8092   YY=            -64.9637   ZZ=            -75.5573
   XY=              1.1633   XZ=              0.3436   YZ=              0.5459

 Normal termination of Gaussian 16 at Thu Dec  7 05:16:02 2023.
