 Gaussian 16, Revision B.01,
 Gaussian 16:  ES64L-G16RevB.01 20-Dec-2017

 -------------------------
 #P B3LYP/6-311+g(d) force
 -------------------------

 -----
 DPGEN
 -----
 Symbolic Z-matrix:
 Charge =  0 Multiplicity = 2

                         Standard orientation:
 ---------------------------------------------------------------------
 Center     Atomic      Atomic             Coordinates (Angstroms)
 Number     Number       Type             X           Y           Z
 ---------------------------------------------------------------------
      1         11           0       -1.405633   -1.291201    0.954290
      2         11           0        2.790555    0.520118   -0.940128
      3         11           0       -4.080263   -0.339335   -0.386404
      4         11           0        1.908928   -2.535206   -0.333965
      5         11           0       -0.388222    0.337041   -1.544962
      6         11           0        1.190883    0.309151    2.039989
      7         11           0       -0.016249    2.999432    0.211179
 ---------------------------------------------------------------------

 SCF Done:  E(UB3LYP) =  -1136.12680852     A.U. after   20 cycles

 The electronic state is 2-A.
 Alpha  occ. eigenvalues --  -38.44608 -38.44314 -38.43904 -38.43887 -38.43294
 Alpha  occ. eigenvalues --  -38.43231 -38.43009  -2.20398  -2.20213  -2.19852
 Alpha  occ. eigenvalues --   -2.19811  -2.19226  -2.19068  -2.18843  -1.14082
 Alpha  occ. eigenvalues --   -1.14051  -1.14030  -1.13918  -1.13886  -1.13809
 Alpha  occ. eigenvalues --   -1.13574  -1.13514  -1.13495  -1.13464  -1.13442
 Alpha  occ. eigenvalues --   -1.13394  -1.12928  -1.12886  -1.12828  -1.12739
 Alpha  occ. eigenvalues --   -1.12731  -1.12709  -1.12526  -1.12505  -1.12470
 Alpha  occ. eigenvalues --   -0.18666  -0.13209  -0.11809  -0.11369
 Alpha virt. eigenvalues --   -0.06472  -0.04742  -0.03926  -0.03217  -0.02953
 Alpha virt. eigenvalues --   -0.02729  -0.02230  -0.01027  -0.00562  -0.00132
 Alpha virt. eigenvalues --    0.00214   0.00334   0.00425   0.00829   0.00853

  Beta  occ. eigenvalues --  -38.44606 -38.44281 -38.43859 -38.43794 -38.43265
  Beta  occ. eigenvalues --  -38.43228 -38.43007  -2.20395  -2.20155  -2.19770
  Beta  occ. eigenvalues --   -2.19643  -2.19177  -2.19065  -2.18843  -1.14081
  Beta  occ. eigenvalues --   -1.14048  -1.14026  -1.13868  -1.13838  -1.13769
  Beta  occ. eigenvalues --   -1.13514  -1.13440  -1.13399  -1.13390  -1.13330
  Beta  occ. eigenvalues --   -1.13273  -1.12901  -1.12825  -1.12789  -1.12737
  Beta  occ. eigenvalues --   -1.12724  -1.12692  -1.12525  -1.12487  -1.12472
  Beta  occ. eigenvalues --   -0.17887  -0.13029  -0.11592
  Beta virt. eigenvalues --   -0.07337  -0.06307  -0.04693  -0.03637  -0.02910
  Beta virt. eigenvalues --   -0.02185  -0.02096  -0.01716  -0.00983  -0.00288
  Beta virt. eigenvalues --   -0.00076   0.00246   0.00362   0.00555   0.00837

 Mulliken charges and spin densities:
               1          2
     1  Na  -0.238378   0.008707
     2  Na   0.629564   0.155809
     3  Na   0.369998  -0.024424
     4  Na  -0.145012  -0.003250
     5  Na  -0.421682   0.434118
     6  Na  -0.047453   0.552491
     7  Na  -0.147036  -0.123451
 Sum of Mulliken charges =  -0.00000   1.00000

 Dipole moment (field-independent basis, Debye):
    X=             -0.3177    Y=              0.2682    Z=             -0.1356  Tot=              0.4374
 Quadrupole moment (field-independent basis, Debye-Ang):
   XX=            -53.3632   YY=            -68.8801   ZZ=            -70.4386
   XY=             -1.0662   XZ=              0.9108   YZ=              0.5754

 Normal termination of Gaussian 16 at Tue Dec  5 16:33:05 2023.
