 Gaussian 16, Revision B.01,
 Gaussian 16:  ES64L-G16RevB.01 20-Dec-2017

 -------------------------
 #P B3LYP/6-311+g(d) force
 -------------------------

 -----
 DPGEN
 -----
 Symbolic Z-matrix:
 Charge =  0 Multiplicity = 2

                         Standard orientation:
 ---------------------------------------------------------------------
 Center     Atomic      Atomic             Coordinates (Angstroms)
 Number     Number       Type             X           Y           Z
 ---------------------------------------------------------------------
      1         11           0        1.085513    3.171954    0.146034
      2         11           0        2.357722    0.210728   -1.574679
      3         11           0        2.029152   -2.724337   -0.064095
      4         11           0        1.675359    0.394688    2.070231
      5         11           0       -1.039788   -2.013276    0.081971
      6         11           0       -4.589553   -0.094907    0.228020
      7         11           0       -1.518405    1.055151   -0.887480
 ---------------------------------------------------------------------

 SCF Done:  E(UB3LYP) =  -1136.12687909     A.U. after   21 cycles

 The electronic state is 2-A.
 Alpha  occ. eigenvalues --  -38.45100 -38.44357 -38.44061 -38.43908 -38.43766
 Alpha  occ. eigenvalues --  -38.43416 -38.43416  -2.20850  -2.20192  -2.19911
 Alpha  occ. eigenvalues --   -2.19754  -2.19610  -2.19276  -2.19239  -1.14524
 Alpha  occ. eigenvalues --   -1.14523  -1.14470  -1.13922  -1.13869  -1.13802
 Alpha  occ. eigenvalues --   -1.13583  -1.13568  -1.13526  -1.13476  -1.13436
 Alpha  occ. eigenvalues --   -1.13334  -1.13277  -1.13251  -1.13220  -1.12954
 Alpha  occ. eigenvalues --   -1.12931  -1.12911  -1.12911  -1.12897  -1.12881
 Alpha  occ. eigenvalues --   -0.17747  -0.13295  -0.12475  -0.10398
 Alpha virt. eigenvalues --   -0.06838  -0.05066  -0.04720  -0.03161  -0.02923
 Alpha virt. eigenvalues --   -0.02548  -0.02278  -0.01225  -0.00835  -0.00428
 Alpha virt. eigenvalues --   -0.00077   0.00153   0.00410   0.00671   0.00789

  Beta  occ. eigenvalues --  -38.45107 -38.44352 -38.43998 -38.43893 -38.43675
  Beta  occ. eigenvalues --  -38.43414 -38.43411  -2.20863  -2.20185  -2.19794
  Beta  occ. eigenvalues --   -2.19729  -2.19441  -2.19271  -2.19238  -1.14533
  Beta  occ. eigenvalues --   -1.14531  -1.14479  -1.13917  -1.13848  -1.13802
  Beta  occ. eigenvalues --   -1.13493  -1.13492  -1.13461  -1.13441  -1.13409
  Beta  occ. eigenvalues --   -1.13315  -1.13160  -1.13140  -1.13098  -1.12954
  Beta  occ. eigenvalues --   -1.12925  -1.12914  -1.12887  -1.12885  -1.12864
  Beta  occ. eigenvalues --   -0.17109  -0.13143  -0.12282
  Beta virt. eigenvalues --   -0.06668  -0.06511  -0.04971  -0.04612  -0.02812
  Beta virt. eigenvalues --   -0.02339  -0.02191  -0.01392  -0.01198  -0.00785
  Beta virt. eigenvalues --   -0.00152   0.00067   0.00229   0.00581   0.00713

 Mulliken charges and spin densities:
               1          2
     1  Na   0.487679  -0.031883
     2  Na  -0.067784   0.303536
     3  Na   0.529296   0.197398
     4  Na  -0.255304   0.490559
     5  Na  -0.516256  -0.054217
     6  Na   0.623675  -0.074762
     7  Na  -0.801305   0.169369
 Sum of Mulliken charges =  -0.00000   1.00000

 Dipole moment (field-independent basis, Debye):
    X=             -1.2410    Y=             -0.0304    Z=              0.1419  Tot=              1.2495
 Quadrupole moment (field-independent basis, Debye-Ang):
   XX=            -51.6366   YY=            -65.0284   ZZ=            -75.5422
   XY=             -0.6733   XZ=             -2.7048   YZ=             -0.7838

 Normal termination of Gaussian 16 at Fri Dec  8 16:58:24 2023.
