 Gaussian 16, Revision B.01,
 Gaussian 16:  ES64L-G16RevB.01 20-Dec-2017

 -------------------------
 #P B3LYP/6-311+g(d) force
 -------------------------

 -----
 DPGEN
 -----
 Symbolic Z-matrix:
 Charge =  0 Multiplicity = 2

                         Standard orientation:
 ---------------------------------------------------------------------
 Center     Atomic      Atomic             Coordinates (Angstroms)
 Number     Number       Type             X           Y           Z
 ---------------------------------------------------------------------
      1         11           0       -5.279117   -0.443236   -0.070286
      2         11           0       -2.491871   -1.095980   -0.703310
      3         11           0        0.790386   -1.681876    1.125864
      4         11           0        2.962826    1.394580   -0.505599
      5         11           0        4.216207   -1.758008   -0.206518
      6         11           0        0.102837    1.530609   -1.327221
      7         11           0       -0.301269    2.053911    1.687070
 ---------------------------------------------------------------------

 SCF Done:  E(UB3LYP) =  -1136.11075411     A.U. after   21 cycles

 The electronic state is 2-A.
 Alpha  occ. eigenvalues --  -38.45084 -38.44577 -38.44317 -38.44149 -38.44116
 Alpha  occ. eigenvalues --  -38.43680 -38.43360  -2.20895  -2.20491  -2.20143
 Alpha  occ. eigenvalues --   -2.20003  -2.19965  -2.19525  -2.19146  -1.14592
 Alpha  occ. eigenvalues --   -1.14555  -1.14529  -1.14223  -1.14119  -1.14113
 Alpha  occ. eigenvalues --   -1.13863  -1.13772  -1.13769  -1.13699  -1.13647
 Alpha  occ. eigenvalues --   -1.13639  -1.13613  -1.13585  -1.13561  -1.13209
 Alpha  occ. eigenvalues --   -1.13182  -1.13154  -1.12818  -1.12811  -1.12787
 Alpha  occ. eigenvalues --   -0.17658  -0.13712  -0.11881  -0.10995
 Alpha virt. eigenvalues --   -0.07301  -0.05303  -0.04180  -0.03439  -0.03141
 Alpha virt. eigenvalues --   -0.02495  -0.02097  -0.01537  -0.01029  -0.00761
 Alpha virt. eigenvalues --   -0.00356   0.00099   0.00395   0.00549   0.00701

  Beta  occ. eigenvalues --  -38.45077 -38.44553 -38.44270 -38.44070 -38.44060
  Beta  occ. eigenvalues --  -38.43683 -38.43362  -2.20883  -2.20450  -2.20057
  Beta  occ. eigenvalues --   -2.19902  -2.19819  -2.19537  -2.19150  -1.14584
  Beta  occ. eigenvalues --   -1.14549  -1.14506  -1.14184  -1.14097  -1.14069
  Beta  occ. eigenvalues --   -1.13810  -1.13713  -1.13710  -1.13628  -1.13570
  Beta  occ. eigenvalues --   -1.13550  -1.13517  -1.13512  -1.13452  -1.13216
  Beta  occ. eigenvalues --   -1.13185  -1.13134  -1.12822  -1.12804  -1.12789
  Beta  occ. eigenvalues --   -0.17021  -0.13220  -0.11650
  Beta virt. eigenvalues --   -0.07474  -0.07002  -0.05044  -0.03726  -0.03107
  Beta virt. eigenvalues --   -0.02775  -0.02269  -0.01832  -0.01173  -0.00718
  Beta virt. eigenvalues --   -0.00540  -0.00261   0.00243   0.00499   0.00627

 Mulliken charges and spin densities:
               1          2
     1  Na   0.242440   0.179836
     2  Na  -0.312154   0.037594
     3  Na  -0.353035   0.330951
     4  Na   0.027697   0.254163
     5  Na   0.167197  -0.002070
     6  Na   0.240156   0.132693
     7  Na  -0.012301   0.066832
 Sum of Mulliken charges =  -0.00000   1.00000

 Dipole moment (field-independent basis, Debye):
    X=             -0.4311    Y=              1.1786    Z=              0.9921  Tot=              1.5998
 Quadrupole moment (field-independent basis, Debye-Ang):
   XX=            -65.5336   YY=            -71.6025   ZZ=            -65.5922
   XY=             -3.6437   XZ=             -2.9045   YZ=              4.0841

 Normal termination of Gaussian 16 at Sun Dec  3 17:37:33 2023.
