 Gaussian 16, Revision B.01,
 Gaussian 16:  ES64L-G16RevB.01 20-Dec-2017

 -------------------------
 #P B3LYP/6-311+g(d) force
 -------------------------

 -----
 DPGEN
 -----
 Symbolic Z-matrix:
 Charge =  0 Multiplicity = 2

                         Standard orientation:
 ---------------------------------------------------------------------
 Center     Atomic      Atomic             Coordinates (Angstroms)
 Number     Number       Type             X           Y           Z
 ---------------------------------------------------------------------
      1         11           0       -4.416569   -1.210214    0.930320
      2         11           0        1.818874   -1.591177   -0.900463
      3         11           0        4.443968   -1.014994    1.214001
      4         11           0       -0.449101    2.222757   -0.169171
      5         11           0       -3.490038    1.602321    0.031010
      6         11           0        3.359662    1.867336   -0.219772
      7         11           0       -1.266796   -1.876028   -0.885925
 ---------------------------------------------------------------------

 SCF Done:  E(UB3LYP) =  -1136.11403949     A.U. after   24 cycles

 The electronic state is 2-A.
 Alpha  occ. eigenvalues --  -38.45111 -38.45079 -38.44768 -38.44326 -38.43873
 Alpha  occ. eigenvalues --  -38.43663 -38.42924  -2.20898  -2.20890  -2.20597
 Alpha  occ. eigenvalues --   -2.20184  -2.19732  -2.19493  -2.18735  -1.14586
 Alpha  occ. eigenvalues --   -1.14562  -1.14551  -1.14544  -1.14537  -1.14482
 Alpha  occ. eigenvalues --   -1.14294  -1.14240  -1.14210  -1.13869  -1.13848
 Alpha  occ. eigenvalues --   -1.13814  -1.13453  -1.13403  -1.13360  -1.13161
 Alpha  occ. eigenvalues --   -1.13152  -1.13104  -1.12401  -1.12397  -1.12379
 Alpha  occ. eigenvalues --   -0.16855  -0.14911  -0.11819  -0.11246
 Alpha virt. eigenvalues --   -0.06970  -0.05217  -0.04506  -0.03378  -0.03264
 Alpha virt. eigenvalues --   -0.02747  -0.02120  -0.01564  -0.00916  -0.00354
 Alpha virt. eigenvalues --   -0.00115   0.00030   0.00201   0.00326   0.00609

  Beta  occ. eigenvalues --  -38.45097 -38.45022 -38.44714 -38.44321 -38.43830
  Beta  occ. eigenvalues --  -38.43623 -38.42902  -2.20869  -2.20790  -2.20499
  Beta  occ. eigenvalues --   -2.20178  -2.19661  -2.19426  -2.18695  -1.14566
  Beta  occ. eigenvalues --   -1.14545  -1.14501  -1.14472  -1.14471  -1.14424
  Beta  occ. eigenvalues --   -1.14221  -1.14174  -1.14150  -1.13857  -1.13841
  Beta  occ. eigenvalues --   -1.13803  -1.13377  -1.13350  -1.13307  -1.13120
  Beta  occ. eigenvalues --   -1.13100  -1.13035  -1.12375  -1.12373  -1.12351
  Beta  occ. eigenvalues --   -0.16168  -0.14322  -0.11098
  Beta virt. eigenvalues --   -0.08024  -0.06928  -0.04751  -0.04202  -0.03149
  Beta virt. eigenvalues --   -0.02771  -0.02499  -0.01518  -0.01307  -0.00834
  Beta virt. eigenvalues --   -0.00120   0.00033   0.00056   0.00322   0.00412

 Mulliken charges and spin densities:
               1          2
     1  Na   0.226409   0.296585
     2  Na  -0.412064   0.023755
     3  Na   0.735318   0.341067
     4  Na  -0.632166  -0.030701
     5  Na   0.184407   0.289979
     6  Na   0.313670   0.072056
     7  Na  -0.415574   0.007259
 Sum of Mulliken charges =  -0.00000   1.00000

 Dipole moment (field-independent basis, Debye):
    X=              0.8476    Y=             -0.4200    Z=              0.8458  Tot=              1.2690
 Quadrupole moment (field-independent basis, Debye-Ang):
   XX=            -50.2797   YY=            -74.3699   ZZ=            -69.0270
   XY=              1.6243   XZ=              0.4507   YZ=             -3.7790

 Normal termination of Gaussian 16 at Mon Dec  4 01:24:04 2023.
