 Gaussian 16, Revision B.01,
 Gaussian 16:  ES64L-G16RevB.01 20-Dec-2017

 -------------------------
 #P B3LYP/6-311+g(d) force
 -------------------------

 -----
 DPGEN
 -----
 Symbolic Z-matrix:
 Charge =  0 Multiplicity = 2

                         Standard orientation:
 ---------------------------------------------------------------------
 Center     Atomic      Atomic             Coordinates (Angstroms)
 Number     Number       Type             X           Y           Z
 ---------------------------------------------------------------------
      1         11           0       -1.890410   -1.901295   -0.750897
      2         11           0        1.175578   -1.364996   -1.388936
      3         11           0        0.026048    0.737156    2.192984
      4         11           0       -4.078695   -0.005153    0.726156
      5         11           0       -0.947250    2.025319   -1.007023
      6         11           0        3.490557   -0.981797    1.308896
      7         11           0        2.224171    1.490765   -1.081181
 ---------------------------------------------------------------------

 SCF Done:  E(UB3LYP) =  -1136.11710445     A.U. after   26 cycles

 The electronic state is 2-A.
 Alpha  occ. eigenvalues --  -38.45361 -38.45306 -38.44545 -38.43961 -38.43503
 Alpha  occ. eigenvalues --  -38.43356 -38.42900  -2.21133  -2.21076  -2.20341
 Alpha  occ. eigenvalues --   -2.19864  -2.19411  -2.19202  -2.18746  -1.14812
 Alpha  occ. eigenvalues --   -1.14769  -1.14754  -1.14747  -1.14740  -1.14707
 Alpha  occ. eigenvalues --   -1.14007  -1.13989  -1.13970  -1.13608  -1.13495
 Alpha  occ. eigenvalues --   -1.13483  -1.13122  -1.13062  -1.13026  -1.12870
 Alpha  occ. eigenvalues --   -1.12858  -1.12829  -1.12433  -1.12402  -1.12381
 Alpha  occ. eigenvalues --   -0.17988  -0.13686  -0.11712  -0.11104
 Alpha virt. eigenvalues --   -0.07133  -0.05040  -0.04548  -0.03384  -0.02814
 Alpha virt. eigenvalues --   -0.02704  -0.02466  -0.01236  -0.00815  -0.00175
 Alpha virt. eigenvalues --    0.00073   0.00108   0.00262   0.00514   0.00772

  Beta  occ. eigenvalues --  -38.45305 -38.45303 -38.44508 -38.43934 -38.43457
  Beta  occ. eigenvalues --  -38.43335 -38.42890  -2.21073  -2.21026  -2.20271
  Beta  occ. eigenvalues --   -2.19817  -2.19329  -2.19166  -2.18731  -1.14743
  Beta  occ. eigenvalues --   -1.14742  -1.14740  -1.14704  -1.14699  -1.14667
  Beta  occ. eigenvalues --   -1.13960  -1.13933  -1.13928  -1.13563  -1.13467
  Beta  occ. eigenvalues --   -1.13441  -1.13065  -1.13005  -1.12955  -1.12842
  Beta  occ. eigenvalues --   -1.12830  -1.12796  -1.12422  -1.12387  -1.12361
  Beta  occ. eigenvalues --   -0.17256  -0.13579  -0.10815
  Beta virt. eigenvalues --   -0.07933  -0.06723  -0.04703  -0.04292  -0.02991
  Beta virt. eigenvalues --   -0.02391  -0.02250  -0.01921  -0.00895  -0.00718
  Beta virt. eigenvalues --   -0.00146   0.00124   0.00243   0.00316   0.00638

 Mulliken charges and spin densities:
               1          2
     1  Na  -0.153425  -0.161473
     2  Na  -0.381040   0.399000
     3  Na  -0.476982   0.466221
     4  Na   0.463767   0.070356
     5  Na  -0.121794   0.103946
     6  Na   0.222984   0.112591
     7  Na   0.446489   0.009358
 Sum of Mulliken charges =  -0.00000   1.00000

 Dipole moment (field-independent basis, Debye):
    X=             -0.3744    Y=              0.6037    Z=              1.0801  Tot=              1.2928
 Quadrupole moment (field-independent basis, Debye-Ang):
   XX=            -49.6094   YY=            -79.1827   ZZ=            -66.9284
   XY=             -1.4901   XZ=             -1.5018   YZ=             -1.7921

 Normal termination of Gaussian 16 at Mon Dec  4 04:51:47 2023.
