 Gaussian 16, Revision B.01,
 Gaussian 16:  ES64L-G16RevB.01 20-Dec-2017

 -------------------------
 #P B3LYP/6-311+g(d) force
 -------------------------

 -----
 DPGEN
 -----
 Symbolic Z-matrix:
 Charge =  0 Multiplicity = 2

                         Standard orientation:
 ---------------------------------------------------------------------
 Center     Atomic      Atomic             Coordinates (Angstroms)
 Number     Number       Type             X           Y           Z
 ---------------------------------------------------------------------
      1         11           0        1.303757    2.379372   -0.236783
      2         11           0       -0.434497   -0.175846    2.058669
      3         11           0       -2.685296    2.066394    0.045273
      4         11           0        0.258819   -0.200714   -1.674725
      5         11           0        3.737943    0.019456    0.165268
      6         11           0        0.729920   -2.623514    0.027277
      7         11           0       -2.910646   -1.465149   -0.384980
 ---------------------------------------------------------------------

 SCF Done:  E(UB3LYP) =  -1136.12814440     A.U. after   21 cycles

 The electronic state is 2-A.
 Alpha  occ. eigenvalues --  -38.45287 -38.44552 -38.43880 -38.43627 -38.43543
 Alpha  occ. eigenvalues --  -38.43352 -38.43015  -2.21048  -2.20354  -2.19660
 Alpha  occ. eigenvalues --   -2.19503  -2.19497  -2.19201  -2.18892  -1.14722
 Alpha  occ. eigenvalues --   -1.14708  -1.14681  -1.14033  -1.14012  -1.13984
 Alpha  occ. eigenvalues --   -1.13333  -1.13320  -1.13307  -1.13226  -1.13206
 Alpha  occ. eigenvalues --   -1.13164  -1.13126  -1.13113  -1.13094  -1.12897
 Alpha  occ. eigenvalues --   -1.12863  -1.12802  -1.12596  -1.12555  -1.12486
 Alpha  occ. eigenvalues --   -0.18237  -0.13219  -0.11877  -0.10538
 Alpha virt. eigenvalues --   -0.06662  -0.05365  -0.04032  -0.03286  -0.02640
 Alpha virt. eigenvalues --   -0.02504  -0.02335  -0.01322  -0.00493  -0.00201
 Alpha virt. eigenvalues --   -0.00103   0.00241   0.00644   0.00720   0.00796

  Beta  occ. eigenvalues --  -38.45290 -38.44543 -38.43881 -38.43533 -38.43478
  Beta  occ. eigenvalues --  -38.43344 -38.43007  -2.21055  -2.20340  -2.19664
  Beta  occ. eigenvalues --   -2.19383  -2.19325  -2.19189  -2.18881  -1.14723
  Beta  occ. eigenvalues --   -1.14709  -1.14687  -1.14009  -1.13998  -1.13978
  Beta  occ. eigenvalues --   -1.13325  -1.13319  -1.13310  -1.13144  -1.13124
  Beta  occ. eigenvalues --   -1.13051  -1.13011  -1.13005  -1.12987  -1.12876
  Beta  occ. eigenvalues --   -1.12836  -1.12798  -1.12584  -1.12517  -1.12481
  Beta  occ. eigenvalues --   -0.17513  -0.13059  -0.11630
  Beta virt. eigenvalues --   -0.06674  -0.06533  -0.05376  -0.04001  -0.02608
  Beta virt. eigenvalues --   -0.02243  -0.01857  -0.01466  -0.01242  -0.00534
  Beta virt. eigenvalues --   -0.00208   0.00052   0.00274   0.00732   0.00795

 Mulliken charges and spin densities:
               1          2
     1  Na   0.064405  -0.111590
     2  Na  -0.437661   0.801933
     3  Na  -0.045556  -0.083610
     4  Na  -0.034443   0.551146
     5  Na   0.042013  -0.032107
     6  Na   0.169192  -0.087979
     7  Na   0.242049  -0.037792
 Sum of Mulliken charges =  -0.00000   1.00000

 Dipole moment (field-independent basis, Debye):
    X=              0.3197    Y=             -0.1813    Z=              0.1334  Tot=              0.3910
 Quadrupole moment (field-independent basis, Debye-Ang):
   XX=            -48.0163   YY=            -68.1215   ZZ=            -75.5518
   XY=             -0.2747   XZ=              1.9468   YZ=              0.1343

 Normal termination of Gaussian 16 at Thu Dec  7 20:47:16 2023.
