 Gaussian 16, Revision B.01,
 Gaussian 16:  ES64L-G16RevB.01 20-Dec-2017

 -------------------------
 #P B3LYP/6-311+g(d) force
 -------------------------

 -----
 DPGEN
 -----
 Symbolic Z-matrix:
 Charge =  0 Multiplicity = 2

                         Standard orientation:
 ---------------------------------------------------------------------
 Center     Atomic      Atomic             Coordinates (Angstroms)
 Number     Number       Type             X           Y           Z
 ---------------------------------------------------------------------
      1         11           0       -0.079380   -0.140740   -1.732274
      2         11           0        2.184676   -1.798811    0.516853
      3         11           0        3.489246    0.236651   -1.005117
      4         11           0       -0.811765   -0.783329    2.042475
      5         11           0       -3.766407   -1.293002   -0.733570
      6         11           0        1.125766    1.738942    0.945061
      7         11           0       -2.142135    2.040289   -0.033428
 ---------------------------------------------------------------------

 SCF Done:  E(UB3LYP) =  -1136.12047883     A.U. after   27 cycles

 The electronic state is 2-A.
 Alpha  occ. eigenvalues --  -38.44827 -38.44738 -38.44448 -38.44193 -38.43933
 Alpha  occ. eigenvalues --  -38.43725 -38.42187  -2.20682  -2.20637  -2.20319
 Alpha  occ. eigenvalues --   -2.20110  -2.19778  -2.19475  -2.18114  -1.14414
 Alpha  occ. eigenvalues --   -1.14386  -1.14347  -1.14295  -1.14264  -1.14251
 Alpha  occ. eigenvalues --   -1.14007  -1.13936  -1.13932  -1.13766  -1.13745
 Alpha  occ. eigenvalues --   -1.13728  -1.13478  -1.13434  -1.13381  -1.13155
 Alpha  occ. eigenvalues --   -1.13152  -1.13112  -1.11805  -1.11789  -1.11736
 Alpha  occ. eigenvalues --   -0.18748  -0.13947  -0.11845  -0.10751
 Alpha virt. eigenvalues --   -0.06707  -0.05383  -0.04580  -0.03308  -0.02790
 Alpha virt. eigenvalues --   -0.02484  -0.02328  -0.01090  -0.00821  -0.00196
 Alpha virt. eigenvalues --    0.00139   0.00262   0.00340   0.00582   0.00755

  Beta  occ. eigenvalues --  -38.44785 -38.44720 -38.44355 -38.44161 -38.43919
  Beta  occ. eigenvalues --  -38.43743 -38.42173  -2.20608  -2.20603  -2.20150
  Beta  occ. eigenvalues --   -2.20055  -2.19752  -2.19510  -2.18093  -1.14394
  Beta  occ. eigenvalues --   -1.14332  -1.14287  -1.14246  -1.14238  -1.14209
  Beta  occ. eigenvalues --   -1.13889  -1.13814  -1.13809  -1.13725  -1.13712
  Beta  occ. eigenvalues --   -1.13661  -1.13450  -1.13419  -1.13366  -1.13179
  Beta  occ. eigenvalues --   -1.13172  -1.13134  -1.11796  -1.11736  -1.11727
  Beta  occ. eigenvalues --   -0.17911  -0.13838  -0.10615
  Beta virt. eigenvalues --   -0.07729  -0.06516  -0.05194  -0.04053  -0.02804
  Beta virt. eigenvalues --   -0.02496  -0.01952  -0.01843  -0.00909  -0.00492
  Beta virt. eigenvalues --   -0.00168   0.00163   0.00306   0.00446   0.00660

 Mulliken charges and spin densities:
               1          2
     1  Na  -0.540092   0.433040
     2  Na  -0.216842   0.061724
     3  Na   0.942641   0.106778
     4  Na  -0.031902   0.398662
     5  Na  -0.055248  -0.182756
     6  Na  -0.333145   0.226869
     7  Na   0.234588  -0.044317
 Sum of Mulliken charges =  -0.00000   1.00000

 Dipole moment (field-independent basis, Debye):
    X=              0.4561    Y=              0.3989    Z=              0.0163  Tot=              0.6062
 Quadrupole moment (field-independent basis, Debye-Ang):
   XX=            -54.7793   YY=            -73.0184   ZZ=            -69.8664
   XY=             -0.8384   XZ=             -2.7359   YZ=             -5.2564

 Normal termination of Gaussian 16 at Tue Dec  5 11:57:29 2023.
