 Gaussian 16, Revision B.01,
 Gaussian 16:  ES64L-G16RevB.01 20-Dec-2017

 -------------------------
 #P B3LYP/6-311+g(d) force
 -------------------------

 -----
 DPGEN
 -----
 Symbolic Z-matrix:
 Charge =  0 Multiplicity = 2

                         Standard orientation:
 ---------------------------------------------------------------------
 Center     Atomic      Atomic             Coordinates (Angstroms)
 Number     Number       Type             X           Y           Z
 ---------------------------------------------------------------------
      1         11           0        0.442680    0.159631    2.349134
      2         11           0       -2.390603   -2.393570    0.384807
      3         11           0       -0.077585   -0.621117   -1.231078
      4         11           0        2.571031    1.683456   -0.548335
      5         11           0        3.305889   -2.086680   -0.338290
      6         11           0       -0.626993    2.785546    0.125362
      7         11           0       -3.224420    0.472735   -0.741600
 ---------------------------------------------------------------------

 SCF Done:  E(UB3LYP) =  -1136.12728159     A.U. after   20 cycles

 The electronic state is 2-A.
 Alpha  occ. eigenvalues --  -38.44469 -38.44245 -38.44193 -38.44180 -38.44011
 Alpha  occ. eigenvalues --  -38.43729 -38.42776  -2.20277  -2.20102  -2.20022
 Alpha  occ. eigenvalues --   -2.19925  -2.19841  -2.19634  -2.18620  -1.13971
 Alpha  occ. eigenvalues --   -1.13941  -1.13890  -1.13802  -1.13780  -1.13744
 Alpha  occ. eigenvalues --   -1.13693  -1.13665  -1.13632  -1.13601  -1.13590
 Alpha  occ. eigenvalues --   -1.13558  -1.13495  -1.13466  -1.13450  -1.13345
 Alpha  occ. eigenvalues --   -1.13295  -1.13247  -1.12292  -1.12287  -1.12269
 Alpha  occ. eigenvalues --   -0.17916  -0.13448  -0.11718  -0.10672
 Alpha virt. eigenvalues --   -0.06224  -0.05804  -0.04412  -0.03320  -0.02717
 Alpha virt. eigenvalues --   -0.02507  -0.02027  -0.01458  -0.00852  -0.00296
 Alpha virt. eigenvalues --   -0.00084   0.00232   0.00586   0.00666   0.00725

  Beta  occ. eigenvalues --  -38.44458 -38.44226 -38.44187 -38.44181 -38.43896
  Beta  occ. eigenvalues --  -38.43706 -38.42771  -2.20260  -2.20068  -2.20012
  Beta  occ. eigenvalues --   -2.19929  -2.19627  -2.19596  -2.18615  -1.13952
  Beta  occ. eigenvalues --   -1.13925  -1.13879  -1.13786  -1.13747  -1.13722
  Beta  occ. eigenvalues --   -1.13687  -1.13648  -1.13617  -1.13601  -1.13589
  Beta  occ. eigenvalues --   -1.13561  -1.13355  -1.13320  -1.13299  -1.13298
  Beta  occ. eigenvalues --   -1.13265  -1.13220  -1.12291  -1.12280  -1.12246
  Beta  occ. eigenvalues --   -0.17261  -0.13241  -0.11551
  Beta virt. eigenvalues --   -0.06815  -0.06054  -0.05679  -0.04255  -0.02771
  Beta virt. eigenvalues --   -0.02038  -0.01884  -0.01672  -0.01302  -0.00814
  Beta virt. eigenvalues --   -0.00235   0.00087   0.00302   0.00688   0.00713

 Mulliken charges and spin densities:
               1          2
     1  Na  -0.339157   0.634213
     2  Na   0.088360   0.106162
     3  Na  -0.478208   0.137346
     4  Na   0.216301   0.022771
     5  Na   0.019355   0.001428
     6  Na  -0.039548   0.076361
     7  Na   0.532896   0.021719
 Sum of Mulliken charges =  -0.00000   1.00000

 Dipole moment (field-independent basis, Debye):
    X=             -0.0964    Y=             -0.2554    Z=              0.1169  Tot=              0.2969
 Quadrupole moment (field-independent basis, Debye-Ang):
   XX=            -54.8966   YY=            -64.9436   ZZ=            -74.3711
   XY=              1.1179   XZ=              0.0288   YZ=             -2.3128

 Normal termination of Gaussian 16 at Thu Dec  7 10:00:11 2023.
