 Gaussian 16, Revision B.01,
 Gaussian 16:  ES64L-G16RevB.01 20-Dec-2017

 -------------------------
 #P B3LYP/6-311+g(d) force
 -------------------------

 -----
 DPGEN
 -----
 Symbolic Z-matrix:
 Charge =  0 Multiplicity = 2

                         Standard orientation:
 ---------------------------------------------------------------------
 Center     Atomic      Atomic             Coordinates (Angstroms)
 Number     Number       Type             X           Y           Z
 ---------------------------------------------------------------------
      1         11           0        0.411640    0.162519   -1.698621
      2         11           0       -0.630236   -0.275457    1.798203
      3         11           0        1.326548    2.416835    0.134851
      4         11           0       -2.696321   -1.295889   -0.468762
      5         11           0        3.002852   -0.397485    0.138003
      6         11           0       -2.020807    2.046689    0.031638
      7         11           0        0.606325   -2.657211    0.064688
 ---------------------------------------------------------------------

 SCF Done:  E(UB3LYP) =  -1136.13687054     A.U. after   20 cycles

 The electronic state is 2-A.
 Alpha  occ. eigenvalues --  -38.43859 -38.43844 -38.43475 -38.43276 -38.43208
 Alpha  occ. eigenvalues --  -38.43204 -38.43141  -2.19733  -2.19728  -2.19368
 Alpha  occ. eigenvalues --   -2.19196  -2.19187  -2.19160  -2.19117  -1.13427
 Alpha  occ. eigenvalues --   -1.13414  -1.13395  -1.13390  -1.13379  -1.13364
 Alpha  occ. eigenvalues --   -1.13081  -1.13036  -1.13009  -1.12976  -1.12911
 Alpha  occ. eigenvalues --   -1.12856  -1.12834  -1.12828  -1.12812  -1.12800
 Alpha  occ. eigenvalues --   -1.12782  -1.12760  -1.12752  -1.12731  -1.12727
 Alpha  occ. eigenvalues --   -0.19298  -0.13319  -0.12691  -0.10753
 Alpha virt. eigenvalues --   -0.05481  -0.05133  -0.04555  -0.03321  -0.02906
 Alpha virt. eigenvalues --   -0.02310  -0.01408  -0.00993  -0.00132  -0.00093
 Alpha virt. eigenvalues --    0.00016   0.00371   0.00863   0.00933   0.00943

  Beta  occ. eigenvalues --  -38.43847 -38.43840 -38.43468 -38.43269 -38.43200
  Beta  occ. eigenvalues --  -38.43128 -38.43069  -2.19729  -2.19709  -2.19360
  Beta  occ. eigenvalues --   -2.19186  -2.19106  -2.19049  -2.19031  -1.13422
  Beta  occ. eigenvalues --   -1.13402  -1.13394  -1.13358  -1.13355  -1.13351
  Beta  occ. eigenvalues --   -1.13068  -1.13012  -1.12994  -1.12946  -1.12860
  Beta  occ. eigenvalues --   -1.12823  -1.12803  -1.12778  -1.12749  -1.12732
  Beta  occ. eigenvalues --   -1.12718  -1.12701  -1.12677  -1.12672  -1.12659
  Beta  occ. eigenvalues --   -0.18563  -0.13082  -0.12419
  Beta virt. eigenvalues --   -0.06827  -0.05419  -0.05130  -0.04531  -0.02527
  Beta virt. eigenvalues --   -0.02101  -0.01332  -0.01267  -0.00928  -0.00175
  Beta virt. eigenvalues --   -0.00137   0.00149   0.00398   0.00917   0.00933

 Mulliken charges and spin densities:
               1          2
     1  Na  -0.477480   0.583823
     2  Na  -0.475952   0.620074
     3  Na   0.226607  -0.054491
     4  Na   0.123558  -0.022167
     5  Na   0.128624  -0.038315
     6  Na   0.219219  -0.039885
     7  Na   0.255424  -0.049039
 Sum of Mulliken charges =  -0.00000   1.00000

 Dipole moment (field-independent basis, Debye):
    X=             -0.0976    Y=             -0.0757    Z=              0.0221  Tot=              0.1255
 Quadrupole moment (field-independent basis, Debye-Ang):
   XX=            -56.3408   YY=            -63.4477   ZZ=            -73.8719
   XY=              0.0085   XZ=              2.2233   YZ=              1.0103

 Normal termination of Gaussian 16 at Thu Dec  7 14:26:19 2023.
