 Gaussian 16, Revision B.01,
 Gaussian 16:  ES64L-G16RevB.01 20-Dec-2017

 -------------------------
 #P B3LYP/6-311+g(d) force
 -------------------------

 -----
 DPGEN
 -----
 Symbolic Z-matrix:
 Charge =  0 Multiplicity = 2

                         Standard orientation:
 ---------------------------------------------------------------------
 Center     Atomic      Atomic             Coordinates (Angstroms)
 Number     Number       Type             X           Y           Z
 ---------------------------------------------------------------------
      1         11           0       -1.477969    2.165780    0.220068
      2         11           0        0.758421    0.329072    1.729163
      3         11           0        2.636355   -1.818914   -0.556126
      4         11           0        0.005416   -0.163162   -1.334360
      5         11           0       -3.228934   -0.259179   -0.739072
      6         11           0       -1.213186   -2.022386    0.967987
      7         11           0        2.519897    1.768789   -0.287660
 ---------------------------------------------------------------------

 SCF Done:  E(UB3LYP) =  -1136.12606256     A.U. after   21 cycles

 The electronic state is 2-A.
 Alpha  occ. eigenvalues --  -38.44190 -38.44019 -38.43896 -38.43198 -38.43185
 Alpha  occ. eigenvalues --  -38.43180 -38.43154  -2.20098  -2.19900  -2.19737
 Alpha  occ. eigenvalues --   -2.19296  -2.19229  -2.19100  -2.19082  -1.13770
 Alpha  occ. eigenvalues --   -1.13751  -1.13750  -1.13627  -1.13575  -1.13501
 Alpha  occ. eigenvalues --   -1.13437  -1.13382  -1.13360  -1.13084  -1.12957
 Alpha  occ. eigenvalues --   -1.12934  -1.12923  -1.12866  -1.12839  -1.12765
 Alpha  occ. eigenvalues --   -1.12747  -1.12739  -1.12719  -1.12707  -1.12684
 Alpha  occ. eigenvalues --   -0.19383  -0.13965  -0.11750  -0.11024
 Alpha virt. eigenvalues --   -0.05916  -0.05366  -0.03911  -0.03302  -0.02617
 Alpha virt. eigenvalues --   -0.02258  -0.01934  -0.01085  -0.00381   0.00107
 Alpha virt. eigenvalues --    0.00244   0.00323   0.00709   0.00812   0.00906

  Beta  occ. eigenvalues --  -38.44172 -38.44012 -38.43880 -38.43178 -38.43157
  Beta  occ. eigenvalues --  -38.43120 -38.43097  -2.20066  -2.19889  -2.19711
  Beta  occ. eigenvalues --   -2.19224  -2.19091  -2.19079  -2.19024  -1.13750
  Beta  occ. eigenvalues --   -1.13733  -1.13714  -1.13615  -1.13556  -1.13488
  Beta  occ. eigenvalues --   -1.13411  -1.13366  -1.13336  -1.13017  -1.12915
  Beta  occ. eigenvalues --   -1.12877  -1.12829  -1.12782  -1.12754  -1.12737
  Beta  occ. eigenvalues --   -1.12717  -1.12697  -1.12677  -1.12648  -1.12634
  Beta  occ. eigenvalues --   -0.18671  -0.13648  -0.11497
  Beta virt. eigenvalues --   -0.07088  -0.05780  -0.05313  -0.03608  -0.02875
  Beta virt. eigenvalues --   -0.01947  -0.01774  -0.01259  -0.01057  -0.00183
  Beta virt. eigenvalues --    0.00154   0.00246   0.00363   0.00795   0.00838

 Mulliken charges and spin densities:
               1          2
     1  Na  -0.106203  -0.000617
     2  Na   0.278837   0.421637
     3  Na   0.009890   0.064239
     4  Na  -0.798740   0.311450
     5  Na   0.591068   0.106770
     6  Na  -0.114884   0.069229
     7  Na   0.140033   0.027292
 Sum of Mulliken charges =  -0.00000   1.00000

 Dipole moment (field-independent basis, Debye):
    X=              0.2342    Y=              0.0134    Z=             -0.0823  Tot=              0.2486
 Quadrupole moment (field-independent basis, Debye-Ang):
   XX=            -51.2252   YY=            -68.6983   ZZ=            -72.2275
   XY=              0.5559   XZ=             -0.2581   YZ=             -0.5586

 Normal termination of Gaussian 16 at Fri Dec  8 00:52:31 2023.
