 Gaussian 16, Revision B.01,
 Gaussian 16:  ES64L-G16RevB.01 20-Dec-2017

 -------------------------
 #P B3LYP/6-311+g(d) force
 -------------------------

 -----
 DPGEN
 -----
 Symbolic Z-matrix:
 Charge =  0 Multiplicity = 2

                         Standard orientation:
 ---------------------------------------------------------------------
 Center     Atomic      Atomic             Coordinates (Angstroms)
 Number     Number       Type             X           Y           Z
 ---------------------------------------------------------------------
      1         11           0        1.221044    0.238974    1.946941
      2         11           0        0.878605    1.977508   -0.940875
      3         11           0       -1.964947    0.033099   -1.858573
      4         11           0        0.274481   -1.375350   -0.726496
      5         11           0       -1.935839    1.652791    1.078747
      6         11           0       -2.138751   -1.873727    0.818136
      7         11           0        3.665408   -0.653296   -0.317880
 ---------------------------------------------------------------------

 SCF Done:  E(UB3LYP) =  -1136.12560360     A.U. after   22 cycles

 The electronic state is 2-A.
 Alpha  occ. eigenvalues --  -38.44486 -38.44189 -38.44114 -38.43340 -38.43189
 Alpha  occ. eigenvalues --  -38.43099 -38.42845  -2.20289  -2.20093  -2.20086
 Alpha  occ. eigenvalues --   -2.19262  -2.19072  -2.18994  -2.18912  -1.13965
 Alpha  occ. eigenvalues --   -1.13945  -1.13926  -1.13859  -1.13800  -1.13728
 Alpha  occ. eigenvalues --   -1.13720  -1.13691  -1.13658  -1.13041  -1.12897
 Alpha  occ. eigenvalues --   -1.12882  -1.12744  -1.12737  -1.12714  -1.12699
 Alpha  occ. eigenvalues --   -1.12651  -1.12604  -1.12587  -1.12566  -1.12479
 Alpha  occ. eigenvalues --   -0.19246  -0.13587  -0.11890  -0.11284
 Alpha virt. eigenvalues --   -0.06108  -0.04639  -0.04269  -0.03255  -0.02894
 Alpha virt. eigenvalues --   -0.02689  -0.01934  -0.00681  -0.00571   0.00188
 Alpha virt. eigenvalues --    0.00305   0.00425   0.00520   0.00807   0.00921

  Beta  occ. eigenvalues --  -38.44488 -38.44135 -38.44057 -38.43320 -38.43167
  Beta  occ. eigenvalues --  -38.43072 -38.42817  -2.20292  -2.19994  -2.19984
  Beta  occ. eigenvalues --   -2.19227  -2.19035  -2.18948  -2.18869  -1.13960
  Beta  occ. eigenvalues --   -1.13948  -1.13928  -1.13783  -1.13737  -1.13656
  Beta  occ. eigenvalues --   -1.13648  -1.13612  -1.13583  -1.13017  -1.12876
  Beta  occ. eigenvalues --   -1.12836  -1.12719  -1.12701  -1.12681  -1.12664
  Beta  occ. eigenvalues --   -1.12598  -1.12560  -1.12545  -1.12518  -1.12455
  Beta  occ. eigenvalues --   -0.18398  -0.13464  -0.11084
  Beta virt. eigenvalues --   -0.07770  -0.05934  -0.04242  -0.03976  -0.03001
  Beta virt. eigenvalues --   -0.02238  -0.01947  -0.01763  -0.00540  -0.00273
  Beta virt. eigenvalues --    0.00246   0.00354   0.00489   0.00631   0.00906

 Mulliken charges and spin densities:
               1          2
     1  Na  -0.251753   0.259457
     2  Na  -0.304451   0.132844
     3  Na   0.352242  -0.023728
     4  Na  -0.127095   0.285156
     5  Na   0.046314   0.166439
     6  Na  -0.079653   0.224546
     7  Na   0.364396  -0.044715
 Sum of Mulliken charges =  -0.00000   1.00000

 Dipole moment (field-independent basis, Debye):
    X=              0.6485    Y=              0.2815    Z=              0.1647  Tot=              0.7259
 Quadrupole moment (field-independent basis, Debye-Ang):
   XX=            -51.8950   YY=            -76.8713   ZZ=            -64.3805
   XY=             -0.4465   XZ=             -1.6134   YZ=             -2.4739

 Normal termination of Gaussian 16 at Thu Dec  7 03:30:53 2023.
