 Gaussian 16, Revision B.01,
 Gaussian 16:  ES64L-G16RevB.01 20-Dec-2017

 -------------------------
 #P B3LYP/6-311+g(d) force
 -------------------------

 -----
 DPGEN
 -----
 Symbolic Z-matrix:
 Charge =  0 Multiplicity = 2

                         Standard orientation:
 ---------------------------------------------------------------------
 Center     Atomic      Atomic             Coordinates (Angstroms)
 Number     Number       Type             X           Y           Z
 ---------------------------------------------------------------------
      1         11           0        0.351827    2.238491    0.028289
      2         11           0       -1.474636    0.613008    1.830966
      3         11           0       -2.474826    1.306201   -1.608154
      4         11           0       -4.148434   -1.529259    0.136761
      5         11           0       -0.848199   -1.844877   -0.457600
      6         11           0        2.642210   -0.031416    0.460967
      7         11           0        5.952058   -0.752147   -0.391228
 ---------------------------------------------------------------------

 SCF Done:  E(UB3LYP) =  -1136.11368556     A.U. after   23 cycles

 The electronic state is 2-A.
 Alpha  occ. eigenvalues --  -38.45349 -38.45301 -38.44344 -38.44155 -38.44010
 Alpha  occ. eigenvalues --  -38.43314 -38.43253  -2.21186  -2.21172  -2.20156
 Alpha  occ. eigenvalues --   -2.20026  -2.19786  -2.19229  -2.19065  -1.14899
 Alpha  occ. eigenvalues --   -1.14868  -1.14852  -1.14834  -1.14804  -1.14781
 Alpha  occ. eigenvalues --   -1.13830  -1.13811  -1.13791  -1.13705  -1.13659
 Alpha  occ. eigenvalues --   -1.13621  -1.13433  -1.13432  -1.13403  -1.12911
 Alpha  occ. eigenvalues --   -1.12900  -1.12883  -1.12758  -1.12756  -1.12674
 Alpha  occ. eigenvalues --   -0.18278  -0.13592  -0.11834  -0.10931
 Alpha virt. eigenvalues --   -0.07501  -0.05706  -0.04234  -0.03229  -0.03055
 Alpha virt. eigenvalues --   -0.02321  -0.02069  -0.01983  -0.01207  -0.00768
 Alpha virt. eigenvalues --   -0.00526   0.00096   0.00223   0.00452   0.00525

  Beta  occ. eigenvalues --  -38.45336 -38.45289 -38.44336 -38.44063 -38.43941
  Beta  occ. eigenvalues --  -38.43310 -38.43262  -2.21167  -2.21153  -2.20142
  Beta  occ. eigenvalues --   -2.19855  -2.19656  -2.19224  -2.19087  -1.14883
  Beta  occ. eigenvalues --   -1.14843  -1.14835  -1.14800  -1.14791  -1.14768
  Beta  occ. eigenvalues --   -1.13825  -1.13785  -1.13782  -1.13588  -1.13552
  Beta  occ. eigenvalues --   -1.13497  -1.13345  -1.13344  -1.13319  -1.12926
  Beta  occ. eigenvalues --   -1.12891  -1.12859  -1.12779  -1.12771  -1.12652
  Beta  occ. eigenvalues --   -0.17724  -0.13262  -0.11326
  Beta virt. eigenvalues --   -0.07520  -0.07173  -0.05496  -0.03844  -0.02958
  Beta virt. eigenvalues --   -0.02790  -0.01951  -0.01825  -0.01590  -0.00678
  Beta virt. eigenvalues --   -0.00562  -0.00373   0.00180   0.00344   0.00518

 Mulliken charges and spin densities:
               1          2
     1  Na   0.409456  -0.093918
     2  Na   0.452378   0.064401
     3  Na  -0.209333   0.473282
     4  Na   0.357830   0.064835
     5  Na  -0.153126  -0.013113
     6  Na  -0.810616   0.267790
     7  Na  -0.046588   0.236722
 Sum of Mulliken charges =  -0.00000   1.00000

 Dipole moment (field-independent basis, Debye):
    X=             -2.2016    Y=             -0.2363    Z=              0.4882  Tot=              2.2674
 Quadrupole moment (field-independent basis, Debye-Ang):
   XX=            -61.9651   YY=            -73.0748   ZZ=            -67.0997
   XY=              2.0428   XZ=             -5.6209   YZ=              2.9869

 Normal termination of Gaussian 16 at Fri Dec  8 19:39:04 2023.
