 Gaussian 16, Revision B.01,
 Gaussian 16:  ES64L-G16RevB.01 20-Dec-2017

 -------------------------
 #P B3LYP/6-311+g(d) force
 -------------------------

 -----
 DPGEN
 -----
 Symbolic Z-matrix:
 Charge =  0 Multiplicity = 2

                         Standard orientation:
 ---------------------------------------------------------------------
 Center     Atomic      Atomic             Coordinates (Angstroms)
 Number     Number       Type             X           Y           Z
 ---------------------------------------------------------------------
      1         11           0       -3.659483   -1.253186   -1.028920
      2         11           0        3.997071   -1.466660   -0.540287
      3         11           0       -2.072236   -0.471450    1.851180
      4         11           0        1.915455    1.925331   -0.868110
      5         11           0        1.539651    0.186466    2.044049
      6         11           0       -1.756863    2.071580   -0.445616
      7         11           0        0.036406   -0.992081   -1.012295
 ---------------------------------------------------------------------

 SCF Done:  E(UB3LYP) =  -1136.12243443     A.U. after   28 cycles

 The electronic state is 2-A.
 Alpha  occ. eigenvalues --  -38.44732 -38.44593 -38.44387 -38.43995 -38.43919
 Alpha  occ. eigenvalues --  -38.43710 -38.43466  -2.20581  -2.20434  -2.20262
 Alpha  occ. eigenvalues --   -2.19808  -2.19673  -2.19550  -2.19298  -1.14313
 Alpha  occ. eigenvalues --   -1.14251  -1.14180  -1.14124  -1.14084  -1.14031
 Alpha  occ. eigenvalues --   -1.13941  -1.13920  -1.13871  -1.13477  -1.13465
 Alpha  occ. eigenvalues --   -1.13438  -1.13351  -1.13347  -1.13299  -1.13247
 Alpha  occ. eigenvalues --   -1.13221  -1.13140  -1.12986  -1.12971  -1.12904
 Alpha  occ. eigenvalues --   -0.18183  -0.13938  -0.11495  -0.10652
 Alpha virt. eigenvalues --   -0.06530  -0.05680  -0.05030  -0.03249  -0.02568
 Alpha virt. eigenvalues --   -0.02393  -0.02206  -0.01457  -0.00936  -0.00345
 Alpha virt. eigenvalues --    0.00084   0.00125   0.00257   0.00413   0.00487

  Beta  occ. eigenvalues --  -38.44711 -38.44529 -38.44331 -38.43981 -38.43922
  Beta  occ. eigenvalues --  -38.43690 -38.43451  -2.20545  -2.20318  -2.20161
  Beta  occ. eigenvalues --   -2.19783  -2.19679  -2.19516  -2.19272  -1.14266
  Beta  occ. eigenvalues --   -1.14223  -1.14155  -1.14041  -1.14003  -1.13939
  Beta  occ. eigenvalues --   -1.13871  -1.13857  -1.13779  -1.13455  -1.13445
  Beta  occ. eigenvalues --   -1.13422  -1.13352  -1.13350  -1.13304  -1.13213
  Beta  occ. eigenvalues --   -1.13203  -1.13115  -1.12958  -1.12950  -1.12888
  Beta  occ. eigenvalues --   -0.17457  -0.13809  -0.10474
  Beta virt. eigenvalues --   -0.07474  -0.06361  -0.05590  -0.04411  -0.02784
  Beta virt. eigenvalues --   -0.02466  -0.01846  -0.01787  -0.01207  -0.00462
  Beta virt. eigenvalues --   -0.00278   0.00118   0.00268   0.00299   0.00536

 Mulliken charges and spin densities:
               1          2
     1  Na   0.669872   0.082348
     2  Na   0.433201  -0.054656
     3  Na   0.242892   0.177261
     4  Na   0.322941   0.084447
     5  Na  -0.136703   0.232944
     6  Na  -0.226587   0.104194
     7  Na  -1.305616   0.373461
 Sum of Mulliken charges =  -0.00000   1.00000

 Dipole moment (field-independent basis, Debye):
    X=             -0.3173    Y=              0.4354    Z=              0.1319  Tot=              0.5546
 Quadrupole moment (field-independent basis, Debye-Ang):
   XX=            -53.5850   YY=            -75.9910   ZZ=            -67.4233
   XY=              1.1429   XZ=              0.7819   YZ=              0.2840

 Normal termination of Gaussian 16 at Wed Dec  6 00:05:40 2023.
