 Gaussian 16, Revision B.01,
 Gaussian 16:  ES64L-G16RevB.01 20-Dec-2017

 -------------------------
 #P B3LYP/6-311+g(d) force
 -------------------------

 -----
 DPGEN
 -----
 Symbolic Z-matrix:
 Charge =  0 Multiplicity = 2

                         Standard orientation:
 ---------------------------------------------------------------------
 Center     Atomic      Atomic             Coordinates (Angstroms)
 Number     Number       Type             X           Y           Z
 ---------------------------------------------------------------------
      1         11           0       -0.052860   -0.007263    2.385269
      2         11           0        2.902674   -1.247843    0.382041
      3         11           0        2.260722    2.025597   -0.604492
      4         11           0       -0.003141   -2.306769   -0.694534
      5         11           0        0.059438    0.598617   -1.404480
      6         11           0       -3.048423   -1.060103   -0.354689
      7         11           0       -2.118410    1.997764    0.290885
 ---------------------------------------------------------------------

 SCF Done:  E(UB3LYP) =  -1136.12278977     A.U. after   20 cycles

 The electronic state is 2-A.
 Alpha  occ. eigenvalues --  -38.44603 -38.44202 -38.44194 -38.43870 -38.43725
 Alpha  occ. eigenvalues --  -38.43493 -38.42784  -2.20440  -2.20051  -2.20033
 Alpha  occ. eigenvalues --   -2.19757  -2.19601  -2.19576  -2.18709  -1.14091
 Alpha  occ. eigenvalues --   -1.14069  -1.14057  -1.13725  -1.13717  -1.13708
 Alpha  occ. eigenvalues --   -1.13705  -1.13703  -1.13695  -1.13675  -1.13381
 Alpha  occ. eigenvalues --   -1.13368  -1.13335  -1.13260  -1.13237  -1.13221
 Alpha  occ. eigenvalues --   -1.13153  -1.13097  -1.12427  -1.12345  -1.12322
 Alpha  occ. eigenvalues --   -0.18877  -0.13527  -0.11865  -0.11459
 Alpha virt. eigenvalues --   -0.05942  -0.05361  -0.03846  -0.03539  -0.03089
 Alpha virt. eigenvalues --   -0.02766  -0.01819  -0.01084  -0.00213   0.00002
 Alpha virt. eigenvalues --    0.00123   0.00313   0.00692   0.00812   0.00875

  Beta  occ. eigenvalues --  -38.44493 -38.44197 -38.44190 -38.43856 -38.43718
  Beta  occ. eigenvalues --  -38.43443 -38.42769  -2.20237  -2.20046  -2.20027
  Beta  occ. eigenvalues --   -2.19733  -2.19592  -2.19488  -2.18685  -1.13955
  Beta  occ. eigenvalues --   -1.13931  -1.13906  -1.13718  -1.13709  -1.13703
  Beta  occ. eigenvalues --   -1.13690  -1.13686  -1.13671  -1.13660  -1.13355
  Beta  occ. eigenvalues --   -1.13347  -1.13320  -1.13228  -1.13223  -1.13176
  Beta  occ. eigenvalues --   -1.13101  -1.13045  -1.12405  -1.12322  -1.12296
  Beta  occ. eigenvalues --   -0.18163  -0.13320  -0.11596
  Beta virt. eigenvalues --   -0.07443  -0.05843  -0.05302  -0.03658  -0.02885
  Beta virt. eigenvalues --   -0.02096  -0.01974  -0.01706  -0.01001  -0.00148
  Beta virt. eigenvalues --    0.00088   0.00126   0.00349   0.00791   0.00842

 Mulliken charges and spin densities:
               1          2
     1  Na  -0.581390   0.581340
     2  Na   0.048956   0.108094
     3  Na   0.335356   0.169779
     4  Na   0.281658   0.181917
     5  Na  -0.460383  -0.228645
     6  Na   0.145692  -0.034919
     7  Na   0.230110   0.222433
 Sum of Mulliken charges =  -0.00000   1.00000

 Dipole moment (field-independent basis, Debye):
    X=             -0.0821    Y=             -0.0272    Z=              0.6931  Tot=              0.6985
 Quadrupole moment (field-independent basis, Debye-Ang):
   XX=            -52.7083   YY=            -70.6163   ZZ=            -71.4046
   XY=             -0.2690   XZ=              0.9848   YZ=              0.6117

 Normal termination of Gaussian 16 at Sat Dec  9 06:00:58 2023.
