 Gaussian 16, Revision B.01,
 Gaussian 16:  ES64L-G16RevB.01 20-Dec-2017

 -------------------------
 #P B3LYP/6-311+g(d) force
 -------------------------

 -----
 DPGEN
 -----
 Symbolic Z-matrix:
 Charge =  0 Multiplicity = 2

                         Standard orientation:
 ---------------------------------------------------------------------
 Center     Atomic      Atomic             Coordinates (Angstroms)
 Number     Number       Type             X           Y           Z
 ---------------------------------------------------------------------
      1         11           0       -2.819394    1.458750    0.006109
      2         11           0        0.897142    2.957715   -0.104643
      3         11           0        3.163091   -0.030011    0.367506
      4         11           0        0.515068    0.173158   -1.530718
      5         11           0        1.280613   -2.684692   -0.204077
      6         11           0       -0.241567   -0.132066    1.603879
      7         11           0       -2.794952   -1.742852   -0.138056
 ---------------------------------------------------------------------

 SCF Done:  E(UB3LYP) =  -1136.13283883     A.U. after   22 cycles

 The electronic state is 2-A.
 Alpha  occ. eigenvalues --  -38.44461 -38.44311 -38.44187 -38.43379 -38.43274
 Alpha  occ. eigenvalues --  -38.43021 -38.42786  -2.20325  -2.20145  -2.20009
 Alpha  occ. eigenvalues --   -2.19251  -2.19112  -2.18987  -2.18801  -1.14007
 Alpha  occ. eigenvalues --   -1.13983  -1.13957  -1.13845  -1.13820  -1.13783
 Alpha  occ. eigenvalues --   -1.13675  -1.13654  -1.13642  -1.12950  -1.12910
 Alpha  occ. eigenvalues --   -1.12885  -1.12829  -1.12769  -1.12743  -1.12715
 Alpha  occ. eigenvalues --   -1.12608  -1.12595  -1.12482  -1.12419  -1.12410
 Alpha  occ. eigenvalues --   -0.18714  -0.13578  -0.12254  -0.09969
 Alpha virt. eigenvalues --   -0.06062  -0.05467  -0.04704  -0.03192  -0.02439
 Alpha virt. eigenvalues --   -0.01912  -0.01775  -0.01278  -0.00608  -0.00569
 Alpha virt. eigenvalues --    0.00038   0.00337   0.00759   0.00817   0.00834

  Beta  occ. eigenvalues --  -38.44448 -38.44309 -38.44186 -38.43370 -38.43269
  Beta  occ. eigenvalues --  -38.42952 -38.42718  -2.20306  -2.20143  -2.20009
  Beta  occ. eigenvalues --   -2.19238  -2.19107  -2.18862  -2.18678  -1.13993
  Beta  occ. eigenvalues --   -1.13949  -1.13944  -1.13846  -1.13803  -1.13778
  Beta  occ. eigenvalues --   -1.13664  -1.13653  -1.13638  -1.12940  -1.12883
  Beta  occ. eigenvalues --   -1.12868  -1.12817  -1.12747  -1.12741  -1.12628
  Beta  occ. eigenvalues --   -1.12521  -1.12500  -1.12392  -1.12333  -1.12320
  Beta  occ. eigenvalues --   -0.18024  -0.13355  -0.11999
  Beta virt. eigenvalues --   -0.06144  -0.05977  -0.05468  -0.04687  -0.02422
  Beta virt. eigenvalues --   -0.01799  -0.01731  -0.01212  -0.00882  -0.00641
  Beta virt. eigenvalues --   -0.00572   0.00189   0.00380   0.00807   0.00819

 Mulliken charges and spin densities:
               1          2
     1  Na   0.097195  -0.081895
     2  Na   0.047985  -0.108130
     3  Na   0.271992   0.063169
     4  Na  -0.347665   0.655510
     5  Na   0.115630  -0.044537
     6  Na  -0.224584   0.567672
     7  Na   0.039446  -0.051788
 Sum of Mulliken charges =  -0.00000   1.00000

 Dipole moment (field-independent basis, Debye):
    X=             -0.1787    Y=             -0.0262    Z=              0.1024  Tot=              0.2077
 Quadrupole moment (field-independent basis, Debye-Ang):
   XX=            -51.6997   YY=            -60.6691   ZZ=            -78.3812
   XY=              0.1338   XZ=              1.8018   YZ=              0.8546

 Normal termination of Gaussian 16 at Tue Nov 28 21:00:34 2023.
