 Gaussian 16, Revision B.01,
 Gaussian 16:  ES64L-G16RevB.01 20-Dec-2017

 -------------------------
 #P B3LYP/6-311+g(d) force
 -------------------------

 -----
 DPGEN
 -----
 Symbolic Z-matrix:
 Charge =  0 Multiplicity = 2

                         Standard orientation:
 ---------------------------------------------------------------------
 Center     Atomic      Atomic             Coordinates (Angstroms)
 Number     Number       Type             X           Y           Z
 ---------------------------------------------------------------------
      1         11           0        0.684089    2.980886    0.031075
      2         11           0       -2.265332   -1.796394   -0.380691
      3         11           0        3.013600    0.348665    0.226589
      4         11           0       -0.238425   -0.560166    2.092158
      5         11           0        0.042656    0.260217   -2.074114
      6         11           0       -2.619367    1.398940    0.280942
      7         11           0        1.382779   -2.632147   -0.175959
 ---------------------------------------------------------------------

 SCF Done:  E(UB3LYP) =  -1136.14016444     A.U. after   17 cycles

 The electronic state is 2-A.
 Alpha  occ. eigenvalues --  -38.43978 -38.43919 -38.43777 -38.43639 -38.43550
 Alpha  occ. eigenvalues --  -38.43410 -38.43353  -2.19852  -2.19798  -2.19599
 Alpha  occ. eigenvalues --   -2.19484  -2.19418  -2.19248  -2.19168  -1.13520
 Alpha  occ. eigenvalues --   -1.13489  -1.13476  -1.13467  -1.13430  -1.13427
 Alpha  occ. eigenvalues --   -1.13274  -1.13265  -1.13241  -1.13180  -1.13155
 Alpha  occ. eigenvalues --   -1.13127  -1.13084  -1.13074  -1.13036  -1.12918
 Alpha  occ. eigenvalues --   -1.12915  -1.12886  -1.12842  -1.12831  -1.12808
 Alpha  occ. eigenvalues --   -0.18418  -0.12843  -0.12371  -0.11201
 Alpha virt. eigenvalues --   -0.05295  -0.05120  -0.04810  -0.03397  -0.03233
 Alpha virt. eigenvalues --   -0.02937  -0.01188  -0.01016  -0.00314  -0.00251
 Alpha virt. eigenvalues --   -0.00087   0.00410   0.00821   0.00856   0.00899

  Beta  occ. eigenvalues --  -38.43897 -38.43836 -38.43775 -38.43633 -38.43541
  Beta  occ. eigenvalues --  -38.43406 -38.43353  -2.19704  -2.19645  -2.19596
  Beta  occ. eigenvalues --   -2.19476  -2.19405  -2.19245  -2.19169  -1.13425
  Beta  occ. eigenvalues --   -1.13385  -1.13368  -1.13368  -1.13321  -1.13314
  Beta  occ. eigenvalues --   -1.13263  -1.13258  -1.13238  -1.13177  -1.13135
  Beta  occ. eigenvalues --   -1.13114  -1.13071  -1.13043  -1.13029  -1.12915
  Beta  occ. eigenvalues --   -1.12895  -1.12881  -1.12835  -1.12824  -1.12811
  Beta  occ. eigenvalues --   -0.17644  -0.12638  -0.12175
  Beta virt. eigenvalues --   -0.07284  -0.05268  -0.05128  -0.04616  -0.02609
  Beta virt. eigenvalues --   -0.02469  -0.01946  -0.01102  -0.00937  -0.00352
  Beta virt. eigenvalues --   -0.00310   0.00070   0.00432   0.00897   0.00903

 Mulliken charges and spin densities:
               1          2
     1  Na   0.040561  -0.079669
     2  Na   0.331084  -0.004692
     3  Na   0.026930  -0.073768
     4  Na  -0.384674   0.614091
     5  Na  -0.329276   0.637397
     6  Na   0.115208  -0.033187
     7  Na   0.200166  -0.060172
 Sum of Mulliken charges =  -0.00000   1.00000

 Dipole moment (field-independent basis, Debye):
    X=             -0.0102    Y=             -0.0681    Z=              0.0539  Tot=              0.0875
 Quadrupole moment (field-independent basis, Debye-Ang):
   XX=            -61.2467   YY=            -63.7724   ZZ=            -70.7368
   XY=             -0.1701   XZ=              0.5183   YZ=              1.7759

 Normal termination of Gaussian 16 at Tue Dec  5 22:16:46 2023.
