 Gaussian 16, Revision B.01,
 Gaussian 16:  ES64L-G16RevB.01 20-Dec-2017

 -------------------------
 #P B3LYP/6-311+g(d) force
 -------------------------

 -----
 DPGEN
 -----
 Symbolic Z-matrix:
 Charge =  0 Multiplicity = 2

                         Standard orientation:
 ---------------------------------------------------------------------
 Center     Atomic      Atomic             Coordinates (Angstroms)
 Number     Number       Type             X           Y           Z
 ---------------------------------------------------------------------
      1         11           0       -2.739624    1.809722    0.090049
      2         11           0        2.431836   -1.907624   -0.496769
      3         11           0        0.996230    1.847125   -1.056412
      4         11           0       -0.106760   -0.534748    2.028790
      5         11           0        3.377693    0.931437    0.778217
      6         11           0       -3.254113   -1.192773    0.334494
      7         11           0       -0.705261   -0.953138   -1.678369
 ---------------------------------------------------------------------

 SCF Done:  E(UB3LYP) =  -1136.11871739     A.U. after   27 cycles

 The electronic state is 2-A.
 Alpha  occ. eigenvalues --  -38.45032 -38.44790 -38.44671 -38.44187 -38.43917
 Alpha  occ. eigenvalues --  -38.43582 -38.42881  -2.20837  -2.20662  -2.20523
 Alpha  occ. eigenvalues --   -2.20016  -2.19746  -2.19504  -2.18749  -1.14520
 Alpha  occ. eigenvalues --   -1.14478  -1.14457  -1.14356  -1.14332  -1.14292
 Alpha  occ. eigenvalues --   -1.14198  -1.14184  -1.14157  -1.13686  -1.13677
 Alpha  occ. eigenvalues --   -1.13651  -1.13423  -1.13405  -1.13395  -1.13195
 Alpha  occ. eigenvalues --   -1.13148  -1.13102  -1.12439  -1.12418  -1.12371
 Alpha  occ. eigenvalues --   -0.18464  -0.14424  -0.11294  -0.10827
 Alpha virt. eigenvalues --   -0.06987  -0.05770  -0.04502  -0.03145  -0.02647
 Alpha virt. eigenvalues --   -0.02549  -0.02503  -0.01243  -0.00599  -0.00375
 Alpha virt. eigenvalues --    0.00175   0.00183   0.00240   0.00594   0.00647

  Beta  occ. eigenvalues --  -38.44972 -38.44785 -38.44654 -38.44185 -38.43910
  Beta  occ. eigenvalues --  -38.43504 -38.42858  -2.20726  -2.20656  -2.20492
  Beta  occ. eigenvalues --   -2.20013  -2.19739  -2.19361  -2.18710  -1.14445
  Beta  occ. eigenvalues --   -1.14401  -1.14376  -1.14355  -1.14314  -1.14281
  Beta  occ. eigenvalues --   -1.14178  -1.14165  -1.14128  -1.13690  -1.13668
  Beta  occ. eigenvalues --   -1.13639  -1.13404  -1.13398  -1.13381  -1.13096
  Beta  occ. eigenvalues --   -1.13046  -1.12998  -1.12408  -1.12371  -1.12348
  Beta  occ. eigenvalues --   -0.17731  -0.14212  -0.10621
  Beta virt. eigenvalues --   -0.07444  -0.06709  -0.05790  -0.03780  -0.02910
  Beta virt. eigenvalues --   -0.02408  -0.01950  -0.01759  -0.01157  -0.00455
  Beta virt. eigenvalues --   -0.00207   0.00181   0.00205   0.00437   0.00667

 Mulliken charges and spin densities:
               1          2
     1  Na  -0.224910   0.001719
     2  Na  -0.076076  -0.000210
     3  Na  -0.551395  -0.048638
     4  Na  -0.525071   0.302919
     5  Na   0.680718   0.193947
     6  Na   0.869719   0.184548
     7  Na  -0.172985   0.365716
 Sum of Mulliken charges =  -0.00000   1.00000

 Dipole moment (field-independent basis, Debye):
    X=             -0.3084    Y=             -0.4299    Z=              0.7028  Tot=              0.8797
 Quadrupole moment (field-independent basis, Debye-Ang):
   XX=            -48.3907   YY=            -77.0650   ZZ=            -70.3184
   XY=              0.0532   XZ=              0.6970   YZ=              1.9060

 Normal termination of Gaussian 16 at Thu Dec  7 05:35:04 2023.
