 Gaussian 16, Revision B.01,
 Gaussian 16:  ES64L-G16RevB.01 20-Dec-2017

 -------------------------
 #P B3LYP/6-311+g(d) force
 -------------------------

 -----
 DPGEN
 -----
 Symbolic Z-matrix:
 Charge =  0 Multiplicity = 2

                         Standard orientation:
 ---------------------------------------------------------------------
 Center     Atomic      Atomic             Coordinates (Angstroms)
 Number     Number       Type             X           Y           Z
 ---------------------------------------------------------------------
      1         11           0       -0.358599   -0.086937    1.927473
      2         11           0       -1.250538   -2.668771   -0.530171
      3         11           0        2.456502    1.971383   -0.098996
      4         11           0        2.853598   -1.971438    0.499132
      5         11           0       -0.951227    2.955431   -0.087013
      6         11           0       -3.566308   -0.088694   -0.036726
      7         11           0        0.816571   -0.110974   -1.673699
 ---------------------------------------------------------------------

 SCF Done:  E(UB3LYP) =  -1136.13142743     A.U. after   19 cycles

 The electronic state is 2-A.
 Alpha  occ. eigenvalues --  -38.44542 -38.44275 -38.44090 -38.43728 -38.43696
 Alpha  occ. eigenvalues --  -38.43668 -38.43346  -2.20311  -2.20050  -2.19929
 Alpha  occ. eigenvalues --   -2.19548  -2.19543  -2.19459  -2.19266  -1.13987
 Alpha  occ. eigenvalues --   -1.13964  -1.13958  -1.13718  -1.13703  -1.13694
 Alpha  occ. eigenvalues --   -1.13656  -1.13582  -1.13542  -1.13238  -1.13227
 Alpha  occ. eigenvalues --   -1.13211  -1.13178  -1.13166  -1.13157  -1.13138
 Alpha  occ. eigenvalues --   -1.13123  -1.13092  -1.12939  -1.12920  -1.12872
 Alpha  occ. eigenvalues --   -0.17881  -0.12994  -0.12242  -0.10303
 Alpha virt. eigenvalues --   -0.06053  -0.05593  -0.04861  -0.03158  -0.02812
 Alpha virt. eigenvalues --   -0.02249  -0.01847  -0.01378  -0.00813  -0.00559
 Alpha virt. eigenvalues --   -0.00057   0.00309   0.00692   0.00760   0.00799

  Beta  occ. eigenvalues --  -38.44544 -38.44262 -38.44083 -38.43710 -38.43669
  Beta  occ. eigenvalues --  -38.43617 -38.43289  -2.20317  -2.20026  -2.19920
  Beta  occ. eigenvalues --   -2.19515  -2.19462  -2.19398  -2.19160  -1.13985
  Beta  occ. eigenvalues --   -1.13967  -1.13960  -1.13690  -1.13686  -1.13678
  Beta  occ. eigenvalues --   -1.13641  -1.13563  -1.13536  -1.13210  -1.13177
  Beta  occ. eigenvalues --   -1.13148  -1.13139  -1.13131  -1.13117  -1.13091
  Beta  occ. eigenvalues --   -1.13077  -1.13044  -1.12865  -1.12842  -1.12798
  Beta  occ. eigenvalues --   -0.17214  -0.12787  -0.12013
  Beta virt. eigenvalues --   -0.06572  -0.05927  -0.05547  -0.04730  -0.02505
  Beta virt. eigenvalues --   -0.02142  -0.01708  -0.01325  -0.01281  -0.00816
  Beta virt. eigenvalues --   -0.00583   0.00104   0.00357   0.00771   0.00783

 Mulliken charges and spin densities:
               1          2
     1  Na  -0.211632   0.804079
     2  Na   0.017727  -0.019086
     3  Na   0.236712  -0.012233
     4  Na  -0.073211   0.009136
     5  Na  -0.165233  -0.141928
     6  Na  -0.036633  -0.082520
     7  Na   0.232270   0.442551
 Sum of Mulliken charges =  -0.00000   1.00000

 Dipole moment (field-independent basis, Debye):
    X=             -0.0505    Y=              0.0084    Z=              0.1035  Tot=              0.1155
 Quadrupole moment (field-independent basis, Debye-Ang):
   XX=            -53.5268   YY=            -63.0019   ZZ=            -76.2759
   XY=             -1.2567   XZ=              2.2125   YZ=             -0.2877

 Normal termination of Gaussian 16 at Thu Dec  7 16:17:47 2023.
