 Gaussian 16, Revision B.01,
 Gaussian 16:  ES64L-G16RevB.01 20-Dec-2017

 -------------------------
 #P B3LYP/6-311+g(d) force
 -------------------------

 -----
 DPGEN
 -----
 Symbolic Z-matrix:
 Charge =  0 Multiplicity = 2

                         Standard orientation:
 ---------------------------------------------------------------------
 Center     Atomic      Atomic             Coordinates (Angstroms)
 Number     Number       Type             X           Y           Z
 ---------------------------------------------------------------------
      1         11           0        2.730881   -1.846130   -0.453652
      2         11           0        3.910857    1.645175    0.178298
      3         11           0        0.530099    0.741399   -0.117990
      4         11           0       -1.830210   -0.339773    1.750426
      5         11           0       -2.716518   -0.414762   -1.320299
      6         11           0       -1.844875    3.162587   -0.180766
      7         11           0       -0.780235   -2.948496    0.143981
 ---------------------------------------------------------------------

 SCF Done:  E(UB3LYP) =  -1136.12159217     A.U. after   26 cycles

 The electronic state is 2-A.
 Alpha  occ. eigenvalues --  -38.45238 -38.44735 -38.44281 -38.43900 -38.43366
 Alpha  occ. eigenvalues --  -38.43287 -38.43232  -2.20991  -2.20519  -2.20059
 Alpha  occ. eigenvalues --   -2.19774  -2.19228  -2.19213  -2.19181  -1.14663
 Alpha  occ. eigenvalues --   -1.14658  -1.14616  -1.14209  -1.14194  -1.14124
 Alpha  occ. eigenvalues --   -1.13741  -1.13718  -1.13692  -1.13466  -1.13440
 Alpha  occ. eigenvalues --   -1.13369  -1.12983  -1.12927  -1.12902  -1.12873
 Alpha  occ. eigenvalues --   -1.12866  -1.12863  -1.12830  -1.12795  -1.12745
 Alpha  occ. eigenvalues --   -0.17925  -0.13621  -0.12230  -0.09633
 Alpha virt. eigenvalues --   -0.07010  -0.05530  -0.05053  -0.02861  -0.02472
 Alpha virt. eigenvalues --   -0.02367  -0.01787  -0.01513  -0.01179  -0.00686
 Alpha virt. eigenvalues --   -0.00170   0.00239   0.00351   0.00532   0.00739

  Beta  occ. eigenvalues --  -38.45244 -38.44726 -38.44278 -38.43839 -38.43357
  Beta  occ. eigenvalues --  -38.43272 -38.43151  -2.21003  -2.20502  -2.20057
  Beta  occ. eigenvalues --   -2.19663  -2.19206  -2.19201  -2.19036  -1.14671
  Beta  occ. eigenvalues --   -1.14665  -1.14624  -1.14197  -1.14178  -1.14115
  Beta  occ. eigenvalues --   -1.13741  -1.13701  -1.13690  -1.13378  -1.13366
  Beta  occ. eigenvalues --   -1.13288  -1.12933  -1.12891  -1.12879  -1.12860
  Beta  occ. eigenvalues --   -1.12848  -1.12842  -1.12729  -1.12716  -1.12649
  Beta  occ. eigenvalues --   -0.17315  -0.13452  -0.12034
  Beta virt. eigenvalues --   -0.06917  -0.05807  -0.05301  -0.04964  -0.02531
  Beta virt. eigenvalues --   -0.02270  -0.01856  -0.01575  -0.01212  -0.00831
  Beta virt. eigenvalues --   -0.00502   0.00195   0.00348   0.00467   0.00590

 Mulliken charges and spin densities:
               1          2
     1  Na   0.844727  -0.097786
     2  Na   0.197566  -0.082192
     3  Na  -2.492859   0.414550
     4  Na   0.399978   0.078116
     5  Na   0.254558   0.287078
     6  Na   0.525767   0.106044
     7  Na   0.270261   0.294190
 Sum of Mulliken charges =  -0.00000   1.00000

 Dipole moment (field-independent basis, Debye):
    X=              1.4574    Y=              0.6845    Z=              0.2428  Tot=              1.6283
 Quadrupole moment (field-independent basis, Debye-Ang):
   XX=            -53.3594   YY=            -57.8626   ZZ=            -78.6214
   XY=              0.5319   XZ=             -0.7474   YZ=              0.9618

 Normal termination of Gaussian 16 at Tue Dec  5 16:25:17 2023.
