 Gaussian 16, Revision B.01,
 Gaussian 16:  ES64L-G16RevB.01 20-Dec-2017

 -------------------------
 #P B3LYP/6-311+g(d) force
 -------------------------

 -----
 DPGEN
 -----
 Symbolic Z-matrix:
 Charge =  0 Multiplicity = 2

                         Standard orientation:
 ---------------------------------------------------------------------
 Center     Atomic      Atomic             Coordinates (Angstroms)
 Number     Number       Type             X           Y           Z
 ---------------------------------------------------------------------
      1         11           0        2.623097    1.680892    1.180921
      2         11           0        1.625949   -2.679334   -0.873263
      3         11           0       -2.303255   -2.917569    0.415407
      4         11           0       -4.277524   -0.713715    0.262745
      5         11           0       -3.145128    2.467046   -0.219097
      6         11           0        0.580625    2.932456   -0.803552
      7         11           0        4.896236   -0.769775    0.036839
 ---------------------------------------------------------------------

 SCF Done:  E(UB3LYP) =  -1136.10237839     A.U. after   25 cycles

 The electronic state is 2-A.
 Alpha  occ. eigenvalues --  -38.46158 -38.45231 -38.44795 -38.44282 -38.44166
 Alpha  occ. eigenvalues --  -38.44047 -38.43696  -2.21862  -2.21039  -2.20564
 Alpha  occ. eigenvalues --   -2.20119  -2.19972  -2.19844  -2.19510  -1.15557
 Alpha  occ. eigenvalues --   -1.15539  -1.15469  -1.14732  -1.14707  -1.14662
 Alpha  occ. eigenvalues --   -1.14240  -1.14230  -1.14190  -1.13901  -1.13777
 Alpha  occ. eigenvalues --   -1.13762  -1.13626  -1.13609  -1.13566  -1.13498
 Alpha  occ. eigenvalues --   -1.13494  -1.13460  -1.13186  -1.13160  -1.13138
 Alpha  occ. eigenvalues --   -0.15734  -0.14225  -0.12842  -0.10582
 Alpha virt. eigenvalues --   -0.07853  -0.05036  -0.04546  -0.03473  -0.03430
 Alpha virt. eigenvalues --   -0.02441  -0.02369  -0.01715  -0.01044  -0.00780
 Alpha virt. eigenvalues --   -0.00676  -0.00447   0.00175   0.00368   0.00503

  Beta  occ. eigenvalues --  -38.46140 -38.45202 -38.44763 -38.44275 -38.44151
  Beta  occ. eigenvalues --  -38.43978 -38.43663  -2.21831  -2.20992  -2.20509
  Beta  occ. eigenvalues --   -2.20109  -2.19942  -2.19715  -2.19452  -1.15539
  Beta  occ. eigenvalues --   -1.15521  -1.15423  -1.14690  -1.14677  -1.14607
  Beta  occ. eigenvalues --   -1.14205  -1.14194  -1.14139  -1.13891  -1.13772
  Beta  occ. eigenvalues --   -1.13747  -1.13605  -1.13587  -1.13546  -1.13408
  Beta  occ. eigenvalues --   -1.13405  -1.13377  -1.13137  -1.13121  -1.13104
  Beta  occ. eigenvalues --   -0.15228  -0.13697  -0.12226
  Beta virt. eigenvalues --   -0.07928  -0.07313  -0.04563  -0.04120  -0.03216
  Beta virt. eigenvalues --   -0.03156  -0.02211  -0.02150  -0.01495  -0.00820
  Beta virt. eigenvalues --   -0.00690  -0.00354  -0.00216   0.00276   0.00417

 Mulliken charges and spin densities:
               1          2
     1  Na   0.000210   0.153805
     2  Na  -0.060628   0.143470
     3  Na  -0.174192   0.064414
     4  Na   0.201182   0.070173
     5  Na   0.062068   0.163573
     6  Na  -0.250386   0.083758
     7  Na   0.221747   0.320807
 Sum of Mulliken charges =  -0.00000   1.00000

 Dipole moment (field-independent basis, Debye):
    X=              0.4676    Y=             -0.0050    Z=             -0.0796  Tot=              0.4743
 Quadrupole moment (field-independent basis, Debye-Ang):
   XX=            -65.0907   YY=            -69.7943   ZZ=            -68.5823
   XY=              0.2389   XZ=             -0.0973   YZ=              1.3546

 Normal termination of Gaussian 16 at Sun Dec  3 11:58:40 2023.
