 Gaussian 16, Revision B.01,
 Gaussian 16:  ES64L-G16RevB.01 20-Dec-2017

 -------------------------
 #P B3LYP/6-311+g(d) force
 -------------------------

 -----
 DPGEN
 -----
 Symbolic Z-matrix:
 Charge =  0 Multiplicity = 2

                         Standard orientation:
 ---------------------------------------------------------------------
 Center     Atomic      Atomic             Coordinates (Angstroms)
 Number     Number       Type             X           Y           Z
 ---------------------------------------------------------------------
      1         11           0        0.740347   -2.448298   -0.752685
      2         11           0        3.037158   -0.331237    0.292047
      3         11           0        0.884381    2.791137    0.243692
      4         11           0       -0.028510   -0.310529    1.698618
      5         11           0       -2.574446    1.564681   -0.254069
      6         11           0        0.245339    0.569841   -1.560885
      7         11           0       -2.304270   -1.835596    0.333283
 ---------------------------------------------------------------------

 SCF Done:  E(UB3LYP) =  -1136.13395755     A.U. after   18 cycles

 The electronic state is 2-A.
 Alpha  occ. eigenvalues --  -38.43862 -38.43832 -38.43706 -38.43433 -38.43177
 Alpha  occ. eigenvalues --  -38.43094 -38.43001  -2.19710  -2.19701  -2.19588
 Alpha  occ. eigenvalues --   -2.19331  -2.19123  -2.19113  -2.19062  -1.13409
 Alpha  occ. eigenvalues --   -1.13385  -1.13374  -1.13367  -1.13361  -1.13340
 Alpha  occ. eigenvalues --   -1.13332  -1.13244  -1.13182  -1.13082  -1.12991
 Alpha  occ. eigenvalues --   -1.12958  -1.12873  -1.12808  -1.12769  -1.12738
 Alpha  occ. eigenvalues --   -1.12723  -1.12713  -1.12703  -1.12680  -1.12647
 Alpha  occ. eigenvalues --   -0.19291  -0.13047  -0.12839  -0.10751
 Alpha virt. eigenvalues --   -0.05518  -0.05003  -0.04574  -0.03073  -0.03058
 Alpha virt. eigenvalues --   -0.02242  -0.01473  -0.01102  -0.00173  -0.00082
 Alpha virt. eigenvalues --    0.00132   0.00363   0.00862   0.00908   0.00953

  Beta  occ. eigenvalues --  -38.43857 -38.43824 -38.43700 -38.43425 -38.43151
  Beta  occ. eigenvalues --  -38.43019 -38.42936  -2.19704  -2.19691  -2.19580
  Beta  occ. eigenvalues --   -2.19320  -2.19079  -2.18976  -2.18944  -1.13398
  Beta  occ. eigenvalues --   -1.13380  -1.13359  -1.13349  -1.13339  -1.13331
  Beta  occ. eigenvalues --   -1.13324  -1.13223  -1.13175  -1.13059  -1.12970
  Beta  occ. eigenvalues --   -1.12946  -1.12827  -1.12732  -1.12713  -1.12701
  Beta  occ. eigenvalues --   -1.12632  -1.12620  -1.12616  -1.12600  -1.12563
  Beta  occ. eigenvalues --   -0.18573  -0.12772  -0.12578
  Beta virt. eigenvalues --   -0.06805  -0.05511  -0.04957  -0.04536  -0.02300
  Beta virt. eigenvalues --   -0.02289  -0.01403  -0.01207  -0.01034  -0.00167
  Beta virt. eigenvalues --   -0.00056   0.00186   0.00396   0.00868   0.00936

 Mulliken charges and spin densities:
               1          2
     1  Na   0.134434   0.101443
     2  Na   0.103961   0.011315
     3  Na  -0.069526  -0.043205
     4  Na  -0.279055   0.623170
     5  Na  -0.052880  -0.087644
     6  Na  -0.017336   0.373081
     7  Na   0.180402   0.021841
 Sum of Mulliken charges =  -0.00000   1.00000

 Dipole moment (field-independent basis, Debye):
    X=              0.0464    Y=              0.2798    Z=              0.1313  Tot=              0.3126
 Quadrupole moment (field-independent basis, Debye-Ang):
   XX=            -56.4292   YY=            -61.7984   ZZ=            -74.3889
   XY=             -0.0040   XZ=              0.9522   YZ=              1.7355

 Normal termination of Gaussian 16 at Tue Nov 28 22:32:13 2023.
