 Gaussian 16, Revision B.01,
 Gaussian 16:  ES64L-G16RevB.01 20-Dec-2017

 -------------------------
 #P B3LYP/6-311+g(d) force
 -------------------------

 -----
 DPGEN
 -----
 Symbolic Z-matrix:
 Charge =  0 Multiplicity = 2

                         Standard orientation:
 ---------------------------------------------------------------------
 Center     Atomic      Atomic             Coordinates (Angstroms)
 Number     Number       Type             X           Y           Z
 ---------------------------------------------------------------------
      1         11           0       -0.766561    2.261591   -0.254005
      2         11           0        2.840491    1.982735   -1.140942
      3         11           0       -3.882127    1.015192    0.210207
      4         11           0       -2.791671   -2.172606   -0.641090
      5         11           0        0.217552   -1.508835   -0.946478
      6         11           0        3.651735   -1.554601    0.086600
      7         11           0        0.730582   -0.023475    2.685708
 ---------------------------------------------------------------------

 SCF Done:  E(UB3LYP) =  -1136.11166636     A.U. after   25 cycles

 The electronic state is 2-A.
 Alpha  occ. eigenvalues --  -38.45433 -38.45377 -38.44643 -38.44497 -38.44044
 Alpha  occ. eigenvalues --  -38.43667 -38.43293  -2.21187  -2.21147  -2.20434
 Alpha  occ. eigenvalues --   -2.20268  -2.19867  -2.19487  -2.19085  -1.14857
 Alpha  occ. eigenvalues --   -1.14843  -1.14824  -1.14824  -1.14805  -1.14791
 Alpha  occ. eigenvalues --   -1.14076  -1.14055  -1.14043  -1.13940  -1.13907
 Alpha  occ. eigenvalues --   -1.13894  -1.13564  -1.13544  -1.13526  -1.13159
 Alpha  occ. eigenvalues --   -1.13142  -1.13118  -1.12780  -1.12759  -1.12717
 Alpha  occ. eigenvalues --   -0.17043  -0.13671  -0.11459  -0.10955
 Alpha virt. eigenvalues --   -0.07437  -0.06166  -0.03758  -0.03273  -0.03134
 Alpha virt. eigenvalues --   -0.02764  -0.02454  -0.01942  -0.00893  -0.00516
 Alpha virt. eigenvalues --   -0.00178   0.00023   0.00283   0.00389   0.00518

  Beta  occ. eigenvalues --  -38.45420 -38.45387 -38.44511 -38.44445 -38.44048
  Beta  occ. eigenvalues --  -38.43673 -38.43293  -2.21166  -2.21164  -2.20189
  Beta  occ. eigenvalues --   -2.20172  -2.19876  -2.19498  -2.19086  -1.14841
  Beta  occ. eigenvalues --   -1.14836  -1.14818  -1.14813  -1.14811  -1.14803
  Beta  occ. eigenvalues --   -1.13909  -1.13890  -1.13872  -1.13872  -1.13843
  Beta  occ. eigenvalues --   -1.13825  -1.13565  -1.13549  -1.13531  -1.13170
  Beta  occ. eigenvalues --   -1.13147  -1.13125  -1.12783  -1.12746  -1.12718
  Beta  occ. eigenvalues --   -0.16543  -0.13421  -0.11352
  Beta virt. eigenvalues --   -0.07394  -0.06957  -0.05738  -0.03627  -0.03073
  Beta virt. eigenvalues --   -0.02736  -0.02133  -0.01911  -0.01626  -0.00765
  Beta virt. eigenvalues --   -0.00316  -0.00013   0.00031   0.00393   0.00511

 Mulliken charges and spin densities:
               1          2
     1  Na  -0.197066  -0.015857
     2  Na   0.145317   0.255032
     3  Na   0.106995  -0.037667
     4  Na   0.244749   0.002256
     5  Na  -0.834470   0.041115
     6  Na   0.675547   0.113217
     7  Na  -0.141073   0.641905
 Sum of Mulliken charges =  -0.00000   1.00000

 Dipole moment (field-independent basis, Debye):
    X=              0.2190    Y=             -0.2337    Z=              0.4568  Tot=              0.5579
 Quadrupole moment (field-independent basis, Debye-Ang):
   XX=            -45.9583   YY=            -75.1384   ZZ=            -73.9959
   XY=             -3.1789   XZ=             -1.2558   YZ=             -1.5288

 Normal termination of Gaussian 16 at Mon Dec  4 01:22:35 2023.
