 Gaussian 16, Revision B.01,
 Gaussian 16:  ES64L-G16RevB.01 20-Dec-2017

 -------------------------
 #P B3LYP/6-311+g(d) force
 -------------------------

 -----
 DPGEN
 -----
 Symbolic Z-matrix:
 Charge =  0 Multiplicity = 2

                         Standard orientation:
 ---------------------------------------------------------------------
 Center     Atomic      Atomic             Coordinates (Angstroms)
 Number     Number       Type             X           Y           Z
 ---------------------------------------------------------------------
      1         11           0        3.784975   -1.769103    1.238986
      2         11           0       -4.442233   -2.447808   -0.050348
      3         11           0        0.665415   -1.277050   -1.030206
      4         11           0        0.665244    2.028848    1.483628
      5         11           0        3.720302   -0.063956   -1.251082
      6         11           0       -3.391539    0.377922    0.398459
      7         11           0       -1.002163    3.151147   -0.789436
 ---------------------------------------------------------------------

 SCF Done:  E(UB3LYP) =  -1136.10836227     A.U. after   21 cycles

 The electronic state is 2-A.
 Alpha  occ. eigenvalues --  -38.45205 -38.44956 -38.44517 -38.44259 -38.44033
 Alpha  occ. eigenvalues --  -38.43618 -38.43385  -2.21057  -2.20760  -2.20329
 Alpha  occ. eigenvalues --   -2.20086  -2.19886  -2.19434  -2.19184  -1.14754
 Alpha  occ. eigenvalues --   -1.14708  -1.14706  -1.14461  -1.14420  -1.14393
 Alpha  occ. eigenvalues --   -1.13989  -1.13974  -1.13966  -1.13750  -1.13731
 Alpha  occ. eigenvalues --   -1.13686  -1.13556  -1.13518  -1.13501  -1.13134
 Alpha  occ. eigenvalues --   -1.13116  -1.13087  -1.12835  -1.12829  -1.12811
 Alpha  occ. eigenvalues --   -0.16810  -0.14138  -0.12053  -0.09965
 Alpha virt. eigenvalues --   -0.06558  -0.06179  -0.04838  -0.03785  -0.02817
 Alpha virt. eigenvalues --   -0.02253  -0.01930  -0.01754  -0.01341  -0.00644
 Alpha virt. eigenvalues --   -0.00230  -0.00084   0.00143   0.00298   0.00441

  Beta  occ. eigenvalues --  -38.45195 -38.44943 -38.44521 -38.44172 -38.43965
  Beta  occ. eigenvalues --  -38.43615 -38.43384  -2.21045  -2.20735  -2.20337
  Beta  occ. eigenvalues --   -2.19927  -2.19761  -2.19427  -2.19182  -1.14741
  Beta  occ. eigenvalues --   -1.14706  -1.14650  -1.14445  -1.14401  -1.14375
  Beta  occ. eigenvalues --   -1.13995  -1.13973  -1.13971  -1.13632  -1.13620
  Beta  occ. eigenvalues --   -1.13584  -1.13472  -1.13432  -1.13410  -1.13131
  Beta  occ. eigenvalues --   -1.13111  -1.13080  -1.12834  -1.12826  -1.12810
  Beta  occ. eigenvalues --   -0.16224  -0.13847  -0.11938
  Beta virt. eigenvalues --   -0.06441  -0.06225  -0.05901  -0.04751  -0.03366
  Beta virt. eigenvalues --   -0.02531  -0.02012  -0.01721  -0.01372  -0.01176
  Beta virt. eigenvalues --   -0.00205  -0.00147   0.00091   0.00268   0.00489

 Mulliken charges and spin densities:
               1          2
     1  Na  -0.058074   0.355245
     2  Na   0.302988  -0.025346
     3  Na  -0.962040   0.337948
     4  Na  -0.093612  -0.006672
     5  Na   0.947546   0.268061
     6  Na  -0.489984   0.008224
     7  Na   0.353177   0.062539
 Sum of Mulliken charges =  -0.00000   1.00000

 Dipole moment (field-independent basis, Debye):
    X=              1.1288    Y=              0.9157    Z=             -0.7460  Tot=              1.6338
 Quadrupole moment (field-independent basis, Debye-Ang):
   XX=            -72.7055   YY=            -63.5257   ZZ=            -69.8319
   XY=              2.0322   XZ=             -2.7909   YZ=             -5.3362

 Normal termination of Gaussian 16 at Mon Dec  4 01:17:29 2023.
