 Gaussian 16, Revision B.01,
 Gaussian 16:  ES64L-G16RevB.01 20-Dec-2017

 -------------------------
 #P B3LYP/6-311+g(d) force
 -------------------------

 -----
 DPGEN
 -----
 Symbolic Z-matrix:
 Charge =  0 Multiplicity = 2

                         Standard orientation:
 ---------------------------------------------------------------------
 Center     Atomic      Atomic             Coordinates (Angstroms)
 Number     Number       Type             X           Y           Z
 ---------------------------------------------------------------------
      1         11           0        2.464733   -0.789669    2.052852
      2         11           0        3.061960   -0.395208   -1.413250
      3         11           0       -3.002890   -1.579886   -0.391062
      4         11           0       -4.297333    1.131564    0.381169
      5         11           0       -0.214656    0.718911   -0.255710
      6         11           0        0.588022   -2.646186   -0.246323
      7         11           0        1.400164    3.560475   -0.127676
 ---------------------------------------------------------------------

 SCF Done:  E(UB3LYP) =  -1136.11667054     A.U. after   24 cycles

 The electronic state is 2-A.
 Alpha  occ. eigenvalues --  -38.46469 -38.44402 -38.44059 -38.43818 -38.43319
 Alpha  occ. eigenvalues --  -38.43314 -38.43249  -2.22240  -2.20215  -2.19906
 Alpha  occ. eigenvalues --   -2.19657  -2.19208  -2.19186  -2.19022  -1.15932
 Alpha  occ. eigenvalues --   -1.15896  -1.15864  -1.13891  -1.13860  -1.13839
 Alpha  occ. eigenvalues --   -1.13567  -1.13530  -1.13514  -1.13328  -1.13321
 Alpha  occ. eigenvalues --   -1.13302  -1.12931  -1.12909  -1.12865  -1.12839
 Alpha  occ. eigenvalues --   -1.12835  -1.12797  -1.12688  -1.12684  -1.12653
 Alpha  occ. eigenvalues --   -0.17508  -0.13913  -0.11691  -0.10116
 Alpha virt. eigenvalues --   -0.07398  -0.05293  -0.04748  -0.03179  -0.02722
 Alpha virt. eigenvalues --   -0.02150  -0.02072  -0.01451  -0.01312  -0.00701
 Alpha virt. eigenvalues --   -0.00476   0.00071   0.00187   0.00464   0.00774

  Beta  occ. eigenvalues --  -38.46474 -38.44353 -38.43958 -38.43811 -38.43302
  Beta  occ. eigenvalues --  -38.43288 -38.43260  -2.22252  -2.20122  -2.19717
  Beta  occ. eigenvalues --   -2.19651  -2.19187  -2.19132  -2.19044  -1.15919
  Beta  occ. eigenvalues --   -1.15902  -1.15874  -1.13832  -1.13796  -1.13776
  Beta  occ. eigenvalues --   -1.13435  -1.13398  -1.13392  -1.13328  -1.13322
  Beta  occ. eigenvalues --   -1.13254  -1.12908  -1.12883  -1.12830  -1.12826
  Beta  occ. eigenvalues --   -1.12809  -1.12737  -1.12703  -1.12696  -1.12664
  Beta  occ. eigenvalues --   -0.16961  -0.13434  -0.11541
  Beta virt. eigenvalues --   -0.07098  -0.06508  -0.05116  -0.04535  -0.02733
  Beta virt. eigenvalues --   -0.02615  -0.01805  -0.01520  -0.01286  -0.01014
  Beta virt. eigenvalues --   -0.00441  -0.00234   0.00198   0.00365   0.00546

 Mulliken charges and spin densities:
               1          2
     1  Na   0.127164   0.514822
     2  Na   0.854413  -0.046854
     3  Na   1.331927  -0.046458
     4  Na  -0.118160   0.322222
     5  Na  -3.070862   0.245797
     6  Na   0.717871   0.190558
     7  Na   0.157647  -0.180086
 Sum of Mulliken charges =  -0.00000   1.00000

 Dipole moment (field-independent basis, Debye):
    X=              0.7408    Y=             -0.3143    Z=             -0.8275  Tot=              1.1543
 Quadrupole moment (field-independent basis, Debye-Ang):
   XX=            -58.2754   YY=            -67.9180   ZZ=            -69.9825
   XY=             -0.3203   XZ=             -7.9388   YZ=              3.5027

 Normal termination of Gaussian 16 at Tue Dec  5 17:10:09 2023.
