 Gaussian 16, Revision B.01,
 Gaussian 16:  ES64L-G16RevB.01 20-Dec-2017

 -------------------------
 #P B3LYP/6-311+g(d) force
 -------------------------

 -----
 DPGEN
 -----
 Symbolic Z-matrix:
 Charge =  0 Multiplicity = 2

                         Standard orientation:
 ---------------------------------------------------------------------
 Center     Atomic      Atomic             Coordinates (Angstroms)
 Number     Number       Type             X           Y           Z
 ---------------------------------------------------------------------
      1         11           0       -0.619319    1.385916    1.457040
      2         11           0        1.599611    0.384826   -1.021608
      3         11           0        2.347768    3.046562   -0.313651
      4         11           0        0.703735   -1.766921    2.201250
      5         11           0       -4.021638    0.668539   -0.347935
      6         11           0       -1.464702   -0.832932   -1.095291
      7         11           0        1.454544   -2.885990   -0.879804
 ---------------------------------------------------------------------

 SCF Done:  E(UB3LYP) =  -1136.12491951     A.U. after   19 cycles

 The electronic state is 2-A.
 Alpha  occ. eigenvalues --  -38.44481 -38.44236 -38.43866 -38.43643 -38.43560
 Alpha  occ. eigenvalues --  -38.43547 -38.43266  -2.20327  -2.20091  -2.19678
 Alpha  occ. eigenvalues --   -2.19507  -2.19473  -2.19408  -2.19260  -1.13988
 Alpha  occ. eigenvalues --   -1.13974  -1.13939  -1.13808  -1.13746  -1.13678
 Alpha  occ. eigenvalues --   -1.13406  -1.13329  -1.13310  -1.13272  -1.13185
 Alpha  occ. eigenvalues --   -1.13180  -1.13161  -1.13146  -1.13129  -1.13046
 Alpha  occ. eigenvalues --   -1.13042  -1.13026  -1.12932  -1.12892  -1.12795
 Alpha  occ. eigenvalues --   -0.18325  -0.12797  -0.12535  -0.11667
 Alpha virt. eigenvalues --   -0.06113  -0.04789  -0.04462  -0.03213  -0.03007
 Alpha virt. eigenvalues --   -0.02951  -0.01652  -0.01301  -0.00594  -0.00089
 Alpha virt. eigenvalues --    0.00121   0.00265   0.00658   0.00737   0.00834

  Beta  occ. eigenvalues --  -38.44396 -38.44189 -38.43864 -38.43630 -38.43559
  Beta  occ. eigenvalues --  -38.43518 -38.43235  -2.20171  -2.20007  -2.19675
  Beta  occ. eigenvalues --   -2.19485  -2.19423  -2.19406  -2.19206  -1.13874
  Beta  occ. eigenvalues --   -1.13870  -1.13830  -1.13755  -1.13658  -1.13627
  Beta  occ. eigenvalues --   -1.13396  -1.13327  -1.13307  -1.13254  -1.13165
  Beta  occ. eigenvalues --   -1.13155  -1.13138  -1.13123  -1.13085  -1.13041
  Beta  occ. eigenvalues --   -1.13021  -1.13010  -1.12900  -1.12845  -1.12761
  Beta  occ. eigenvalues --   -0.17563  -0.12649  -0.12395
  Beta virt. eigenvalues --   -0.07566  -0.05889  -0.04470  -0.04224  -0.02773
  Beta virt. eigenvalues --   -0.02548  -0.02098  -0.01565  -0.01260  -0.00188
  Beta virt. eigenvalues --   -0.00088   0.00183   0.00423   0.00818   0.00876

 Mulliken charges and spin densities:
               1          2
     1  Na  -0.122493   0.341768
     2  Na  -1.042975   0.323245
     3  Na   0.711461   0.002921
     4  Na  -0.135570   0.268193
     5  Na   0.521179  -0.014136
     6  Na  -0.913769   0.216799
     7  Na   0.982167  -0.138789
 Sum of Mulliken charges =  -0.00000   1.00000

 Dipole moment (field-independent basis, Debye):
    X=             -0.1624    Y=             -0.2398    Z=              0.5188  Tot=              0.5942
 Quadrupole moment (field-independent basis, Debye-Ang):
   XX=            -62.4121   YY=            -61.8282   ZZ=            -69.0069
   XY=             -2.9323   XZ=             -0.6989   YZ=              1.7679

 Normal termination of Gaussian 16 at Tue Dec  5 16:23:25 2023.
