 Gaussian 16, Revision B.01,
 Gaussian 16:  ES64L-G16RevB.01 20-Dec-2017

 -------------------------
 #P B3LYP/6-311+g(d) force
 -------------------------

 -----
 DPGEN
 -----
 Symbolic Z-matrix:
 Charge =  0 Multiplicity = 2

                         Standard orientation:
 ---------------------------------------------------------------------
 Center     Atomic      Atomic             Coordinates (Angstroms)
 Number     Number       Type             X           Y           Z
 ---------------------------------------------------------------------
      1         11           0       -1.452104   -2.326609   -0.429023
      2         11           0        2.182376   -2.051097   -0.424960
      3         11           0        0.591701   -1.241259    2.133246
      4         11           0        3.266530    0.857404   -1.436929
      5         11           0        1.401496    2.420201    0.753965
      6         11           0       -4.152956    0.025567   -0.683903
      7         11           0       -1.837043    2.315794    0.087604
 ---------------------------------------------------------------------

 SCF Done:  E(UB3LYP) =  -1136.12299064     A.U. after   20 cycles

 The electronic state is 2-A.
 Alpha  occ. eigenvalues --  -38.44511 -38.44464 -38.44183 -38.44158 -38.44095
 Alpha  occ. eigenvalues --  -38.43966 -38.43466  -2.20368  -2.20254  -2.20052
 Alpha  occ. eigenvalues --   -2.19952  -2.19942  -2.19770  -2.19300  -1.14064
 Alpha  occ. eigenvalues --   -1.14024  -1.13978  -1.13951  -1.13929  -1.13860
 Alpha  occ. eigenvalues --   -1.13739  -1.13728  -1.13683  -1.13631  -1.13628
 Alpha  occ. eigenvalues --   -1.13607  -1.13583  -1.13577  -1.13564  -1.13427
 Alpha  occ. eigenvalues --   -1.13414  -1.13404  -1.12971  -1.12961  -1.12943
 Alpha  occ. eigenvalues --   -0.17275  -0.13684  -0.12653  -0.11010
 Alpha virt. eigenvalues --   -0.06173  -0.05987  -0.04115  -0.03823  -0.03238
 Alpha virt. eigenvalues --   -0.02243  -0.01872  -0.01300  -0.00825  -0.00481
 Alpha virt. eigenvalues --   -0.00357   0.00247   0.00354   0.00504   0.00776

  Beta  occ. eigenvalues --  -38.44462 -38.44444 -38.44164 -38.44151 -38.44030
  Beta  occ. eigenvalues --  -38.43937 -38.43450  -2.20253  -2.20244  -2.20022
  Beta  occ. eigenvalues --   -2.19943  -2.19821  -2.19716  -2.19274  -1.13988
  Beta  occ. eigenvalues --   -1.13962  -1.13950  -1.13913  -1.13886  -1.13843
  Beta  occ. eigenvalues --   -1.13709  -1.13707  -1.13629  -1.13628  -1.13615
  Beta  occ. eigenvalues --   -1.13587  -1.13505  -1.13501  -1.13481  -1.13389
  Beta  occ. eigenvalues --   -1.13378  -1.13370  -1.12955  -1.12930  -1.12918
  Beta  occ. eigenvalues --   -0.16692  -0.13117  -0.12444
  Beta virt. eigenvalues --   -0.07524  -0.06094  -0.05548  -0.03797  -0.03382
  Beta virt. eigenvalues --   -0.02671  -0.01823  -0.01568  -0.01188  -0.00792
  Beta virt. eigenvalues --   -0.00407  -0.00044   0.00433   0.00487   0.00608

 Mulliken charges and spin densities:
               1          2
     1  Na  -0.273555   0.022342
     2  Na   0.145054   0.136504
     3  Na   0.051995   0.355482
     4  Na   0.124011   0.293837
     5  Na  -0.362608   0.040505
     6  Na   0.466092   0.119486
     7  Na  -0.150989   0.031844
 Sum of Mulliken charges =  -0.00000   1.00000

 Dipole moment (field-independent basis, Debye):
    X=             -0.2098    Y=             -0.5957    Z=              0.1641  Tot=              0.6526
 Quadrupole moment (field-independent basis, Debye-Ang):
   XX=            -63.4215   YY=            -68.3969   ZZ=            -68.4541
   XY=              0.1733   XZ=              0.9593   YZ=              0.8512

 Normal termination of Gaussian 16 at Mon Dec  4 02:55:29 2023.
