 Gaussian 16, Revision B.01,
 Gaussian 16:  ES64L-G16RevB.01 20-Dec-2017

 -------------------------
 #P B3LYP/6-311+g(d) force
 -------------------------

 -----
 DPGEN
 -----
 Symbolic Z-matrix:
 Charge =  0 Multiplicity = 2

                         Standard orientation:
 ---------------------------------------------------------------------
 Center     Atomic      Atomic             Coordinates (Angstroms)
 Number     Number       Type             X           Y           Z
 ---------------------------------------------------------------------
      1         11           0       -3.448082    0.651995   -0.364997
      2         11           0       -1.769589   -2.114354    0.125282
      3         11           0        0.320353    0.035649   -1.605502
      4         11           0        2.943037    0.737361    0.277639
      5         11           0       -0.298516   -0.004861    2.057470
      6         11           0        0.276210    2.969061   -0.142841
      7         11           0        1.976589   -2.274850   -0.347050
 ---------------------------------------------------------------------

 SCF Done:  E(UB3LYP) =  -1136.13275903     A.U. after   21 cycles

 The electronic state is 2-A.
 Alpha  occ. eigenvalues --  -38.44757 -38.44192 -38.43685 -38.43436 -38.43311
 Alpha  occ. eigenvalues --  -38.43207 -38.43131  -2.20540  -2.20068  -2.19575
 Alpha  occ. eigenvalues --   -2.19324  -2.19304  -2.19089  -2.18962  -1.14212
 Alpha  occ. eigenvalues --   -1.14201  -1.14174  -1.13758  -1.13733  -1.13701
 Alpha  occ. eigenvalues --   -1.13266  -1.13208  -1.13187  -1.13030  -1.12999
 Alpha  occ. eigenvalues --   -1.12993  -1.12974  -1.12941  -1.12921  -1.12750
 Alpha  occ. eigenvalues --   -1.12744  -1.12711  -1.12644  -1.12620  -1.12593
 Alpha  occ. eigenvalues --   -0.18660  -0.13378  -0.12091  -0.10743
 Alpha virt. eigenvalues --   -0.06230  -0.04896  -0.04446  -0.03442  -0.02681
 Alpha virt. eigenvalues --   -0.02520  -0.01913  -0.01023  -0.00406  -0.00234
 Alpha virt. eigenvalues --   -0.00021   0.00328   0.00770   0.00835   0.00865

  Beta  occ. eigenvalues --  -38.44751 -38.44187 -38.43587 -38.43427 -38.43252
  Beta  occ. eigenvalues --  -38.43200 -38.43129  -2.20531  -2.20061  -2.19395
  Beta  occ. eigenvalues --   -2.19312  -2.19197  -2.19080  -2.18961  -1.14206
  Beta  occ. eigenvalues --   -1.14185  -1.14169  -1.13754  -1.13711  -1.13692
  Beta  occ. eigenvalues --   -1.13155  -1.13083  -1.13062  -1.12999  -1.12950
  Beta  occ. eigenvalues --   -1.12944  -1.12932  -1.12898  -1.12852  -1.12740
  Beta  occ. eigenvalues --   -1.12719  -1.12696  -1.12635  -1.12607  -1.12592
  Beta  occ. eigenvalues --   -0.17936  -0.13156  -0.11852
  Beta virt. eigenvalues --   -0.06852  -0.06136  -0.04867  -0.04428  -0.02659
  Beta virt. eigenvalues --   -0.01950  -0.01802  -0.01491  -0.00954  -0.00441
  Beta virt. eigenvalues --   -0.00240   0.00116   0.00360   0.00819   0.00872

 Mulliken charges and spin densities:
               1          2
     1  Na  -0.089290  -0.060551
     2  Na   0.336980   0.047880
     3  Na  -0.312821   0.463286
     4  Na   0.236761   0.046195
     5  Na  -0.379388   0.605195
     6  Na  -0.069055  -0.111647
     7  Na   0.276813   0.009642
 Sum of Mulliken charges =  -0.00000   1.00000

 Dipole moment (field-independent basis, Debye):
    X=             -0.3390    Y=              0.2118    Z=              0.1539  Tot=              0.4283
 Quadrupole moment (field-independent basis, Debye-Ang):
   XX=            -53.5318   YY=            -65.4166   ZZ=            -74.3681
   XY=             -1.3828   XZ=              1.8942   YZ=              0.1246

 Normal termination of Gaussian 16 at Thu Dec  7 12:36:37 2023.
