 Gaussian 16, Revision B.01,
 Gaussian 16:  ES64L-G16RevB.01 20-Dec-2017

 -------------------------
 #P B3LYP/6-311+g(d) force
 -------------------------

 -----
 DPGEN
 -----
 Symbolic Z-matrix:
 Charge =  0 Multiplicity = 2

                         Standard orientation:
 ---------------------------------------------------------------------
 Center     Atomic      Atomic             Coordinates (Angstroms)
 Number     Number       Type             X           Y           Z
 ---------------------------------------------------------------------
      1         11           0       -2.957087   -0.388763    0.513120
      2         11           0       -1.745858    2.319215   -0.387786
      3         11           0        3.050695   -1.289214    0.134621
      4         11           0       -0.829886   -2.597160   -1.003398
      5         11           0        0.378381    0.376607   -1.484821
      6         11           0       -0.061169   -0.501088    2.095720
      7         11           0        2.164924    2.080403    0.132544
 ---------------------------------------------------------------------

 SCF Done:  E(UB3LYP) =  -1136.12986207     A.U. after   20 cycles

 The electronic state is 2-A.
 Alpha  occ. eigenvalues --  -38.44428 -38.44017 -38.43894 -38.43892 -38.43363
 Alpha  occ. eigenvalues --  -38.43313 -38.43109  -2.20229  -2.19885  -2.19786
 Alpha  occ. eigenvalues --   -2.19759  -2.19212  -2.19194  -2.19152  -1.13904
 Alpha  occ. eigenvalues --   -1.13886  -1.13871  -1.13572  -1.13532  -1.13521
 Alpha  occ. eigenvalues --   -1.13509  -1.13472  -1.13435  -1.13418  -1.13412
 Alpha  occ. eigenvalues --   -1.13357  -1.12961  -1.12934  -1.12847  -1.12841
 Alpha  occ. eigenvalues --   -1.12839  -1.12829  -1.12800  -1.12769  -1.12721
 Alpha  occ. eigenvalues --   -0.18707  -0.13418  -0.12023  -0.11077
 Alpha virt. eigenvalues --   -0.05873  -0.05258  -0.04187  -0.03498  -0.02905
 Alpha virt. eigenvalues --   -0.02607  -0.01693  -0.01045  -0.00362  -0.00054
 Alpha virt. eigenvalues --    0.00034   0.00373   0.00764   0.00827   0.00860

  Beta  occ. eigenvalues --  -38.44427 -38.43933 -38.43891 -38.43882 -38.43328
  Beta  occ. eigenvalues --  -38.43309 -38.43051  -2.20229  -2.19771  -2.19756
  Beta  occ. eigenvalues --   -2.19729  -2.19188  -2.19150  -2.19049  -1.13894
  Beta  occ. eigenvalues --   -1.13884  -1.13871  -1.13515  -1.13493  -1.13462
  Beta  occ. eigenvalues --   -1.13432  -1.13405  -1.13400  -1.13395  -1.13365
  Beta  occ. eigenvalues --   -1.13355  -1.12934  -1.12878  -1.12831  -1.12814
  Beta  occ. eigenvalues --   -1.12801  -1.12793  -1.12733  -1.12703  -1.12659
  Beta  occ. eigenvalues --   -0.17998  -0.13203  -0.11753
  Beta virt. eigenvalues --   -0.07152  -0.05799  -0.05212  -0.04035  -0.02779
  Beta virt. eigenvalues --   -0.02228  -0.01660  -0.01530  -0.00986  -0.00306
  Beta virt. eigenvalues --   -0.00057   0.00135   0.00402   0.00804   0.00887

 Mulliken charges and spin densities:
               1          2
     1  Na   0.384640   0.226584
     2  Na  -0.058385  -0.026793
     3  Na   0.054381  -0.010970
     4  Na  -0.077971   0.077225
     5  Na   0.079863   0.126159
     6  Na  -0.386507   0.534729
     7  Na   0.003979   0.073067
 Sum of Mulliken charges =  -0.00000   1.00000

 Dipole moment (field-independent basis, Debye):
    X=              0.5611    Y=             -0.2041    Z=              0.4191  Tot=              0.7295
 Quadrupole moment (field-independent basis, Debye-Ang):
   XX=            -55.0057   YY=            -66.1713   ZZ=            -72.7944
   XY=             -0.5995   XZ=              0.7552   YZ=              1.7882

 Normal termination of Gaussian 16 at Thu Dec  7 20:52:02 2023.
