 Gaussian 16, Revision B.01,
 Gaussian 16:  ES64L-G16RevB.01 20-Dec-2017

 -------------------------
 #P B3LYP/6-311+g(d) force
 -------------------------

 -----
 DPGEN
 -----
 Symbolic Z-matrix:
 Charge =  0 Multiplicity = 2

                         Standard orientation:
 ---------------------------------------------------------------------
 Center     Atomic      Atomic             Coordinates (Angstroms)
 Number     Number       Type             X           Y           Z
 ---------------------------------------------------------------------
      1         11           0        0.821926    2.530350   -0.734706
      2         11           0       -0.523908   -0.674748   -1.112349
      3         11           0        2.868488    0.629922    0.652169
      4         11           0        2.487810   -1.998579   -0.667203
      5         11           0       -3.428966   -1.311696   -0.179330
      6         11           0       -0.008361   -0.877197    1.684814
      7         11           0       -2.216989    1.701947    0.356604
 ---------------------------------------------------------------------

 SCF Done:  E(UB3LYP) =  -1136.11910434     A.U. after   24 cycles

 The electronic state is 2-A.
 Alpha  occ. eigenvalues --  -38.44881 -38.44625 -38.44048 -38.43904 -38.43648
 Alpha  occ. eigenvalues --  -38.43388 -38.42553  -2.20726  -2.20547  -2.19940
 Alpha  occ. eigenvalues --   -2.19793  -2.19604  -2.19448  -2.18434  -1.14416
 Alpha  occ. eigenvalues --   -1.14387  -1.14356  -1.14255  -1.14209  -1.14196
 Alpha  occ. eigenvalues --   -1.13643  -1.13604  -1.13567  -1.13506  -1.13467
 Alpha  occ. eigenvalues --   -1.13447  -1.13408  -1.13215  -1.13174  -1.13084
 Alpha  occ. eigenvalues --   -1.13054  -1.13045  -1.12114  -1.12097  -1.12068
 Alpha  occ. eigenvalues --   -0.19088  -0.14315  -0.11862  -0.10268
 Alpha virt. eigenvalues --   -0.06701  -0.05689  -0.03922  -0.03563  -0.02462
 Alpha virt. eigenvalues --   -0.02260  -0.01816  -0.01364  -0.00461  -0.00127
 Alpha virt. eigenvalues --    0.00159   0.00219   0.00601   0.00705   0.00765

  Beta  occ. eigenvalues --  -38.44879 -38.44613 -38.44041 -38.43886 -38.43569
  Beta  occ. eigenvalues --  -38.43343 -38.42543  -2.20725  -2.20530  -2.19932
  Beta  occ. eigenvalues --   -2.19763  -2.19462  -2.19369  -2.18417  -1.14409
  Beta  occ. eigenvalues --   -1.14389  -1.14345  -1.14247  -1.14200  -1.14151
  Beta  occ. eigenvalues --   -1.13637  -1.13576  -1.13560  -1.13448  -1.13440
  Beta  occ. eigenvalues --   -1.13399  -1.13371  -1.13111  -1.13075  -1.13016
  Beta  occ. eigenvalues --   -1.12989  -1.12973  -1.12105  -1.12083  -1.12043
  Beta  occ. eigenvalues --   -0.18382  -0.14084  -0.11660
  Beta virt. eigenvalues --   -0.06603  -0.06401  -0.05629  -0.03722  -0.02900
  Beta virt. eigenvalues --   -0.02363  -0.01693  -0.01276  -0.00894  -0.00458
  Beta virt. eigenvalues --    0.00063   0.00228   0.00272   0.00701   0.00751

 Mulliken charges and spin densities:
               1          2
     1  Na  -0.276368  -0.139594
     2  Na  -0.813388   0.434454
     3  Na   0.486862   0.255402
     4  Na   0.085120  -0.078934
     5  Na   0.760450   0.044801
     6  Na  -0.530909   0.453031
     7  Na   0.288234   0.030839
 Sum of Mulliken charges =  -0.00000   1.00000

 Dipole moment (field-independent basis, Debye):
    X=             -0.7110    Y=             -0.3973    Z=              0.2797  Tot=              0.8612
 Quadrupole moment (field-independent basis, Debye-Ang):
   XX=            -46.3766   YY=            -69.4810   ZZ=            -75.7367
   XY=              0.6750   XZ=             -0.5954   YZ=              1.3861

 Normal termination of Gaussian 16 at Tue Dec  5 12:59:50 2023.
