 Gaussian 16, Revision B.01,
 Gaussian 16:  ES64L-G16RevB.01 20-Dec-2017

 -------------------------
 #P B3LYP/6-311+g(d) force
 -------------------------

 -----
 DPGEN
 -----
 Symbolic Z-matrix:
 Charge =  0 Multiplicity = 2

                         Standard orientation:
 ---------------------------------------------------------------------
 Center     Atomic      Atomic             Coordinates (Angstroms)
 Number     Number       Type             X           Y           Z
 ---------------------------------------------------------------------
      1         11           0       -0.426953    0.462014   -1.037850
      2         11           0       -6.185564   -0.237110   -0.986552
      3         11           0       -3.749439    0.096666    0.967163
      4         11           0       -0.572992   -1.811615    1.097842
      5         11           0        3.210950   -0.567818   -0.313871
      6         11           0        1.493706    2.732528    0.630166
      7         11           0        6.230292   -0.674664   -0.356898
 ---------------------------------------------------------------------

 SCF Done:  E(UB3LYP) =  -1136.11017817     A.U. after   21 cycles

 The electronic state is 2-A.
 Alpha  occ. eigenvalues --  -38.45554 -38.45218 -38.45114 -38.43972 -38.43884
 Alpha  occ. eigenvalues --  -38.43132 -38.43108  -2.21361  -2.21064  -2.20968
 Alpha  occ. eigenvalues --   -2.19765  -2.19703  -2.18957  -2.18934  -1.15005
 Alpha  occ. eigenvalues --   -1.14988  -1.14975  -1.14782  -1.14704  -1.14679
 Alpha  occ. eigenvalues --   -1.14642  -1.14595  -1.14587  -1.13481  -1.13418
 Alpha  occ. eigenvalues --   -1.13415  -1.13382  -1.13359  -1.13294  -1.12728
 Alpha  occ. eigenvalues --   -1.12644  -1.12630  -1.12579  -1.12577  -1.12481
 Alpha  occ. eigenvalues --   -0.17204  -0.13811  -0.11669  -0.11577
 Alpha virt. eigenvalues --   -0.06652  -0.06229  -0.04193  -0.03611  -0.02901
 Alpha virt. eigenvalues --   -0.02641  -0.01909  -0.01667  -0.01539  -0.00833
 Alpha virt. eigenvalues --   -0.00601  -0.00085  -0.00011   0.00295   0.00472

  Beta  occ. eigenvalues --  -38.45449 -38.45138 -38.45115 -38.43947 -38.43888
  Beta  occ. eigenvalues --  -38.43134 -38.43104  -2.21167  -2.20976  -2.20914
  Beta  occ. eigenvalues --   -2.19719  -2.19712  -2.18951  -2.18935  -1.14869
  Beta  occ. eigenvalues --   -1.14856  -1.14847  -1.14718  -1.14649  -1.14609
  Beta  occ. eigenvalues --   -1.14590  -1.14571  -1.14528  -1.13461  -1.13399
  Beta  occ. eigenvalues --   -1.13385  -1.13375  -1.13360  -1.13277  -1.12730
  Beta  occ. eigenvalues --   -1.12639  -1.12613  -1.12581  -1.12576  -1.12484
  Beta  occ. eigenvalues --   -0.16567  -0.13431  -0.11292
  Beta virt. eigenvalues --   -0.08075  -0.06317  -0.05834  -0.03836  -0.03298
  Beta virt. eigenvalues --   -0.02473  -0.02306  -0.01576  -0.01487  -0.01294
  Beta virt. eigenvalues --   -0.00709  -0.00430   0.00156   0.00228   0.00372

 Mulliken charges and spin densities:
               1          2
     1  Na  -0.206685   0.278146
     2  Na  -0.031041   0.133927
     3  Na   0.018867  -0.085933
     4  Na   0.577690   0.396498
     5  Na  -0.564200  -0.075775
     6  Na   0.387367   0.424398
     7  Na  -0.181998  -0.071261
 Sum of Mulliken charges =  -0.00000   1.00000

 Dipole moment (field-independent basis, Debye):
    X=             -0.8598    Y=              0.5584    Z=              0.4834  Tot=              1.1335
 Quadrupole moment (field-independent basis, Debye-Ang):
   XX=            -77.7133   YY=            -68.3640   ZZ=            -64.6272
   XY=              4.7099   XZ=              5.6172   YZ=              0.8700

 Normal termination of Gaussian 16 at Wed Nov 29 03:30:41 2023.
