 Gaussian 16, Revision B.01,
 Gaussian 16:  ES64L-G16RevB.01 20-Dec-2017

 -------------------------
 #P B3LYP/6-311+g(d) force
 -------------------------

 -----
 DPGEN
 -----
 Symbolic Z-matrix:
 Charge =  0 Multiplicity = 2

                         Standard orientation:
 ---------------------------------------------------------------------
 Center     Atomic      Atomic             Coordinates (Angstroms)
 Number     Number       Type             X           Y           Z
 ---------------------------------------------------------------------
      1         11           0       -1.386697   -2.471745   -0.188826
      2         11           0       -2.902256    0.637762   -0.063251
      3         11           0        2.159921   -1.880600   -0.122127
      4         11           0        2.576264    1.186074   -0.279213
      5         11           0       -0.214266    2.868102   -0.088998
      6         11           0        0.041816   -0.155037    2.282486
      7         11           0       -0.274782   -0.184555   -1.540071
 ---------------------------------------------------------------------

 SCF Done:  E(UB3LYP) =  -1136.13496243     A.U. after   19 cycles

 The electronic state is 2-A.
 Alpha  occ. eigenvalues --  -38.44037 -38.43749 -38.43526 -38.43427 -38.43424
 Alpha  occ. eigenvalues --  -38.43232 -38.43174  -2.19903  -2.19623  -2.19439
 Alpha  occ. eigenvalues --   -2.19333  -2.19320  -2.19257  -2.19099  -1.13554
 Alpha  occ. eigenvalues --   -1.13526  -1.13524  -1.13357  -1.13290  -1.13274
 Alpha  occ. eigenvalues --   -1.13245  -1.13114  -1.13079  -1.13046  -1.13018
 Alpha  occ. eigenvalues --   -1.12991  -1.12978  -1.12958  -1.12903  -1.12902
 Alpha  occ. eigenvalues --   -1.12855  -1.12848  -1.12762  -1.12754  -1.12733
 Alpha  occ. eigenvalues --   -0.19146  -0.13085  -0.12640  -0.11193
 Alpha virt. eigenvalues --   -0.05294  -0.04912  -0.04673  -0.03246  -0.02994
 Alpha virt. eigenvalues --   -0.02981  -0.01225  -0.00994  -0.00084  -0.00073
 Alpha virt. eigenvalues --   -0.00027   0.00363   0.00883   0.00936   0.00968

  Beta  occ. eigenvalues --  -38.43926 -38.43745 -38.43518 -38.43421 -38.43419
  Beta  occ. eigenvalues --  -38.43229 -38.43116  -2.19699  -2.19619  -2.19428
  Beta  occ. eigenvalues --   -2.19325  -2.19313  -2.19154  -2.19097  -1.13421
  Beta  occ. eigenvalues --   -1.13383  -1.13379  -1.13344  -1.13270  -1.13254
  Beta  occ. eigenvalues --   -1.13239  -1.13110  -1.13049  -1.13042  -1.13011
  Beta  occ. eigenvalues --   -1.12973  -1.12958  -1.12932  -1.12901  -1.12839
  Beta  occ. eigenvalues --   -1.12801  -1.12781  -1.12747  -1.12734  -1.12731
  Beta  occ. eigenvalues --   -0.18404  -0.12843  -0.12406
  Beta virt. eigenvalues --   -0.07159  -0.05290  -0.04906  -0.04637  -0.02415
  Beta virt. eigenvalues --   -0.02189  -0.01820  -0.01155  -0.00937  -0.00142
  Beta virt. eigenvalues --   -0.00113   0.00124   0.00390   0.00920   0.00949

 Mulliken charges and spin densities:
               1          2
     1  Na   0.511577   0.049092
     2  Na   0.285796   0.030677
     3  Na   0.396189   0.055279
     4  Na   0.139386   0.019033
     5  Na   0.162400   0.016188
     6  Na  -0.845604   0.739087
     7  Na  -0.649745   0.090644
 Sum of Mulliken charges =  -0.00000   1.00000

 Dipole moment (field-independent basis, Debye):
    X=             -0.1922    Y=             -0.0598    Z=              0.3833  Tot=              0.4330
 Quadrupole moment (field-independent basis, Debye-Ang):
   XX=            -59.8510   YY=            -62.8335   ZZ=            -72.2985
   XY=             -0.3771   XZ=             -0.6886   YZ=             -0.0680

 Normal termination of Gaussian 16 at Tue Dec  5 21:32:43 2023.
