 Gaussian 16, Revision B.01,
 Gaussian 16:  ES64L-G16RevB.01 20-Dec-2017

 -------------------------
 #P B3LYP/6-311+g(d) force
 -------------------------

 -----
 DPGEN
 -----
 Symbolic Z-matrix:
 Charge =  0 Multiplicity = 2

                         Standard orientation:
 ---------------------------------------------------------------------
 Center     Atomic      Atomic             Coordinates (Angstroms)
 Number     Number       Type             X           Y           Z
 ---------------------------------------------------------------------
      1         11           0       -0.242895   -3.751603   -0.229948
      2         11           0        4.101968    0.724406   -0.193930
      3         11           0       -4.136270    0.841137   -0.420352
      4         11           0        1.946785    3.498059    0.754985
      5         11           0       -1.368355    3.399139   -0.557989
      6         11           0       -3.680079   -1.892060    0.767720
      7         11           0        3.378847   -2.819078   -0.120485
 ---------------------------------------------------------------------

 SCF Done:  E(UB3LYP) =  -1136.10302631     A.U. after   24 cycles

 The electronic state is 2-A.
 Alpha  occ. eigenvalues --  -38.45050 -38.45005 -38.44860 -38.44770 -38.44674
 Alpha  occ. eigenvalues --  -38.44485 -38.44149  -2.20780  -2.20746  -2.20668
 Alpha  occ. eigenvalues --   -2.20583  -2.20434  -2.20258  -2.19933  -1.14473
 Alpha  occ. eigenvalues --   -1.14458  -1.14441  -1.14434  -1.14424  -1.14422
 Alpha  occ. eigenvalues --   -1.14393  -1.14321  -1.14305  -1.14233  -1.14220
 Alpha  occ. eigenvalues --   -1.14177  -1.14095  -1.14083  -1.14045  -1.13919
 Alpha  occ. eigenvalues --   -1.13909  -1.13879  -1.13593  -1.13581  -1.13552
 Alpha  occ. eigenvalues --   -0.15345  -0.13922  -0.13347  -0.10763
 Alpha virt. eigenvalues --   -0.08115  -0.04986  -0.04653  -0.03543  -0.03345
 Alpha virt. eigenvalues --   -0.02574  -0.02270  -0.01901  -0.01534  -0.00854
 Alpha virt. eigenvalues --   -0.00685  -0.00087   0.00058   0.00138   0.00304

  Beta  occ. eigenvalues --  -38.45068 -38.45020 -38.44832 -38.44748 -38.44600
  Beta  occ. eigenvalues --  -38.44425 -38.44081  -2.20818  -2.20779  -2.20622
  Beta  occ. eigenvalues --   -2.20546  -2.20297  -2.20148  -2.19806  -1.14503
  Beta  occ. eigenvalues --   -1.14488  -1.14460  -1.14448  -1.14417  -1.14395
  Beta  occ. eigenvalues --   -1.14383  -1.14292  -1.14268  -1.14211  -1.14196
  Beta  occ. eigenvalues --   -1.14128  -1.14002  -1.13991  -1.13952  -1.13844
  Beta  occ. eigenvalues --   -1.13835  -1.13805  -1.13505  -1.13496  -1.13474
  Beta  occ. eigenvalues --   -0.14791  -0.13333  -0.12593
  Beta virt. eigenvalues --   -0.08213  -0.07663  -0.04503  -0.04154  -0.03356
  Beta virt. eigenvalues --   -0.03030  -0.02382  -0.02057  -0.01815  -0.01397
  Beta virt. eigenvalues --   -0.00608  -0.00306   0.00009   0.00101   0.00322

 Mulliken charges and spin densities:
               1          2
     1  Na  -0.158972   0.368134
     2  Na  -0.161758   0.321584
     3  Na   0.232428   0.119613
     4  Na   0.024687  -0.107607
     5  Na  -0.034113   0.300710
     6  Na  -0.114017   0.087879
     7  Na   0.211744  -0.090312
 Sum of Mulliken charges =  -0.00000   1.00000

 Dipole moment (field-independent basis, Debye):
    X=             -0.5183    Y=             -0.0324    Z=              0.1407  Tot=              0.5380
 Quadrupole moment (field-independent basis, Debye-Ang):
   XX=            -63.1988   YY=            -65.8053   ZZ=            -71.8893
   XY=             -0.1366   XZ=              1.3784   YZ=             -0.8231

 Normal termination of Gaussian 16 at Mon Dec  4 00:37:29 2023.
