 Gaussian 16, Revision B.01,
 Gaussian 16:  ES64L-G16RevB.01 20-Dec-2017

 -------------------------
 #P B3LYP/6-311+g(d) force
 -------------------------

 -----
 DPGEN
 -----
 Symbolic Z-matrix:
 Charge =  0 Multiplicity = 2

                         Standard orientation:
 ---------------------------------------------------------------------
 Center     Atomic      Atomic             Coordinates (Angstroms)
 Number     Number       Type             X           Y           Z
 ---------------------------------------------------------------------
      1         11           0       -2.198971    2.302713    0.016798
      2         11           0        0.063448   -2.981961   -0.191566
      3         11           0       -0.316009    0.025414   -1.416896
      4         11           0        3.302782   -0.679842   -0.331315
      5         11           0        1.775030    2.629108   -0.107431
      6         11           0       -2.904538   -1.005380   -0.100953
      7         11           0        0.278258   -0.290052    2.131363
 ---------------------------------------------------------------------

 SCF Done:  E(UB3LYP) =  -1136.13461861     A.U. after   19 cycles

 The electronic state is 2-A.
 Alpha  occ. eigenvalues --  -38.44480 -38.43977 -38.43933 -38.43739 -38.43433
 Alpha  occ. eigenvalues --  -38.43398 -38.43075  -2.20254  -2.19852  -2.19719
 Alpha  occ. eigenvalues --   -2.19567  -2.19294  -2.19244  -2.19078  -1.13931
 Alpha  occ. eigenvalues --   -1.13902  -1.13897  -1.13576  -1.13506  -1.13476
 Alpha  occ. eigenvalues --   -1.13400  -1.13383  -1.13352  -1.13253  -1.13225
 Alpha  occ. eigenvalues --   -1.13199  -1.12971  -1.12945  -1.12927  -1.12911
 Alpha  occ. eigenvalues --   -1.12888  -1.12870  -1.12767  -1.12712  -1.12698
 Alpha  occ. eigenvalues --   -0.18330  -0.13027  -0.12351  -0.10365
 Alpha virt. eigenvalues --   -0.05886  -0.05390  -0.04851  -0.03071  -0.02693
 Alpha virt. eigenvalues --   -0.02333  -0.01701  -0.01259  -0.00698  -0.00610
 Alpha virt. eigenvalues --   -0.00010   0.00321   0.00740   0.00803   0.00841

  Beta  occ. eigenvalues --  -38.44474 -38.43971 -38.43932 -38.43738 -38.43392
  Beta  occ. eigenvalues --  -38.43328 -38.43029  -2.20244  -2.19844  -2.19718
  Beta  occ. eigenvalues --   -2.19566  -2.19236  -2.19099  -2.18996  -1.13909
  Beta  occ. eigenvalues --   -1.13897  -1.13892  -1.13567  -1.13484  -1.13470
  Beta  occ. eigenvalues --   -1.13392  -1.13377  -1.13354  -1.13250  -1.13215
  Beta  occ. eigenvalues --   -1.13198  -1.12944  -1.12881  -1.12869  -1.12827
  Beta  occ. eigenvalues --   -1.12774  -1.12771  -1.12702  -1.12649  -1.12640
  Beta  occ. eigenvalues --   -0.17638  -0.12810  -0.12147
  Beta virt. eigenvalues --   -0.06453  -0.05848  -0.05376  -0.04791  -0.02327
  Beta virt. eigenvalues --   -0.01971  -0.01609  -0.01290  -0.01178  -0.00739
  Beta virt. eigenvalues --   -0.00653   0.00160   0.00373   0.00783   0.00829

 Mulliken charges and spin densities:
               1          2
     1  Na   0.119466  -0.013907
     2  Na   0.249547  -0.019144
     3  Na  -0.390200   0.269541
     4  Na   0.055011  -0.024040
     5  Na   0.033684  -0.046767
     6  Na   0.474454   0.048663
     7  Na  -0.541962   0.785653
 Sum of Mulliken charges =  -0.00000   1.00000

 Dipole moment (field-independent basis, Debye):
    X=              0.1832    Y=              0.0288    Z=              0.1045  Tot=              0.2129
 Quadrupole moment (field-independent basis, Debye-Ang):
   XX=            -54.9558   YY=            -60.6706   ZZ=            -76.6586
   XY=             -0.5474   XZ=             -1.2848   YZ=              0.8424

 Normal termination of Gaussian 16 at Fri Dec  8 06:21:40 2023.
