 Gaussian 16, Revision B.01,
 Gaussian 16:  ES64L-G16RevB.01 20-Dec-2017

 -------------------------
 #P B3LYP/6-311+g(d) force
 -------------------------

 -----
 DPGEN
 -----
 Symbolic Z-matrix:
 Charge =  0 Multiplicity = 2

                         Standard orientation:
 ---------------------------------------------------------------------
 Center     Atomic      Atomic             Coordinates (Angstroms)
 Number     Number       Type             X           Y           Z
 ---------------------------------------------------------------------
      1         11           0       -2.152357   -2.121439    0.202520
      2         11           0       -0.142977    0.102826    1.946665
      3         11           0        3.259887    0.437483    0.119219
      4         11           0       -3.393574    1.201379   -0.113387
      5         11           0        0.834394    3.027658   -0.174349
      6         11           0        1.837872   -2.436633   -0.190052
      7         11           0       -0.243246   -0.211274   -1.790616
 ---------------------------------------------------------------------

 SCF Done:  E(UB3LYP) =  -1136.13202383     A.U. after   21 cycles

 The electronic state is 2-A.
 Alpha  occ. eigenvalues --  -38.45055 -38.44394 -38.43922 -38.43641 -38.43541
 Alpha  occ. eigenvalues --  -38.43361 -38.43295  -2.20812  -2.20213  -2.19762
 Alpha  occ. eigenvalues --   -2.19506  -2.19434  -2.19148  -2.19137  -1.14486
 Alpha  occ. eigenvalues --   -1.14467  -1.14454  -1.13889  -1.13882  -1.13851
 Alpha  occ. eigenvalues --   -1.13452  -1.13440  -1.13381  -1.13186  -1.13133
 Alpha  occ. eigenvalues --   -1.13124  -1.13117  -1.13068  -1.13055  -1.12822
 Alpha  occ. eigenvalues --   -1.12813  -1.12812  -1.12798  -1.12791  -1.12775
 Alpha  occ. eigenvalues --   -0.18106  -0.13291  -0.11866  -0.10465
 Alpha virt. eigenvalues --   -0.06472  -0.05383  -0.04475  -0.03325  -0.02625
 Alpha virt. eigenvalues --   -0.02444  -0.02077  -0.01268  -0.00683  -0.00478
 Alpha virt. eigenvalues --   -0.00058   0.00316   0.00679   0.00728   0.00780

  Beta  occ. eigenvalues --  -38.45055 -38.44393 -38.43912 -38.43555 -38.43468
  Beta  occ. eigenvalues --  -38.43361 -38.43291  -2.20813  -2.20214  -2.19748
  Beta  occ. eigenvalues --   -2.19347  -2.19302  -2.19149  -2.19133  -1.14473
  Beta  occ. eigenvalues --   -1.14468  -1.14456  -1.13893  -1.13865  -1.13855
  Beta  occ. eigenvalues --   -1.13444  -1.13398  -1.13377  -1.13081  -1.13026
  Beta  occ. eigenvalues --   -1.13019  -1.13009  -1.12973  -1.12959  -1.12816
  Beta  occ. eigenvalues --   -1.12812  -1.12807  -1.12793  -1.12779  -1.12767
  Beta  occ. eigenvalues --   -0.17377  -0.13114  -0.11658
  Beta virt. eigenvalues --   -0.06593  -0.06420  -0.05342  -0.04439  -0.02575
  Beta virt. eigenvalues --   -0.01984  -0.01905  -0.01420  -0.01198  -0.00707
  Beta virt. eigenvalues --   -0.00525   0.00098   0.00342   0.00733   0.00803

 Mulliken charges and spin densities:
               1          2
     1  Na   0.223158  -0.024498
     2  Na  -0.195532   0.677856
     3  Na   0.057273  -0.027894
     4  Na  -0.017656  -0.129204
     5  Na  -0.118929  -0.150759
     6  Na   0.164224  -0.050336
     7  Na  -0.112538   0.704834
 Sum of Mulliken charges =  -0.00000   1.00000

 Dipole moment (field-independent basis, Debye):
    X=             -0.5938    Y=              0.1184    Z=              0.0534  Tot=              0.6078
 Quadrupole moment (field-independent basis, Debye-Ang):
   XX=            -51.7252   YY=            -64.9332   ZZ=            -76.1098
   XY=             -1.2384   XZ=              0.1347   YZ=             -0.7500

 Normal termination of Gaussian 16 at Thu Dec  7 01:46:56 2023.
