 Gaussian 16, Revision B.01,
 Gaussian 16:  ES64L-G16RevB.01 20-Dec-2017

 -------------------------
 #P B3LYP/6-311+g(d) force
 -------------------------

 -----
 DPGEN
 -----
 Symbolic Z-matrix:
 Charge =  0 Multiplicity = 2

                         Standard orientation:
 ---------------------------------------------------------------------
 Center     Atomic      Atomic             Coordinates (Angstroms)
 Number     Number       Type             X           Y           Z
 ---------------------------------------------------------------------
      1         11           0       -2.850344    2.560088   -0.632366
      2         11           0       -3.450593   -0.968248   -0.320252
      3         11           0        0.647718    3.062331    0.448418
      4         11           0       -1.383731   -3.158086    0.316911
      5         11           0        2.566672   -2.356437   -0.636037
      6         11           0        0.562727   -0.086392    1.298766
      7         11           0        3.907550    0.946744   -0.475439
 ---------------------------------------------------------------------

 SCF Done:  E(UB3LYP) =  -1136.11999216     A.U. after   22 cycles

 The electronic state is 2-A.
 Alpha  occ. eigenvalues --  -38.45006 -38.44686 -38.44287 -38.44249 -38.44039
 Alpha  occ. eigenvalues --  -38.43878 -38.43605  -2.20780  -2.20466  -2.20128
 Alpha  occ. eigenvalues --   -2.20063  -2.19816  -2.19702  -2.19422  -1.14459
 Alpha  occ. eigenvalues --   -1.14419  -1.14413  -1.14147  -1.14131  -1.14085
 Alpha  occ. eigenvalues --   -1.13822  -1.13779  -1.13760  -1.13751  -1.13734
 Alpha  occ. eigenvalues --   -1.13714  -1.13489  -1.13468  -1.13442  -1.13363
 Alpha  occ. eigenvalues --   -1.13356  -1.13328  -1.13100  -1.13081  -1.13041
 Alpha  occ. eigenvalues --   -0.16786  -0.13710  -0.12852  -0.10166
 Alpha virt. eigenvalues --   -0.07111  -0.05727  -0.04058  -0.03697  -0.03286
 Alpha virt. eigenvalues --   -0.02058  -0.01846  -0.01621  -0.01290  -0.00984
 Alpha virt. eigenvalues --    0.00013   0.00113   0.00435   0.00639   0.00647

  Beta  occ. eigenvalues --  -38.44968 -38.44662 -38.44244 -38.44232 -38.43998
  Beta  occ. eigenvalues --  -38.43867 -38.43578  -2.20713  -2.20424  -2.20050
  Beta  occ. eigenvalues --   -2.20033  -2.19742  -2.19682  -2.19375  -1.14415
  Beta  occ. eigenvalues --   -1.14377  -1.14345  -1.14121  -1.14108  -1.14032
  Beta  occ. eigenvalues --   -1.13771  -1.13731  -1.13726  -1.13712  -1.13691
  Beta  occ. eigenvalues --   -1.13689  -1.13440  -1.13420  -1.13380  -1.13351
  Beta  occ. eigenvalues --   -1.13341  -1.13312  -1.13059  -1.13049  -1.13013
  Beta  occ. eigenvalues --   -0.16311  -0.13154  -0.12437
  Beta virt. eigenvalues --   -0.07104  -0.06792  -0.05522  -0.03825  -0.03140
  Beta virt. eigenvalues --   -0.02711  -0.01912  -0.01675  -0.01410  -0.01209
  Beta virt. eigenvalues --   -0.00637   0.00114   0.00376   0.00573   0.00661

 Mulliken charges and spin densities:
               1          2
     1  Na  -0.043414   0.280298
     2  Na  -0.160990   0.078638
     3  Na   0.091296  -0.072335
     4  Na   0.442191   0.041056
     5  Na   0.078614   0.130498
     6  Na  -0.524780   0.324955
     7  Na   0.117083   0.216890
 Sum of Mulliken charges =  -0.00000   1.00000

 Dipole moment (field-independent basis, Debye):
    X=              1.0051    Y=             -0.2240    Z=             -0.1268  Tot=              1.0375
 Quadrupole moment (field-independent basis, Debye-Ang):
   XX=            -67.8870   YY=            -58.1306   ZZ=            -73.1729
   XY=              5.8135   XZ=             -0.5305   YZ=             -0.6718

 Normal termination of Gaussian 16 at Sun Dec  3 20:40:51 2023.
