 Gaussian 16, Revision B.01,
 Gaussian 16:  ES64L-G16RevB.01 20-Dec-2017

 -------------------------
 #P B3LYP/6-311+g(d) force
 -------------------------

 -----
 DPGEN
 -----
 Symbolic Z-matrix:
 Charge =  0 Multiplicity = 2

                         Standard orientation:
 ---------------------------------------------------------------------
 Center     Atomic      Atomic             Coordinates (Angstroms)
 Number     Number       Type             X           Y           Z
 ---------------------------------------------------------------------
      1         11           0       -2.212653   -1.503988    1.494349
      2         11           0       -3.268187   -0.045099   -0.599074
      3         11           0       -0.597726    2.376851   -1.080406
      4         11           0       -0.122926   -1.090064   -1.746163
      5         11           0        3.244901   -2.049914   -0.332744
      6         11           0       -0.019216    0.807146    1.726021
      7         11           0        2.975806    1.505068    0.538018
 ---------------------------------------------------------------------

 SCF Done:  E(UB3LYP) =  -1136.11725221     A.U. after   23 cycles

 The electronic state is 2-A.
 Alpha  occ. eigenvalues --  -38.45054 -38.44689 -38.44444 -38.44332 -38.43843
 Alpha  occ. eigenvalues --  -38.43460 -38.43156  -2.20961  -2.20482  -2.20278
 Alpha  occ. eigenvalues --   -2.20265  -2.19763  -2.19217  -2.19013  -1.14794
 Alpha  occ. eigenvalues --   -1.14600  -1.14566  -1.14187  -1.14136  -1.14092
 Alpha  occ. eigenvalues --   -1.13958  -1.13938  -1.13926  -1.13902  -1.13883
 Alpha  occ. eigenvalues --   -1.13843  -1.13434  -1.13402  -1.13399  -1.12892
 Alpha  occ. eigenvalues --   -1.12879  -1.12864  -1.12694  -1.12682  -1.12624
 Alpha  occ. eigenvalues --   -0.18455  -0.13624  -0.11862  -0.11220
 Alpha virt. eigenvalues --   -0.06552  -0.05457  -0.04350  -0.03300  -0.03018
 Alpha virt. eigenvalues --   -0.02829  -0.02149  -0.01088  -0.00515  -0.00071
 Alpha virt. eigenvalues --    0.00000   0.00185   0.00317   0.00568   0.00756

  Beta  occ. eigenvalues --  -38.45047 -38.44681 -38.44381 -38.44279 -38.43788
  Beta  occ. eigenvalues --  -38.43467 -38.43129  -2.20953  -2.20468  -2.20170
  Beta  occ. eigenvalues --   -2.20161  -2.19664  -2.19230  -2.18965  -1.14772
  Beta  occ. eigenvalues --   -1.14578  -1.14560  -1.14168  -1.14127  -1.14088
  Beta  occ. eigenvalues --   -1.13884  -1.13855  -1.13851  -1.13845  -1.13791
  Beta  occ. eigenvalues --   -1.13768  -1.13370  -1.13335  -1.13313  -1.12900
  Beta  occ. eigenvalues --   -1.12885  -1.12873  -1.12663  -1.12648  -1.12577
  Beta  occ. eigenvalues --   -0.17640  -0.13484  -0.11072
  Beta virt. eigenvalues --   -0.07817  -0.06316  -0.05269  -0.03841  -0.02987
  Beta virt. eigenvalues --   -0.02468  -0.02075  -0.02019  -0.00916  -0.00228
  Beta virt. eigenvalues --   -0.00074   0.00048   0.00245   0.00497   0.00711

 Mulliken charges and spin densities:
               1          2
     1  Na   0.380926   0.312707
     2  Na   0.408650  -0.073145
     3  Na  -0.436125   0.269850
     4  Na  -0.298739   0.342260
     5  Na  -0.217258  -0.077426
     6  Na   0.059629   0.245024
     7  Na   0.102918  -0.019269
 Sum of Mulliken charges =  -0.00000   1.00000

 Dipole moment (field-independent basis, Debye):
    X=             -0.4923    Y=              0.4740    Z=             -0.0484  Tot=              0.6851
 Quadrupole moment (field-independent basis, Debye-Ang):
   XX=            -55.2776   YY=            -72.8144   ZZ=            -69.3932
   XY=              2.6979   XZ=              3.0242   YZ=             -2.9209

 Normal termination of Gaussian 16 at Tue Dec  5 23:38:20 2023.
