 Gaussian 16, Revision B.01,
 Gaussian 16:  ES64L-G16RevB.01 20-Dec-2017

 -------------------------
 #P B3LYP/6-311+g(d) force
 -------------------------

 -----
 DPGEN
 -----
 Symbolic Z-matrix:
 Charge =  0 Multiplicity = 2

                         Standard orientation:
 ---------------------------------------------------------------------
 Center     Atomic      Atomic             Coordinates (Angstroms)
 Number     Number       Type             X           Y           Z
 ---------------------------------------------------------------------
      1         11           0        1.319010   -2.649623    0.011324
      2         11           0       -0.054995    2.760427    0.189725
      3         11           0        1.968193    0.810397   -1.435442
      4         11           0       -3.317527    0.665590   -0.371245
      5         11           0        2.163672    0.769962    1.704425
      6         11           0       -1.596980   -1.308135    1.923850
      7         11           0       -0.481371   -1.048617   -2.022637
 ---------------------------------------------------------------------

 SCF Done:  E(UB3LYP) =  -1136.12862534     A.U. after   20 cycles

 The electronic state is 2-A.
 Alpha  occ. eigenvalues --  -38.44656 -38.44261 -38.43967 -38.43860 -38.43529
 Alpha  occ. eigenvalues --  -38.43486 -38.43238  -2.20447  -2.20122  -2.19871
 Alpha  occ. eigenvalues --   -2.19798  -2.19320  -2.19314  -2.19077  -1.14112
 Alpha  occ. eigenvalues --   -1.14090  -1.14074  -1.13816  -1.13786  -1.13731
 Alpha  occ. eigenvalues --   -1.13627  -1.13526  -1.13477  -1.13460  -1.13443
 Alpha  occ. eigenvalues --   -1.13383  -1.13008  -1.12996  -1.12991  -1.12971
 Alpha  occ. eigenvalues --   -1.12967  -1.12923  -1.12761  -1.12735  -1.12713
 Alpha  occ. eigenvalues --   -0.18180  -0.12755  -0.12065  -0.11936
 Alpha virt. eigenvalues --   -0.05362  -0.05009  -0.04529  -0.03873  -0.03411
 Alpha virt. eigenvalues --   -0.03335  -0.01005  -0.00710  -0.00492  -0.00044
 Alpha virt. eigenvalues --    0.00280   0.00421   0.00481   0.00700   0.00824

  Beta  occ. eigenvalues --  -38.44604 -38.44217 -38.43904 -38.43827 -38.43530
  Beta  occ. eigenvalues --  -38.43484 -38.43236  -2.20349  -2.20041  -2.19757
  Beta  occ. eigenvalues --   -2.19740  -2.19322  -2.19314  -2.19076  -1.14043
  Beta  occ. eigenvalues --   -1.14027  -1.14001  -1.13765  -1.13726  -1.13670
  Beta  occ. eigenvalues --   -1.13548  -1.13450  -1.13414  -1.13398  -1.13391
  Beta  occ. eigenvalues --   -1.13329  -1.12999  -1.12987  -1.12985  -1.12974
  Beta  occ. eigenvalues --   -1.12970  -1.12924  -1.12760  -1.12725  -1.12702
  Beta  occ. eigenvalues --   -0.17397  -0.12593  -0.11899
  Beta virt. eigenvalues --   -0.08039  -0.05120  -0.04678  -0.04088  -0.03683
  Beta virt. eigenvalues --   -0.02764  -0.02494  -0.00955  -0.00681  -0.00174
  Beta virt. eigenvalues --    0.00100   0.00313   0.00487   0.00629   0.00831

 Mulliken charges and spin densities:
               1          2
     1  Na   0.002891   0.095829
     2  Na  -0.215192  -0.001458
     3  Na   0.608490  -0.090126
     4  Na   0.120230   0.002550
     5  Na  -0.208133   0.456710
     6  Na  -0.148739   0.155777
     7  Na  -0.159548   0.380717
 Sum of Mulliken charges =  -0.00000   1.00000

 Dipole moment (field-independent basis, Debye):
    X=              0.1078    Y=             -0.0501    Z=              0.4552  Tot=              0.4705
 Quadrupole moment (field-independent basis, Debye-Ang):
   XX=            -64.5900   YY=            -69.5862   ZZ=            -63.9196
   XY=             -1.2244   XZ=              1.6130   YZ=             -2.4744

 Normal termination of Gaussian 16 at Sun Dec  3 13:06:42 2023.
