 Gaussian 16, Revision B.01,
 Gaussian 16:  ES64L-G16RevB.01 20-Dec-2017

 -------------------------
 #P B3LYP/6-311+g(d) force
 -------------------------

 -----
 DPGEN
 -----
 Symbolic Z-matrix:
 Charge =  0 Multiplicity = 2

                         Standard orientation:
 ---------------------------------------------------------------------
 Center     Atomic      Atomic             Coordinates (Angstroms)
 Number     Number       Type             X           Y           Z
 ---------------------------------------------------------------------
      1         11           0        2.911833    1.203125    0.127968
      2         11           0       -3.200005    0.925832   -0.147774
      3         11           0       -1.880140   -2.181081    0.051419
      4         11           0        2.234030   -1.985383    0.121936
      5         11           0        0.250395   -0.504617   -1.867547
      6         11           0       -0.285958    0.011550    1.962152
      7         11           0       -0.030155    2.530573   -0.248153
 ---------------------------------------------------------------------

 SCF Done:  E(UB3LYP) =  -1136.13527160     A.U. after   19 cycles

 The electronic state is 2-A.
 Alpha  occ. eigenvalues --  -38.44496 -38.44047 -38.43688 -38.43668 -38.43527
 Alpha  occ. eigenvalues --  -38.43503 -38.42700  -2.20308  -2.19906  -2.19602
 Alpha  occ. eigenvalues --   -2.19532  -2.19442  -2.19394  -2.18593  -1.13974
 Alpha  occ. eigenvalues --   -1.13967  -1.13956  -1.13581  -1.13571  -1.13559
 Alpha  occ. eigenvalues --   -1.13287  -1.13256  -1.13251  -1.13218  -1.13183
 Alpha  occ. eigenvalues --   -1.13163  -1.13128  -1.13092  -1.13062  -1.13051
 Alpha  occ. eigenvalues --   -1.13029  -1.13008  -1.12284  -1.12259  -1.12221
 Alpha  occ. eigenvalues --   -0.18812  -0.13464  -0.12048  -0.10910
 Alpha virt. eigenvalues --   -0.06058  -0.05369  -0.03946  -0.03491  -0.02839
 Alpha virt. eigenvalues --   -0.02619  -0.01831  -0.01102  -0.00272  -0.00067
 Alpha virt. eigenvalues --   -0.00030   0.00347   0.00731   0.00864   0.00872

  Beta  occ. eigenvalues --  -38.44495 -38.44045 -38.43663 -38.43603 -38.43520
  Beta  occ. eigenvalues --  -38.43426 -38.42691  -2.20309  -2.19905  -2.19526
  Beta  occ. eigenvalues --   -2.19446  -2.19385  -2.19301  -2.18579  -1.13971
  Beta  occ. eigenvalues --   -1.13959  -1.13956  -1.13583  -1.13572  -1.13538
  Beta  occ. eigenvalues --   -1.13237  -1.13188  -1.13169  -1.13158  -1.13143
  Beta  occ. eigenvalues --   -1.13100  -1.13081  -1.13024  -1.13016  -1.13006
  Beta  occ. eigenvalues --   -1.12957  -1.12944  -1.12278  -1.12219  -1.12215
  Beta  occ. eigenvalues --   -0.18057  -0.13256  -0.11800
  Beta virt. eigenvalues --   -0.06993  -0.05973  -0.05379  -0.03926  -0.02690
  Beta virt. eigenvalues --   -0.02034  -0.01733  -0.01581  -0.01053  -0.00335
  Beta virt. eigenvalues --   -0.00065   0.00095   0.00364   0.00803   0.00848

 Mulliken charges and spin densities:
               1          2
     1  Na   0.032635  -0.014478
     2  Na   0.043410  -0.059106
     3  Na   0.306850  -0.125771
     4  Na   0.388814  -0.084107
     5  Na  -0.396381   0.635008
     6  Na  -0.487223   0.692976
     7  Na   0.111894  -0.044523
 Sum of Mulliken charges =  -0.00000   1.00000

 Dipole moment (field-independent basis, Debye):
    X=             -0.2221    Y=             -0.1063    Z=              0.0756  Tot=              0.2576
 Quadrupole moment (field-independent basis, Debye-Ang):
   XX=            -52.4309   YY=            -68.3293   ZZ=            -73.1249
   XY=             -0.4638   XZ=              1.3118   YZ=             -1.0258

 Normal termination of Gaussian 16 at Tue Dec  5 16:47:37 2023.
