 Gaussian 16, Revision B.01,
 Gaussian 16:  ES64L-G16RevB.01 20-Dec-2017

 -------------------------
 #P B3LYP/6-311+g(d) force
 -------------------------

 -----
 DPGEN
 -----
 Symbolic Z-matrix:
 Charge =  0 Multiplicity = 2

                         Standard orientation:
 ---------------------------------------------------------------------
 Center     Atomic      Atomic             Coordinates (Angstroms)
 Number     Number       Type             X           Y           Z
 ---------------------------------------------------------------------
      1         11           0        1.715712    2.620448   -0.022111
      2         11           0       -0.068993   -0.226776   -1.672936
      3         11           0       -0.234099   -2.888479    0.329375
      4         11           0       -2.992377   -0.982128   -0.186738
      5         11           0       -1.898093    2.328085   -0.195965
      6         11           0        0.100008    0.254039    2.085786
      7         11           0        3.377841   -1.105189   -0.337412
 ---------------------------------------------------------------------

 SCF Done:  E(UB3LYP) =  -1136.13612878     A.U. after   19 cycles

 The electronic state is 2-A.
 Alpha  occ. eigenvalues --  -38.44385 -38.43971 -38.43748 -38.43655 -38.43561
 Alpha  occ. eigenvalues --  -38.43506 -38.43425  -2.20131  -2.19767  -2.19600
 Alpha  occ. eigenvalues --   -2.19520  -2.19405  -2.19353  -2.19347  -1.13809
 Alpha  occ. eigenvalues --   -1.13782  -1.13771  -1.13449  -1.13435  -1.13397
 Alpha  occ. eigenvalues --   -1.13288  -1.13259  -1.13254  -1.13187  -1.13148
 Alpha  occ. eigenvalues --   -1.13142  -1.13109  -1.13069  -1.13051  -1.13025
 Alpha  occ. eigenvalues --   -1.13020  -1.13012  -1.12978  -1.12974  -1.12957
 Alpha  occ. eigenvalues --   -0.18250  -0.12710  -0.12422  -0.10647
 Alpha virt. eigenvalues --   -0.05881  -0.05302  -0.04767  -0.03092  -0.02912
 Alpha virt. eigenvalues --   -0.02532  -0.01697  -0.01269  -0.00529  -0.00501
 Alpha virt. eigenvalues --   -0.00043   0.00328   0.00741   0.00802   0.00872

  Beta  occ. eigenvalues --  -38.44380 -38.43969 -38.43744 -38.43558 -38.43552
  Beta  occ. eigenvalues --  -38.43500 -38.43367  -2.20124  -2.19766  -2.19595
  Beta  occ. eigenvalues --   -2.19391  -2.19344  -2.19338  -2.19247  -1.13793
  Beta  occ. eigenvalues --   -1.13779  -1.13768  -1.13437  -1.13429  -1.13398
  Beta  occ. eigenvalues --   -1.13280  -1.13256  -1.13234  -1.13099  -1.13068
  Beta  occ. eigenvalues --   -1.13044  -1.13030  -1.13021  -1.13018  -1.13003
  Beta  occ. eigenvalues --   -1.12995  -1.12964  -1.12959  -1.12910  -1.12880
  Beta  occ. eigenvalues --   -0.17531  -0.12493  -0.12191
  Beta virt. eigenvalues --   -0.06787  -0.05827  -0.05252  -0.04700  -0.02334
  Beta virt. eigenvalues --   -0.02205  -0.01622  -0.01481  -0.01202  -0.00579
  Beta virt. eigenvalues --   -0.00523   0.00105   0.00362   0.00785   0.00818

 Mulliken charges and spin densities:
               1          2
     1  Na   0.035940  -0.105716
     2  Na  -0.170694   0.549671
     3  Na   0.133008   0.006943
     4  Na   0.252127  -0.006827
     5  Na   0.135984  -0.055887
     6  Na  -0.329957   0.679196
     7  Na  -0.056406  -0.067379
 Sum of Mulliken charges =  -0.00000   1.00000

 Dipole moment (field-independent basis, Debye):
    X=              0.2184    Y=              0.0460    Z=              0.0671  Tot=              0.2330
 Quadrupole moment (field-independent basis, Debye-Ang):
   XX=            -56.3582   YY=            -61.9324   ZZ=            -74.8701
   XY=              0.3525   XZ=             -0.2937   YZ=             -0.9846

 Normal termination of Gaussian 16 at Thu Dec  7 21:57:44 2023.
