 Gaussian 16, Revision B.01,
 Gaussian 16:  ES64L-G16RevB.01 20-Dec-2017

 -------------------------
 #P B3LYP/6-311+g(d) force
 -------------------------

 -----
 DPGEN
 -----
 Symbolic Z-matrix:
 Charge =  0 Multiplicity = 2

                         Standard orientation:
 ---------------------------------------------------------------------
 Center     Atomic      Atomic             Coordinates (Angstroms)
 Number     Number       Type             X           Y           Z
 ---------------------------------------------------------------------
      1         11           0       -2.550417    1.582168    0.086127
      2         11           0        3.022407   -0.226252   -0.045622
      3         11           0       -0.046216    0.121220   -1.633466
      4         11           0        0.705305    2.978498   -0.067880
      5         11           0        0.493914    0.080334    1.664540
      6         11           0       -2.376379   -1.915888    0.156479
      7         11           0        0.751384   -2.620081   -0.160177
 ---------------------------------------------------------------------

 SCF Done:  E(UB3LYP) =  -1136.13700217     A.U. after   20 cycles

 The electronic state is 2-A.
 Alpha  occ. eigenvalues --  -38.43841 -38.43808 -38.43784 -38.43509 -38.43344
 Alpha  occ. eigenvalues --  -38.42960 -38.42832  -2.19684  -2.19679  -2.19657
 Alpha  occ. eigenvalues --   -2.19365  -2.19289  -2.18974  -2.18856  -1.13399
 Alpha  occ. eigenvalues --   -1.13372  -1.13354  -1.13341  -1.13336  -1.13332
 Alpha  occ. eigenvalues --   -1.13320  -1.13304  -1.13271  -1.13081  -1.13023
 Alpha  occ. eigenvalues --   -1.13015  -1.12983  -1.12952  -1.12891  -1.12674
 Alpha  occ. eigenvalues --   -1.12595  -1.12586  -1.12532  -1.12481  -1.12465
 Alpha  occ. eigenvalues --   -0.19179  -0.13079  -0.12884  -0.10400
 Alpha virt. eigenvalues --   -0.05532  -0.05112  -0.04944  -0.02977  -0.02847
 Alpha virt. eigenvalues --   -0.02048  -0.01389  -0.01307  -0.00367  -0.00231
 Alpha virt. eigenvalues --    0.00051   0.00360   0.00849   0.00888   0.00935

  Beta  occ. eigenvalues --  -38.43837 -38.43803 -38.43776 -38.43506 -38.43333
  Beta  occ. eigenvalues --  -38.42886 -38.42756  -2.19680  -2.19669  -2.19651
  Beta  occ. eigenvalues --   -2.19362  -2.19274  -2.18839  -2.18718  -1.13389
  Beta  occ. eigenvalues --   -1.13368  -1.13342  -1.13328  -1.13321  -1.13308
  Beta  occ. eigenvalues --   -1.13300  -1.13294  -1.13271  -1.13079  -1.13015
  Beta  occ. eigenvalues --   -1.12998  -1.12975  -1.12900  -1.12887  -1.12583
  Beta  occ. eigenvalues --   -1.12497  -1.12489  -1.12437  -1.12377  -1.12366
  Beta  occ. eigenvalues --   -0.18456  -0.12811  -0.12631
  Beta virt. eigenvalues --   -0.06485  -0.05531  -0.05071  -0.04938  -0.02162
  Beta virt. eigenvalues --   -0.02075  -0.01318  -0.01242  -0.01038  -0.00418
  Beta virt. eigenvalues --   -0.00278   0.00181   0.00393   0.00859   0.00900

 Mulliken charges and spin densities:
               1          2
     1  Na   0.030718  -0.076353
     2  Na   0.458863  -0.084343
     3  Na  -0.361689   0.601540
     4  Na   0.101773  -0.155041
     5  Na  -0.506850   0.728862
     6  Na  -0.072777  -0.055216
     7  Na   0.349962   0.040550
 Sum of Mulliken charges =  -0.00000   1.00000

 Dipole moment (field-independent basis, Debye):
    X=              0.0183    Y=              0.3450    Z=              0.0106  Tot=              0.3457
 Quadrupole moment (field-independent basis, Debye-Ang):
   XX=            -56.8686   YY=            -58.8369   ZZ=            -76.3144
   XY=              0.2937   XZ=             -1.3204   YZ=              0.0621

 Normal termination of Gaussian 16 at Thu Dec  7 11:43:02 2023.
