 Gaussian 16, Revision B.01,
 Gaussian 16:  ES64L-G16RevB.01 20-Dec-2017

 -------------------------
 #P B3LYP/6-311+g(d) force
 -------------------------

 -----
 DPGEN
 -----
 Symbolic Z-matrix:
 Charge =  0 Multiplicity = 2

                         Standard orientation:
 ---------------------------------------------------------------------
 Center     Atomic      Atomic             Coordinates (Angstroms)
 Number     Number       Type             X           Y           Z
 ---------------------------------------------------------------------
      1         11           0       -1.465111    0.404572    1.702076
      2         11           0        1.903088   -1.356120    0.846500
      3         11           0       -3.798015   -0.862356   -0.083688
      4         11           0        1.574828    1.140745   -0.976979
      5         11           0       -2.426675    2.394995   -0.417297
      6         11           0       -0.719934   -2.194982   -1.127246
      7         11           0        4.931819    0.473147    0.056634
 ---------------------------------------------------------------------

 SCF Done:  E(UB3LYP) =  -1136.11572513     A.U. after   26 cycles

 The electronic state is 2-A.
 Alpha  occ. eigenvalues --  -38.45204 -38.44662 -38.44138 -38.43801 -38.43662
 Alpha  occ. eigenvalues --  -38.43575 -38.43086  -2.21095  -2.20490  -2.20023
 Alpha  occ. eigenvalues --   -2.19680  -2.19482  -2.19415  -2.18911  -1.14799
 Alpha  occ. eigenvalues --   -1.14767  -1.14711  -1.14212  -1.14168  -1.14103
 Alpha  occ. eigenvalues --   -1.13714  -1.13710  -1.13613  -1.13357  -1.13326
 Alpha  occ. eigenvalues --   -1.13275  -1.13134  -1.13127  -1.13102  -1.13087
 Alpha  occ. eigenvalues --   -1.13078  -1.13038  -1.12598  -1.12565  -1.12558
 Alpha  occ. eigenvalues --   -0.17893  -0.14496  -0.11334  -0.10519
 Alpha virt. eigenvalues --   -0.07359  -0.05246  -0.04354  -0.03628  -0.03135
 Alpha virt. eigenvalues --   -0.02240  -0.01598  -0.01419  -0.01000  -0.00855
 Alpha virt. eigenvalues --   -0.00504   0.00074   0.00265   0.00602   0.00747

  Beta  occ. eigenvalues --  -38.45191 -38.44654 -38.44127 -38.43727 -38.43580
  Beta  occ. eigenvalues --  -38.43568 -38.43088  -2.21075  -2.20481  -2.20006
  Beta  occ. eigenvalues --   -2.19542  -2.19405  -2.19328  -2.18917  -1.14789
  Beta  occ. eigenvalues --   -1.14722  -1.14695  -1.14207  -1.14164  -1.14067
  Beta  occ. eigenvalues --   -1.13704  -1.13691  -1.13587  -1.13264  -1.13237
  Beta  occ. eigenvalues --   -1.13180  -1.13097  -1.13074  -1.13028  -1.13021
  Beta  occ. eigenvalues --   -1.13009  -1.12990  -1.12605  -1.12568  -1.12543
  Beta  occ. eigenvalues --   -0.17318  -0.13901  -0.11018
  Beta virt. eigenvalues --   -0.07156  -0.07065  -0.05151  -0.03592  -0.03381
  Beta virt. eigenvalues --   -0.02917  -0.02143  -0.01391  -0.01049  -0.00483
  Beta virt. eigenvalues --   -0.00428  -0.00307   0.00177   0.00356   0.00668

 Mulliken charges and spin densities:
               1          2
     1  Na  -0.162390   0.201732
     2  Na   0.111827  -0.024744
     3  Na   0.224528   0.447636
     4  Na  -0.426520   0.039706
     5  Na   0.119532  -0.107876
     6  Na  -0.193352  -0.023378
     7  Na   0.326375   0.466924
 Sum of Mulliken charges =  -0.00000   1.00000

 Dipole moment (field-independent basis, Debye):
    X=             -0.1866    Y=              0.0757    Z=              0.2288  Tot=              0.3048
 Quadrupole moment (field-independent basis, Debye-Ang):
   XX=            -70.7986   YY=            -76.6617   ZZ=            -59.5838
   XY=             -2.6385   XZ=              1.8718   YZ=             -4.1429

 Normal termination of Gaussian 16 at Wed Nov 29 03:54:23 2023.
