 Gaussian 16, Revision B.01,
 Gaussian 16:  ES64L-G16RevB.01 20-Dec-2017

 -------------------------
 #P B3LYP/6-311+g(d) force
 -------------------------

 -----
 DPGEN
 -----
 Symbolic Z-matrix:
 Charge =  0 Multiplicity = 2

                         Standard orientation:
 ---------------------------------------------------------------------
 Center     Atomic      Atomic             Coordinates (Angstroms)
 Number     Number       Type             X           Y           Z
 ---------------------------------------------------------------------
      1         11           0       -2.353585   -1.347280   -1.378587
      2         11           0       -4.237243    0.741930    0.152005
      3         11           0       -0.825804    1.720525   -1.097862
      4         11           0       -1.378221   -0.569603    2.145432
      5         11           0        3.293386    1.829235    0.559343
      6         11           0        4.250975   -0.815244   -0.638835
      7         11           0        1.250492   -1.559563    0.258505
 ---------------------------------------------------------------------

 SCF Done:  E(UB3LYP) =  -1136.10453654     A.U. after   32 cycles

 The electronic state is 2-A.
 Alpha  occ. eigenvalues --  -38.46089 -38.44723 -38.44518 -38.43919 -38.43659
 Alpha  occ. eigenvalues --  -38.43532 -38.42613  -2.21924  -2.20513  -2.20333
 Alpha  occ. eigenvalues --   -2.19793  -2.19492  -2.19388  -2.18479  -1.15629
 Alpha  occ. eigenvalues --   -1.15588  -1.15526  -1.14214  -1.14179  -1.14157
 Alpha  occ. eigenvalues --   -1.14015  -1.13980  -1.13965  -1.13454  -1.13429
 Alpha  occ. eigenvalues --   -1.13420  -1.13184  -1.13137  -1.13082  -1.13058
 Alpha  occ. eigenvalues --   -1.13044  -1.12998  -1.12178  -1.12157  -1.12103
 Alpha  occ. eigenvalues --   -0.17616  -0.14652  -0.10603  -0.10377
 Alpha virt. eigenvalues --   -0.07903  -0.05894  -0.04154  -0.03468  -0.02970
 Alpha virt. eigenvalues --   -0.02266  -0.01866  -0.01757  -0.01083  -0.00679
 Alpha virt. eigenvalues --   -0.00578   0.00078   0.00152   0.00477   0.00599

  Beta  occ. eigenvalues --  -38.46082 -38.44734 -38.44505 -38.43875 -38.43576
  Beta  occ. eigenvalues --  -38.43486 -38.42609  -2.21916  -2.20536  -2.20312
  Beta  occ. eigenvalues --   -2.19710  -2.19339  -2.19303  -2.18476  -1.15590
  Beta  occ. eigenvalues --   -1.15589  -1.15521  -1.14222  -1.14197  -1.14158
  Beta  occ. eigenvalues --   -1.13990  -1.13964  -1.13948  -1.13398  -1.13377
  Beta  occ. eigenvalues --   -1.13363  -1.13080  -1.13030  -1.12998  -1.12987
  Beta  occ. eigenvalues --   -1.12974  -1.12936  -1.12179  -1.12135  -1.12098
  Beta  occ. eigenvalues --   -0.16994  -0.14242  -0.10391
  Beta virt. eigenvalues --   -0.07686  -0.06790  -0.05705  -0.03778  -0.03057
  Beta virt. eigenvalues --   -0.02699  -0.02236  -0.01636  -0.01205  -0.00657
  Beta virt. eigenvalues --   -0.00520  -0.00232   0.00127   0.00239   0.00571

 Mulliken charges and spin densities:
               1          2
     1  Na   0.374426   0.162485
     2  Na   0.257657   0.256589
     3  Na  -0.553805   0.337907
     4  Na   0.095613   0.128694
     5  Na  -0.054926  -0.029619
     6  Na   0.294058   0.202771
     7  Na  -0.413023  -0.058827
 Sum of Mulliken charges =  -0.00000   1.00000

 Dipole moment (field-independent basis, Debye):
    X=             -0.2402    Y=             -0.2525    Z=              0.0850  Tot=              0.3587
 Quadrupole moment (field-independent basis, Debye-Ang):
   XX=            -72.5581   YY=            -70.8592   ZZ=            -63.4230
   XY=              1.2624   XZ=             -2.6090   YZ=             13.9335

 Normal termination of Gaussian 16 at Fri Dec  8 18:10:02 2023.
