 Gaussian 16, Revision B.01,
 Gaussian 16:  ES64L-G16RevB.01 20-Dec-2017

 -------------------------
 #P B3LYP/6-311+g(d) force
 -------------------------

 -----
 DPGEN
 -----
 Symbolic Z-matrix:
 Charge =  0 Multiplicity = 2

                         Standard orientation:
 ---------------------------------------------------------------------
 Center     Atomic      Atomic             Coordinates (Angstroms)
 Number     Number       Type             X           Y           Z
 ---------------------------------------------------------------------
      1         11           0       -1.648869   -2.841242   -1.031315
      2         11           0        4.710401   -0.260206   -0.386727
      3         11           0       -3.721624   -0.516173   -0.381494
      4         11           0       -0.726346    0.272623    1.880692
      5         11           0       -1.668109    3.419735   -0.195205
      6         11           0        1.739040    1.465439   -0.963954
      7         11           0        1.315506   -1.540176    1.078003
 ---------------------------------------------------------------------

 SCF Done:  E(UB3LYP) =  -1136.11478877     A.U. after   21 cycles

 The electronic state is 2-A.
 Alpha  occ. eigenvalues --  -38.44659 -38.44620 -38.44577 -38.44547 -38.44045
 Alpha  occ. eigenvalues --  -38.43968 -38.43430  -2.20463  -2.20441  -2.20400
 Alpha  occ. eigenvalues --   -2.20361  -2.19867  -2.19840  -2.19180  -1.14251
 Alpha  occ. eigenvalues --   -1.14139  -1.14121  -1.14107  -1.14089  -1.14082
 Alpha  occ. eigenvalues --   -1.14054  -1.14032  -1.14029  -1.14018  -1.13999
 Alpha  occ. eigenvalues --   -1.13954  -1.13559  -1.13513  -1.13507  -1.13499
 Alpha  occ. eigenvalues --   -1.13472  -1.13428  -1.12858  -1.12839  -1.12817
 Alpha  occ. eigenvalues --   -0.17177  -0.13633  -0.11751  -0.11204
 Alpha virt. eigenvalues --   -0.06676  -0.05386  -0.04276  -0.03765  -0.03127
 Alpha virt. eigenvalues --   -0.02405  -0.01970  -0.01481  -0.01020  -0.00534
 Alpha virt. eigenvalues --   -0.00368  -0.00016   0.00353   0.00513   0.00708

  Beta  occ. eigenvalues --  -38.44615 -38.44612 -38.44530 -38.44470 -38.44035
  Beta  occ. eigenvalues --  -38.43910 -38.43427  -2.20389  -2.20381  -2.20306
  Beta  occ. eigenvalues --   -2.20274  -2.19825  -2.19766  -2.19174  -1.14134
  Beta  occ. eigenvalues --   -1.14101  -1.14079  -1.14075  -1.14071  -1.14020
  Beta  occ. eigenvalues --   -1.13992  -1.13967  -1.13959  -1.13946  -1.13934
  Beta  occ. eigenvalues --   -1.13909  -1.13504  -1.13484  -1.13474  -1.13458
  Beta  occ. eigenvalues --   -1.13428  -1.13361  -1.12852  -1.12836  -1.12814
  Beta  occ. eigenvalues --   -0.16514  -0.12973  -0.11642
  Beta virt. eigenvalues --   -0.07589  -0.06441  -0.05254  -0.03947  -0.03326
  Beta virt. eigenvalues --   -0.02691  -0.02211  -0.01471  -0.01266  -0.00799
  Beta virt. eigenvalues --   -0.00300  -0.00265   0.00120   0.00417   0.00584

 Mulliken charges and spin densities:
               1          2
     1  Na   0.162179  -0.059923
     2  Na   0.527259   0.143666
     3  Na  -0.087350   0.322672
     4  Na   0.420147   0.067724
     5  Na   0.140009   0.030353
     6  Na  -0.562631   0.113948
     7  Na  -0.599613   0.381560
 Sum of Mulliken charges =  -0.00000   1.00000

 Dipole moment (field-independent basis, Debye):
    X=              0.5017    Y=             -0.4094    Z=             -0.1152  Tot=              0.6577
 Quadrupole moment (field-independent basis, Debye-Ang):
   XX=            -58.0743   YY=            -69.7816   ZZ=            -69.9023
   XY=             -5.2131   XZ=             -1.0113   YZ=              0.1294

 Normal termination of Gaussian 16 at Mon Dec  4 03:32:55 2023.
