 Gaussian 16, Revision B.01,
 Gaussian 16:  ES64L-G16RevB.01 20-Dec-2017

 -------------------------
 #P B3LYP/6-311+g(d) force
 -------------------------

 -----
 DPGEN
 -----
 Symbolic Z-matrix:
 Charge =  0 Multiplicity = 2

                         Standard orientation:
 ---------------------------------------------------------------------
 Center     Atomic      Atomic             Coordinates (Angstroms)
 Number     Number       Type             X           Y           Z
 ---------------------------------------------------------------------
      1         11           0        3.474727   -0.890336   -0.342119
      2         11           0        0.220624    0.762149   -0.770209
      3         11           0       -2.766207   -1.511274   -0.230207
      4         11           0       -2.502077    2.161497   -0.744832
      5         11           0        0.500996   -2.381332   -0.692767
      6         11           0       -0.823207   -0.670503    2.230548
      7         11           0        1.895145    2.529799    0.549585
 ---------------------------------------------------------------------

 SCF Done:  E(UB3LYP) =  -1136.12128336     A.U. after   21 cycles

 The electronic state is 2-A.
 Alpha  occ. eigenvalues --  -38.44428 -38.44338 -38.44198 -38.44020 -38.43935
 Alpha  occ. eigenvalues --  -38.43124 -38.42977  -2.20224  -2.20183  -2.20052
 Alpha  occ. eigenvalues --   -2.19844  -2.19810  -2.19063  -2.19022  -1.14001
 Alpha  occ. eigenvalues --   -1.13896  -1.13888  -1.13857  -1.13809  -1.13765
 Alpha  occ. eigenvalues --   -1.13749  -1.13720  -1.13683  -1.13553  -1.13483
 Alpha  occ. eigenvalues --   -1.13461  -1.13459  -1.13437  -1.13412  -1.12824
 Alpha  occ. eigenvalues --   -1.12750  -1.12688  -1.12677  -1.12640  -1.12624
 Alpha  occ. eigenvalues --   -0.18371  -0.13340  -0.12276  -0.10531
 Alpha virt. eigenvalues --   -0.06058  -0.05772  -0.04208  -0.03238  -0.02645
 Alpha virt. eigenvalues --   -0.02222  -0.01968  -0.01404  -0.00598  -0.00141
 Alpha virt. eigenvalues --   -0.00104   0.00255   0.00693   0.00725   0.00841

  Beta  occ. eigenvalues --  -38.44424 -38.44325 -38.44193 -38.43990 -38.43835
  Beta  occ. eigenvalues --  -38.43107 -38.42960  -2.20219  -2.20159  -2.20047
  Beta  occ. eigenvalues --   -2.19789  -2.19625  -2.19036  -2.18993  -1.13985
  Beta  occ. eigenvalues --   -1.13892  -1.13877  -1.13852  -1.13782  -1.13752
  Beta  occ. eigenvalues --   -1.13727  -1.13718  -1.13666  -1.13514  -1.13442
  Beta  occ. eigenvalues --   -1.13418  -1.13337  -1.13314  -1.13282  -1.12807
  Beta  occ. eigenvalues --   -1.12689  -1.12674  -1.12649  -1.12624  -1.12596
  Beta  occ. eigenvalues --   -0.17750  -0.13072  -0.11965
  Beta virt. eigenvalues --   -0.06883  -0.05833  -0.05554  -0.04099  -0.02615
  Beta virt. eigenvalues --   -0.02120  -0.01858  -0.01357  -0.01249  -0.00509
  Beta virt. eigenvalues --   -0.00120   0.00103   0.00322   0.00742   0.00768

 Mulliken charges and spin densities:
               1          2
     1  Na   0.389783  -0.008936
     2  Na  -0.379239   0.244094
     3  Na   0.866269   0.190130
     4  Na   0.009135   0.080168
     5  Na   0.069314   0.064320
     6  Na  -0.661168   0.397698
     7  Na  -0.294095   0.032525
 Sum of Mulliken charges =  -0.00000   1.00000

 Dipole moment (field-independent basis, Debye):
    X=              0.1416    Y=             -0.0205    Z=              0.4457  Tot=              0.4681
 Quadrupole moment (field-independent basis, Debye-Ang):
   XX=            -51.6772   YY=            -66.4211   ZZ=            -73.9837
   XY=              1.4591   XZ=              2.0651   YZ=              2.1076

 Normal termination of Gaussian 16 at Tue Dec  5 19:27:00 2023.
