 Gaussian 16, Revision B.01,
 Gaussian 16:  ES64L-G16RevB.01 20-Dec-2017

 -------------------------
 #P B3LYP/6-311+g(d) force
 -------------------------

 -----
 DPGEN
 -----
 Symbolic Z-matrix:
 Charge =  0 Multiplicity = 2

                         Standard orientation:
 ---------------------------------------------------------------------
 Center     Atomic      Atomic             Coordinates (Angstroms)
 Number     Number       Type             X           Y           Z
 ---------------------------------------------------------------------
      1         11           0        1.666187   -0.023093    1.336686
      2         11           0       -0.168741   -2.802828   -0.480640
      3         11           0       -1.763481   -0.155279    1.013566
      4         11           0        1.474713    2.616106   -0.814193
      5         11           0       -1.683873    3.235629   -0.124569
      6         11           0       -3.526363   -1.643042   -0.557249
      7         11           0        4.001558   -1.227493   -0.373601
 ---------------------------------------------------------------------

 SCF Done:  E(UB3LYP) =  -1136.11393104     A.U. after   22 cycles

 The electronic state is 2-A.
 Alpha  occ. eigenvalues --  -38.45481 -38.44630 -38.44309 -38.44286 -38.44121
 Alpha  occ. eigenvalues --  -38.43418 -38.43131  -2.21254  -2.20425  -2.20109
 Alpha  occ. eigenvalues --   -2.20073  -2.20003  -2.19392  -2.19052  -1.14952
 Alpha  occ. eigenvalues --   -1.14934  -1.14861  -1.14107  -1.14096  -1.14052
 Alpha  occ. eigenvalues --   -1.13823  -1.13792  -1.13748  -1.13742  -1.13740
 Alpha  occ. eigenvalues --   -1.13732  -1.13712  -1.13622  -1.13594  -1.13063
 Alpha  occ. eigenvalues --   -1.13040  -1.12990  -1.12728  -1.12704  -1.12690
 Alpha  occ. eigenvalues --   -0.17478  -0.13729  -0.12807  -0.09682
 Alpha virt. eigenvalues --   -0.06809  -0.06260  -0.04229  -0.03616  -0.02832
 Alpha virt. eigenvalues --   -0.02217  -0.01912  -0.01273  -0.01229  -0.00889
 Alpha virt. eigenvalues --   -0.00043   0.00316   0.00361   0.00535   0.00635

  Beta  occ. eigenvalues --  -38.45482 -38.44613 -38.44286 -38.44277 -38.44081
  Beta  occ. eigenvalues --  -38.43378 -38.43082  -2.21260  -2.20394  -2.20074
  Beta  occ. eigenvalues --   -2.20047  -2.19927  -2.19326  -2.18969  -1.14960
  Beta  occ. eigenvalues --   -1.14920  -1.14861  -1.14084  -1.14071  -1.14029
  Beta  occ. eigenvalues --   -1.13771  -1.13751  -1.13738  -1.13728  -1.13712
  Beta  occ. eigenvalues --   -1.13707  -1.13698  -1.13568  -1.13542  -1.13009
  Beta  occ. eigenvalues --   -1.12958  -1.12951  -1.12677  -1.12645  -1.12592
  Beta  occ. eigenvalues --   -0.16838  -0.13389  -0.12642
  Beta virt. eigenvalues --   -0.06589  -0.06133  -0.06098  -0.04057  -0.03141
  Beta virt. eigenvalues --   -0.02426  -0.02075  -0.01667  -0.01094  -0.00817
  Beta virt. eigenvalues --   -0.00660   0.00170   0.00413   0.00432   0.00702

 Mulliken charges and spin densities:
               1          2
     1  Na   0.143599   0.084686
     2  Na  -0.156516   0.000363
     3  Na  -0.377775   0.144065
     4  Na  -0.173498   0.178074
     5  Na   0.174960  -0.012919
     6  Na   0.296155   0.309904
     7  Na   0.093075   0.295827
 Sum of Mulliken charges =  -0.00000   1.00000

 Dipole moment (field-independent basis, Debye):
    X=             -0.0898    Y=             -0.4436    Z=             -0.3590  Tot=              0.5777
 Quadrupole moment (field-independent basis, Debye-Ang):
   XX=            -62.1015   YY=            -63.3653   ZZ=            -73.4314
   XY=             -4.4098   XZ=             -1.3004   YZ=              2.3487

 Normal termination of Gaussian 16 at Wed Nov 29 01:22:49 2023.
