 Gaussian 16, Revision B.01,
 Gaussian 16:  ES64L-G16RevB.01 20-Dec-2017

 -------------------------
 #P B3LYP/6-311+g(d) force
 -------------------------

 -----
 DPGEN
 -----
 Symbolic Z-matrix:
 Charge =  0 Multiplicity = 2

                         Standard orientation:
 ---------------------------------------------------------------------
 Center     Atomic      Atomic             Coordinates (Angstroms)
 Number     Number       Type             X           Y           Z
 ---------------------------------------------------------------------
      1         11           0        4.101892   -0.716450   -0.159137
      2         11           0        1.989020   -3.076313    0.608537
      3         11           0       -0.985778   -3.148673   -0.263183
      4         11           0       -3.470880    1.949175    0.174153
      5         11           0       -4.422592   -1.060784   -0.374626
      6         11           0       -0.218631    3.154024    0.592848
      7         11           0        3.006969    2.899021   -0.578592
 ---------------------------------------------------------------------

 SCF Done:  E(UB3LYP) =  -1136.10719833     A.U. after   26 cycles

 The electronic state is 2-A.
 Alpha  occ. eigenvalues --  -38.45235 -38.45008 -38.44952 -38.44421 -38.44336
 Alpha  occ. eigenvalues --  -38.44119 -38.43874  -2.20974  -2.20802  -2.20754
 Alpha  occ. eigenvalues --   -2.20221  -2.20142  -2.19951  -2.19674  -1.14662
 Alpha  occ. eigenvalues --   -1.14649  -1.14622  -1.14475  -1.14468  -1.14465
 Alpha  occ. eigenvalues --   -1.14430  -1.14405  -1.14381  -1.13887  -1.13875
 Alpha  occ. eigenvalues --   -1.13847  -1.13791  -1.13791  -1.13776  -1.13623
 Alpha  occ. eigenvalues --   -1.13607  -1.13600  -1.13330  -1.13324  -1.13303
 Alpha  occ. eigenvalues --   -0.15696  -0.14112  -0.13491  -0.10731
 Alpha virt. eigenvalues --   -0.08026  -0.04610  -0.04480  -0.03703  -0.03544
 Alpha virt. eigenvalues --   -0.02415  -0.02235  -0.01804  -0.01348  -0.00786
 Alpha virt. eigenvalues --   -0.00572  -0.00043  -0.00038   0.00426   0.00616

  Beta  occ. eigenvalues --  -38.45256 -38.44996 -38.44897 -38.44356 -38.44285
  Beta  occ. eigenvalues --  -38.44113 -38.43818  -2.21016  -2.20786  -2.20655
  Beta  occ. eigenvalues --   -2.20100  -2.20050  -2.19949  -2.19570  -1.14695
  Beta  occ. eigenvalues --   -1.14680  -1.14624  -1.14470  -1.14464  -1.14408
  Beta  occ. eigenvalues --   -1.14357  -1.14340  -1.14305  -1.13813  -1.13792
  Beta  occ. eigenvalues --   -1.13766  -1.13728  -1.13725  -1.13711  -1.13613
  Beta  occ. eigenvalues --   -1.13610  -1.13564  -1.13258  -1.13253  -1.13240
  Beta  occ. eigenvalues --   -0.15141  -0.13395  -0.12899
  Beta virt. eigenvalues --   -0.08066  -0.07564  -0.04129  -0.04015  -0.03466
  Beta virt. eigenvalues --   -0.03179  -0.02212  -0.02105  -0.01689  -0.01221
  Beta virt. eigenvalues --   -0.00492  -0.00239   0.00048   0.00230   0.00462

 Mulliken charges and spin densities:
               1          2
     1  Na  -0.082136   0.320337
     2  Na   0.128583  -0.062199
     3  Na  -0.302424   0.273903
     4  Na   0.050834   0.050887
     5  Na   0.288566   0.242337
     6  Na  -0.637588   0.252648
     7  Na   0.554165  -0.077911
 Sum of Mulliken charges =  -0.00000   1.00000

 Dipole moment (field-independent basis, Debye):
    X=             -0.1762    Y=             -0.0380    Z=             -0.2222  Tot=              0.2861
 Quadrupole moment (field-independent basis, Debye-Ang):
   XX=            -62.6382   YY=            -65.5464   ZZ=            -72.5160
   XY=              3.2601   XZ=             -0.2161   YZ=             -0.5298

 Normal termination of Gaussian 16 at Mon Dec  4 05:24:07 2023.
