 Gaussian 16, Revision B.01,
 Gaussian 16:  ES64L-G16RevB.01 20-Dec-2017

 -------------------------
 #P B3LYP/6-311+g(d) force
 -------------------------

 -----
 DPGEN
 -----
 Symbolic Z-matrix:
 Charge =  0 Multiplicity = 2

                         Standard orientation:
 ---------------------------------------------------------------------
 Center     Atomic      Atomic             Coordinates (Angstroms)
 Number     Number       Type             X           Y           Z
 ---------------------------------------------------------------------
      1         11           0        3.072600   -0.765879    0.080591
      2         11           0        0.386719   -2.775476    0.191325
      3         11           0       -0.044940   -0.358924   -1.881865
      4         11           0       -0.459768   -0.022972    1.982907
      5         11           0       -3.197599   -0.839783   -0.266893
      6         11           0        1.739651    2.423511   -0.156557
      7         11           0       -1.496663    2.339522    0.050493
 ---------------------------------------------------------------------

 SCF Done:  E(UB3LYP) =  -1136.13784809     A.U. after   19 cycles

 The electronic state is 2-A.
 Alpha  occ. eigenvalues --  -38.44231 -38.44005 -38.43641 -38.43591 -38.43397
 Alpha  occ. eigenvalues --  -38.43355 -38.43244  -2.20035  -2.19829  -2.19552
 Alpha  occ. eigenvalues --   -2.19509  -2.19273  -2.19243  -2.19089  -1.13708
 Alpha  occ. eigenvalues --   -1.13687  -1.13680  -1.13496  -1.13491  -1.13485
 Alpha  occ. eigenvalues --   -1.13234  -1.13214  -1.13196  -1.13162  -1.13160
 Alpha  occ. eigenvalues --   -1.13117  -1.12946  -1.12941  -1.12935  -1.12911
 Alpha  occ. eigenvalues --   -1.12885  -1.12876  -1.12751  -1.12745  -1.12726
 Alpha  occ. eigenvalues --   -0.18624  -0.12968  -0.12484  -0.10906
 Alpha virt. eigenvalues --   -0.05824  -0.04967  -0.04640  -0.03268  -0.02984
 Alpha virt. eigenvalues --   -0.02710  -0.01672  -0.00960  -0.00322  -0.00193
 Alpha virt. eigenvalues --   -0.00045   0.00356   0.00812   0.00876   0.00911

  Beta  occ. eigenvalues --  -38.44226 -38.44005 -38.43554 -38.43514 -38.43388
  Beta  occ. eigenvalues --  -38.43348 -38.43243  -2.20028  -2.19831  -2.19392
  Beta  occ. eigenvalues --   -2.19369  -2.19261  -2.19234  -2.19088  -1.13689
  Beta  occ. eigenvalues --   -1.13679  -1.13677  -1.13493  -1.13491  -1.13479
  Beta  occ. eigenvalues --   -1.13135  -1.13115  -1.13092  -1.13066  -1.13049
  Beta  occ. eigenvalues --   -1.13013  -1.12934  -1.12926  -1.12896  -1.12881
  Beta  occ. eigenvalues --   -1.12880  -1.12865  -1.12747  -1.12737  -1.12723
  Beta  occ. eigenvalues --   -0.17877  -0.12755  -0.12244
  Beta virt. eigenvalues --   -0.06993  -0.05784  -0.04959  -0.04569  -0.02486
  Beta virt. eigenvalues --   -0.02207  -0.01662  -0.01577  -0.00894  -0.00378
  Beta virt. eigenvalues --   -0.00236   0.00100   0.00381   0.00867   0.00872

 Mulliken charges and spin densities:
               1          2
     1  Na   0.008460  -0.056197
     2  Na   0.244628  -0.107431
     3  Na  -0.327509   0.728626
     4  Na  -0.283657   0.653057
     5  Na   0.216711  -0.110356
     6  Na  -0.045458  -0.089842
     7  Na   0.186824  -0.017857
 Sum of Mulliken charges =  -0.00000   1.00000

 Dipole moment (field-independent basis, Debye):
    X=             -0.2129    Y=             -0.2805    Z=             -0.0017  Tot=              0.3522
 Quadrupole moment (field-independent basis, Debye-Ang):
   XX=            -55.8373   YY=            -65.1695   ZZ=            -73.2548
   XY=              0.5270   XZ=              0.9103   YZ=             -0.6252

 Normal termination of Gaussian 16 at Tue Dec  5 19:19:36 2023.
