 Gaussian 16, Revision B.01,
 Gaussian 16:  ES64L-G16RevB.01 20-Dec-2017

 -------------------------
 #P B3LYP/6-311+g(d) force
 -------------------------

 -----
 DPGEN
 -----
 Symbolic Z-matrix:
 Charge =  0 Multiplicity = 2

                         Standard orientation:
 ---------------------------------------------------------------------
 Center     Atomic      Atomic             Coordinates (Angstroms)
 Number     Number       Type             X           Y           Z
 ---------------------------------------------------------------------
      1         11           0        2.824713   -1.293887    0.072723
      2         11           0       -0.625684   -2.780409    0.112468
      3         11           0       -1.472461    2.511956    0.136634
      4         11           0       -3.162858   -0.441942   -0.059141
      5         11           0        0.358307    0.137623    1.738627
      6         11           0        1.983827    2.112055   -0.293936
      7         11           0        0.094157   -0.245395   -1.707376
 ---------------------------------------------------------------------

 SCF Done:  E(UB3LYP) =  -1136.13964633     A.U. after   19 cycles

 The electronic state is 2-A.
 Alpha  occ. eigenvalues --  -38.43997 -38.43947 -38.43531 -38.43386 -38.43333
 Alpha  occ. eigenvalues --  -38.43049 -38.43039  -2.19823  -2.19807  -2.19422
 Alpha  occ. eigenvalues --   -2.19258  -2.19193  -2.19035  -2.19027  -1.13493
 Alpha  occ. eigenvalues --   -1.13490  -1.13482  -1.13476  -1.13475  -1.13439
 Alpha  occ. eigenvalues --   -1.13119  -1.13096  -1.13045  -1.12974  -1.12931
 Alpha  occ. eigenvalues --   -1.12880  -1.12874  -1.12856  -1.12827  -1.12736
 Alpha  occ. eigenvalues --   -1.12683  -1.12656  -1.12652  -1.12648  -1.12635
 Alpha  occ. eigenvalues --   -0.18996  -0.13134  -0.12622  -0.10534
 Alpha virt. eigenvalues --   -0.05650  -0.05203  -0.04680  -0.03071  -0.02827
 Alpha virt. eigenvalues --   -0.02244  -0.01567  -0.01132  -0.00368  -0.00261
 Alpha virt. eigenvalues --    0.00026   0.00358   0.00827   0.00887   0.00909

  Beta  occ. eigenvalues --  -38.43997 -38.43940 -38.43520 -38.43380 -38.43329
  Beta  occ. eigenvalues --  -38.42971 -38.42963  -2.19825  -2.19799  -2.19406
  Beta  occ. eigenvalues --   -2.19251  -2.19188  -2.18892  -2.18889  -1.13490
  Beta  occ. eigenvalues --   -1.13483  -1.13480  -1.13471  -1.13444  -1.13434
  Beta  occ. eigenvalues --   -1.13110  -1.13051  -1.13038  -1.12964  -1.12901
  Beta  occ. eigenvalues --   -1.12872  -1.12870  -1.12833  -1.12827  -1.12645
  Beta  occ. eigenvalues --   -1.12587  -1.12556  -1.12554  -1.12543  -1.12534
  Beta  occ. eigenvalues --   -0.18268  -0.12895  -0.12357
  Beta virt. eigenvalues --   -0.06611  -0.05625  -0.05200  -0.04661  -0.02290
  Beta virt. eigenvalues --   -0.02034  -0.01495  -0.01199  -0.01060  -0.00416
  Beta virt. eigenvalues --   -0.00317   0.00156   0.00383   0.00869   0.00882

 Mulliken charges and spin densities:
               1          2
     1  Na   0.292697  -0.086524
     2  Na   0.110878  -0.126592
     3  Na   0.077307  -0.082995
     4  Na  -0.037389  -0.082400
     5  Na  -0.335566   0.745567
     6  Na   0.204566  -0.041851
     7  Na  -0.312492   0.674795
 Sum of Mulliken charges =  -0.00000   1.00000

 Dipole moment (field-independent basis, Debye):
    X=              0.0691    Y=             -0.1209    Z=             -0.0008  Tot=              0.1393
 Quadrupole moment (field-independent basis, Debye-Ang):
   XX=            -54.8489   YY=            -61.9272   ZZ=            -75.5843
   XY=             -0.2865   XZ=             -0.5002   YZ=             -0.8778

 Normal termination of Gaussian 16 at Thu Dec  7 22:13:33 2023.
