 Gaussian 16, Revision B.01,
 Gaussian 16:  ES64L-G16RevB.01 20-Dec-2017

 -------------------------
 #P B3LYP/6-311+g(d) force
 -------------------------

 -----
 DPGEN
 -----
 Symbolic Z-matrix:
 Charge =  0 Multiplicity = 2

                         Standard orientation:
 ---------------------------------------------------------------------
 Center     Atomic      Atomic             Coordinates (Angstroms)
 Number     Number       Type             X           Y           Z
 ---------------------------------------------------------------------
      1         11           0       -2.795686    2.580277    0.306764
      2         11           0        3.914892   -1.580652   -0.197283
      3         11           0       -4.021847   -0.486333   -0.431431
      4         11           0        1.433849   -3.264686    0.684591
      5         11           0        0.676559    4.018485    0.387473
      6         11           0       -2.170477   -3.343365   -0.170153
      7         11           0        2.962711    2.076273   -0.579960
 ---------------------------------------------------------------------

 SCF Done:  E(UB3LYP) =  -1136.10948557     A.U. after   23 cycles

 The electronic state is 2-A.
 Alpha  occ. eigenvalues --  -38.45125 -38.45118 -38.44689 -38.44559 -38.44347
 Alpha  occ. eigenvalues --  -38.44040 -38.43923  -2.20914  -2.20902  -2.20468
 Alpha  occ. eigenvalues --   -2.20348  -2.20147  -2.19859  -2.19726  -1.14588
 Alpha  occ. eigenvalues --   -1.14583  -1.14578  -1.14574  -1.14555  -1.14549
 Alpha  occ. eigenvalues --   -1.14149  -1.14148  -1.14128  -1.14008  -1.13995
 Alpha  occ. eigenvalues --   -1.13963  -1.13815  -1.13807  -1.13786  -1.13520
 Alpha  occ. eigenvalues --   -1.13504  -1.13493  -1.13376  -1.13367  -1.13357
 Alpha  occ. eigenvalues --   -0.15604  -0.13920  -0.13825  -0.10917
 Alpha virt. eigenvalues --   -0.07830  -0.04593  -0.04454  -0.03685  -0.03545
 Alpha virt. eigenvalues --   -0.02274  -0.02241  -0.01817  -0.01695  -0.00753
 Alpha virt. eigenvalues --   -0.00524  -0.00030   0.00195   0.00338   0.00469

  Beta  occ. eigenvalues --  -38.45108 -38.45092 -38.44689 -38.44496 -38.44332
  Beta  occ. eigenvalues --  -38.43998 -38.43855  -2.20889  -2.20858  -2.20474
  Beta  occ. eigenvalues --   -2.20233  -2.20123  -2.19783  -2.19598  -1.14575
  Beta  occ. eigenvalues --   -1.14568  -1.14547  -1.14543  -1.14510  -1.14495
  Beta  occ. eigenvalues --   -1.14158  -1.14153  -1.14089  -1.13930  -1.13920
  Beta  occ. eigenvalues --   -1.13883  -1.13795  -1.13792  -1.13756  -1.13466
  Beta  occ. eigenvalues --   -1.13453  -1.13442  -1.13289  -1.13283  -1.13274
  Beta  occ. eigenvalues --   -0.15060  -0.13183  -0.13080
  Beta virt. eigenvalues --   -0.08000  -0.07736  -0.04150  -0.03912  -0.03502
  Beta virt. eigenvalues --   -0.03208  -0.02051  -0.02003  -0.01682  -0.01559
  Beta virt. eigenvalues --   -0.00372  -0.00303   0.00195   0.00206   0.00331

 Mulliken charges and spin densities:
               1          2
     1  Na  -0.223033   0.305010
     2  Na   0.414879   0.177163
     3  Na   0.423694  -0.062885
     4  Na  -0.397835   0.056150
     5  Na   0.443934  -0.011601
     6  Na  -0.078739   0.314468
     7  Na  -0.582899   0.221696
 Sum of Mulliken charges =  -0.00000   1.00000

 Dipole moment (field-independent basis, Debye):
    X=              0.4433    Y=              0.3461    Z=             -0.0008  Tot=              0.5624
 Quadrupole moment (field-independent basis, Debye-Ang):
   XX=            -63.5804   YY=            -65.2609   ZZ=            -72.1234
   XY=             -0.1110   XZ=             -1.0271   YZ=              0.3933

 Normal termination of Gaussian 16 at Sun Dec  3 15:45:30 2023.
