 Gaussian 16, Revision B.01,
 Gaussian 16:  ES64L-G16RevB.01 20-Dec-2017

 -------------------------
 #P B3LYP/6-311+g(d) force
 -------------------------

 -----
 DPGEN
 -----
 Symbolic Z-matrix:
 Charge =  0 Multiplicity = 2

                         Standard orientation:
 ---------------------------------------------------------------------
 Center     Atomic      Atomic             Coordinates (Angstroms)
 Number     Number       Type             X           Y           Z
 ---------------------------------------------------------------------
      1         11           0        0.028828   -2.120802    0.452587
      2         11           0       -3.111457   -3.290706   -0.326629
      3         11           0       -2.813071    0.311104   -0.581898
      4         11           0       -2.410468    3.912554   -0.272157
      5         11           0       -0.242715    1.316071    1.132374
      6         11           0        2.968630   -0.445481    0.303059
      7         11           0        5.580252    0.317261   -0.707336
 ---------------------------------------------------------------------

 SCF Done:  E(UB3LYP) =  -1136.12384624     A.U. after   19 cycles

 The electronic state is 2-A.
 Alpha  occ. eigenvalues --  -38.44543 -38.44511 -38.44437 -38.44122 -38.43923
 Alpha  occ. eigenvalues --  -38.43769 -38.42965  -2.20376  -2.20366  -2.20212
 Alpha  occ. eigenvalues --   -2.19976  -2.19785  -2.19576  -2.18850  -1.14151
 Alpha  occ. eigenvalues --   -1.14081  -1.14047  -1.14039  -1.13955  -1.13923
 Alpha  occ. eigenvalues --   -1.13881  -1.13878  -1.13821  -1.13683  -1.13585
 Alpha  occ. eigenvalues --   -1.13584  -1.13474  -1.13465  -1.13403  -1.13234
 Alpha  occ. eigenvalues --   -1.13232  -1.13195  -1.12545  -1.12508  -1.12502
 Alpha  occ. eigenvalues --   -0.17111  -0.13897  -0.12703  -0.11115
 Alpha virt. eigenvalues --   -0.06135  -0.05305  -0.04408  -0.03912  -0.02567
 Alpha virt. eigenvalues --   -0.02153  -0.01957  -0.01655  -0.01447  -0.00869
 Alpha virt. eigenvalues --   -0.00413   0.00075   0.00308   0.00522   0.00619

  Beta  occ. eigenvalues --  -38.44527 -38.44474 -38.44427 -38.44028 -38.43894
  Beta  occ. eigenvalues --  -38.43737 -38.42956  -2.20348  -2.20301  -2.20192
  Beta  occ. eigenvalues --   -2.19803  -2.19737  -2.19516  -2.18848  -1.14120
  Beta  occ. eigenvalues --   -1.14062  -1.14010  -1.14002  -1.13920  -1.13875
  Beta  occ. eigenvalues --   -1.13868  -1.13853  -1.13807  -1.13570  -1.13467
  Beta  occ. eigenvalues --   -1.13466  -1.13446  -1.13431  -1.13347  -1.13193
  Beta  occ. eigenvalues --   -1.13187  -1.13158  -1.12529  -1.12515  -1.12439
  Beta  occ. eigenvalues --   -0.16491  -0.13096  -0.12429
  Beta virt. eigenvalues --   -0.07715  -0.05962  -0.04993  -0.03966  -0.03641
  Beta virt. eigenvalues --   -0.02376  -0.01959  -0.01762  -0.01227  -0.01129
  Beta virt. eigenvalues --   -0.00572  -0.00101   0.00200   0.00469   0.00608

 Mulliken charges and spin densities:
               1          2
     1  Na  -0.216792  -0.131819
     2  Na   1.236583   0.173769
     3  Na  -0.595606   0.223689
     4  Na   0.788312   0.056441
     5  Na  -0.623615   0.082057
     6  Na  -0.337931   0.179449
     7  Na  -0.250950   0.416415
 Sum of Mulliken charges =  -0.00000   1.00000

 Dipole moment (field-independent basis, Debye):
    X=             -1.1946    Y=              0.8543    Z=             -0.0692  Tot=              1.4703
 Quadrupole moment (field-independent basis, Debye-Ang):
   XX=            -66.7376   YY=            -57.1587   ZZ=            -70.9803
   XY=             -0.1960   XZ=              0.0460   YZ=             -0.9750

 Normal termination of Gaussian 16 at Wed Nov 29 03:58:32 2023.
