 Gaussian 16, Revision B.01,
 Gaussian 16:  ES64L-G16RevB.01 20-Dec-2017

 -------------------------
 #P B3LYP/6-311+g(d) force
 -------------------------

 -----
 DPGEN
 -----
 Symbolic Z-matrix:
 Charge =  0 Multiplicity = 2

                         Standard orientation:
 ---------------------------------------------------------------------
 Center     Atomic      Atomic             Coordinates (Angstroms)
 Number     Number       Type             X           Y           Z
 ---------------------------------------------------------------------
      1         11           0        3.483651   -0.402791   -0.508563
      2         11           0       -1.848416   -2.236880    0.052113
      3         11           0        0.370355   -0.893322   -1.564269
      4         11           0        1.541497    2.382747   -0.298251
      5         11           0        1.319003   -0.919356    2.035647
      6         11           0       -2.747599    0.757553   -1.307026
      7         11           0       -2.118491    1.312049    1.590348
 ---------------------------------------------------------------------

 SCF Done:  E(UB3LYP) =  -1136.12373390     A.U. after   24 cycles

 The electronic state is 2-A.
 Alpha  occ. eigenvalues --  -38.44716 -38.44430 -38.44301 -38.43834 -38.43828
 Alpha  occ. eigenvalues --  -38.43364 -38.43237  -2.20566  -2.20263  -2.20176
 Alpha  occ. eigenvalues --   -2.19664  -2.19623  -2.19304  -2.19103  -1.14247
 Alpha  occ. eigenvalues --   -1.14227  -1.14199  -1.13923  -1.13900  -1.13897
 Alpha  occ. eigenvalues --   -1.13881  -1.13836  -1.13792  -1.13331  -1.13310
 Alpha  occ. eigenvalues --   -1.13307  -1.13292  -1.13286  -1.13248  -1.13037
 Alpha  occ. eigenvalues --   -1.12958  -1.12944  -1.12757  -1.12751  -1.12732
 Alpha  occ. eigenvalues --   -0.18273  -0.14017  -0.11431  -0.11060
 Alpha virt. eigenvalues --   -0.06189  -0.05228  -0.05018  -0.03249  -0.02904
 Alpha virt. eigenvalues --   -0.02797  -0.01894  -0.00740  -0.00693  -0.00140
 Alpha virt. eigenvalues --    0.00145   0.00231   0.00331   0.00533   0.00777

  Beta  occ. eigenvalues --  -38.44711 -38.44351 -38.44285 -38.43825 -38.43799
  Beta  occ. eigenvalues --  -38.43322 -38.43237  -2.20559  -2.20148  -2.20116
  Beta  occ. eigenvalues --   -2.19611  -2.19607  -2.19229  -2.19105  -1.14230
  Beta  occ. eigenvalues --   -1.14220  -1.14192  -1.13879  -1.13822  -1.13810
  Beta  occ. eigenvalues --   -1.13793  -1.13780  -1.13772  -1.13296  -1.13294
  Beta  occ. eigenvalues --   -1.13275  -1.13264  -1.13249  -1.13237  -1.12993
  Beta  occ. eigenvalues --   -1.12910  -1.12882  -1.12752  -1.12737  -1.12721
  Beta  occ. eigenvalues --   -0.17560  -0.13818  -0.10896
  Beta virt. eigenvalues --   -0.07571  -0.06079  -0.05012  -0.04349  -0.03083
  Beta virt. eigenvalues --   -0.02196  -0.02003  -0.01832  -0.00660  -0.00289
  Beta virt. eigenvalues --   -0.00091   0.00162   0.00364   0.00397   0.00696

 Mulliken charges and spin densities:
               1          2
     1  Na   0.809108   0.025778
     2  Na   0.246301   0.093020
     3  Na  -0.361395   0.332317
     4  Na  -0.354491  -0.030496
     5  Na  -0.380487   0.429169
     6  Na   0.360797  -0.086183
     7  Na  -0.319834   0.236394
 Sum of Mulliken charges =  -0.00000   1.00000

 Dipole moment (field-independent basis, Debye):
    X=              0.7190    Y=             -0.1506    Z=             -0.0334  Tot=              0.7354
 Quadrupole moment (field-independent basis, Debye-Ang):
   XX=            -53.5377   YY=            -75.8025   ZZ=            -66.9583
   XY=             -0.0979   XZ=              0.3405   YZ=             -2.4172

 Normal termination of Gaussian 16 at Thu Dec  7 03:23:23 2023.
