 Gaussian 16, Revision B.01,
 Gaussian 16:  ES64L-G16RevB.01 20-Dec-2017

 -------------------------
 #P B3LYP/6-311+g(d) force
 -------------------------

 -----
 DPGEN
 -----
 Symbolic Z-matrix:
 Charge =  0 Multiplicity = 2

                         Standard orientation:
 ---------------------------------------------------------------------
 Center     Atomic      Atomic             Coordinates (Angstroms)
 Number     Number       Type             X           Y           Z
 ---------------------------------------------------------------------
      1         11           0        3.099936   -0.086908    0.079430
      2         11           0        1.062443    2.885389   -0.333436
      3         11           0       -2.513136   -1.848604    0.893154
      4         11           0        0.211147    0.671308    2.005431
      5         11           0       -0.641317   -0.628556   -1.900593
      6         11           0       -2.559903    1.706306   -0.437836
      7         11           0        1.340830   -2.698935   -0.306150
 ---------------------------------------------------------------------

 SCF Done:  E(UB3LYP) =  -1136.13489573     A.U. after   19 cycles

 The electronic state is 2-A.
 Alpha  occ. eigenvalues --  -38.44149 -38.44030 -38.43883 -38.43804 -38.43686
 Alpha  occ. eigenvalues --  -38.43653 -38.43407  -2.19943  -2.19844  -2.19743
 Alpha  occ. eigenvalues --   -2.19641  -2.19534  -2.19499  -2.19253  -1.13608
 Alpha  occ. eigenvalues --   -1.13591  -1.13585  -1.13538  -1.13501  -1.13469
 Alpha  occ. eigenvalues --   -1.13420  -1.13392  -1.13371  -1.13330  -1.13309
 Alpha  occ. eigenvalues --   -1.13279  -1.13208  -1.13183  -1.13172  -1.13162
 Alpha  occ. eigenvalues --   -1.13159  -1.13128  -1.12925  -1.12906  -1.12883
 Alpha  occ. eigenvalues --   -0.18024  -0.12898  -0.12412  -0.10888
 Alpha virt. eigenvalues --   -0.05566  -0.05357  -0.04809  -0.03437  -0.03115
 Alpha virt. eigenvalues --   -0.02663  -0.01369  -0.01182  -0.00458  -0.00412
 Alpha virt. eigenvalues --   -0.00055   0.00391   0.00751   0.00814   0.00835

  Beta  occ. eigenvalues --  -38.44118 -38.44017 -38.43815 -38.43804 -38.43684
  Beta  occ. eigenvalues --  -38.43593 -38.43403  -2.19887  -2.19823  -2.19643
  Beta  occ. eigenvalues --   -2.19617  -2.19497  -2.19423  -2.19247  -1.13561
  Beta  occ. eigenvalues --   -1.13551  -1.13547  -1.13512  -1.13479  -1.13454
  Beta  occ. eigenvalues --   -1.13349  -1.13330  -1.13305  -1.13300  -1.13290
  Beta  occ. eigenvalues --   -1.13257  -1.13161  -1.13155  -1.13134  -1.13121
  Beta  occ. eigenvalues --   -1.13101  -1.13085  -1.12913  -1.12896  -1.12876
  Beta  occ. eigenvalues --   -0.17342  -0.12673  -0.12206
  Beta virt. eigenvalues --   -0.07097  -0.05527  -0.05204  -0.04614  -0.02812
  Beta virt. eigenvalues --   -0.02448  -0.01718  -0.01250  -0.01049  -0.00454
  Beta virt. eigenvalues --   -0.00433   0.00088   0.00442   0.00834   0.00862

 Mulliken charges and spin densities:
               1          2
     1  Na  -0.014358  -0.096835
     2  Na   0.014224  -0.057222
     3  Na  -0.076775   0.121792
     4  Na  -0.204341   0.568119
     5  Na  -0.071781   0.453269
     6  Na   0.189750   0.018994
     7  Na   0.163282  -0.008118
 Sum of Mulliken charges =  -0.00000   1.00000

 Dipole moment (field-independent basis, Debye):
    X=             -0.2464    Y=              0.1733    Z=              0.0663  Tot=              0.3085
 Quadrupole moment (field-independent basis, Debye-Ang):
   XX=            -59.8985   YY=            -63.2484   ZZ=            -72.2864
   XY=              0.5986   XZ=             -1.3944   YZ=             -2.7786

 Normal termination of Gaussian 16 at Tue Dec  5 13:08:34 2023.
