 Gaussian 16, Revision B.01,
 Gaussian 16:  ES64L-G16RevB.01 20-Dec-2017

 -------------------------
 #P B3LYP/6-311+g(d) force
 -------------------------

 -----
 DPGEN
 -----
 Symbolic Z-matrix:
 Charge =  0 Multiplicity = 2

                         Standard orientation:
 ---------------------------------------------------------------------
 Center     Atomic      Atomic             Coordinates (Angstroms)
 Number     Number       Type             X           Y           Z
 ---------------------------------------------------------------------
      1         11           0       -3.860002    1.654501   -0.452940
      2         11           0       -4.848324   -1.236289    0.821785
      3         11           0        5.566172   -0.809848    0.209125
      4         11           0        3.120320    1.885358    0.344915
      5         11           0       -1.339912   -1.650965   -0.512591
      6         11           0       -0.521323    1.451912   -0.033875
      7         11           0        1.883069   -1.294670   -0.376419
 ---------------------------------------------------------------------

 SCF Done:  E(UB3LYP) =  -1136.11873470     A.U. after   26 cycles

 The electronic state is 2-A.
 Alpha  occ. eigenvalues --  -38.45214 -38.44669 -38.44130 -38.43813 -38.43702
 Alpha  occ. eigenvalues --  -38.43546 -38.43200  -2.21007  -2.20489  -2.19920
 Alpha  occ. eigenvalues --   -2.19691  -2.19592  -2.19317  -2.19091  -1.14694
 Alpha  occ. eigenvalues --   -1.14677  -1.14604  -1.14161  -1.14152  -1.14117
 Alpha  occ. eigenvalues --   -1.13585  -1.13584  -1.13554  -1.13389  -1.13369
 Alpha  occ. eigenvalues --   -1.13328  -1.13262  -1.13259  -1.13172  -1.12992
 Alpha  occ. eigenvalues --   -1.12990  -1.12941  -1.12766  -1.12757  -1.12711
 Alpha  occ. eigenvalues --   -0.17128  -0.14428  -0.11529  -0.11050
 Alpha virt. eigenvalues --   -0.07243  -0.05073  -0.04399  -0.03610  -0.03215
 Alpha virt. eigenvalues --   -0.02478  -0.02012  -0.01481  -0.00883  -0.00620
 Alpha virt. eigenvalues --   -0.00130   0.00062   0.00102   0.00372   0.00616

  Beta  occ. eigenvalues --  -38.45188 -38.44642 -38.44121 -38.43781 -38.43644
  Beta  occ. eigenvalues --  -38.43547 -38.43158  -2.20959  -2.20440  -2.19904
  Beta  occ. eigenvalues --   -2.19633  -2.19487  -2.19318  -2.19014  -1.14663
  Beta  occ. eigenvalues --   -1.14649  -1.14559  -1.14126  -1.14119  -1.14076
  Beta  occ. eigenvalues --   -1.13574  -1.13567  -1.13546  -1.13352  -1.13323
  Beta  occ. eigenvalues --   -1.13269  -1.13194  -1.13187  -1.13094  -1.12991
  Beta  occ. eigenvalues --   -1.12991  -1.12942  -1.12715  -1.12701  -1.12644
  Beta  occ. eigenvalues --   -0.16481  -0.14205  -0.10958
  Beta virt. eigenvalues --   -0.07848  -0.06462  -0.04859  -0.04166  -0.03266
  Beta virt. eigenvalues --   -0.02520  -0.02353  -0.01792  -0.01217  -0.00714
  Beta virt. eigenvalues --   -0.00292   0.00056   0.00229   0.00255   0.00405

 Mulliken charges and spin densities:
               1          2
     1  Na   1.144228   0.010394
     2  Na   0.321099  -0.034821
     3  Na   0.272564   0.022823
     4  Na  -0.069404   0.064744
     5  Na  -0.350023   0.321029
     6  Na  -1.218078   0.408841
     7  Na  -0.100386   0.206990
 Sum of Mulliken charges =  -0.00000   1.00000

 Dipole moment (field-independent basis, Debye):
    X=             -0.2438    Y=              0.3031    Z=              0.0955  Tot=              0.4006
 Quadrupole moment (field-independent basis, Debye-Ang):
   XX=            -66.5082   YY=            -61.9687   ZZ=            -71.4215
   XY=              0.3858   XZ=              0.0354   YZ=             -1.1428

 Normal termination of Gaussian 16 at Sun Dec  3 15:24:35 2023.
