 Gaussian 16, Revision B.01,
 Gaussian 16:  ES64L-G16RevB.01 20-Dec-2017

 -------------------------
 #P B3LYP/6-311+g(d) force
 -------------------------

 -----
 DPGEN
 -----
 Symbolic Z-matrix:
 Charge =  0 Multiplicity = 2

                         Standard orientation:
 ---------------------------------------------------------------------
 Center     Atomic      Atomic             Coordinates (Angstroms)
 Number     Number       Type             X           Y           Z
 ---------------------------------------------------------------------
      1         11           0       -2.648920   -0.858158   -0.233351
      2         11           0       -0.258952   -2.866281    0.347198
      3         11           0       -1.810319    2.333404   -0.095577
      4         11           0        1.730401    2.398766    0.042230
      5         11           0        0.097002   -0.180957   -1.769941
      6         11           0        2.873569   -1.018872   -0.221285
      7         11           0        0.017219    0.192099    1.930726
 ---------------------------------------------------------------------

 SCF Done:  E(UB3LYP) =  -1136.14073118     A.U. after   18 cycles

 The electronic state is 2-A.
 Alpha  occ. eigenvalues --  -38.43659 -38.43642 -38.43450 -38.43421 -38.43414
 Alpha  occ. eigenvalues --  -38.43283 -38.43258  -2.19498  -2.19493  -2.19390
 Alpha  occ. eigenvalues --   -2.19308  -2.19283  -2.19243  -2.19208  -1.13203
 Alpha  occ. eigenvalues --   -1.13189  -1.13168  -1.13156  -1.13141  -1.13106
 Alpha  occ. eigenvalues --   -1.13080  -1.13039  -1.13022  -1.13011  -1.12987
 Alpha  occ. eigenvalues --   -1.12962  -1.12952  -1.12943  -1.12927  -1.12922
 Alpha  occ. eigenvalues --   -1.12895  -1.12850  -1.12845  -1.12822  -1.12810
 Alpha  occ. eigenvalues --   -0.19054  -0.12908  -0.12745  -0.10964
 Alpha virt. eigenvalues --   -0.05299  -0.04938  -0.04817  -0.03175  -0.03064
 Alpha virt. eigenvalues --   -0.02626  -0.01219  -0.01158  -0.00207  -0.00112
 Alpha virt. eigenvalues --    0.00016   0.00378   0.00894   0.00908   0.00950

  Beta  occ. eigenvalues --  -38.43654 -38.43638 -38.43412 -38.43410 -38.43364
  Beta  occ. eigenvalues --  -38.43274 -38.43183  -2.19492  -2.19488  -2.19294
  Beta  occ. eigenvalues --   -2.19279  -2.19231  -2.19196  -2.19105  -1.13192
  Beta  occ. eigenvalues --   -1.13173  -1.13148  -1.13140  -1.13136  -1.13105
  Beta  occ. eigenvalues --   -1.13037  -1.12998  -1.12960  -1.12944  -1.12933
  Beta  occ. eigenvalues --   -1.12931  -1.12920  -1.12896  -1.12888  -1.12873
  Beta  occ. eigenvalues --   -1.12821  -1.12810  -1.12804  -1.12758  -1.12746
  Beta  occ. eigenvalues --   -0.18303  -0.12642  -0.12490
  Beta virt. eigenvalues --   -0.07026  -0.05307  -0.04872  -0.04818  -0.02347
  Beta virt. eigenvalues --   -0.02273  -0.01564  -0.01142  -0.01077  -0.00254
  Beta virt. eigenvalues --   -0.00156   0.00123   0.00390   0.00891   0.00931

 Mulliken charges and spin densities:
               1          2
     1  Na   0.272293  -0.004207
     2  Na   0.171238   0.000964
     3  Na   0.103516  -0.087652
     4  Na   0.090811  -0.120887
     5  Na  -0.308108   0.606223
     6  Na   0.083495  -0.102851
     7  Na  -0.413245   0.708410
 Sum of Mulliken charges =  -0.00000   1.00000

 Dipole moment (field-independent basis, Debye):
    X=              0.2596    Y=              0.0968    Z=              0.0810  Tot=              0.2886
 Quadrupole moment (field-independent basis, Debye-Ang):
   XX=            -60.3184   YY=            -60.4398   ZZ=            -73.2008
   XY=             -0.3501   XZ=              0.2243   YZ=             -0.8798

 Normal termination of Gaussian 16 at Fri Dec  8 01:53:28 2023.
