 Gaussian 16, Revision B.01,
 Gaussian 16:  ES64L-G16RevB.01 20-Dec-2017

 -------------------------
 #P B3LYP/6-311+g(d) force
 -------------------------

 -----
 DPGEN
 -----
 Symbolic Z-matrix:
 Charge =  0 Multiplicity = 2

                         Standard orientation:
 ---------------------------------------------------------------------
 Center     Atomic      Atomic             Coordinates (Angstroms)
 Number     Number       Type             X           Y           Z
 ---------------------------------------------------------------------
      1         11           0        0.199601   -0.182749   -1.735982
      2         11           0        3.030041   -0.147560    0.420098
      3         11           0       -2.508016    1.738915   -0.141318
      4         11           0        0.996972   -2.429163   -0.257596
      5         11           0        1.122152    2.664255   -0.259629
      6         11           0       -2.514996   -1.709031    0.040883
      7         11           0       -0.325753    0.065334    1.933545
 ---------------------------------------------------------------------

 SCF Done:  E(UB3LYP) =  -1136.13523363     A.U. after   19 cycles

 The electronic state is 2-A.
 Alpha  occ. eigenvalues --  -38.43912 -38.43876 -38.43697 -38.43556 -38.43408
 Alpha  occ. eigenvalues --  -38.43258 -38.43186  -2.19791  -2.19710  -2.19552
 Alpha  occ. eigenvalues --   -2.19482  -2.19429  -2.19148  -2.19104  -1.13485
 Alpha  occ. eigenvalues --   -1.13444  -1.13436  -1.13391  -1.13384  -1.13346
 Alpha  occ. eigenvalues --   -1.13294  -1.13241  -1.13216  -1.13184  -1.13152
 Alpha  occ. eigenvalues --   -1.13108  -1.13093  -1.13069  -1.13016  -1.12792
 Alpha  occ. eigenvalues --   -1.12778  -1.12765  -1.12764  -1.12739  -1.12733
 Alpha  occ. eigenvalues --   -0.19064  -0.13260  -0.12394  -0.10945
 Alpha virt. eigenvalues --   -0.05534  -0.05240  -0.04338  -0.03402  -0.02890
 Alpha virt. eigenvalues --   -0.02579  -0.01495  -0.01038  -0.00216  -0.00088
 Alpha virt. eigenvalues --    0.00029   0.00366   0.00816   0.00907   0.00938

  Beta  occ. eigenvalues --  -38.43903 -38.43873 -38.43693 -38.43474 -38.43330
  Beta  occ. eigenvalues --  -38.43252 -38.43174  -2.19776  -2.19707  -2.19549
  Beta  occ. eigenvalues --   -2.19331  -2.19289  -2.19130  -2.19097  -1.13478
  Beta  occ. eigenvalues --   -1.13430  -1.13408  -1.13386  -1.13369  -1.13343
  Beta  occ. eigenvalues --   -1.13235  -1.13207  -1.13199  -1.13178  -1.13057
  Beta  occ. eigenvalues --   -1.13003  -1.12985  -1.12970  -1.12920  -1.12774
  Beta  occ. eigenvalues --   -1.12757  -1.12744  -1.12732  -1.12730  -1.12704
  Beta  occ. eigenvalues --   -0.18320  -0.13022  -0.12119
  Beta virt. eigenvalues --   -0.07017  -0.05477  -0.05239  -0.04322  -0.02586
  Beta virt. eigenvalues --   -0.02095  -0.01542  -0.01380  -0.00982  -0.00251
  Beta virt. eigenvalues --   -0.00111   0.00130   0.00386   0.00872   0.00903

 Mulliken charges and spin densities:
               1          2
     1  Na  -0.315981   0.536529
     2  Na   0.052441   0.054906
     3  Na  -0.000860  -0.122779
     4  Na   0.516805   0.022600
     5  Na   0.012584  -0.084434
     6  Na   0.169444  -0.089968
     7  Na  -0.434433   0.683146
 Sum of Mulliken charges =  -0.00000   1.00000

 Dipole moment (field-independent basis, Debye):
    X=             -0.2418    Y=              0.1687    Z=              0.2115  Tot=              0.3628
 Quadrupole moment (field-independent basis, Debye-Ang):
   XX=            -55.8959   YY=            -64.6674   ZZ=            -73.2895
   XY=              0.3320   XZ=              1.4935   YZ=             -0.6837

 Normal termination of Gaussian 16 at Thu Dec  7 12:28:34 2023.
