 Gaussian 16, Revision B.01,
 Gaussian 16:  ES64L-G16RevB.01 20-Dec-2017

 -------------------------
 #P B3LYP/6-311+g(d) force
 -------------------------

 -----
 DPGEN
 -----
 Symbolic Z-matrix:
 Charge =  0 Multiplicity = 2

                         Standard orientation:
 ---------------------------------------------------------------------
 Center     Atomic      Atomic             Coordinates (Angstroms)
 Number     Number       Type             X           Y           Z
 ---------------------------------------------------------------------
      1         11           0        2.468588   -0.236934    0.023618
      2         11           0       -1.764616    1.532680   -0.098310
      3         11           0        0.907664    2.218310   -0.125707
      4         11           0       -2.135415   -1.186026    0.028751
      5         11           0        0.016005   -0.292357   -1.705703
      6         11           0       -0.060414    0.151656    1.743039
      7         11           0        0.568187   -2.187329    0.134312
 ---------------------------------------------------------------------

 SCF Done:  E(UB3LYP) =  -1136.07788089     A.U. after   19 cycles

 The electronic state is 2-A.
 Alpha  occ. eigenvalues --  -38.44061 -38.43973 -38.43789 -38.43773 -38.43728
 Alpha  occ. eigenvalues --  -38.43672 -38.43510  -2.20350  -2.20240  -2.19977
 Alpha  occ. eigenvalues --   -2.19964  -2.19839  -2.19807  -2.19623  -1.14332
 Alpha  occ. eigenvalues --   -1.14152  -1.14065  -1.14026  -1.13974  -1.13927
 Alpha  occ. eigenvalues --   -1.13880  -1.13816  -1.13652  -1.13594  -1.13545
 Alpha  occ. eigenvalues --   -1.13536  -1.13484  -1.13436  -1.13413  -1.13394
 Alpha  occ. eigenvalues --   -1.13329  -1.13281  -1.13228  -1.13221  -1.13130
 Alpha  occ. eigenvalues --   -0.21847  -0.13712  -0.13387  -0.12250
 Alpha virt. eigenvalues --   -0.04990  -0.04355  -0.04339  -0.03553  -0.03356
 Alpha virt. eigenvalues --   -0.02753  -0.00827  -0.00601  -0.00064   0.00358
 Alpha virt. eigenvalues --    0.00822   0.00872   0.01088   0.01185   0.01223

  Beta  occ. eigenvalues --  -38.43969 -38.43879 -38.43774 -38.43755 -38.43716
  Beta  occ. eigenvalues --  -38.43658 -38.43498  -2.20188  -2.20072  -2.19952
  Beta  occ. eigenvalues --   -2.19942  -2.19824  -2.19790  -2.19607  -1.14259
  Beta  occ. eigenvalues --   -1.14077  -1.13985  -1.13922  -1.13887  -1.13862
  Beta  occ. eigenvalues --   -1.13815  -1.13768  -1.13602  -1.13551  -1.13517
  Beta  occ. eigenvalues --   -1.13463  -1.13408  -1.13398  -1.13367  -1.13325
  Beta  occ. eigenvalues --   -1.13321  -1.13275  -1.13218  -1.13158  -1.13127
  Beta  occ. eigenvalues --   -0.21014  -0.13324  -0.13012
  Beta virt. eigenvalues --   -0.08027  -0.05036  -0.04333  -0.04321  -0.02574
  Beta virt. eigenvalues --   -0.02419  -0.01648  -0.00767  -0.00550   0.00076
  Beta virt. eigenvalues --    0.00384   0.00784   0.00831   0.01133   0.01177

 Mulliken charges and spin densities:
               1          2
     1  Na   0.102062   0.001519
     2  Na   0.225706   0.071985
     3  Na   0.140311   0.032208
     4  Na   0.199787   0.013452
     5  Na  -0.475457   0.395151
     6  Na  -0.482680   0.404601
     7  Na   0.290270   0.081084
 Sum of Mulliken charges =  -0.00000   1.00000

 Dipole moment (field-independent basis, Debye):
    X=              0.0813    Y=              0.0965    Z=              0.0349  Tot=              0.1310
 Quadrupole moment (field-independent basis, Debye-Ang):
   XX=            -63.0114   YY=            -66.3090   ZZ=            -69.1150
   XY=              0.5590   XZ=              0.1156   YZ=             -0.8080

 Normal termination of Gaussian 16 at Fri Dec  8 20:08:50 2023.
