 Gaussian 16, Revision B.01,
 Gaussian 16:  ES64L-G16RevB.01 20-Dec-2017

 -------------------------
 #P B3LYP/6-311+g(d) force
 -------------------------

 -----
 DPGEN
 -----
 Symbolic Z-matrix:
 Charge =  0 Multiplicity = 2

                         Standard orientation:
 ---------------------------------------------------------------------
 Center     Atomic      Atomic             Coordinates (Angstroms)
 Number     Number       Type             X           Y           Z
 ---------------------------------------------------------------------
      1         11           0        0.894750    0.459181    1.468434
      2         11           0       -1.986288    1.119336    0.967932
      3         11           0        3.119924   -0.068565   -0.086231
      4         11           0        0.628331   -0.792375   -1.471232
      5         11           0       -2.192842   -0.799926   -1.003768
      6         11           0       -0.429585   -1.955442    0.998386
      7         11           0       -0.034289    2.037791   -0.873521
 ---------------------------------------------------------------------

 SCF Done:  E(UB3LYP) =  -1136.08963321     A.U. after   22 cycles

 The electronic state is 2-A.
 Alpha  occ. eigenvalues --  -38.44655 -38.44103 -38.43946 -38.43789 -38.43723
 Alpha  occ. eigenvalues --  -38.43306 -38.43061  -2.20602  -2.20202  -2.20187
 Alpha  occ. eigenvalues --   -2.19933  -2.19885  -2.19393  -2.19125  -1.14464
 Alpha  occ. eigenvalues --   -1.14319  -1.14167  -1.14070  -1.14036  -1.13962
 Alpha  occ. eigenvalues --   -1.13857  -1.13815  -1.13773  -1.13595  -1.13585
 Alpha  occ. eigenvalues --   -1.13565  -1.13503  -1.13485  -1.13418  -1.13062
 Alpha  occ. eigenvalues --   -1.13011  -1.12942  -1.12816  -1.12762  -1.12685
 Alpha  occ. eigenvalues --   -0.21155  -0.13938  -0.12595  -0.12037
 Alpha virt. eigenvalues --   -0.05791  -0.04153  -0.03711  -0.03694  -0.03071
 Alpha virt. eigenvalues --   -0.02916  -0.01536  -0.00348  -0.00273   0.00313
 Alpha virt. eigenvalues --    0.00599   0.00759   0.00975   0.01018   0.01082

  Beta  occ. eigenvalues --  -38.44652 -38.44075 -38.43877 -38.43764 -38.43656
  Beta  occ. eigenvalues --  -38.43271 -38.43034  -2.20597  -2.20156  -2.20067
  Beta  occ. eigenvalues --   -2.19845  -2.19816  -2.19334  -2.19080  -1.14444
  Beta  occ. eigenvalues --   -1.14298  -1.14161  -1.14041  -1.13980  -1.13889
  Beta  occ. eigenvalues --   -1.13771  -1.13766  -1.13691  -1.13541  -1.13524
  Beta  occ. eigenvalues --   -1.13483  -1.13424  -1.13416  -1.13389  -1.13021
  Beta  occ. eigenvalues --   -1.12942  -1.12895  -1.12790  -1.12696  -1.12654
  Beta  occ. eigenvalues --   -0.20287  -0.13709  -0.11835
  Beta virt. eigenvalues --   -0.08148  -0.05736  -0.03817  -0.03522  -0.03231
  Beta virt. eigenvalues --   -0.02331  -0.01804  -0.01478  -0.00275  -0.00078
  Beta virt. eigenvalues --    0.00334   0.00645   0.00842   0.01015   0.01063

 Mulliken charges and spin densities:
               1          2
     1  Na   0.419391   0.094018
     2  Na   0.639274  -0.106364
     3  Na  -0.180135   0.007827
     4  Na   0.201085   0.214199
     5  Na   0.617365   0.089295
     6  Na  -0.754169   0.360653
     7  Na  -0.942812   0.340372
 Sum of Mulliken charges =  -0.00000   1.00000

 Dipole moment (field-independent basis, Debye):
    X=              0.4379    Y=              0.0049    Z=             -0.1041  Tot=              0.4501
 Quadrupole moment (field-independent basis, Debye-Ang):
   XX=            -55.8013   YY=            -74.6059   ZZ=            -65.7772
   XY=              0.0203   XZ=             -0.3932   YZ=             -1.1338

 Normal termination of Gaussian 16 at Thu Dec  7 10:37:33 2023.
