 Gaussian 16, Revision B.01,
 Gaussian 16:  ES64L-G16RevB.01 20-Dec-2017

 -------------------------
 #P B3LYP/6-311+g(d) force
 -------------------------

 -----
 DPGEN
 -----
 Symbolic Z-matrix:
 Charge =  0 Multiplicity = 2

                         Standard orientation:
 ---------------------------------------------------------------------
 Center     Atomic      Atomic             Coordinates (Angstroms)
 Number     Number       Type             X           Y           Z
 ---------------------------------------------------------------------
      1         11           0        0.149423    0.070064    1.911090
      2         11           0       -3.063774    1.248468   -0.172604
      3         11           0        0.528206    2.857326    0.120362
      4         11           0        3.242369    0.252116   -0.172343
      5         11           0        1.501654   -2.416178    0.166306
      6         11           0        0.320296   -0.090654   -1.844623
      7         11           0       -2.678173   -1.921141   -0.008189
 ---------------------------------------------------------------------

 SCF Done:  E(UB3LYP) =  -1136.13317293     A.U. after   19 cycles

 The electronic state is 2-A.
 Alpha  occ. eigenvalues --  -38.44673 -38.44420 -38.43946 -38.43738 -38.43478
 Alpha  occ. eigenvalues --  -38.43226 -38.42832  -2.20528  -2.20221  -2.19748
 Alpha  occ. eigenvalues --   -2.19648  -2.19390  -2.19117  -2.18668  -1.14205
 Alpha  occ. eigenvalues --   -1.14195  -1.14159  -1.13904  -1.13893  -1.13855
 Alpha  occ. eigenvalues --   -1.13416  -1.13413  -1.13388  -1.13336  -1.13283
 Alpha  occ. eigenvalues --   -1.13267  -1.13070  -1.13032  -1.13006  -1.12794
 Alpha  occ. eigenvalues --   -1.12775  -1.12749  -1.12352  -1.12336  -1.12297
 Alpha  occ. eigenvalues --   -0.18484  -0.13450  -0.11909  -0.10719
 Alpha virt. eigenvalues --   -0.06227  -0.05317  -0.04276  -0.03388  -0.02670
 Alpha virt. eigenvalues --   -0.02571  -0.01946  -0.01099  -0.00452  -0.00399
 Alpha virt. eigenvalues --   -0.00046   0.00339   0.00728   0.00785   0.00855

  Beta  occ. eigenvalues --  -38.44665 -38.44420 -38.43948 -38.43665 -38.43388
  Beta  occ. eigenvalues --  -38.43215 -38.42828  -2.20517  -2.20222  -2.19753
  Beta  occ. eigenvalues --   -2.19514  -2.19226  -2.19102  -2.18663  -1.14200
  Beta  occ. eigenvalues --   -1.14167  -1.14148  -1.13907  -1.13880  -1.13857
  Beta  occ. eigenvalues --   -1.13420  -1.13404  -1.13390  -1.13247  -1.13189
  Beta  occ. eigenvalues --   -1.13166  -1.12964  -1.12912  -1.12891  -1.12785
  Beta  occ. eigenvalues --   -1.12748  -1.12721  -1.12347  -1.12311  -1.12298
  Beta  occ. eigenvalues --   -0.17736  -0.13259  -0.11666
  Beta virt. eigenvalues --   -0.06809  -0.06119  -0.05343  -0.04249  -0.02639
  Beta virt. eigenvalues --   -0.01912  -0.01850  -0.01511  -0.01046  -0.00512
  Beta virt. eigenvalues --   -0.00422   0.00106   0.00369   0.00794   0.00849

 Mulliken charges and spin densities:
               1          2
     1  Na  -0.154835   0.752123
     2  Na  -0.023935  -0.078041
     3  Na  -0.112827  -0.163289
     4  Na   0.416873   0.018150
     5  Na   0.083661  -0.096786
     6  Na  -0.197014   0.675844
     7  Na  -0.011923  -0.108001
 Sum of Mulliken charges =  -0.00000   1.00000

 Dipole moment (field-independent basis, Debye):
    X=              0.0516    Y=              0.0195    Z=             -0.0802  Tot=              0.0973
 Quadrupole moment (field-independent basis, Debye-Ang):
   XX=            -53.0002   YY=            -66.2010   ZZ=            -74.6374
   XY=             -0.0426   XZ=              0.2587   YZ=             -0.6141

 Normal termination of Gaussian 16 at Fri Dec  8 05:20:09 2023.
