 Gaussian 16, Revision B.01,
 Gaussian 16:  ES64L-G16RevB.01 20-Dec-2017

 -------------------------
 #P B3LYP/6-311+g(d) force
 -------------------------

 -----
 DPGEN
 -----
 Symbolic Z-matrix:
 Charge =  0 Multiplicity = 2

                         Standard orientation:
 ---------------------------------------------------------------------
 Center     Atomic      Atomic             Coordinates (Angstroms)
 Number     Number       Type             X           Y           Z
 ---------------------------------------------------------------------
      1         11           0       -2.654637   -1.215517   -0.513710
      2         11           0       -0.959587    0.017773    2.102854
      3         11           0        0.608522    0.233843   -1.723568
      4         11           0        0.169968   -2.615390    0.064098
      5         11           0        3.015385   -0.934509    0.096390
      6         11           0        1.865575    2.337675    0.344720
      7         11           0       -2.045227    2.176125   -0.370785
 ---------------------------------------------------------------------

 SCF Done:  E(UB3LYP) =  -1136.13649903     A.U. after   19 cycles

 The electronic state is 2-A.
 Alpha  occ. eigenvalues --  -38.43974 -38.43809 -38.43802 -38.43749 -38.43674
 Alpha  occ. eigenvalues --  -38.43385 -38.42883  -2.19832  -2.19688  -2.19639
 Alpha  occ. eigenvalues --   -2.19632  -2.19510  -2.19347  -2.18791  -1.13525
 Alpha  occ. eigenvalues --   -1.13492  -1.13476  -1.13385  -1.13355  -1.13341
 Alpha  occ. eigenvalues --   -1.13340  -1.13302  -1.13284  -1.13269  -1.13258
 Alpha  occ. eigenvalues --   -1.13245  -1.13183  -1.13165  -1.13141  -1.13025
 Alpha  occ. eigenvalues --   -1.12980  -1.12968  -1.12473  -1.12454  -1.12426
 Alpha  occ. eigenvalues --   -0.18698  -0.13330  -0.12316  -0.10880
 Alpha virt. eigenvalues --   -0.05560  -0.05382  -0.04419  -0.03532  -0.02942
 Alpha virt. eigenvalues --   -0.02625  -0.01386  -0.01026  -0.00331  -0.00115
 Alpha virt. eigenvalues --   -0.00044   0.00379   0.00787   0.00880   0.00924

  Beta  occ. eigenvalues --  -38.43973 -38.43803 -38.43791 -38.43665 -38.43663
  Beta  occ. eigenvalues --  -38.43326 -38.42876  -2.19832  -2.19670  -2.19631
  Beta  occ. eigenvalues --   -2.19498  -2.19473  -2.19240  -2.18781  -1.13522
  Beta  occ. eigenvalues --   -1.13482  -1.13476  -1.13368  -1.13338  -1.13332
  Beta  occ. eigenvalues --   -1.13304  -1.13282  -1.13257  -1.13195  -1.13174
  Beta  occ. eigenvalues --   -1.13157  -1.13139  -1.13136  -1.13119  -1.12955
  Beta  occ. eigenvalues --   -1.12903  -1.12888  -1.12468  -1.12437  -1.12403
  Beta  occ. eigenvalues --   -0.17973  -0.13131  -0.12089
  Beta virt. eigenvalues --   -0.06990  -0.05547  -0.05246  -0.04348  -0.02823
  Beta virt. eigenvalues --   -0.02180  -0.01598  -0.01300  -0.00958  -0.00361
  Beta virt. eigenvalues --   -0.00127   0.00114   0.00420   0.00863   0.00914

 Mulliken charges and spin densities:
               1          2
     1  Na   0.315368   0.065833
     2  Na  -0.625702   0.646253
     3  Na  -0.154120   0.361507
     4  Na   0.127312   0.006249
     5  Na   0.165353   0.004567
     6  Na   0.009360  -0.043580
     7  Na   0.162428  -0.040830
 Sum of Mulliken charges =  -0.00000   1.00000

 Dipole moment (field-independent basis, Debye):
    X=              0.1188    Y=              0.2779    Z=              0.1326  Tot=              0.3301
 Quadrupole moment (field-independent basis, Debye-Ang):
   XX=            -57.1131   YY=            -65.5267   ZZ=            -72.1832
   XY=             -0.2220   XZ=              2.7809   YZ=              0.5899

 Normal termination of Gaussian 16 at Wed Dec  6 00:05:14 2023.
