 Gaussian 16, Revision B.01,
 Gaussian 16:  ES64L-G16RevB.01 20-Dec-2017

 -------------------------
 #P B3LYP/6-311+g(d) force
 -------------------------

 -----
 DPGEN
 -----
 Symbolic Z-matrix:
 Charge =  0 Multiplicity = 2

                         Standard orientation:
 ---------------------------------------------------------------------
 Center     Atomic      Atomic             Coordinates (Angstroms)
 Number     Number       Type             X           Y           Z
 ---------------------------------------------------------------------
      1         11           0        2.835733   -1.755480   -0.581411
      2         11           0        5.804690   -0.310836   -0.325565
      3         11           0        2.659092    1.801148   -0.285783
      4         11           0       -0.733204    1.620865   -0.121241
      5         11           0       -0.035532   -1.061410    1.723938
      6         11           0       -4.152285    0.568931    0.743875
      7         11           0       -6.378495   -0.863218   -1.153813
 ---------------------------------------------------------------------

 SCF Done:  E(UB3LYP) =  -1136.11649536     A.U. after   20 cycles

 The electronic state is 2-A.
 Alpha  occ. eigenvalues --  -38.44679 -38.44575 -38.44440 -38.44402 -38.44027
 Alpha  occ. eigenvalues --  -38.43840 -38.43745  -2.20505  -2.20409  -2.20230
 Alpha  occ. eigenvalues --   -2.20213  -2.19784  -2.19681  -2.19539  -1.14187
 Alpha  occ. eigenvalues --   -1.14175  -1.14127  -1.14094  -1.14064  -1.14002
 Alpha  occ. eigenvalues --   -1.13895  -1.13892  -1.13876  -1.13856  -1.13852
 Alpha  occ. eigenvalues --   -1.13845  -1.13453  -1.13451  -1.13448  -1.13352
 Alpha  occ. eigenvalues --   -1.13334  -1.13327  -1.13220  -1.13206  -1.13145
 Alpha  occ. eigenvalues --   -0.16850  -0.13864  -0.11744  -0.11152
 Alpha virt. eigenvalues --   -0.07024  -0.05738  -0.04152  -0.03689  -0.02947
 Alpha virt. eigenvalues --   -0.02681  -0.01929  -0.01781  -0.01252  -0.00889
 Alpha virt. eigenvalues --   -0.00213  -0.00083   0.00211   0.00282   0.00382

  Beta  occ. eigenvalues --  -38.44638 -38.44504 -38.44433 -38.44344 -38.44045
  Beta  occ. eigenvalues --  -38.43817 -38.43738  -2.20432  -2.20279  -2.20217
  Beta  occ. eigenvalues --   -2.20105  -2.19817  -2.19643  -2.19526  -1.14136
  Beta  occ. eigenvalues --   -1.14129  -1.14059  -1.14009  -1.13978  -1.13898
  Beta  occ. eigenvalues --   -1.13887  -1.13873  -1.13843  -1.13803  -1.13786
  Beta  occ. eigenvalues --   -1.13761  -1.13475  -1.13474  -1.13468  -1.13330
  Beta  occ. eigenvalues --   -1.13309  -1.13277  -1.13208  -1.13196  -1.13147
  Beta  occ. eigenvalues --   -0.16100  -0.13828  -0.11657
  Beta virt. eigenvalues --   -0.07155  -0.06857  -0.05254  -0.03994  -0.03366
  Beta virt. eigenvalues --   -0.02571  -0.02084  -0.01792  -0.01668  -0.00838
  Beta virt. eigenvalues --   -0.00743  -0.00089   0.00073   0.00375   0.00422

 Mulliken charges and spin densities:
               1          2
     1  Na  -0.141496   0.230727
     2  Na   0.310431   0.005674
     3  Na  -0.108217   0.257082
     4  Na  -0.249293   0.218650
     5  Na  -0.163252   0.333203
     6  Na   0.203094   0.055555
     7  Na   0.148732  -0.100891
 Sum of Mulliken charges =  -0.00000   1.00000

 Dipole moment (field-independent basis, Debye):
    X=              1.6720    Y=             -0.4425    Z=             -0.0260  Tot=              1.7297
 Quadrupole moment (field-independent basis, Debye-Ang):
   XX=            -59.4797   YY=            -70.6825   ZZ=            -67.5122
   XY=              2.9909   XZ=              3.2238   YZ=              2.7438

 Normal termination of Gaussian 16 at Tue Nov 28 18:51:41 2023.
