 Gaussian 16, Revision B.01,
 Gaussian 16:  ES64L-G16RevB.01 20-Dec-2017

 -------------------------
 #P B3LYP/6-311+g(d) force
 -------------------------

 -----
 DPGEN
 -----
 Symbolic Z-matrix:
 Charge =  0 Multiplicity = 2

                         Standard orientation:
 ---------------------------------------------------------------------
 Center     Atomic      Atomic             Coordinates (Angstroms)
 Number     Number       Type             X           Y           Z
 ---------------------------------------------------------------------
      1         11           0        3.128033   -0.204567    0.158296
      2         11           0        0.951993   -2.900365   -0.036028
      3         11           0       -0.230440    0.043073    2.157969
      4         11           0        1.195693    2.839707   -0.496136
      5         11           0        0.180666   -0.219504   -1.515775
      6         11           0       -2.257874    1.923483    0.150791
      7         11           0       -2.968070   -1.481827   -0.419116
 ---------------------------------------------------------------------

 SCF Done:  E(UB3LYP) =  -1136.13713709     A.U. after   19 cycles

 The electronic state is 2-A.
 Alpha  occ. eigenvalues --  -38.44104 -38.44053 -38.43764 -38.43720 -38.43666
 Alpha  occ. eigenvalues --  -38.43312 -38.43107  -2.19933  -2.19845  -2.19624
 Alpha  occ. eigenvalues --   -2.19561  -2.19505  -2.19137  -2.19086  -1.13613
 Alpha  occ. eigenvalues --   -1.13599  -1.13567  -1.13522  -1.13497  -1.13490
 Alpha  occ. eigenvalues --   -1.13302  -1.13267  -1.13244  -1.13229  -1.13220
 Alpha  occ. eigenvalues --   -1.13212  -1.13186  -1.13160  -1.13125  -1.12837
 Alpha  occ. eigenvalues --   -1.12793  -1.12774  -1.12770  -1.12720  -1.12697
 Alpha  occ. eigenvalues --   -0.18351  -0.12992  -0.12317  -0.10677
 Alpha virt. eigenvalues --   -0.05692  -0.05250  -0.04816  -0.03225  -0.02775
 Alpha virt. eigenvalues --   -0.02545  -0.01597  -0.01209  -0.00516  -0.00458
 Alpha virt. eigenvalues --   -0.00019   0.00342   0.00792   0.00827   0.00855

  Beta  occ. eigenvalues --  -38.44101 -38.44045 -38.43715 -38.43663 -38.43662
  Beta  occ. eigenvalues --  -38.43303 -38.43055  -2.19930  -2.19833  -2.19554
  Beta  occ. eigenvalues --   -2.19503  -2.19435  -2.19122  -2.18992  -1.13608
  Beta  occ. eigenvalues --   -1.13585  -1.13564  -1.13503  -1.13486  -1.13483
  Beta  occ. eigenvalues --   -1.13247  -1.13215  -1.13206  -1.13188  -1.13156
  Beta  occ. eigenvalues --   -1.13144  -1.13124  -1.13114  -1.13100  -1.12814
  Beta  occ. eigenvalues --   -1.12776  -1.12764  -1.12704  -1.12658  -1.12629
  Beta  occ. eigenvalues --   -0.17650  -0.12785  -0.12069
  Beta virt. eigenvalues --   -0.06784  -0.05663  -0.05180  -0.04759  -0.02441
  Beta virt. eigenvalues --   -0.02089  -0.01515  -0.01484  -0.01124  -0.00563
  Beta virt. eigenvalues --   -0.00479   0.00132   0.00378   0.00822   0.00863

 Mulliken charges and spin densities:
               1          2
     1  Na   0.159073   0.038203
     2  Na   0.111188  -0.052453
     3  Na  -0.406312   0.675654
     4  Na   0.058667   0.000133
     5  Na  -0.175815   0.330644
     6  Na   0.217053   0.048271
     7  Na   0.036145  -0.040451
 Sum of Mulliken charges =  -0.00000   1.00000

 Dipole moment (field-independent basis, Debye):
    X=              0.0188    Y=             -0.2240    Z=              0.1870  Tot=              0.2924
 Quadrupole moment (field-independent basis, Debye-Ang):
   XX=            -56.5145   YY=            -61.6171   ZZ=            -74.9608
   XY=              0.2522   XZ=              1.1664   YZ=             -0.5150

 Normal termination of Gaussian 16 at Fri Dec  8 04:03:43 2023.
