 Gaussian 16, Revision B.01,
 Gaussian 16:  ES64L-G16RevB.01 20-Dec-2017

 -------------------------
 #P B3LYP/6-311+g(d) force
 -------------------------

 -----
 DPGEN
 -----
 Symbolic Z-matrix:
 Charge =  0 Multiplicity = 2

                         Standard orientation:
 ---------------------------------------------------------------------
 Center     Atomic      Atomic             Coordinates (Angstroms)
 Number     Number       Type             X           Y           Z
 ---------------------------------------------------------------------
      1         11           0       -3.822578    0.749814    0.127598
      2         11           0        6.379410   -0.232147    0.381151
      3         11           0        1.060218    1.417553   -0.183572
      4         11           0        3.453078   -1.156659   -0.359785
      5         11           0       -1.424683    3.361417   -0.017396
      6         11           0       -0.881981   -2.085129   -0.073129
      7         11           0       -4.763465   -2.054850    0.125131
 ---------------------------------------------------------------------

 SCF Done:  E(UB3LYP) =  -1136.11738860     A.U. after   20 cycles

 The electronic state is 2-A.
 Alpha  occ. eigenvalues --  -38.45587 -38.44617 -38.44515 -38.44269 -38.44117
 Alpha  occ. eigenvalues --  -38.43812 -38.43175  -2.21345  -2.20426  -2.20366
 Alpha  occ. eigenvalues --   -2.20080  -2.19947  -2.19625  -2.19003  -1.15030
 Alpha  occ. eigenvalues --   -1.15011  -1.14922  -1.14074  -1.14073  -1.14061
 Alpha  occ. eigenvalues --   -1.14057  -1.14037  -1.14012  -1.13768  -1.13748
 Alpha  occ. eigenvalues --   -1.13726  -1.13610  -1.13593  -1.13560  -1.13308
 Alpha  occ. eigenvalues --   -1.13302  -1.13271  -1.12666  -1.12655  -1.12649
 Alpha  occ. eigenvalues --   -0.16395  -0.14229  -0.12373  -0.11541
 Alpha virt. eigenvalues --   -0.06217  -0.05715  -0.04397  -0.03916  -0.02724
 Alpha virt. eigenvalues --   -0.02451  -0.02360  -0.01401  -0.01349  -0.00661
 Alpha virt. eigenvalues --   -0.00655  -0.00026  -0.00004   0.00314   0.00822

  Beta  occ. eigenvalues --  -38.45509 -38.44541 -38.44482 -38.44266 -38.44114
  Beta  occ. eigenvalues --  -38.43818 -38.43163  -2.21201  -2.20305  -2.20284
  Beta  occ. eigenvalues --   -2.20075  -2.19943  -2.19643  -2.18980  -1.14933
  Beta  occ. eigenvalues --   -1.14914  -1.14812  -1.14030  -1.13996  -1.13981
  Beta  occ. eigenvalues --   -1.13970  -1.13964  -1.13961  -1.13765  -1.13742
  Beta  occ. eigenvalues --   -1.13719  -1.13595  -1.13591  -1.13557  -1.13329
  Beta  occ. eigenvalues --   -1.13322  -1.13228  -1.12651  -1.12639  -1.12632
  Beta  occ. eigenvalues --   -0.15767  -0.13750  -0.12095
  Beta virt. eigenvalues --   -0.08103  -0.05684  -0.05235  -0.04145  -0.03741
  Beta virt. eigenvalues --   -0.02486  -0.02154  -0.01922  -0.01330  -0.01230
  Beta virt. eigenvalues --   -0.00398  -0.00188   0.00147   0.00177   0.00392

 Mulliken charges and spin densities:
               1          2
     1  Na  -1.148532   0.234068
     2  Na   0.551972   0.345479
     3  Na  -1.428071  -0.230380
     4  Na   0.208939  -0.172308
     5  Na   0.800179   0.368829
     6  Na  -0.336424   0.379519
     7  Na   1.351936   0.074794
 Sum of Mulliken charges =  -0.00000   1.00000

 Dipole moment (field-independent basis, Debye):
    X=             -0.3048    Y=             -0.6744    Z=              0.1592  Tot=              0.7570
 Quadrupole moment (field-independent basis, Debye-Ang):
   XX=            -55.0280   YY=            -65.3861   ZZ=            -73.8491
   XY=              5.0025   XZ=              1.3714   YZ=              0.5553

 Normal termination of Gaussian 16 at Mon Dec  4 01:00:22 2023.
