 Gaussian 16, Revision B.01,
 Gaussian 16:  ES64L-G16RevB.01 20-Dec-2017

 -------------------------
 #P B3LYP/6-311+g(d) force
 -------------------------

 -----
 DPGEN
 -----
 Symbolic Z-matrix:
 Charge =  0 Multiplicity = 2

                         Standard orientation:
 ---------------------------------------------------------------------
 Center     Atomic      Atomic             Coordinates (Angstroms)
 Number     Number       Type             X           Y           Z
 ---------------------------------------------------------------------
      1         11           0       -0.700246   -2.243329    0.617685
      2         11           0        0.190217    0.402487    2.030261
      3         11           0        0.471643    2.818550   -0.032808
      4         11           0       -2.858799    1.860415   -0.144702
      5         11           0       -3.332359   -1.510178   -1.286763
      6         11           0        3.733536    0.504129   -1.361877
      7         11           0        2.496009   -1.832075    0.178204
 ---------------------------------------------------------------------

 SCF Done:  E(UB3LYP) =  -1136.12102486     A.U. after   20 cycles

 The electronic state is 2-A.
 Alpha  occ. eigenvalues --  -38.44610 -38.44586 -38.44519 -38.44003 -38.43949
 Alpha  occ. eigenvalues --  -38.43655 -38.43331  -2.20507  -2.20367  -2.20344
 Alpha  occ. eigenvalues --   -2.19812  -2.19811  -2.19472  -2.19220  -1.14196
 Alpha  occ. eigenvalues --   -1.14168  -1.14101  -1.14061  -1.14037  -1.14027
 Alpha  occ. eigenvalues --   -1.13994  -1.13979  -1.13951  -1.13489  -1.13478
 Alpha  occ. eigenvalues --   -1.13467  -1.13461  -1.13459  -1.13445  -1.13167
 Alpha  occ. eigenvalues --   -1.13139  -1.13087  -1.12920  -1.12882  -1.12836
 Alpha  occ. eigenvalues --   -0.17467  -0.13761  -0.12371  -0.11353
 Alpha virt. eigenvalues --   -0.06112  -0.05437  -0.04468  -0.03824  -0.03381
 Alpha virt. eigenvalues --   -0.02163  -0.01644  -0.01082  -0.00838  -0.00457
 Alpha virt. eigenvalues --   -0.00379   0.00339   0.00368   0.00492   0.00600

  Beta  occ. eigenvalues --  -38.44576 -38.44534 -38.44442 -38.43960 -38.43943
  Beta  occ. eigenvalues --  -38.43654 -38.43313  -2.20370  -2.20350  -2.20202
  Beta  occ. eigenvalues --   -2.19808  -2.19730  -2.19472  -2.19193  -1.14100
  Beta  occ. eigenvalues --   -1.14079  -1.14050  -1.14021  -1.13999  -1.13966
  Beta  occ. eigenvalues --   -1.13944  -1.13883  -1.13855  -1.13492  -1.13468
  Beta  occ. eigenvalues --   -1.13420  -1.13414  -1.13409  -1.13386  -1.13157
  Beta  occ. eigenvalues --   -1.13139  -1.13088  -1.12887  -1.12871  -1.12801
  Beta  occ. eigenvalues --   -0.16840  -0.12977  -0.12199
  Beta virt. eigenvalues --   -0.07924  -0.05987  -0.05071  -0.03904  -0.03709
  Beta virt. eigenvalues --   -0.02738  -0.01683  -0.01468  -0.00974  -0.00710
  Beta virt. eigenvalues --   -0.00354  -0.00099   0.00457   0.00477   0.00652

 Mulliken charges and spin densities:
               1          2
     1  Na  -0.436065  -0.010397
     2  Na   0.646026   0.035992
     3  Na  -0.234531   0.108477
     4  Na  -0.242686   0.079989
     5  Na   0.342552   0.306414
     6  Na   0.093583   0.295275
     7  Na  -0.168879   0.184251
 Sum of Mulliken charges =  -0.00000   1.00000

 Dipole moment (field-independent basis, Debye):
    X=             -0.0681    Y=              0.5215    Z=             -0.1366  Tot=              0.5434
 Quadrupole moment (field-independent basis, Debye-Ang):
   XX=            -63.7861   YY=            -68.0404   ZZ=            -67.8100
   XY=             -0.4525   XZ=              0.1533   YZ=             -0.9320

 Normal termination of Gaussian 16 at Tue Nov 28 19:39:46 2023.
