 Gaussian 16, Revision B.01,
 Gaussian 16:  ES64L-G16RevB.01 20-Dec-2017

 -------------------------
 #P B3LYP/6-311+g(d) force
 -------------------------

 -----
 DPGEN
 -----
 Symbolic Z-matrix:
 Charge =  0 Multiplicity = 2

                         Standard orientation:
 ---------------------------------------------------------------------
 Center     Atomic      Atomic             Coordinates (Angstroms)
 Number     Number       Type             X           Y           Z
 ---------------------------------------------------------------------
      1         11           0       -1.730877    2.071464   -0.455929
      2         11           0        1.132591   -1.508618   -0.778442
      3         11           0       -3.656410   -0.120982    1.140739
      4         11           0       -1.926244   -1.509608   -1.447073
      5         11           0        3.954778   -0.467422    0.841434
      6         11           0        0.049002   -0.211505    1.585417
      7         11           0        2.177159    1.746671   -0.886146
 ---------------------------------------------------------------------

 SCF Done:  E(UB3LYP) =  -1136.11592484     A.U. after   36 cycles

 The electronic state is 2-A.
 Alpha  occ. eigenvalues --  -38.45545 -38.45062 -38.44600 -38.43888 -38.43375
 Alpha  occ. eigenvalues --  -38.43341 -38.42722  -2.21425  -2.20893  -2.20445
 Alpha  occ. eigenvalues --   -2.19730  -2.19231  -2.19212  -2.18703  -1.15183
 Alpha  occ. eigenvalues --   -1.15076  -1.15022  -1.14559  -1.14538  -1.14519
 Alpha  occ. eigenvalues --   -1.14112  -1.14081  -1.14079  -1.13415  -1.13395
 Alpha  occ. eigenvalues --   -1.13360  -1.12925  -1.12901  -1.12891  -1.12865
 Alpha  occ. eigenvalues --   -1.12856  -1.12839  -1.12449  -1.12352  -1.12293
 Alpha  occ. eigenvalues --   -0.18558  -0.14617  -0.10996  -0.10820
 Alpha virt. eigenvalues --   -0.07299  -0.05344  -0.04690  -0.03179  -0.03077
 Alpha virt. eigenvalues --   -0.02331  -0.01888  -0.01382  -0.00943  -0.00207
 Alpha virt. eigenvalues --   -0.00006   0.00253   0.00351   0.00534   0.00725

  Beta  occ. eigenvalues --  -38.45530 -38.45029 -38.44561 -38.43869 -38.43360
  Beta  occ. eigenvalues --  -38.43299 -38.42715  -2.21398  -2.20831  -2.20372
  Beta  occ. eigenvalues --   -2.19699  -2.19191  -2.19154  -2.18694  -1.15159
  Beta  occ. eigenvalues --   -1.15051  -1.14999  -1.14514  -1.14502  -1.14476
  Beta  occ. eigenvalues --   -1.14059  -1.14035  -1.14029  -1.13392  -1.13372
  Beta  occ. eigenvalues --   -1.13320  -1.12887  -1.12871  -1.12863  -1.12816
  Beta  occ. eigenvalues --   -1.12805  -1.12801  -1.12454  -1.12320  -1.12274
  Beta  occ. eigenvalues --   -0.17961  -0.14375  -0.10605
  Beta virt. eigenvalues --   -0.07299  -0.07064  -0.05003  -0.04268  -0.02923
  Beta virt. eigenvalues --   -0.02843  -0.01796  -0.01285  -0.00981  -0.00756
  Beta virt. eigenvalues --   -0.00144   0.00043   0.00321   0.00423   0.00636

 Mulliken charges and spin densities:
               1          2
     1  Na  -0.375077   0.121078
     2  Na  -0.276480   0.432142
     3  Na   1.140096   0.168376
     4  Na  -0.479885   0.109861
     5  Na   1.557050   0.134694
     6  Na  -1.051780   0.044927
     7  Na  -0.513925  -0.011078
 Sum of Mulliken charges =  -0.00000   1.00000

 Dipole moment (field-independent basis, Debye):
    X=              0.4710    Y=             -0.1942    Z=              0.4639  Tot=              0.6890
 Quadrupole moment (field-independent basis, Debye-Ang):
   XX=            -47.6470   YY=            -79.4706   ZZ=            -68.2361
   XY=              1.0623   XZ=              1.4464   YZ=             -2.9117

 Normal termination of Gaussian 16 at Tue Dec  5 15:50:00 2023.
