 Gaussian 16, Revision B.01,
 Gaussian 16:  ES64L-G16RevB.01 20-Dec-2017

 -------------------------
 #P B3LYP/6-311+g(d) force
 -------------------------

 -----
 DPGEN
 -----
 Symbolic Z-matrix:
 Charge =  0 Multiplicity = 2

                         Standard orientation:
 ---------------------------------------------------------------------
 Center     Atomic      Atomic             Coordinates (Angstroms)
 Number     Number       Type             X           Y           Z
 ---------------------------------------------------------------------
      1         11           0       -0.333300    0.075301   -1.659714
      2         11           0       -1.091999    0.260405    1.708686
      3         11           0        4.222999   -0.114719   -0.206014
      4         11           0        1.534803    0.670693    0.502286
      5         11           0       -2.688405   -1.131288   -0.349114
      6         11           0        0.003692   -1.745100    0.290386
      7         11           0       -1.647791    1.984707   -0.286514
 ---------------------------------------------------------------------

 SCF Done:  E(UB3LYP) =  -1136.06063654     A.U. after   27 cycles

 The electronic state is 2-A.
 Alpha  occ. eigenvalues --  -38.46296 -38.44927 -38.44412 -38.44278 -38.43599
 Alpha  occ. eigenvalues --  -38.43542 -38.43011  -2.22084  -2.21177  -2.20690
 Alpha  occ. eigenvalues --   -2.20360  -2.19819  -2.19686  -2.19110  -1.15809
 Alpha  occ. eigenvalues --   -1.15723  -1.15707  -1.15020  -1.14891  -1.14796
 Alpha  occ. eigenvalues --   -1.14545  -1.14429  -1.14336  -1.14072  -1.13982
 Alpha  occ. eigenvalues --   -1.13957  -1.13620  -1.13432  -1.13384  -1.13334
 Alpha  occ. eigenvalues --   -1.13306  -1.13166  -1.12797  -1.12770  -1.12649
 Alpha  occ. eigenvalues --   -0.21225  -0.14263  -0.12006  -0.11567
 Alpha virt. eigenvalues --   -0.07744  -0.03778  -0.03627  -0.03431  -0.02763
 Alpha virt. eigenvalues --   -0.02380  -0.02221  -0.00877  -0.00514  -0.00023
 Alpha virt. eigenvalues --    0.00294   0.00411   0.00486   0.00808   0.01066

  Beta  occ. eigenvalues --  -38.46309 -38.44843 -38.44315 -38.44260 -38.43563
  Beta  occ. eigenvalues --  -38.43516 -38.42992  -2.22108  -2.21028  -2.20517
  Beta  occ. eigenvalues --   -2.20334  -2.19765  -2.19646  -2.19080  -1.15827
  Beta  occ. eigenvalues --   -1.15737  -1.15722  -1.14925  -1.14782  -1.14682
  Beta  occ. eigenvalues --   -1.14428  -1.14312  -1.14229  -1.14040  -1.13938
  Beta  occ. eigenvalues --   -1.13909  -1.13585  -1.13381  -1.13299  -1.13290
  Beta  occ. eigenvalues --   -1.13243  -1.13142  -1.12777  -1.12712  -1.12621
  Beta  occ. eigenvalues --   -0.20353  -0.14084  -0.11234
  Beta virt. eigenvalues --   -0.07675  -0.07548  -0.03636  -0.03393  -0.03005
  Beta virt. eigenvalues --   -0.02524  -0.01547  -0.01374  -0.00821  -0.00228
  Beta virt. eigenvalues --    0.00033   0.00327   0.00465   0.00629   0.00875

 Mulliken charges and spin densities:
               1          2
     1  Na  -0.456061   0.504016
     2  Na  -0.416433   0.222974
     3  Na   0.468833  -0.009349
     4  Na  -0.246485   0.043201
     5  Na   0.181074   0.009105
     6  Na   0.467214   0.128186
     7  Na   0.001857   0.101868
 Sum of Mulliken charges =  -0.00000   1.00000

 Dipole moment (field-independent basis, Debye):
    X=              1.3469    Y=             -0.0434    Z=             -0.2278  Tot=              1.3667
 Quadrupole moment (field-independent basis, Debye-Ang):
   XX=            -42.5874   YY=            -78.4149   ZZ=            -69.7082
   XY=             -1.2732   XZ=             -1.3862   YZ=              0.1521

 Normal termination of Gaussian 16 at Fri Dec  8 18:35:19 2023.
