 Gaussian 16, Revision B.01,
 Gaussian 16:  ES64L-G16RevB.01 20-Dec-2017

 -------------------------
 #P B3LYP/6-311+g(d) force
 -------------------------

 -----
 DPGEN
 -----
 Symbolic Z-matrix:
 Charge =  0 Multiplicity = 2

                         Standard orientation:
 ---------------------------------------------------------------------
 Center     Atomic      Atomic             Coordinates (Angstroms)
 Number     Number       Type             X           Y           Z
 ---------------------------------------------------------------------
      1         11           0        2.452197    1.634162   -0.282289
      2         11           0        2.183692   -2.088723   -0.584668
      3         11           0       -0.688666    2.886355   -0.014140
      4         11           0        0.584023   -0.098335    2.583697
      5         11           0       -0.295045    0.154335   -1.773311
      6         11           0       -1.130308   -2.572545    0.074259
      7         11           0       -3.105894    0.084751   -0.003548
 ---------------------------------------------------------------------

 SCF Done:  E(UB3LYP) =  -1136.13683029     A.U. after   19 cycles

 The electronic state is 2-A.
 Alpha  occ. eigenvalues --  -38.44694 -38.43618 -38.43583 -38.43562 -38.43511
 Alpha  occ. eigenvalues --  -38.43462 -38.43390  -2.20494  -2.19542  -2.19451
 Alpha  occ. eigenvalues --   -2.19403  -2.19334  -2.19302  -2.19253  -1.14132
 Alpha  occ. eigenvalues --   -1.14118  -1.14115  -1.13248  -1.13212  -1.13196
 Alpha  occ. eigenvalues --   -1.13124  -1.13119  -1.13097  -1.13068  -1.13059
 Alpha  occ. eigenvalues --   -1.13019  -1.13011  -1.13000  -1.12992  -1.12974
 Alpha  occ. eigenvalues --   -1.12967  -1.12942  -1.12920  -1.12911  -1.12860
 Alpha  occ. eigenvalues --   -0.18286  -0.12660  -0.12465  -0.11410
 Alpha virt. eigenvalues --   -0.05219  -0.04976  -0.04921  -0.03512  -0.03294
 Alpha virt. eigenvalues --   -0.03010  -0.01131  -0.01045  -0.00260  -0.00216
 Alpha virt. eigenvalues --   -0.00135   0.00368   0.00767   0.00809   0.00912

  Beta  occ. eigenvalues --  -38.44578 -38.43615 -38.43560 -38.43530 -38.43503
  Beta  occ. eigenvalues --  -38.43461 -38.43386  -2.20278  -2.19449  -2.19446
  Beta  occ. eigenvalues --   -2.19402  -2.19321  -2.19303  -2.19250  -1.13985
  Beta  occ. eigenvalues --   -1.13970  -1.13965  -1.13199  -1.13158  -1.13140
  Beta  occ. eigenvalues --   -1.13110  -1.13096  -1.13086  -1.13053  -1.13043
  Beta  occ. eigenvalues --   -1.13021  -1.13002  -1.12991  -1.12973  -1.12967
  Beta  occ. eigenvalues --   -1.12952  -1.12944  -1.12912  -1.12891  -1.12862
  Beta  occ. eigenvalues --   -0.17587  -0.12487  -0.12274
  Beta virt. eigenvalues --   -0.07359  -0.05236  -0.04988  -0.04654  -0.02668
  Beta virt. eigenvalues --   -0.02497  -0.02105  -0.01054  -0.00977  -0.00311
  Beta virt. eigenvalues --   -0.00242   0.00073   0.00415   0.00878   0.00912

 Mulliken charges and spin densities:
               1          2
     1  Na   0.086144   0.014280
     2  Na   0.115170   0.023424
     3  Na   0.073801   0.041465
     4  Na  -0.641320   0.670383
     5  Na   0.237740   0.127099
     6  Na   0.024810   0.094460
     7  Na   0.103655   0.028889
 Sum of Mulliken charges =  -0.00000   1.00000

 Dipole moment (field-independent basis, Debye):
    X=              0.0953    Y=              0.1292    Z=              0.2826  Tot=              0.3250
 Quadrupole moment (field-independent basis, Debye-Ang):
   XX=            -62.1699   YY=            -63.9325   ZZ=            -70.2571
   XY=             -0.5406   XZ=             -1.5642   YZ=              0.5341

 Normal termination of Gaussian 16 at Fri Dec  8 04:15:32 2023.
