 Gaussian 16, Revision B.01,
 Gaussian 16:  ES64L-G16RevB.01 20-Dec-2017

 -------------------------
 #P B3LYP/6-311+g(d) force
 -------------------------

 -----
 DPGEN
 -----
 Symbolic Z-matrix:
 Charge =  0 Multiplicity = 2

                         Standard orientation:
 ---------------------------------------------------------------------
 Center     Atomic      Atomic             Coordinates (Angstroms)
 Number     Number       Type             X           Y           Z
 ---------------------------------------------------------------------
      1         11           0        2.256840   -1.736376   -0.249659
      2         11           0       -3.149904    0.063547   -0.234365
      3         11           0       -0.149112   -0.260337    2.068522
      4         11           0       -1.218672    2.712981    0.077592
      5         11           0        3.144182    1.512380    0.095741
      6         11           0       -0.994352   -2.610509   -0.110674
      7         11           0        0.111019    0.318314   -1.647157
 ---------------------------------------------------------------------

 SCF Done:  E(UB3LYP) =  -1136.13574608     A.U. after   20 cycles

 The electronic state is 2-A.
 Alpha  occ. eigenvalues --  -38.44339 -38.44263 -38.43613 -38.43601 -38.43504
 Alpha  occ. eigenvalues --  -38.43313 -38.42812  -2.20120  -2.20115  -2.19499
 Alpha  occ. eigenvalues --   -2.19491  -2.19352  -2.19274  -2.18710  -1.13789
 Alpha  occ. eigenvalues --   -1.13785  -1.13785  -1.13776  -1.13764  -1.13762
 Alpha  occ. eigenvalues --   -1.13209  -1.13174  -1.13151  -1.13125  -1.13118
 Alpha  occ. eigenvalues --   -1.13106  -1.13071  -1.13008  -1.12984  -1.12951
 Alpha  occ. eigenvalues --   -1.12901  -1.12882  -1.12386  -1.12368  -1.12354
 Alpha  occ. eigenvalues --   -0.18674  -0.13289  -0.12180  -0.10729
 Alpha virt. eigenvalues --   -0.06059  -0.05168  -0.04388  -0.03285  -0.02800
 Alpha virt. eigenvalues --   -0.02544  -0.01793  -0.01092  -0.00469  -0.00191
 Alpha virt. eigenvalues --   -0.00026   0.00335   0.00765   0.00844   0.00905

  Beta  occ. eigenvalues --  -38.44342 -38.44257 -38.43605 -38.43504 -38.43500
  Beta  occ. eigenvalues --  -38.43252 -38.42805  -2.20126  -2.20107  -2.19487
  Beta  occ. eigenvalues --   -2.19348  -2.19312  -2.19163  -2.18700  -1.13793
  Beta  occ. eigenvalues --   -1.13779  -1.13775  -1.13768  -1.13767  -1.13747
  Beta  occ. eigenvalues --   -1.13194  -1.13132  -1.13120  -1.13061  -1.13038
  Beta  occ. eigenvalues --   -1.12999  -1.12988  -1.12981  -1.12971  -1.12880
  Beta  occ. eigenvalues --   -1.12826  -1.12800  -1.12383  -1.12352  -1.12326
  Beta  occ. eigenvalues --   -0.17926  -0.13079  -0.11959
  Beta virt. eigenvalues --   -0.06788  -0.06012  -0.05148  -0.04362  -0.02518
  Beta virt. eigenvalues --   -0.02039  -0.01716  -0.01457  -0.01021  -0.00510
  Beta virt. eigenvalues --   -0.00228   0.00126   0.00362   0.00825   0.00852

 Mulliken charges and spin densities:
               1          2
     1  Na   0.232496  -0.013951
     2  Na   0.231909   0.009368
     3  Na  -0.553100   0.758581
     4  Na   0.043035  -0.091031
     5  Na  -0.009243  -0.081979
     6  Na   0.237961   0.020808
     7  Na  -0.183058   0.398203
 Sum of Mulliken charges =  -0.00000   1.00000

 Dipole moment (field-independent basis, Debye):
    X=              0.0807    Y=              0.3100    Z=              0.1261  Tot=              0.3443
 Quadrupole moment (field-independent basis, Debye-Ang):
   XX=            -54.4204   YY=            -64.5349   ZZ=            -74.4675
   XY=              1.2180   XZ=              0.8475   YZ=              1.5204

 Normal termination of Gaussian 16 at Thu Dec  7 11:30:45 2023.
