 Gaussian 16, Revision B.01,
 Gaussian 16:  ES64L-G16RevB.01 20-Dec-2017

 -------------------------
 #P B3LYP/6-311+g(d) force
 -------------------------

 -----
 DPGEN
 -----
 Symbolic Z-matrix:
 Charge =  0 Multiplicity = 2

                         Standard orientation:
 ---------------------------------------------------------------------
 Center     Atomic      Atomic             Coordinates (Angstroms)
 Number     Number       Type             X           Y           Z
 ---------------------------------------------------------------------
      1         11           0       -3.182135   -0.159306   -0.203017
      2         11           0        2.377350    1.916157    0.081953
      3         11           0       -0.058218   -0.018491    1.774871
      4         11           0        2.573876   -1.741994   -0.178388
      5         11           0       -0.870894   -2.599749    0.189817
      6         11           0       -0.989311    2.838979   -0.119092
      7         11           0        0.149333   -0.235597   -1.546143
 ---------------------------------------------------------------------

 SCF Done:  E(UB3LYP) =  -1136.13811424     A.U. after   20 cycles

 The electronic state is 2-A.
 Alpha  occ. eigenvalues --  -38.43902 -38.43787 -38.43720 -38.43584 -38.43373
 Alpha  occ. eigenvalues --  -38.43003 -38.42903  -2.19733  -2.19627  -2.19579
 Alpha  occ. eigenvalues --   -2.19416  -2.19310  -2.18983  -2.18936  -1.13402
 Alpha  occ. eigenvalues --   -1.13394  -1.13381  -1.13305  -1.13301  -1.13282
 Alpha  occ. eigenvalues --   -1.13264  -1.13230  -1.13208  -1.13091  -1.13087
 Alpha  occ. eigenvalues --   -1.13052  -1.13046  -1.12995  -1.12906  -1.12696
 Alpha  occ. eigenvalues --   -1.12609  -1.12597  -1.12583  -1.12558  -1.12543
 Alpha  occ. eigenvalues --   -0.18998  -0.12994  -0.12762  -0.10385
 Alpha virt. eigenvalues --   -0.05481  -0.05294  -0.04861  -0.02938  -0.02805
 Alpha virt. eigenvalues --   -0.02094  -0.01565  -0.01237  -0.00416  -0.00317
 Alpha virt. eigenvalues --    0.00042   0.00348   0.00809   0.00880   0.00890

  Beta  occ. eigenvalues --  -38.43897 -38.43783 -38.43713 -38.43581 -38.43360
  Beta  occ. eigenvalues --  -38.42917 -38.42838  -2.19727  -2.19623  -2.19570
  Beta  occ. eigenvalues --   -2.19413  -2.19291  -2.18825  -2.18819  -1.13397
  Beta  occ. eigenvalues --   -1.13381  -1.13372  -1.13303  -1.13279  -1.13271
  Beta  occ. eigenvalues --   -1.13259  -1.13207  -1.13205  -1.13086  -1.13069
  Beta  occ. eigenvalues --   -1.13044  -1.13038  -1.12937  -1.12901  -1.12600
  Beta  occ. eigenvalues --   -1.12514  -1.12486  -1.12475  -1.12471  -1.12455
  Beta  occ. eigenvalues --   -0.18280  -0.12738  -0.12499
  Beta virt. eigenvalues --   -0.06481  -0.05465  -0.05279  -0.04837  -0.02159
  Beta virt. eigenvalues --   -0.02033  -0.01475  -0.01179  -0.01070  -0.00466
  Beta virt. eigenvalues --   -0.00358   0.00170   0.00384   0.00850   0.00876

 Mulliken charges and spin densities:
               1          2
     1  Na   0.016158  -0.065851
     2  Na   0.047535  -0.098832
     3  Na  -0.288933   0.682741
     4  Na   0.305069  -0.062792
     5  Na   0.450827   0.000693
     6  Na  -0.042501  -0.103549
     7  Na  -0.488155   0.647590
 Sum of Mulliken charges =  -0.00000   1.00000

 Dipole moment (field-independent basis, Debye):
    X=              0.0420    Y=              0.1399    Z=              0.0603  Tot=              0.1580
 Quadrupole moment (field-independent basis, Debye-Ang):
   XX=            -54.8129   YY=            -60.3106   ZZ=            -76.4252
   XY=             -0.4214   XZ=              0.6055   YZ=             -0.4197

 Normal termination of Gaussian 16 at Thu Dec  7 13:40:15 2023.
