 Gaussian 16, Revision B.01,
 Gaussian 16:  ES64L-G16RevB.01 20-Dec-2017

 -------------------------
 #P B3LYP/6-311+g(d) force
 -------------------------

 -----
 DPGEN
 -----
 Symbolic Z-matrix:
 Charge =  0 Multiplicity = 2

                         Standard orientation:
 ---------------------------------------------------------------------
 Center     Atomic      Atomic             Coordinates (Angstroms)
 Number     Number       Type             X           Y           Z
 ---------------------------------------------------------------------
      1         11           0        2.537366   -1.547042   -0.519947
      2         11           0        2.348163    1.380430    0.601989
      3         11           0       -0.219924    0.043311   -1.740888
      4         11           0       -0.418561    2.871114   -0.418187
      5         11           0       -3.152640    0.072513   -0.028999
      6         11           0       -0.760322   -2.772113    0.093865
      7         11           0       -0.334082   -0.048213    2.012167
 ---------------------------------------------------------------------

 SCF Done:  E(UB3LYP) =  -1136.13751846     A.U. after   19 cycles

 The electronic state is 2-A.
 Alpha  occ. eigenvalues --  -38.44061 -38.43737 -38.43521 -38.43463 -38.43394
 Alpha  occ. eigenvalues --  -38.43335 -38.43328  -2.19886  -2.19658  -2.19377
 Alpha  occ. eigenvalues --   -2.19328  -2.19317  -2.19263  -2.19242  -1.13571
 Alpha  occ. eigenvalues --   -1.13556  -1.13512  -1.13329  -1.13297  -1.13280
 Alpha  occ. eigenvalues --   -1.13083  -1.13065  -1.13058  -1.13055  -1.13013
 Alpha  occ. eigenvalues --   -1.12995  -1.12966  -1.12953  -1.12942  -1.12922
 Alpha  occ. eigenvalues --   -1.12906  -1.12898  -1.12872  -1.12864  -1.12833
 Alpha  occ. eigenvalues --   -0.18912  -0.12933  -0.12534  -0.11186
 Alpha virt. eigenvalues --   -0.05561  -0.04792  -0.04556  -0.03356  -0.03084
 Alpha virt. eigenvalues --   -0.02820  -0.01404  -0.01036  -0.00206  -0.00025
 Alpha virt. eigenvalues --    0.00084   0.00379   0.00853   0.00927   0.00948

  Beta  occ. eigenvalues --  -38.44058 -38.43647 -38.43516 -38.43455 -38.43385
  Beta  occ. eigenvalues --  -38.43321 -38.43256  -2.19884  -2.19492  -2.19371
  Beta  occ. eigenvalues --   -2.19316  -2.19251  -2.19221  -2.19185  -1.13557
  Beta  occ. eigenvalues --   -1.13549  -1.13510  -1.13223  -1.13179  -1.13165
  Beta  occ. eigenvalues --   -1.13062  -1.13054  -1.13032  -1.13016  -1.12998
  Beta  occ. eigenvalues --   -1.12972  -1.12945  -1.12925  -1.12893  -1.12877
  Beta  occ. eigenvalues --   -1.12872  -1.12843  -1.12835  -1.12825  -1.12807
  Beta  occ. eigenvalues --   -0.18165  -0.12696  -0.12257
  Beta virt. eigenvalues --   -0.07244  -0.05562  -0.04723  -0.04511  -0.02560
  Beta virt. eigenvalues --   -0.02310  -0.01758  -0.01334  -0.00965  -0.00145
  Beta virt. eigenvalues --   -0.00063   0.00138   0.00400   0.00856   0.00936

 Mulliken charges and spin densities:
               1          2
     1  Na  -0.006372  -0.012846
     2  Na   0.181512   0.127448
     3  Na  -0.132079   0.506450
     4  Na   0.075624  -0.048648
     5  Na   0.018246  -0.114327
     6  Na   0.074322  -0.038413
     7  Na  -0.211253   0.580335
 Sum of Mulliken charges =  -0.00000   1.00000

 Dipole moment (field-independent basis, Debye):
    X=             -0.4933    Y=             -0.1002    Z=              0.1034  Tot=              0.5139
 Quadrupole moment (field-independent basis, Debye-Ang):
   XX=            -58.9914   YY=            -63.1987   ZZ=            -72.1331
   XY=             -0.3674   XZ=              0.0631   YZ=              0.3310

 Normal termination of Gaussian 16 at Fri Dec  8 02:32:43 2023.
