 Gaussian 16, Revision B.01,
 Gaussian 16:  ES64L-G16RevB.01 20-Dec-2017

 -------------------------
 #P B3LYP/6-311+g(d) force
 -------------------------

 -----
 DPGEN
 -----
 Symbolic Z-matrix:
 Charge =  0 Multiplicity = 2

                         Standard orientation:
 ---------------------------------------------------------------------
 Center     Atomic      Atomic             Coordinates (Angstroms)
 Number     Number       Type             X           Y           Z
 ---------------------------------------------------------------------
      1         11           0        3.560316    0.383502    1.288133
      2         11           0        1.774252   -2.382359   -0.836916
      3         11           0       -0.635348    0.432813    2.099684
      4         11           0       -3.440659   -0.515786    0.617387
      5         11           0       -1.674514    2.891521   -1.027959
      6         11           0       -1.527559   -2.240632   -0.805345
      7         11           0        1.943512    1.430941   -1.334984
 ---------------------------------------------------------------------

 SCF Done:  E(UB3LYP) =  -1136.11652526     A.U. after   21 cycles

 The electronic state is 2-A.
 Alpha  occ. eigenvalues --  -38.45034 -38.44774 -38.44713 -38.44504 -38.44036
 Alpha  occ. eigenvalues --  -38.43769 -38.43349  -2.20821  -2.20575  -2.20571
 Alpha  occ. eigenvalues --   -2.20299  -2.19794  -2.19566  -2.19208  -1.14492
 Alpha  occ. eigenvalues --   -1.14466  -1.14461  -1.14297  -1.14255  -1.14221
 Alpha  occ. eigenvalues --   -1.14218  -1.14205  -1.14177  -1.13979  -1.13965
 Alpha  occ. eigenvalues --   -1.13917  -1.13462  -1.13440  -1.13422  -1.13253
 Alpha  occ. eigenvalues --   -1.13241  -1.13186  -1.12883  -1.12857  -1.12852
 Alpha  occ. eigenvalues --   -0.17179  -0.13812  -0.11900  -0.10850
 Alpha virt. eigenvalues --   -0.06659  -0.05585  -0.05041  -0.03605  -0.02928
 Alpha virt. eigenvalues --   -0.02335  -0.02183  -0.01244  -0.00823  -0.00455
 Alpha virt. eigenvalues --   -0.00155   0.00030   0.00299   0.00356   0.00610

  Beta  occ. eigenvalues --  -38.44980 -38.44738 -38.44707 -38.44485 -38.43989
  Beta  occ. eigenvalues --  -38.43753 -38.43345  -2.20722  -2.20563  -2.20507
  Beta  occ. eigenvalues --   -2.20266  -2.19707  -2.19538  -2.19201  -1.14426
  Beta  occ. eigenvalues --   -1.14395  -1.14391  -1.14296  -1.14212  -1.14197
  Beta  occ. eigenvalues --   -1.14177  -1.14167  -1.14160  -1.13951  -1.13941
  Beta  occ. eigenvalues --   -1.13884  -1.13402  -1.13379  -1.13361  -1.13233
  Beta  occ. eigenvalues --   -1.13217  -1.13166  -1.12874  -1.12853  -1.12840
  Beta  occ. eigenvalues --   -0.16678  -0.13645  -0.11367
  Beta virt. eigenvalues --   -0.07473  -0.06445  -0.05302  -0.04511  -0.03321
  Beta virt. eigenvalues --   -0.02475  -0.01994  -0.01712  -0.01034  -0.00694
  Beta virt. eigenvalues --   -0.00260  -0.00081   0.00199   0.00327   0.00530

 Mulliken charges and spin densities:
               1          2
     1  Na   0.493404   0.242799
     2  Na  -0.028198   0.041948
     3  Na  -0.568113   0.295008
     4  Na   0.712028   0.021008
     5  Na   0.039237   0.212173
     6  Na  -0.339120   0.035317
     7  Na  -0.309238   0.151749
 Sum of Mulliken charges =  -0.00000   1.00000

 Dipole moment (field-independent basis, Debye):
    X=              0.1782    Y=              0.2330    Z=              0.5823  Tot=              0.6520
 Quadrupole moment (field-independent basis, Debye-Ang):
   XX=            -52.3545   YY=            -75.7457   ZZ=            -70.4232
   XY=             -0.6773   XZ=              1.6122   YZ=             -1.3921

 Normal termination of Gaussian 16 at Sun Dec  3 19:04:24 2023.
