 Gaussian 16, Revision B.01,
 Gaussian 16:  ES64L-G16RevB.01 20-Dec-2017

 -------------------------
 #P B3LYP/6-311+g(d) force
 -------------------------

 -----
 DPGEN
 -----
 Symbolic Z-matrix:
 Charge =  0 Multiplicity = 2

                         Standard orientation:
 ---------------------------------------------------------------------
 Center     Atomic      Atomic             Coordinates (Angstroms)
 Number     Number       Type             X           Y           Z
 ---------------------------------------------------------------------
      1         11           0        2.712790    1.485353   -0.151140
      2         11           0       -0.946037    2.783604    0.173768
      3         11           0       -3.154659   -0.076775   -0.204713
      4         11           0        0.076916    0.177916    1.635805
      5         11           0       -0.908424   -2.670399    0.224158
      6         11           0       -0.102498    0.054136   -1.609586
      7         11           0        2.321912   -1.753835   -0.068291
 ---------------------------------------------------------------------

 SCF Done:  E(UB3LYP) =  -1136.13822525     A.U. after   20 cycles

 The electronic state is 2-A.
 Alpha  occ. eigenvalues --  -38.44114 -38.43887 -38.43499 -38.43495 -38.43130
 Alpha  occ. eigenvalues --  -38.42897 -38.42798  -2.19957  -2.19746  -2.19401
 Alpha  occ. eigenvalues --   -2.19363  -2.19027  -2.18920  -2.18829  -1.13636
 Alpha  occ. eigenvalues --   -1.13615  -1.13594  -1.13430  -1.13413  -1.13384
 Alpha  occ. eigenvalues --   -1.13085  -1.13076  -1.13063  -1.13041  -1.13033
 Alpha  occ. eigenvalues --   -1.12976  -1.12734  -1.12695  -1.12657  -1.12641
 Alpha  occ. eigenvalues --   -1.12539  -1.12528  -1.12496  -1.12448  -1.12432
 Alpha  occ. eigenvalues --   -0.19183  -0.13263  -0.12640  -0.10382
 Alpha virt. eigenvalues --   -0.05724  -0.05094  -0.04698  -0.03032  -0.02719
 Alpha virt. eigenvalues --   -0.02014  -0.01664  -0.01157  -0.00371  -0.00210
 Alpha virt. eigenvalues --    0.00049   0.00354   0.00821   0.00875   0.00925

  Beta  occ. eigenvalues --  -38.44107 -38.43881 -38.43492 -38.43486 -38.43122
  Beta  occ. eigenvalues --  -38.42827 -38.42720  -2.19948  -2.19739  -2.19393
  Beta  occ. eigenvalues --   -2.19352  -2.19016  -2.18794  -2.18686  -1.13622
  Beta  occ. eigenvalues --   -1.13598  -1.13589  -1.13429  -1.13389  -1.13373
  Beta  occ. eigenvalues --   -1.13081  -1.13064  -1.13046  -1.13019  -1.13001
  Beta  occ. eigenvalues --   -1.12972  -1.12720  -1.12663  -1.12645  -1.12557
  Beta  occ. eigenvalues --   -1.12452  -1.12433  -1.12399  -1.12343  -1.12333
  Beta  occ. eigenvalues --   -0.18472  -0.12989  -0.12359
  Beta virt. eigenvalues --   -0.06490  -0.05687  -0.05095  -0.04688  -0.02244
  Beta virt. eigenvalues --   -0.01934  -0.01564  -0.01091  -0.01007  -0.00423
  Beta virt. eigenvalues --   -0.00258   0.00176   0.00389   0.00859   0.00875

 Mulliken charges and spin densities:
               1          2
     1  Na   0.182475  -0.075103
     2  Na   0.100789  -0.134597
     3  Na   0.154254  -0.041478
     4  Na  -0.350722   0.655303
     5  Na   0.165984  -0.031541
     6  Na  -0.430111   0.644400
     7  Na   0.177331  -0.016984
 Sum of Mulliken charges =  -0.00000   1.00000

 Dipole moment (field-independent basis, Debye):
    X=             -0.1070    Y=              0.2121    Z=             -0.0278  Tot=              0.2392
 Quadrupole moment (field-independent basis, Debye-Ang):
   XX=            -54.0091   YY=            -60.9831   ZZ=            -76.4043
   XY=              0.2993   XZ=             -0.3046   YZ=             -0.3618

 Normal termination of Gaussian 16 at Wed Nov 29 03:24:59 2023.
