 Gaussian 16, Revision B.01,
 Gaussian 16:  ES64L-G16RevB.01 20-Dec-2017

 -------------------------
 #P B3LYP/6-311+g(d) force
 -------------------------

 -----
 DPGEN
 -----
 Symbolic Z-matrix:
 Charge =  0 Multiplicity = 2

                         Standard orientation:
 ---------------------------------------------------------------------
 Center     Atomic      Atomic             Coordinates (Angstroms)
 Number     Number       Type             X           Y           Z
 ---------------------------------------------------------------------
      1         11           0       -1.860568    2.374102    0.457135
      2         11           0       -0.054554   -0.774911    1.987155
      3         11           0       -3.002403   -1.469395    0.618285
      4         11           0        3.581382    0.163072    1.274119
      5         11           0        0.598425    1.988661   -1.205350
      6         11           0       -1.405746   -0.867650   -1.601880
      7         11           0        2.143463   -1.413878   -1.529465
 ---------------------------------------------------------------------

 SCF Done:  E(UB3LYP) =  -1136.12140421     A.U. after   22 cycles

 The electronic state is 2-A.
 Alpha  occ. eigenvalues --  -38.44741 -38.44597 -38.44580 -38.44297 -38.43656
 Alpha  occ. eigenvalues --  -38.43310 -38.42651  -2.20515  -2.20416  -2.20392
 Alpha  occ. eigenvalues --   -2.20243  -2.19550  -2.19168  -2.18527  -1.14180
 Alpha  occ. eigenvalues --   -1.14172  -1.14150  -1.14092  -1.14082  -1.14071
 Alpha  occ. eigenvalues --   -1.14048  -1.14035  -1.14025  -1.14007  -1.13892
 Alpha  occ. eigenvalues --   -1.13837  -1.13231  -1.13174  -1.13155  -1.12882
 Alpha  occ. eigenvalues --   -1.12819  -1.12789  -1.12208  -1.12197  -1.12145
 Alpha  occ. eigenvalues --   -0.18207  -0.13470  -0.11888  -0.11436
 Alpha virt. eigenvalues --   -0.06262  -0.05241  -0.04482  -0.03454  -0.03040
 Alpha virt. eigenvalues --   -0.02800  -0.01951  -0.01090  -0.00612  -0.00088
 Alpha virt. eigenvalues --    0.00094   0.00278   0.00508   0.00640   0.00729

  Beta  occ. eigenvalues --  -38.44720 -38.44549 -38.44537 -38.44240 -38.43657
  Beta  occ. eigenvalues --  -38.43290 -38.42646  -2.20475  -2.20328  -2.20316
  Beta  occ. eigenvalues --   -2.20140  -2.19553  -2.19131  -2.18522  -1.14149
  Beta  occ. eigenvalues --   -1.14141  -1.14126  -1.14034  -1.14015  -1.14010
  Beta  occ. eigenvalues --   -1.13995  -1.13970  -1.13955  -1.13941  -1.13824
  Beta  occ. eigenvalues --   -1.13764  -1.13218  -1.13173  -1.13153  -1.12861
  Beta  occ. eigenvalues --   -1.12787  -1.12764  -1.12207  -1.12166  -1.12146
  Beta  occ. eigenvalues --   -0.17451  -0.13288  -0.11275
  Beta virt. eigenvalues --   -0.08009  -0.05914  -0.04734  -0.04246  -0.03196
  Beta virt. eigenvalues --   -0.02427  -0.02207  -0.01793  -0.00694  -0.00508
  Beta virt. eigenvalues --    0.00066   0.00227   0.00320   0.00589   0.00717

 Mulliken charges and spin densities:
               1          2
     1  Na  -0.096252  -0.038078
     2  Na  -0.590411   0.450141
     3  Na   0.638970   0.122459
     4  Na   0.228497   0.025727
     5  Na  -0.129428   0.245056
     6  Na  -0.186174   0.094481
     7  Na   0.134797   0.100215
 Sum of Mulliken charges =  -0.00000   1.00000

 Dipole moment (field-independent basis, Debye):
    X=              0.6511    Y=             -0.2439    Z=              0.4369  Tot=              0.8212
 Quadrupole moment (field-independent basis, Debye-Ang):
   XX=            -55.1573   YY=            -75.8238   ZZ=            -66.2998
   XY=              0.4420   XZ=             -0.8407   YZ=              5.1277

 Normal termination of Gaussian 16 at Tue Dec  5 18:26:19 2023.
