 Gaussian 16, Revision B.01,
 Gaussian 16:  ES64L-G16RevB.01 20-Dec-2017

 -------------------------
 #P B3LYP/6-311+g(d) force
 -------------------------

 -----
 DPGEN
 -----
 Symbolic Z-matrix:
 Charge =  0 Multiplicity = 2

                         Standard orientation:
 ---------------------------------------------------------------------
 Center     Atomic      Atomic             Coordinates (Angstroms)
 Number     Number       Type             X           Y           Z
 ---------------------------------------------------------------------
      1         11           0       -3.031136    0.234930   -1.156031
      2         11           0        3.939788    0.255171   -0.625036
      3         11           0        2.152447   -1.869818    0.721352
      4         11           0        0.290448    0.201349   -1.450516
      5         11           0       -2.107416   -2.355661    0.047950
      6         11           0       -0.958378    0.418534    2.034265
      7         11           0       -0.285752    3.115493    0.428016
 ---------------------------------------------------------------------

 SCF Done:  E(UB3LYP) =  -1136.12568964     A.U. after   21 cycles

 The electronic state is 2-A.
 Alpha  occ. eigenvalues --  -38.44790 -38.44370 -38.44092 -38.44057 -38.43633
 Alpha  occ. eigenvalues --  -38.43308 -38.42645  -2.20599  -2.20258  -2.19951
 Alpha  occ. eigenvalues --   -2.19928  -2.19523  -2.19168  -2.18471  -1.14287
 Alpha  occ. eigenvalues --   -1.14247  -1.14233  -1.13949  -1.13926  -1.13866
 Alpha  occ. eigenvalues --   -1.13661  -1.13604  -1.13591  -1.13587  -1.13568
 Alpha  occ. eigenvalues --   -1.13557  -1.13189  -1.13165  -1.13144  -1.12852
 Alpha  occ. eigenvalues --   -1.12821  -1.12809  -1.12149  -1.12128  -1.12112
 Alpha  occ. eigenvalues --   -0.18090  -0.13687  -0.11657  -0.11002
 Alpha virt. eigenvalues --   -0.06384  -0.05056  -0.04409  -0.03292  -0.02774
 Alpha virt. eigenvalues --   -0.02704  -0.02287  -0.01073  -0.00599  -0.00252
 Alpha virt. eigenvalues --   -0.00015   0.00268   0.00559   0.00762   0.00865

  Beta  occ. eigenvalues --  -38.44782 -38.44328 -38.44079 -38.44018 -38.43554
  Beta  occ. eigenvalues --  -38.43305 -38.42646  -2.20582  -2.20183  -2.19904
  Beta  occ. eigenvalues --   -2.19882  -2.19377  -2.19168  -2.18474  -1.14278
  Beta  occ. eigenvalues --   -1.14234  -1.14220  -1.13903  -1.13861  -1.13813
  Beta  occ. eigenvalues --   -1.13611  -1.13576  -1.13572  -1.13546  -1.13526
  Beta  occ. eigenvalues --   -1.13515  -1.13093  -1.13068  -1.13032  -1.12853
  Beta  occ. eigenvalues --   -1.12818  -1.12784  -1.12143  -1.12127  -1.12113
  Beta  occ. eigenvalues --   -0.17383  -0.13496  -0.11443
  Beta virt. eigenvalues --   -0.07229  -0.06145  -0.04697  -0.04304  -0.02986
  Beta virt. eigenvalues --   -0.02234  -0.02076  -0.01771  -0.00902  -0.00439
  Beta virt. eigenvalues --   -0.00201   0.00119   0.00328   0.00684   0.00812

 Mulliken charges and spin densities:
               1          2
     1  Na   0.671695   0.127366
     2  Na   0.492146   0.007763
     3  Na  -0.469618   0.161894
     4  Na  -0.125285   0.140134
     5  Na  -0.223159   0.089215
     6  Na   0.006053   0.462914
     7  Na  -0.351833   0.010715
 Sum of Mulliken charges =  -0.00000   1.00000

 Dipole moment (field-independent basis, Debye):
    X=              0.7526    Y=              0.0774    Z=             -0.1382  Tot=              0.7691
 Quadrupole moment (field-independent basis, Debye-Ang):
   XX=            -54.6023   YY=            -68.5902   ZZ=            -71.7564
   XY=              1.1970   XZ=             -0.1224   YZ=             -3.2284

 Normal termination of Gaussian 16 at Thu Dec  7 08:48:21 2023.
