 Gaussian 16, Revision B.01,
 Gaussian 16:  ES64L-G16RevB.01 20-Dec-2017

 -------------------------
 #P B3LYP/6-311+g(d) force
 -------------------------

 -----
 DPGEN
 -----
 Symbolic Z-matrix:
 Charge =  0 Multiplicity = 2

                         Standard orientation:
 ---------------------------------------------------------------------
 Center     Atomic      Atomic             Coordinates (Angstroms)
 Number     Number       Type             X           Y           Z
 ---------------------------------------------------------------------
      1         11           0        1.414545    3.500923    0.069553
      2         11           0        1.893991    0.072255   -1.124645
      3         11           0       -2.347678    0.968482   -1.014172
      4         11           0        2.633806   -2.594419    0.562287
      5         11           0        0.359969    0.692011    1.641157
      6         11           0       -0.557464   -1.830214   -1.013069
      7         11           0       -3.397170   -0.809037    0.878890
 ---------------------------------------------------------------------

 SCF Done:  E(UB3LYP) =  -1136.12437547     A.U. after   20 cycles

 The electronic state is 2-A.
 Alpha  occ. eigenvalues --  -38.44385 -38.44253 -38.43945 -38.43655 -38.43571
 Alpha  occ. eigenvalues --  -38.43452 -38.43419  -2.20299  -2.20133  -2.19760
 Alpha  occ. eigenvalues --   -2.19534  -2.19497  -2.19371  -2.19241  -1.14181
 Alpha  occ. eigenvalues --   -1.13958  -1.13916  -1.13763  -1.13743  -1.13688
 Alpha  occ. eigenvalues --   -1.13447  -1.13408  -1.13396  -1.13286  -1.13246
 Alpha  occ. eigenvalues --   -1.13178  -1.13163  -1.13148  -1.13103  -1.13042
 Alpha  occ. eigenvalues --   -1.13022  -1.12942  -1.12909  -1.12904  -1.12871
 Alpha  occ. eigenvalues --   -0.18324  -0.13640  -0.12157  -0.10243
 Alpha virt. eigenvalues --   -0.06045  -0.05272  -0.04739  -0.03557  -0.02733
 Alpha virt. eigenvalues --   -0.02032  -0.01801  -0.01448  -0.00586  -0.00280
 Alpha virt. eigenvalues --    0.00262   0.00305   0.00678   0.00711   0.00795

  Beta  occ. eigenvalues --  -38.44365 -38.44234 -38.43933 -38.43606 -38.43533
  Beta  occ. eigenvalues --  -38.43455 -38.43390  -2.20267  -2.20099  -2.19738
  Beta  occ. eigenvalues --   -2.19445  -2.19432  -2.19322  -2.19248  -1.14156
  Beta  occ. eigenvalues --   -1.13925  -1.13885  -1.13738  -1.13707  -1.13664
  Beta  occ. eigenvalues --   -1.13433  -1.13383  -1.13382  -1.13237  -1.13184
  Beta  occ. eigenvalues --   -1.13116  -1.13098  -1.13083  -1.13050  -1.13008
  Beta  occ. eigenvalues --   -1.12955  -1.12923  -1.12905  -1.12900  -1.12872
  Beta  occ. eigenvalues --   -0.17604  -0.13445  -0.12033
  Beta virt. eigenvalues --   -0.06491  -0.05817  -0.05172  -0.04533  -0.02993
  Beta virt. eigenvalues --   -0.02264  -0.01672  -0.01487  -0.01135  -0.00398
  Beta virt. eigenvalues --   -0.00087   0.00289   0.00400   0.00719   0.00792

 Mulliken charges and spin densities:
               1          2
     1  Na   0.269307  -0.077714
     2  Na   0.179778   0.192826
     3  Na   0.125083   0.076370
     4  Na   0.053218  -0.060479
     5  Na  -0.653328   0.590422
     6  Na  -0.189221   0.259193
     7  Na   0.215162   0.019382
 Sum of Mulliken charges =  -0.00000   1.00000

 Dipole moment (field-independent basis, Debye):
    X=             -0.2870    Y=             -0.2012    Z=              0.0381  Tot=              0.3526
 Quadrupole moment (field-independent basis, Debye-Ang):
   XX=            -58.2146   YY=            -61.0350   ZZ=            -73.5071
   XY=             -0.9726   XZ=             -0.5938   YZ=             -4.0659

 Normal termination of Gaussian 16 at Tue Dec  5 10:47:46 2023.
