 Gaussian 16, Revision B.01,
 Gaussian 16:  ES64L-G16RevB.01 20-Dec-2017

 -------------------------
 #P B3LYP/6-311+g(d) force
 -------------------------

 -----
 DPGEN
 -----
 Symbolic Z-matrix:
 Charge =  0 Multiplicity = 2

                         Standard orientation:
 ---------------------------------------------------------------------
 Center     Atomic      Atomic             Coordinates (Angstroms)
 Number     Number       Type             X           Y           Z
 ---------------------------------------------------------------------
      1         11           0       -0.144308   -0.255333   -1.764462
      2         11           0        1.250699   -2.308679    0.133200
      3         11           0        0.751603    2.620337   -0.354478
      4         11           0       -2.282801   -1.793447   -0.218243
      5         11           0       -2.665293    1.466346    0.182735
      6         11           0        3.304234    0.214106    0.075849
      7         11           0       -0.214135    0.056669    1.945399
 ---------------------------------------------------------------------

 SCF Done:  E(UB3LYP) =  -1136.13598513     A.U. after   19 cycles

 The electronic state is 2-A.
 Alpha  occ. eigenvalues --  -38.44344 -38.43812 -38.43613 -38.43516 -38.43383
 Alpha  occ. eigenvalues --  -38.43057 -38.43028  -2.20164  -2.19680  -2.19553
 Alpha  occ. eigenvalues --   -2.19431  -2.19391  -2.18953  -2.18913  -1.13836
 Alpha  occ. eigenvalues --   -1.13827  -1.13806  -1.13380  -1.13350  -1.13319
 Alpha  occ. eigenvalues --   -1.13237  -1.13209  -1.13180  -1.13169  -1.13082
 Alpha  occ. eigenvalues --   -1.13063  -1.13046  -1.13021  -1.12969  -1.12639
 Alpha  occ. eigenvalues --   -1.12620  -1.12603  -1.12579  -1.12564  -1.12531
 Alpha  occ. eigenvalues --   -0.19123  -0.13350  -0.12270  -0.11027
 Alpha virt. eigenvalues --   -0.05899  -0.05005  -0.04159  -0.03370  -0.02879
 Alpha virt. eigenvalues --   -0.02645  -0.01700  -0.00962  -0.00156  -0.00063
 Alpha virt. eigenvalues --    0.00025   0.00350   0.00806   0.00925   0.00945

  Beta  occ. eigenvalues --  -38.44346 -38.43806 -38.43526 -38.43506 -38.43304
  Beta  occ. eigenvalues --  -38.43048 -38.43019  -2.20169  -2.19672  -2.19417
  Beta  occ. eigenvalues --   -2.19393  -2.19249  -2.18941  -2.18900  -1.13843
  Beta  occ. eigenvalues --   -1.13817  -1.13809  -1.13368  -1.13327  -1.13308
  Beta  occ. eigenvalues --   -1.13178  -1.13124  -1.13071  -1.13061  -1.13046
  Beta  occ. eigenvalues --   -1.13029  -1.12973  -1.12925  -1.12884  -1.12630
  Beta  occ. eigenvalues --   -1.12590  -1.12579  -1.12556  -1.12552  -1.12526
  Beta  occ. eigenvalues --   -0.18368  -0.13111  -0.11991
  Beta virt. eigenvalues --   -0.07071  -0.05847  -0.05010  -0.04149  -0.02565
  Beta virt. eigenvalues --   -0.02059  -0.01622  -0.01572  -0.00913  -0.00182
  Beta virt. eigenvalues --   -0.00067   0.00110   0.00368   0.00859   0.00924

 Mulliken charges and spin densities:
               1          2
     1  Na  -0.429611   0.606562
     2  Na   0.324533  -0.049597
     3  Na   0.076100  -0.087856
     4  Na   0.495851  -0.025562
     5  Na   0.161497  -0.036461
     6  Na  -0.113877  -0.095769
     7  Na  -0.514493   0.688682
 Sum of Mulliken charges =  -0.00000   1.00000

 Dipole moment (field-independent basis, Debye):
    X=              0.0895    Y=              0.1109    Z=              0.1538  Tot=              0.2097
 Quadrupole moment (field-independent basis, Debye-Ang):
   XX=            -53.7305   YY=            -66.9954   ZZ=            -73.0266
   XY=              0.1730   XZ=              0.2197   YZ=             -0.4782

 Normal termination of Gaussian 16 at Fri Dec  8 03:12:06 2023.
