 Gaussian 16, Revision B.01,
 Gaussian 16:  ES64L-G16RevB.01 20-Dec-2017

 -------------------------
 #P B3LYP/6-311+g(d) force
 -------------------------

 -----
 DPGEN
 -----
 Symbolic Z-matrix:
 Charge =  0 Multiplicity = 2

                         Standard orientation:
 ---------------------------------------------------------------------
 Center     Atomic      Atomic             Coordinates (Angstroms)
 Number     Number       Type             X           Y           Z
 ---------------------------------------------------------------------
      1         11           0        2.291456    1.583208    1.108711
      2         11           0       -2.588796    1.770818   -0.018508
      3         11           0        2.895407   -2.046743   -0.387147
      4         11           0        0.236531   -0.765823    1.728473
      5         11           0       -3.403220   -1.353277    0.369924
      6         11           0        0.952591    2.072442   -1.266761
      7         11           0       -0.383969   -1.260625   -1.534691
 ---------------------------------------------------------------------

 SCF Done:  E(UB3LYP) =  -1136.12218945     A.U. after   21 cycles

 The electronic state is 2-A.
 Alpha  occ. eigenvalues --  -38.44636 -38.44412 -38.44268 -38.43959 -38.43913
 Alpha  occ. eigenvalues --  -38.43653 -38.43142  -2.20428  -2.20231  -2.20048
 Alpha  occ. eigenvalues --   -2.19849  -2.19832  -2.19534  -2.19044  -1.14107
 Alpha  occ. eigenvalues --   -1.14099  -1.14078  -1.13894  -1.13879  -1.13865
 Alpha  occ. eigenvalues --   -1.13718  -1.13709  -1.13690  -1.13639  -1.13583
 Alpha  occ. eigenvalues --   -1.13533  -1.13457  -1.13437  -1.13401  -1.13227
 Alpha  occ. eigenvalues --   -1.13186  -1.13130  -1.12712  -1.12677  -1.12642
 Alpha  occ. eigenvalues --   -0.18232  -0.13646  -0.11669  -0.10942
 Alpha virt. eigenvalues --   -0.06233  -0.05855  -0.04019  -0.03361  -0.02937
 Alpha virt. eigenvalues --   -0.02527  -0.02024  -0.01518  -0.00346  -0.00228
 Alpha virt. eigenvalues --    0.00116   0.00271   0.00533   0.00654   0.00711

  Beta  occ. eigenvalues --  -38.44634 -38.44405 -38.44265 -38.43899 -38.43886
  Beta  occ. eigenvalues --  -38.43596 -38.43115  -2.20426  -2.20218  -2.20044
  Beta  occ. eigenvalues --   -2.19785  -2.19741  -2.19430  -2.18996  -1.14101
  Beta  occ. eigenvalues --   -1.14095  -1.14071  -1.13878  -1.13871  -1.13858
  Beta  occ. eigenvalues --   -1.13713  -1.13693  -1.13689  -1.13605  -1.13515
  Beta  occ. eigenvalues --   -1.13452  -1.13396  -1.13384  -1.13349  -1.13161
  Beta  occ. eigenvalues --   -1.13097  -1.13057  -1.12676  -1.12638  -1.12605
  Beta  occ. eigenvalues --   -0.17519  -0.13436  -0.11493
  Beta virt. eigenvalues --   -0.07047  -0.06125  -0.05802  -0.03464  -0.03109
  Beta virt. eigenvalues --   -0.02336  -0.01970  -0.01549  -0.01374  -0.00308
  Beta virt. eigenvalues --   -0.00019   0.00127   0.00313   0.00609   0.00724

 Mulliken charges and spin densities:
               1          2
     1  Na   0.251038  -0.034705
     2  Na  -0.213411  -0.031230
     3  Na   0.025070  -0.064316
     4  Na  -0.227003   0.486017
     5  Na   0.536999   0.036306
     6  Na  -0.000075   0.126505
     7  Na  -0.372618   0.481423
 Sum of Mulliken charges =  -0.00000   1.00000

 Dipole moment (field-independent basis, Debye):
    X=             -0.5868    Y=             -0.5136    Z=              0.1294  Tot=              0.7905
 Quadrupole moment (field-independent basis, Debye-Ang):
   XX=            -51.6270   YY=            -70.7842   ZZ=            -71.9971
   XY=             -0.8711   XZ=             -0.8956   YZ=              0.4094

 Normal termination of Gaussian 16 at Tue Dec  5 21:28:23 2023.
