 Gaussian 16, Revision B.01,
 Gaussian 16:  ES64L-G16RevB.01 20-Dec-2017

 -------------------------
 #P B3LYP/6-311+g(d) force
 -------------------------

 -----
 DPGEN
 -----
 Symbolic Z-matrix:
 Charge =  0 Multiplicity = 2

                         Standard orientation:
 ---------------------------------------------------------------------
 Center     Atomic      Atomic             Coordinates (Angstroms)
 Number     Number       Type             X           Y           Z
 ---------------------------------------------------------------------
      1         11           0       -1.942340   -2.633983   -0.500064
      2         11           0       -3.979750   -0.614030    0.371066
      3         11           0        2.270252   -1.734147    1.787403
      4         11           0        1.079005    3.105284   -1.435790
      5         11           0       -2.480623    3.069984    0.555588
      6         11           0        1.771434   -3.017260   -1.277056
      7         11           0        3.282023    1.824152    0.498853
 ---------------------------------------------------------------------

 SCF Done:  E(UB3LYP) =  -1136.10283954     A.U. after   22 cycles

 The electronic state is 2-A.
 Alpha  occ. eigenvalues --  -38.45559 -38.45217 -38.44666 -38.44054 -38.43904
 Alpha  occ. eigenvalues --  -38.43866 -38.43770  -2.21318  -2.20988  -2.20432
 Alpha  occ. eigenvalues --   -2.19854  -2.19683  -2.19674  -2.19599  -1.14987
 Alpha  occ. eigenvalues --   -1.14972  -1.14961  -1.14654  -1.14640  -1.14622
 Alpha  occ. eigenvalues --   -1.14110  -1.14108  -1.14078  -1.13513  -1.13503
 Alpha  occ. eigenvalues --   -1.13486  -1.13466  -1.13338  -1.13330  -1.13314
 Alpha  occ. eigenvalues --   -1.13307  -1.13296  -1.13252  -1.13232  -1.13174
 Alpha  occ. eigenvalues --   -0.15617  -0.13364  -0.13249  -0.10259
 Alpha virt. eigenvalues --   -0.07667  -0.05262  -0.04489  -0.03682  -0.03167
 Alpha virt. eigenvalues --   -0.02252  -0.02016  -0.01610  -0.01350  -0.00990
 Alpha virt. eigenvalues --   -0.00771   0.00008   0.00069   0.00273   0.00453

  Beta  occ. eigenvalues --  -38.45546 -38.45208 -38.44665 -38.44015 -38.43859
  Beta  occ. eigenvalues --  -38.43794 -38.43727  -2.21295  -2.20972  -2.20437
  Beta  occ. eigenvalues --   -2.19784  -2.19667  -2.19522  -2.19477  -1.14971
  Beta  occ. eigenvalues --   -1.14958  -1.14940  -1.14642  -1.14630  -1.14607
  Beta  occ. eigenvalues --   -1.14114  -1.14110  -1.14056  -1.13464  -1.13458
  Beta  occ. eigenvalues --   -1.13435  -1.13430  -1.13337  -1.13291  -1.13202
  Beta  occ. eigenvalues --   -1.13191  -1.13184  -1.13171  -1.13163  -1.13118
  Beta  occ. eigenvalues --   -0.15301  -0.12769  -0.12442
  Beta virt. eigenvalues --   -0.07765  -0.06915  -0.05079  -0.04132  -0.03501
  Beta virt. eigenvalues --   -0.02885  -0.01860  -0.01641  -0.01369  -0.01276
  Beta virt. eigenvalues --   -0.00870  -0.00384   0.00026   0.00174   0.00491

 Mulliken charges and spin densities:
               1          2
     1  Na  -0.390824   0.174541
     2  Na   0.341732  -0.046006
     3  Na   0.166907   0.053615
     4  Na  -0.019472  -0.048627
     5  Na  -0.202317   0.590077
     6  Na   0.154400   0.097906
     7  Na  -0.050426   0.178495
 Sum of Mulliken charges =  -0.00000   1.00000

 Dipole moment (field-independent basis, Debye):
    X=              1.7986    Y=             -1.1978    Z=             -0.0392  Tot=              2.1613
 Quadrupole moment (field-independent basis, Debye-Ang):
   XX=            -72.2650   YY=            -74.2175   ZZ=            -60.0660
   XY=             -3.3697   XZ=              0.3709   YZ=              0.6316

 Normal termination of Gaussian 16 at Sun Dec  3 21:20:54 2023.
