 Gaussian 16, Revision B.01,
 Gaussian 16:  ES64L-G16RevB.01 20-Dec-2017

 -------------------------
 #P B3LYP/6-311+g(d) force
 -------------------------

 -----
 DPGEN
 -----
 Symbolic Z-matrix:
 Charge =  0 Multiplicity = 2

                         Standard orientation:
 ---------------------------------------------------------------------
 Center     Atomic      Atomic             Coordinates (Angstroms)
 Number     Number       Type             X           Y           Z
 ---------------------------------------------------------------------
      1         11           0       -2.388047   -0.193768    0.749863
      2         11           0       -3.941625   -2.656760   -0.553858
      3         11           0        2.891371    0.123513    1.206912
      4         11           0       -3.019914    2.658881   -0.680250
      5         11           0        5.999098   -0.324540   -1.001180
      6         11           0        0.529902   -2.143308    0.149118
      7         11           0       -0.070786    2.535983    0.129396
 ---------------------------------------------------------------------

 SCF Done:  E(UB3LYP) =  -1136.11590562     A.U. after   18 cycles

 The electronic state is 2-A.
 Alpha  occ. eigenvalues --  -38.44897 -38.44777 -38.44156 -38.44091 -38.43998
 Alpha  occ. eigenvalues --  -38.43839 -38.43614  -2.20681  -2.20557  -2.19987
 Alpha  occ. eigenvalues --   -2.19875  -2.19857  -2.19617  -2.19511  -1.14313
 Alpha  occ. eigenvalues --   -1.14313  -1.14280  -1.14238  -1.14234  -1.14152
 Alpha  occ. eigenvalues --   -1.13707  -1.13664  -1.13640  -1.13557  -1.13533
 Alpha  occ. eigenvalues --   -1.13525  -1.13504  -1.13499  -1.13447  -1.13300
 Alpha  occ. eigenvalues --   -1.13293  -1.13262  -1.13204  -1.13201  -1.13109
 Alpha  occ. eigenvalues --   -0.16623  -0.13727  -0.12270  -0.11177
 Alpha virt. eigenvalues --   -0.06190  -0.05253  -0.05145  -0.03749  -0.02574
 Alpha virt. eigenvalues --   -0.02264  -0.02019  -0.01659  -0.01148  -0.00694
 Alpha virt. eigenvalues --   -0.00586  -0.00248   0.00017   0.00242   0.00598

  Beta  occ. eigenvalues --  -38.44760 -38.44743 -38.44152 -38.44074 -38.43988
  Beta  occ. eigenvalues --  -38.43847 -38.43609  -2.20496  -2.20425  -2.19980
  Beta  occ. eigenvalues --   -2.19843  -2.19839  -2.19636  -2.19506  -1.14195
  Beta  occ. eigenvalues --   -1.14189  -1.14139  -1.14139  -1.14114  -1.14110
  Beta  occ. eigenvalues --   -1.13702  -1.13659  -1.13629  -1.13533  -1.13512
  Beta  occ. eigenvalues --   -1.13511  -1.13487  -1.13484  -1.13437  -1.13318
  Beta  occ. eigenvalues --   -1.13311  -1.13235  -1.13200  -1.13175  -1.13108
  Beta  occ. eigenvalues --   -0.16283  -0.12895  -0.12146
  Beta virt. eigenvalues --   -0.07497  -0.05895  -0.05096  -0.04681  -0.03605
  Beta virt. eigenvalues --   -0.02333  -0.01997  -0.01555  -0.01378  -0.00868
  Beta virt. eigenvalues --   -0.00476  -0.00156   0.00017   0.00138   0.00435

 Mulliken charges and spin densities:
               1          2
     1  Na  -0.737637  -0.048237
     2  Na   0.260257   0.119780
     3  Na  -0.048111  -0.188249
     4  Na   0.663629   0.144885
     5  Na  -0.003405   0.719650
     6  Na   0.020871   0.204845
     7  Na  -0.155605   0.047325
 Sum of Mulliken charges =  -0.00000   1.00000

 Dipole moment (field-independent basis, Debye):
    X=             -0.8359    Y=              0.0471    Z=             -0.6703  Tot=              1.0725
 Quadrupole moment (field-independent basis, Debye-Ang):
   XX=            -65.3287   YY=            -65.4474   ZZ=            -69.1555
   XY=             -0.0049   XZ=              2.9978   YZ=              2.0405

 Normal termination of Gaussian 16 at Wed Nov 29 02:41:51 2023.
