 Gaussian 16, Revision B.01,
 Gaussian 16:  ES64L-G16RevB.01 20-Dec-2017

 -------------------------
 #P B3LYP/6-311+g(d) force
 -------------------------

 -----
 DPGEN
 -----
 Symbolic Z-matrix:
 Charge =  0 Multiplicity = 2

                         Standard orientation:
 ---------------------------------------------------------------------
 Center     Atomic      Atomic             Coordinates (Angstroms)
 Number     Number       Type             X           Y           Z
 ---------------------------------------------------------------------
      1         11           0        2.747514    2.109423    0.073311
      2         11           0        3.216160   -1.222343   -0.106876
      3         11           0       -2.941374    1.685401    0.180687
      4         11           0        0.000771    1.091988   -1.350125
      5         11           0        0.096174   -0.301798    1.930178
      6         11           0        0.114153   -2.315631   -0.556246
      7         11           0       -3.233399   -1.047039   -0.170929
 ---------------------------------------------------------------------

 SCF Done:  E(UB3LYP) =  -1136.11721528     A.U. after   24 cycles

 The electronic state is 2-A.
 Alpha  occ. eigenvalues --  -38.45341 -38.45300 -38.44708 -38.43818 -38.43816
 Alpha  occ. eigenvalues --  -38.43473 -38.42414  -2.21172  -2.21157  -2.20587
 Alpha  occ. eigenvalues --   -2.19715  -2.19640  -2.19364  -2.18319  -1.15011
 Alpha  occ. eigenvalues --   -1.14833  -1.14807  -1.14803  -1.14803  -1.14782
 Alpha  occ. eigenvalues --   -1.14240  -1.14221  -1.14197  -1.13423  -1.13388
 Alpha  occ. eigenvalues --   -1.13363  -1.13300  -1.13287  -1.13264  -1.13058
 Alpha  occ. eigenvalues --   -1.12993  -1.12964  -1.12016  -1.11973  -1.11950
 Alpha  occ. eigenvalues --   -0.18578  -0.14321  -0.11583  -0.10189
 Alpha virt. eigenvalues --   -0.07205  -0.06029  -0.03719  -0.03532  -0.02795
 Alpha virt. eigenvalues --   -0.02402  -0.01985  -0.01608  -0.00728  -0.00141
 Alpha virt. eigenvalues --   -0.00044   0.00192   0.00546   0.00617   0.00652

  Beta  occ. eigenvalues --  -38.45338 -38.45296 -38.44704 -38.43817 -38.43776
  Beta  occ. eigenvalues --  -38.43380 -38.42396  -2.21166  -2.21155  -2.20584
  Beta  occ. eigenvalues --   -2.19644  -2.19641  -2.19191  -2.18289  -1.15011
  Beta  occ. eigenvalues --   -1.14820  -1.14805  -1.14801  -1.14784  -1.14774
  Beta  occ. eigenvalues --   -1.14242  -1.14217  -1.14174  -1.13373  -1.13354
  Beta  occ. eigenvalues --   -1.13311  -1.13298  -1.13274  -1.13238  -1.12942
  Beta  occ. eigenvalues --   -1.12871  -1.12841  -1.11999  -1.11934  -1.11919
  Beta  occ. eigenvalues --   -0.17877  -0.14147  -0.11382
  Beta virt. eigenvalues --   -0.07087  -0.06342  -0.06004  -0.03520  -0.02945
  Beta virt. eigenvalues --   -0.02668  -0.01867  -0.01446  -0.00995  -0.00738
  Beta virt. eigenvalues --   -0.00040   0.00102   0.00231   0.00615   0.00675

 Mulliken charges and spin densities:
               1          2
     1  Na   0.301278  -0.019303
     2  Na   0.155121   0.017166
     3  Na   0.652215   0.081988
     4  Na  -0.558183   0.170003
     5  Na  -0.553985   0.559467
     6  Na   0.021917   0.153350
     7  Na  -0.018363   0.037328
 Sum of Mulliken charges =  -0.00000   1.00000

 Dipole moment (field-independent basis, Debye):
    X=              0.0276    Y=             -0.1176    Z=              0.1407  Tot=              0.1854
 Quadrupole moment (field-independent basis, Debye-Ang):
   XX=            -45.0736   YY=            -70.6809   ZZ=            -77.3705
   XY=             -0.9067   XZ=              0.3043   YZ=              1.9759

 Normal termination of Gaussian 16 at Tue Dec  5 22:08:17 2023.
