 Gaussian 16, Revision B.01,
 Gaussian 16:  ES64L-G16RevB.01 20-Dec-2017

 -------------------------
 #P B3LYP/6-311+g(d) force
 -------------------------

 -----
 DPGEN
 -----
 Symbolic Z-matrix:
 Charge =  0 Multiplicity = 2

                         Standard orientation:
 ---------------------------------------------------------------------
 Center     Atomic      Atomic             Coordinates (Angstroms)
 Number     Number       Type             X           Y           Z
 ---------------------------------------------------------------------
      1         11           0       -2.879705   -0.945186   -0.334037
      2         11           0        2.966995   -0.907124   -0.414428
      3         11           0       -0.045195    0.049201   -1.840198
      4         11           0       -1.775973    2.411995   -0.126409
      5         11           0       -0.482435   -0.061920    1.927674
      6         11           0        2.154234    2.035948    0.402029
      7         11           0        0.062079   -2.582914    0.385369
 ---------------------------------------------------------------------

 SCF Done:  E(UB3LYP) =  -1136.13631726     A.U. after   20 cycles

 The electronic state is 2-A.
 Alpha  occ. eigenvalues --  -38.44059 -38.43802 -38.43717 -38.43612 -38.43577
 Alpha  occ. eigenvalues --  -38.43393 -38.42854  -2.19935  -2.19664  -2.19573
 Alpha  occ. eigenvalues --   -2.19551  -2.19526  -2.19236  -2.18780  -1.13622
 Alpha  occ. eigenvalues --   -1.13606  -1.13561  -1.13380  -1.13336  -1.13309
 Alpha  occ. eigenvalues --   -1.13279  -1.13226  -1.13215  -1.13198  -1.13194
 Alpha  occ. eigenvalues --   -1.13177  -1.13170  -1.13159  -1.13146  -1.12910
 Alpha  occ. eigenvalues --   -1.12902  -1.12864  -1.12485  -1.12430  -1.12388
 Alpha  occ. eigenvalues --   -0.18952  -0.13319  -0.12203  -0.11136
 Alpha virt. eigenvalues --   -0.05628  -0.05192  -0.04210  -0.03441  -0.02954
 Alpha virt. eigenvalues --   -0.02771  -0.01532  -0.00974  -0.00238  -0.00070
 Alpha virt. eigenvalues --    0.00058   0.00375   0.00808   0.00897   0.00935

  Beta  occ. eigenvalues --  -38.44049 -38.43797 -38.43711 -38.43525 -38.43502
  Beta  occ. eigenvalues --  -38.43390 -38.42841  -2.19921  -2.19658  -2.19543
  Beta  occ. eigenvalues --   -2.19412  -2.19389  -2.19233  -2.18762  -1.13608
  Beta  occ. eigenvalues --   -1.13577  -1.13549  -1.13378  -1.13318  -1.13299
  Beta  occ. eigenvalues --   -1.13202  -1.13192  -1.13173  -1.13168  -1.13117
  Beta  occ. eigenvalues --   -1.13090  -1.13066  -1.13064  -1.13045  -1.12900
  Beta  occ. eigenvalues --   -1.12888  -1.12857  -1.12465  -1.12392  -1.12379
  Beta  occ. eigenvalues --   -0.18200  -0.13086  -0.11932
  Beta virt. eigenvalues --   -0.07198  -0.05569  -0.05163  -0.04176  -0.02688
  Beta virt. eigenvalues --   -0.02152  -0.01717  -0.01432  -0.00912  -0.00235
  Beta virt. eigenvalues --   -0.00064   0.00121   0.00399   0.00882   0.00897

 Mulliken charges and spin densities:
               1          2
     1  Na   0.271133  -0.043686
     2  Na   0.075071  -0.012642
     3  Na  -0.212502   0.591364
     4  Na  -0.083228  -0.112295
     5  Na  -0.209836   0.627340
     6  Na  -0.075946  -0.053522
     7  Na   0.235308   0.003440
 Sum of Mulliken charges =  -0.00000   1.00000

 Dipole moment (field-independent basis, Debye):
    X=             -0.1728    Y=              0.1240    Z=             -0.0985  Tot=              0.2344
 Quadrupole moment (field-independent basis, Debye-Ang):
   XX=            -56.2068   YY=            -66.0390   ZZ=            -72.2319
   XY=              0.0047   XZ=              0.7090   YZ=              1.0016

 Normal termination of Gaussian 16 at Thu Dec  7 21:30:17 2023.
