 Gaussian 16, Revision B.01,
 Gaussian 16:  ES64L-G16RevB.01 20-Dec-2017

 -------------------------
 #P B3LYP/6-311+g(d) force
 -------------------------

 -----
 DPGEN
 -----
 Symbolic Z-matrix:
 Charge =  0 Multiplicity = 2

                         Standard orientation:
 ---------------------------------------------------------------------
 Center     Atomic      Atomic             Coordinates (Angstroms)
 Number     Number       Type             X           Y           Z
 ---------------------------------------------------------------------
      1         11           0       -3.857726   -0.311585   -0.871062
      2         11           0        4.130801   -0.575475   -0.133026
      3         11           0       -1.586782   -2.717938    0.752758
      4         11           0       -0.993130    0.810733    1.818097
      5         11           0        1.356786   -2.080806   -1.011776
      6         11           0       -1.300406    2.951502   -0.791639
      7         11           0        2.250458    1.923569    0.236648
 ---------------------------------------------------------------------

 SCF Done:  E(UB3LYP) =  -1136.12053100     A.U. after   21 cycles

 The electronic state is 2-A.
 Alpha  occ. eigenvalues --  -38.44841 -38.44571 -38.44377 -38.44255 -38.44071
 Alpha  occ. eigenvalues --  -38.43880 -38.43475  -2.20624  -2.20341  -2.20188
 Alpha  occ. eigenvalues --   -2.20075  -2.19864  -2.19730  -2.19280  -1.14315
 Alpha  occ. eigenvalues --   -1.14293  -1.14259  -1.14030  -1.14015  -1.13969
 Alpha  occ. eigenvalues --   -1.13883  -1.13865  -1.13829  -1.13749  -1.13735
 Alpha  occ. eigenvalues --   -1.13684  -1.13525  -1.13491  -1.13483  -1.13387
 Alpha  occ. eigenvalues --   -1.13371  -1.13367  -1.12947  -1.12942  -1.12924
 Alpha  occ. eigenvalues --   -0.16904  -0.13836  -0.12479  -0.10171
 Alpha virt. eigenvalues --   -0.06912  -0.05794  -0.04488  -0.03463  -0.03197
 Alpha virt. eigenvalues --   -0.02353  -0.01830  -0.01586  -0.00917  -0.00824
 Alpha virt. eigenvalues --   -0.00265   0.00157   0.00256   0.00540   0.00661

  Beta  occ. eigenvalues --  -38.44839 -38.44572 -38.44373 -38.44210 -38.43978
  Beta  occ. eigenvalues --  -38.43857 -38.43460  -2.20622  -2.20345  -2.20182
  Beta  occ. eigenvalues --   -2.19993  -2.19690  -2.19687  -2.19255  -1.14316
  Beta  occ. eigenvalues --   -1.14292  -1.14244  -1.14035  -1.14019  -1.13950
  Beta  occ. eigenvalues --   -1.13880  -1.13863  -1.13805  -1.13690  -1.13677
  Beta  occ. eigenvalues --   -1.13625  -1.13406  -1.13373  -1.13363  -1.13359
  Beta  occ. eigenvalues --   -1.13343  -1.13337  -1.12932  -1.12916  -1.12900
  Beta  occ. eigenvalues --   -0.16444  -0.13301  -0.12307
  Beta virt. eigenvalues --   -0.06754  -0.06603  -0.05639  -0.04224  -0.02949
  Beta virt. eigenvalues --   -0.02846  -0.02085  -0.01538  -0.01120  -0.00830
  Beta virt. eigenvalues --   -0.00686   0.00032   0.00277   0.00445   0.00649

 Mulliken charges and spin densities:
               1          2
     1  Na  -0.147080   0.541509
     2  Na   0.552585   0.115316
     3  Na   0.098295   0.087550
     4  Na   0.118771   0.204787
     5  Na  -0.405603   0.011643
     6  Na   0.055986   0.049864
     7  Na  -0.272954  -0.010670
 Sum of Mulliken charges =  -0.00000   1.00000

 Dipole moment (field-independent basis, Debye):
    X=              0.9548    Y=              0.2654    Z=              0.1225  Tot=              0.9986
 Quadrupole moment (field-independent basis, Debye-Ang):
   XX=            -67.7581   YY=            -65.8388   ZZ=            -68.8816
   XY=              1.1230   XZ=             -1.3263   YZ=             -1.1489

 Normal termination of Gaussian 16 at Sun Dec  3 13:49:06 2023.
