 Gaussian 16, Revision B.01,
 Gaussian 16:  ES64L-G16RevB.01 20-Dec-2017

 -------------------------
 #P B3LYP/6-311+g(d) force
 -------------------------

 -----
 DPGEN
 -----
 Symbolic Z-matrix:
 Charge =  0 Multiplicity = 2

                         Standard orientation:
 ---------------------------------------------------------------------
 Center     Atomic      Atomic             Coordinates (Angstroms)
 Number     Number       Type             X           Y           Z
 ---------------------------------------------------------------------
      1         11           0       -3.405668    0.416431    0.236259
      2         11           0       -0.057056   -0.108018    2.073852
      3         11           0        1.040761   -0.317231   -1.552506
      4         11           0       -1.354025   -2.385404   -0.869202
      5         11           0        2.628984    2.133135   -0.024022
      6         11           0        1.997521   -2.413448    0.540833
      7         11           0       -0.850517    2.674534   -0.405214
 ---------------------------------------------------------------------

 SCF Done:  E(UB3LYP) =  -1136.13430323     A.U. after   18 cycles

 The electronic state is 2-A.
 Alpha  occ. eigenvalues --  -38.43988 -38.43913 -38.43879 -38.43826 -38.43799
 Alpha  occ. eigenvalues --  -38.43653 -38.43268  -2.19844  -2.19770  -2.19688
 Alpha  occ. eigenvalues --   -2.19644  -2.19642  -2.19447  -2.19230  -1.13548
 Alpha  occ. eigenvalues --   -1.13516  -1.13468  -1.13432  -1.13402  -1.13383
 Alpha  occ. eigenvalues --   -1.13375  -1.13352  -1.13345  -1.13336  -1.13332
 Alpha  occ. eigenvalues --   -1.13314  -1.13292  -1.13258  -1.13253  -1.13116
 Alpha  occ. eigenvalues --   -1.13102  -1.13092  -1.12898  -1.12894  -1.12834
 Alpha  occ. eigenvalues --   -0.18209  -0.12789  -0.12564  -0.10850
 Alpha virt. eigenvalues --   -0.05611  -0.05355  -0.04788  -0.03260  -0.02985
 Alpha virt. eigenvalues --   -0.02643  -0.01452  -0.01363  -0.00518  -0.00280
 Alpha virt. eigenvalues --   -0.00005   0.00339   0.00788   0.00813   0.00850

  Beta  occ. eigenvalues --  -38.43974 -38.43878 -38.43823 -38.43819 -38.43771
  Beta  occ. eigenvalues --  -38.43655 -38.43220  -2.19822  -2.19690  -2.19638
  Beta  occ. eigenvalues --   -2.19598  -2.19591  -2.19452  -2.19143  -1.13535
  Beta  occ. eigenvalues --   -1.13477  -1.13445  -1.13369  -1.13349  -1.13330
  Beta  occ. eigenvalues --   -1.13327  -1.13318  -1.13308  -1.13305  -1.13283
  Beta  occ. eigenvalues --   -1.13257  -1.13252  -1.13247  -1.13223  -1.13116
  Beta  occ. eigenvalues --   -1.13100  -1.13096  -1.12841  -1.12827  -1.12767
  Beta  occ. eigenvalues --   -0.17502  -0.12584  -0.12366
  Beta virt. eigenvalues --   -0.06924  -0.05578  -0.05242  -0.04696  -0.02528
  Beta virt. eigenvalues --   -0.02356  -0.01644  -0.01387  -0.01245  -0.00444
  Beta virt. eigenvalues --   -0.00300   0.00134   0.00394   0.00803   0.00861

 Mulliken charges and spin densities:
               1          2
     1  Na   0.109635  -0.020341
     2  Na  -0.255668   0.659798
     3  Na   0.458665   0.256692
     4  Na  -0.269532   0.088066
     5  Na   0.179960  -0.015747
     6  Na   0.111201   0.054388
     7  Na  -0.334261  -0.022856
 Sum of Mulliken charges =  -0.00000   1.00000

 Dipole moment (field-independent basis, Debye):
    X=              0.2738    Y=             -0.0408    Z=              0.2126  Tot=              0.3491
 Quadrupole moment (field-independent basis, Debye-Ang):
   XX=            -58.4844   YY=            -62.2220   ZZ=            -73.6518
   XY=             -0.0495   XZ=              1.8007   YZ=             -0.1676

 Normal termination of Gaussian 16 at Fri Dec  8 03:31:23 2023.
