 Gaussian 16, Revision B.01,
 Gaussian 16:  ES64L-G16RevB.01 20-Dec-2017

 -------------------------
 #P B3LYP/6-311+g(d) force
 -------------------------

 -----
 DPGEN
 -----
 Symbolic Z-matrix:
 Charge =  0 Multiplicity = 2

                         Standard orientation:
 ---------------------------------------------------------------------
 Center     Atomic      Atomic             Coordinates (Angstroms)
 Number     Number       Type             X           Y           Z
 ---------------------------------------------------------------------
      1         11           0       -0.207060    1.755847   -0.825576
      2         11           0       -2.331928    3.769202    0.362759
      3         11           0       -3.470073   -0.137257   -0.175364
      4         11           0       -2.615820   -3.809514    0.079322
      5         11           0        0.250971   -1.483777   -0.030438
      6         11           0        2.899670    0.154791    1.143632
      7         11           0        5.474241   -0.249291   -0.554335
 ---------------------------------------------------------------------

 SCF Done:  E(UB3LYP) =  -1136.11974212     A.U. after   20 cycles

 The electronic state is 2-A.
 Alpha  occ. eigenvalues --  -38.45148 -38.44160 -38.44108 -38.44107 -38.44013
 Alpha  occ. eigenvalues --  -38.43747 -38.43567  -2.20906  -2.19959  -2.19934
 Alpha  occ. eigenvalues --   -2.19876  -2.19871  -2.19612  -2.19415  -1.14613
 Alpha  occ. eigenvalues --   -1.14590  -1.14481  -1.13675  -1.13617  -1.13596
 Alpha  occ. eigenvalues --   -1.13592  -1.13567  -1.13561  -1.13556  -1.13544
 Alpha  occ. eigenvalues --   -1.13543  -1.13537  -1.13494  -1.13458  -1.13308
 Alpha  occ. eigenvalues --   -1.13290  -1.13208  -1.13091  -1.13080  -1.13049
 Alpha  occ. eigenvalues --   -0.16766  -0.13786  -0.12493  -0.10645
 Alpha virt. eigenvalues --   -0.06336  -0.05508  -0.04810  -0.03492  -0.02848
 Alpha virt. eigenvalues --   -0.02346  -0.01851  -0.01659  -0.01047  -0.00841
 Alpha virt. eigenvalues --   -0.00504   0.00030   0.00323   0.00402   0.00498

  Beta  occ. eigenvalues --  -38.45122 -38.44146 -38.44099 -38.44009 -38.43989
  Beta  occ. eigenvalues --  -38.43699 -38.43567  -2.20857  -2.19932  -2.19856
  Beta  occ. eigenvalues --   -2.19836  -2.19750  -2.19528  -2.19424  -1.14580
  Beta  occ. eigenvalues --   -1.14555  -1.14443  -1.13655  -1.13599  -1.13571
  Beta  occ. eigenvalues --   -1.13541  -1.13534  -1.13523  -1.13516  -1.13484
  Beta  occ. eigenvalues --   -1.13479  -1.13436  -1.13430  -1.13414  -1.13255
  Beta  occ. eigenvalues --   -1.13229  -1.13152  -1.13096  -1.13083  -1.12998
  Beta  occ. eigenvalues --   -0.16144  -0.13013  -0.12391
  Beta virt. eigenvalues --   -0.07224  -0.06156  -0.05103  -0.04477  -0.03147
  Beta virt. eigenvalues --   -0.02568  -0.02236  -0.01715  -0.01374  -0.00713
  Beta virt. eigenvalues --   -0.00529  -0.00215   0.00207   0.00453   0.00522

 Mulliken charges and spin densities:
               1          2
     1  Na  -0.827025  -0.053134
     2  Na   0.600762   0.135722
     3  Na   0.175670   0.311617
     4  Na   0.644202   0.138655
     5  Na  -1.108244  -0.066083
     6  Na   0.438446   0.068210
     7  Na   0.076189   0.465014
 Sum of Mulliken charges =  -0.00000   1.00000

 Dipole moment (field-independent basis, Debye):
    X=             -1.0705    Y=              0.1424    Z=             -0.0066  Tot=              1.0800
 Quadrupole moment (field-independent basis, Debye-Ang):
   XX=            -70.3663   YY=            -60.1200   ZZ=            -68.8055
   XY=             -0.6845   XZ=             -3.6185   YZ=              1.9130

 Normal termination of Gaussian 16 at Tue Nov 28 23:53:25 2023.
