 Gaussian 16, Revision B.01,
 Gaussian 16:  ES64L-G16RevB.01 20-Dec-2017

 -------------------------
 #P B3LYP/6-311+g(d) force
 -------------------------

 -----
 DPGEN
 -----
 Symbolic Z-matrix:
 Charge =  0 Multiplicity = 2

                         Standard orientation:
 ---------------------------------------------------------------------
 Center     Atomic      Atomic             Coordinates (Angstroms)
 Number     Number       Type             X           Y           Z
 ---------------------------------------------------------------------
      1         11           0       -4.428094   -0.116586    0.695585
      2         11           0        3.431915   -2.193976    0.601469
      3         11           0        0.941706   -3.539751   -0.772443
      4         11           0       -2.579453   -2.388781   -0.144271
      5         11           0        3.486686    1.575476    0.262727
      6         11           0        1.231316    3.794194   -0.266951
      7         11           0       -2.084076    2.869424   -0.376117
 ---------------------------------------------------------------------

 SCF Done:  E(UB3LYP) =  -1136.10839624     A.U. after   23 cycles

 The electronic state is 2-A.
 Alpha  occ. eigenvalues --  -38.45187 -38.45165 -38.44910 -38.44402 -38.44171
 Alpha  occ. eigenvalues --  -38.43959 -38.43877  -2.20964  -2.20962  -2.20689
 Alpha  occ. eigenvalues --   -2.20223  -2.19969  -2.19774  -2.19687  -1.14651
 Alpha  occ. eigenvalues --   -1.14646  -1.14636  -1.14625  -1.14614  -1.14612
 Alpha  occ. eigenvalues --   -1.14352  -1.14340  -1.14300  -1.13889  -1.13868
 Alpha  occ. eigenvalues --   -1.13852  -1.13662  -1.13643  -1.13628  -1.13427
 Alpha  occ. eigenvalues --   -1.13420  -1.13415  -1.13339  -1.13328  -1.13310
 Alpha  occ. eigenvalues --   -0.15659  -0.13961  -0.13724  -0.10703
 Alpha virt. eigenvalues --   -0.07884  -0.04801  -0.04397  -0.03684  -0.03349
 Alpha virt. eigenvalues --   -0.02416  -0.02141  -0.01987  -0.01552  -0.00744
 Alpha virt. eigenvalues --   -0.00519   0.00018   0.00095   0.00344   0.00624

  Beta  occ. eigenvalues --  -38.45193 -38.45143 -38.44835 -38.44375 -38.44178
  Beta  occ. eigenvalues --  -38.43916 -38.43812  -2.20978  -2.20929  -2.20553
  Beta  occ. eigenvalues --   -2.20176  -2.19988  -2.19695  -2.19565  -1.14656
  Beta  occ. eigenvalues --   -1.14649  -1.14616  -1.14606  -1.14594  -1.14574
  Beta  occ. eigenvalues --   -1.14261  -1.14251  -1.14199  -1.13848  -1.13838
  Beta  occ. eigenvalues --   -1.13818  -1.13672  -1.13662  -1.13604  -1.13378
  Beta  occ. eigenvalues --   -1.13365  -1.13361  -1.13255  -1.13249  -1.13234
  Beta  occ. eigenvalues --   -0.15141  -0.13359  -0.13067
  Beta virt. eigenvalues --   -0.07887  -0.07473  -0.04372  -0.03943  -0.03481
  Beta virt. eigenvalues --   -0.02952  -0.02161  -0.01947  -0.01867  -0.01461
  Beta virt. eigenvalues --   -0.00519  -0.00182   0.00210   0.00273   0.00412

 Mulliken charges and spin densities:
               1          2
     1  Na   0.538216   0.072656
     2  Na   0.001011  -0.039449
     3  Na  -0.186829   0.183268
     4  Na  -0.225957   0.158074
     5  Na  -0.313479   0.295267
     6  Na   0.473644  -0.051316
     7  Na  -0.286607   0.381500
 Sum of Mulliken charges =  -0.00000   1.00000

 Dipole moment (field-independent basis, Debye):
    X=             -0.7080    Y=             -0.4423    Z=              0.1542  Tot=              0.8490
 Quadrupole moment (field-independent basis, Debye-Ang):
   XX=            -61.2473   YY=            -67.5257   ZZ=            -72.1197
   XY=             -3.6024   XZ=              0.6557   YZ=              0.5198

 Normal termination of Gaussian 16 at Mon Dec  4 00:16:13 2023.
