 Gaussian 16, Revision B.01,
 Gaussian 16:  ES64L-G16RevB.01 20-Dec-2017

 -------------------------
 #P B3LYP/6-311+g(d) force
 -------------------------

 -----
 DPGEN
 -----
 Symbolic Z-matrix:
 Charge =  0 Multiplicity = 2

                         Standard orientation:
 ---------------------------------------------------------------------
 Center     Atomic      Atomic             Coordinates (Angstroms)
 Number     Number       Type             X           Y           Z
 ---------------------------------------------------------------------
      1         11           0        0.051918   -0.195583   -1.593039
      2         11           0        1.386460   -2.326345   -0.106890
      3         11           0       -3.010466    1.321837   -0.598828
      4         11           0       -2.633448   -1.876330    0.329744
      5         11           0       -0.254466    0.499023    2.069901
      6         11           0        0.994784    2.643501   -0.069962
      7         11           0        3.465217   -0.066103   -0.030926
 ---------------------------------------------------------------------

 SCF Done:  E(UB3LYP) =  -1136.12793595     A.U. after   21 cycles

 The electronic state is 2-A.
 Alpha  occ. eigenvalues --  -38.44970 -38.44574 -38.44024 -38.43639 -38.43563
 Alpha  occ. eigenvalues --  -38.43177 -38.42884  -2.20797  -2.20383  -2.19834
 Alpha  occ. eigenvalues --   -2.19612  -2.19437  -2.19086  -2.18735  -1.14492
 Alpha  occ. eigenvalues --   -1.14455  -1.14423  -1.14055  -1.14042  -1.14015
 Alpha  occ. eigenvalues --   -1.13500  -1.13493  -1.13482  -1.13376  -1.13273
 Alpha  occ. eigenvalues --   -1.13210  -1.13107  -1.13069  -1.13054  -1.12776
 Alpha  occ. eigenvalues --   -1.12730  -1.12693  -1.12421  -1.12409  -1.12356
 Alpha  occ. eigenvalues --   -0.18483  -0.13573  -0.11817  -0.10662
 Alpha virt. eigenvalues --   -0.06492  -0.05372  -0.03926  -0.03446  -0.02723
 Alpha virt. eigenvalues --   -0.02434  -0.02210  -0.01245  -0.00435  -0.00155
 Alpha virt. eigenvalues --   -0.00057   0.00279   0.00673   0.00790   0.00828

  Beta  occ. eigenvalues --  -38.44971 -38.44556 -38.44017 -38.43584 -38.43471
  Beta  occ. eigenvalues --  -38.43172 -38.42880  -2.20800  -2.20351  -2.19825
  Beta  occ. eigenvalues --   -2.19513  -2.19267  -2.19079  -2.18732  -1.14497
  Beta  occ. eigenvalues --   -1.14444  -1.14427  -1.14026  -1.14013  -1.13996
  Beta  occ. eigenvalues --   -1.13491  -1.13479  -1.13470  -1.13302  -1.13206
  Beta  occ. eigenvalues --   -1.13139  -1.12995  -1.12948  -1.12932  -1.12763
  Beta  occ. eigenvalues --   -1.12723  -1.12673  -1.12421  -1.12379  -1.12356
  Beta  occ. eigenvalues --   -0.17786  -0.13358  -0.11581
  Beta virt. eigenvalues --   -0.06793  -0.06408  -0.05311  -0.03900  -0.02740
  Beta virt. eigenvalues --   -0.02117  -0.01960  -0.01426  -0.01145  -0.00442
  Beta virt. eigenvalues --   -0.00169   0.00087   0.00317   0.00743   0.00834

 Mulliken charges and spin densities:
               1          2
     1  Na  -0.309298   0.321057
     2  Na   0.375939   0.057301
     3  Na   0.150281   0.008861
     4  Na   0.086566   0.068486
     5  Na  -0.530917   0.638586
     6  Na   0.166005  -0.061819
     7  Na   0.061423  -0.032471
 Sum of Mulliken charges =  -0.00000   1.00000

 Dipole moment (field-independent basis, Debye):
    X=             -0.0445    Y=              0.1426    Z=              0.1321  Tot=              0.1994
 Quadrupole moment (field-independent basis, Debye-Ang):
   XX=            -49.5875   YY=            -68.6406   ZZ=            -74.6716
   XY=              0.5777   XZ=              0.6958   YZ=             -2.2286

 Normal termination of Gaussian 16 at Thu Dec  7 08:48:42 2023.
