 Gaussian 16, Revision B.01,
 Gaussian 16:  ES64L-G16RevB.01 20-Dec-2017

 -------------------------
 #P B3LYP/6-311+g(d) force
 -------------------------

 -----
 DPGEN
 -----
 Symbolic Z-matrix:
 Charge =  0 Multiplicity = 2

                         Standard orientation:
 ---------------------------------------------------------------------
 Center     Atomic      Atomic             Coordinates (Angstroms)
 Number     Number       Type             X           Y           Z
 ---------------------------------------------------------------------
      1         11           0        2.122568    2.414959   -0.249512
      2         11           0        0.218888   -0.083034    2.094261
      3         11           0       -0.704613   -2.739086    0.232855
      4         11           0       -3.278979   -0.333346   -0.386184
      5         11           0       -1.220867    2.660153    0.167325
      6         11           0       -0.008944   -0.218697   -1.566000
      7         11           0        2.871946   -1.700949   -0.292744
 ---------------------------------------------------------------------

 SCF Done:  E(UB3LYP) =  -1136.13729250     A.U. after   19 cycles

 The electronic state is 2-A.
 Alpha  occ. eigenvalues --  -38.44063 -38.43915 -38.43706 -38.43679 -38.43610
 Alpha  occ. eigenvalues --  -38.43542 -38.43202  -2.19852  -2.19718  -2.19553
 Alpha  occ. eigenvalues --   -2.19519  -2.19488  -2.19381  -2.19164  -1.13531
 Alpha  occ. eigenvalues --   -1.13504  -1.13493  -1.13395  -1.13379  -1.13361
 Alpha  occ. eigenvalues --   -1.13279  -1.13244  -1.13193  -1.13182  -1.13172
 Alpha  occ. eigenvalues --   -1.13149  -1.13137  -1.13106  -1.13105  -1.13056
 Alpha  occ. eigenvalues --   -1.13049  -1.13007  -1.12855  -1.12805  -1.12772
 Alpha  occ. eigenvalues --   -0.18357  -0.12734  -0.12528  -0.10642
 Alpha virt. eigenvalues --   -0.05636  -0.05279  -0.04876  -0.03069  -0.02864
 Alpha virt. eigenvalues --   -0.02509  -0.01613  -0.01310  -0.00487  -0.00427
 Alpha virt. eigenvalues --   -0.00021   0.00330   0.00768   0.00815   0.00877

  Beta  occ. eigenvalues --  -38.44058 -38.43913 -38.43701 -38.43668 -38.43538
  Beta  occ. eigenvalues --  -38.43509 -38.43147  -2.19845  -2.19716  -2.19538
  Beta  occ. eigenvalues --   -2.19510  -2.19376  -2.19302  -2.19065  -1.13512
  Beta  occ. eigenvalues --   -1.13501  -1.13487  -1.13389  -1.13370  -1.13359
  Beta  occ. eigenvalues --   -1.13267  -1.13194  -1.13180  -1.13174  -1.13163
  Beta  occ. eigenvalues --   -1.13133  -1.13060  -1.13034  -1.13022  -1.13006
  Beta  occ. eigenvalues --   -1.12977  -1.12964  -1.12785  -1.12736  -1.12696
  Beta  occ. eigenvalues --   -0.17642  -0.12522  -0.12295
  Beta virt. eigenvalues --   -0.06737  -0.05619  -0.05223  -0.04810  -0.02276
  Beta virt. eigenvalues --   -0.02195  -0.01515  -0.01457  -0.01253  -0.00505
  Beta virt. eigenvalues --   -0.00460   0.00123   0.00365   0.00808   0.00832

 Mulliken charges and spin densities:
               1          2
     1  Na  -0.017127  -0.085249
     2  Na  -0.304759   0.648850
     3  Na   0.325088   0.036602
     4  Na   0.091104  -0.009923
     5  Na   0.113057   0.008035
     6  Na  -0.243984   0.489536
     7  Na   0.036621  -0.087851
 Sum of Mulliken charges =  -0.00000   1.00000

 Dipole moment (field-independent basis, Debye):
    X=              0.2555    Y=             -0.0486    Z=              0.0906  Tot=              0.2754
 Quadrupole moment (field-independent basis, Debye-Ang):
   XX=            -56.4013   YY=            -61.2860   ZZ=            -75.1283
   XY=             -0.1166   XZ=             -0.4266   YZ=             -0.2232

 Normal termination of Gaussian 16 at Thu Dec  7 14:11:02 2023.
