 Gaussian 16, Revision B.01,
 Gaussian 16:  ES64L-G16RevB.01 20-Dec-2017

 -------------------------
 #P B3LYP/6-311+g(d) force
 -------------------------

 -----
 DPGEN
 -----
 Symbolic Z-matrix:
 Charge =  0 Multiplicity = 2

                         Standard orientation:
 ---------------------------------------------------------------------
 Center     Atomic      Atomic             Coordinates (Angstroms)
 Number     Number       Type             X           Y           Z
 ---------------------------------------------------------------------
      1         11           0       -0.239987    0.057962    1.820942
      2         11           0        2.594900   -1.340182    0.050648
      3         11           0        2.155314    1.894109   -0.026386
      4         11           0        0.332694   -0.234808   -1.809785
      5         11           0       -1.083951    2.539820    0.059315
      6         11           0       -3.281656   -0.302400   -0.350751
      7         11           0       -0.477313   -2.614500    0.256018
 ---------------------------------------------------------------------

 SCF Done:  E(UB3LYP) =  -1136.13662456     A.U. after   19 cycles

 The electronic state is 2-A.
 Alpha  occ. eigenvalues --  -38.44226 -38.43594 -38.43402 -38.43324 -38.43302
 Alpha  occ. eigenvalues --  -38.43254 -38.43169  -2.20023  -2.19513  -2.19388
 Alpha  occ. eigenvalues --   -2.19294  -2.19231  -2.19142  -2.19091  -1.13694
 Alpha  occ. eigenvalues --   -1.13676  -1.13666  -1.13257  -1.13176  -1.13161
 Alpha  occ. eigenvalues --   -1.13066  -1.13042  -1.13012  -1.12995  -1.12984
 Alpha  occ. eigenvalues --   -1.12913  -1.12898  -1.12877  -1.12872  -1.12804
 Alpha  occ. eigenvalues --   -1.12795  -1.12756  -1.12746  -1.12746  -1.12689
 Alpha  occ. eigenvalues --   -0.19225  -0.13085  -0.12657  -0.10919
 Alpha virt. eigenvalues --   -0.05683  -0.04865  -0.04518  -0.03238  -0.02977
 Alpha virt. eigenvalues --   -0.02504  -0.01579  -0.00934  -0.00131  -0.00043
 Alpha virt. eigenvalues --    0.00005   0.00352   0.00843   0.00935   0.00954

  Beta  occ. eigenvalues --  -38.44221 -38.43587 -38.43327 -38.43318 -38.43248
  Beta  occ. eigenvalues --  -38.43219 -38.43157  -2.20015  -2.19505  -2.19249
  Beta  occ. eigenvalues --   -2.19225  -2.19143  -2.19134  -2.19074  -1.13674
  Beta  occ. eigenvalues --   -1.13672  -1.13663  -1.13237  -1.13170  -1.13129
  Beta  occ. eigenvalues --   -1.12991  -1.12965  -1.12926  -1.12909  -1.12895
  Beta  occ. eigenvalues --   -1.12885  -1.12873  -1.12841  -1.12796  -1.12777
  Beta  occ. eigenvalues --   -1.12753  -1.12745  -1.12731  -1.12689  -1.12680
  Beta  occ. eigenvalues --   -0.18474  -0.12838  -0.12373
  Beta virt. eigenvalues --   -0.06989  -0.05620  -0.04868  -0.04501  -0.02462
  Beta virt. eigenvalues --   -0.02147  -0.01479  -0.01456  -0.00876  -0.00164
  Beta virt. eigenvalues --   -0.00092   0.00122   0.00372   0.00880   0.00928

 Mulliken charges and spin densities:
               1          2
     1  Na  -0.358798   0.572320
     2  Na   0.422199  -0.028970
     3  Na   0.173418  -0.075470
     4  Na  -0.562420   0.724149
     5  Na   0.118152  -0.083368
     6  Na  -0.075664  -0.048621
     7  Na   0.283113  -0.060041
 Sum of Mulliken charges =  -0.00000   1.00000

 Dipole moment (field-independent basis, Debye):
    X=             -0.2759    Y=             -0.0445    Z=             -0.0795  Tot=              0.2906
 Quadrupole moment (field-independent basis, Debye-Ang):
   XX=            -55.6389   YY=            -64.6609   ZZ=            -73.3253
   XY=              0.0521   XZ=              1.5214   YZ=             -0.5344

 Normal termination of Gaussian 16 at Sat Dec  9 06:44:12 2023.
