 Gaussian 16, Revision B.01,
 Gaussian 16:  ES64L-G16RevB.01 20-Dec-2017

 -------------------------
 #P B3LYP/6-311+g(d) force
 -------------------------

 -----
 DPGEN
 -----
 Symbolic Z-matrix:
 Charge =  0 Multiplicity = 2

                         Standard orientation:
 ---------------------------------------------------------------------
 Center     Atomic      Atomic             Coordinates (Angstroms)
 Number     Number       Type             X           Y           Z
 ---------------------------------------------------------------------
      1         11           0        1.122963   -1.784082   -0.940072
      2         11           0       -2.202649   -2.055331    0.949533
      3         11           0       -2.242542    2.444966    0.440299
      4         11           0        0.801403    1.569833   -1.231794
      5         11           0       -1.862232   -0.491676   -1.637246
      6         11           0        3.824182    0.186437    0.220714
      7         11           0        0.558875    0.129853    2.198565
 ---------------------------------------------------------------------

 SCF Done:  E(UB3LYP) =  -1136.13068102     A.U. after   22 cycles

 The electronic state is 2-A.
 Alpha  occ. eigenvalues --  -38.44785 -38.44580 -38.43612 -38.43598 -38.43530
 Alpha  occ. eigenvalues --  -38.43360 -38.43123  -2.20610  -2.20371  -2.19548
 Alpha  occ. eigenvalues --   -2.19438  -2.19416  -2.19250  -2.18913  -1.14278
 Alpha  occ. eigenvalues --   -1.14243  -1.14224  -1.14039  -1.14038  -1.14002
 Alpha  occ. eigenvalues --   -1.13307  -1.13264  -1.13153  -1.13128  -1.13091
 Alpha  occ. eigenvalues --   -1.13083  -1.13073  -1.13039  -1.13001  -1.12954
 Alpha  occ. eigenvalues --   -1.12918  -1.12835  -1.12581  -1.12576  -1.12554
 Alpha  occ. eigenvalues --   -0.18418  -0.13224  -0.11742  -0.11372
 Alpha virt. eigenvalues --   -0.06185  -0.04798  -0.04493  -0.03313  -0.03075
 Alpha virt. eigenvalues --   -0.02919  -0.01971  -0.00904  -0.00637   0.00105
 Alpha virt. eigenvalues --    0.00246   0.00287   0.00439   0.00711   0.00825

  Beta  occ. eigenvalues --  -38.44697 -38.44582 -38.43585 -38.43576 -38.43502
  Beta  occ. eigenvalues --  -38.43329 -38.43122  -2.20447  -2.20375  -2.19484
  Beta  occ. eigenvalues --   -2.19415  -2.19368  -2.19196  -2.18914  -1.14171
  Beta  occ. eigenvalues --   -1.14125  -1.14105  -1.14043  -1.14030  -1.14006
  Beta  occ. eigenvalues --   -1.13270  -1.13210  -1.13112  -1.13090  -1.13062
  Beta  occ. eigenvalues --   -1.13052  -1.13028  -1.13014  -1.12972  -1.12917
  Beta  occ. eigenvalues --   -1.12858  -1.12802  -1.12582  -1.12567  -1.12554
  Beta  occ. eigenvalues --   -0.17583  -0.13116  -0.11226
  Beta virt. eigenvalues --   -0.07686  -0.05989  -0.04748  -0.03903  -0.03008
  Beta virt. eigenvalues --   -0.02338  -0.02169  -0.01874  -0.00817  -0.00292
  Beta virt. eigenvalues --    0.00172   0.00248   0.00311   0.00607   0.00768

 Mulliken charges and spin densities:
               1          2
     1  Na  -0.046279   0.133600
     2  Na  -0.059558   0.041437
     3  Na  -0.096702  -0.064457
     4  Na  -0.311326   0.162854
     5  Na   0.541090   0.115641
     6  Na   0.448711  -0.032553
     7  Na  -0.475937   0.643478
 Sum of Mulliken charges =  -0.00000   1.00000

 Dipole moment (field-independent basis, Debye):
    X=              0.9364    Y=             -0.0921    Z=              0.4738  Tot=              1.0535
 Quadrupole moment (field-independent basis, Debye-Ang):
   XX=            -53.1504   YY=            -74.5587   ZZ=            -66.8116
   XY=              0.8118   XZ=             -0.7083   YZ=              0.3749

 Normal termination of Gaussian 16 at Thu Dec  7 08:26:56 2023.
