 Gaussian 16, Revision B.01,
 Gaussian 16:  ES64L-G16RevB.01 20-Dec-2017

 -------------------------
 #P B3LYP/6-311+g(d) force
 -------------------------

 -----
 DPGEN
 -----
 Symbolic Z-matrix:
 Charge =  0 Multiplicity = 2

                         Standard orientation:
 ---------------------------------------------------------------------
 Center     Atomic      Atomic             Coordinates (Angstroms)
 Number     Number       Type             X           Y           Z
 ---------------------------------------------------------------------
      1         11           0        2.919255   -1.249214   -0.150362
      2         11           0       -0.438245    0.089391    1.692025
      3         11           0       -1.118300    2.541658   -0.387097
      4         11           0       -0.170295   -0.075770   -1.513894
      5         11           0        0.065857   -2.823599    0.031991
      6         11           0        2.042344    2.191694    0.293484
      7         11           0       -3.300616   -0.674160    0.033852
 ---------------------------------------------------------------------

 SCF Done:  E(UB3LYP) =  -1136.13419343     A.U. after   19 cycles

 The electronic state is 2-A.
 Alpha  occ. eigenvalues --  -38.44307 -38.43860 -38.43560 -38.43513 -38.43511
 Alpha  occ. eigenvalues --  -38.42968 -38.42875  -2.20117  -2.19695  -2.19449
 Alpha  occ. eigenvalues --   -2.19441  -2.19373  -2.18959  -2.18927  -1.13793
 Alpha  occ. eigenvalues --   -1.13767  -1.13760  -1.13371  -1.13363  -1.13346
 Alpha  occ. eigenvalues --   -1.13205  -1.13160  -1.13120  -1.13113  -1.13080
 Alpha  occ. eigenvalues --   -1.13052  -1.13036  -1.13026  -1.12981  -1.12707
 Alpha  occ. eigenvalues --   -1.12589  -1.12576  -1.12568  -1.12555  -1.12508
 Alpha  occ. eigenvalues --   -0.19019  -0.13010  -0.12831  -0.10300
 Alpha virt. eigenvalues --   -0.05830  -0.05046  -0.04845  -0.02879  -0.02828
 Alpha virt. eigenvalues --   -0.02000  -0.01811  -0.01163  -0.00394  -0.00242
 Alpha virt. eigenvalues --    0.00045   0.00326   0.00813   0.00866   0.00878

  Beta  occ. eigenvalues --  -38.44303 -38.43859 -38.43553 -38.43506 -38.43494
  Beta  occ. eigenvalues --  -38.42891 -38.42805  -2.20113  -2.19695  -2.19440
  Beta  occ. eigenvalues --   -2.19415  -2.19364  -2.18820  -2.18802  -1.13775
  Beta  occ. eigenvalues --   -1.13766  -1.13754  -1.13374  -1.13357  -1.13335
  Beta  occ. eigenvalues --   -1.13183  -1.13153  -1.13088  -1.13082  -1.13051
  Beta  occ. eigenvalues --   -1.13047  -1.13025  -1.13002  -1.12972  -1.12615
  Beta  occ. eigenvalues --   -1.12491  -1.12485  -1.12471  -1.12451  -1.12419
  Beta  occ. eigenvalues --   -0.18313  -0.12757  -0.12568
  Beta virt. eigenvalues --   -0.06399  -0.05808  -0.05012  -0.04835  -0.02145
  Beta virt. eigenvalues --   -0.02043  -0.01742  -0.01107  -0.00975  -0.00427
  Beta virt. eigenvalues --   -0.00272   0.00172   0.00359   0.00835   0.00867

 Mulliken charges and spin densities:
               1          2
     1  Na  -0.008480  -0.025470
     2  Na  -0.381488   0.749703
     3  Na   0.296312  -0.004503
     4  Na  -0.328168   0.470279
     5  Na   0.161152  -0.093430
     6  Na   0.091800   0.015327
     7  Na   0.168873  -0.111905
 Sum of Mulliken charges =  -0.00000   1.00000

 Dipole moment (field-independent basis, Debye):
    X=             -0.2447    Y=             -0.1646    Z=              0.0845  Tot=              0.3068
 Quadrupole moment (field-independent basis, Debye-Ang):
   XX=            -52.9856   YY=            -61.2643   ZZ=            -76.9004
   XY=              0.8480   XZ=              0.6177   YZ=             -0.1997

 Normal termination of Gaussian 16 at Fri Dec  8 04:14:29 2023.
