 Gaussian 16, Revision B.01,
 Gaussian 16:  ES64L-G16RevB.01 20-Dec-2017

 -------------------------
 #P B3LYP/6-311+g(d) force
 -------------------------

 -----
 DPGEN
 -----
 Symbolic Z-matrix:
 Charge =  0 Multiplicity = 2

                         Standard orientation:
 ---------------------------------------------------------------------
 Center     Atomic      Atomic             Coordinates (Angstroms)
 Number     Number       Type             X           Y           Z
 ---------------------------------------------------------------------
      1         11           0       -0.992919    3.747431   -0.241040
      2         11           0       -3.305058    1.571296    1.296182
      3         11           0       -4.018417   -1.443616   -0.804867
      4         11           0        2.383398   -3.282734    0.746066
      5         11           0       -1.065429   -3.332733   -0.473693
      6         11           0        2.755091    2.850276   -0.500754
      7         11           0        4.243334   -0.109921   -0.021894
 ---------------------------------------------------------------------

 SCF Done:  E(UB3LYP) =  -1136.10671507     A.U. after   24 cycles

 The electronic state is 2-A.
 Alpha  occ. eigenvalues --  -38.45382 -38.45191 -38.44939 -38.44623 -38.44396
 Alpha  occ. eigenvalues --  -38.44152 -38.43905  -2.21132  -2.20936  -2.20704
 Alpha  occ. eigenvalues --   -2.20381  -2.20173  -2.19943  -2.19688  -1.14812
 Alpha  occ. eigenvalues --   -1.14795  -1.14762  -1.14628  -1.14616  -1.14563
 Alpha  occ. eigenvalues --   -1.14383  -1.14377  -1.14341  -1.14055  -1.14044
 Alpha  occ. eigenvalues --   -1.14010  -1.13842  -1.13834  -1.13800  -1.13601
 Alpha  occ. eigenvalues --   -1.13584  -1.13577  -1.13345  -1.13331  -1.13317
 Alpha  occ. eigenvalues --   -0.15281  -0.13796  -0.13384  -0.10860
 Alpha virt. eigenvalues --   -0.07787  -0.05092  -0.04524  -0.03465  -0.03407
 Alpha virt. eigenvalues --   -0.02326  -0.02264  -0.01834  -0.01486  -0.01076
 Alpha virt. eigenvalues --   -0.00740  -0.00270   0.00007   0.00313   0.00611

  Beta  occ. eigenvalues --  -38.45364 -38.45177 -38.44924 -38.44599 -38.44362
  Beta  occ. eigenvalues --  -38.44097 -38.43843  -2.21103  -2.20918  -2.20682
  Beta  occ. eigenvalues --   -2.20339  -2.20112  -2.19841  -2.19573  -1.14795
  Beta  occ. eigenvalues --   -1.14778  -1.14721  -1.14621  -1.14610  -1.14506
  Beta  occ. eigenvalues --   -1.14372  -1.14363  -1.14297  -1.14027  -1.14017
  Beta  occ. eigenvalues --   -1.13972  -1.13802  -1.13794  -1.13748  -1.13531
  Beta  occ. eigenvalues --   -1.13516  -1.13504  -1.13267  -1.13255  -1.13239
  Beta  occ. eigenvalues --   -0.14737  -0.13044  -0.12607
  Beta virt. eigenvalues --   -0.08051  -0.07765  -0.04628  -0.04007  -0.03268
  Beta virt. eigenvalues --   -0.03153  -0.02116  -0.02023  -0.01614  -0.01321
  Beta virt. eigenvalues --   -0.00773  -0.00549  -0.00027   0.00204   0.00290

 Mulliken charges and spin densities:
               1          2
     1  Na  -0.170873   0.127733
     2  Na  -0.141591   0.071975
     3  Na   0.123675   0.238565
     4  Na   0.204946   0.268682
     5  Na  -0.211417   0.114425
     6  Na   0.220838   0.139280
     7  Na  -0.025579   0.039341
 Sum of Mulliken charges =  -0.00000   1.00000

 Dipole moment (field-independent basis, Debye):
    X=             -0.4756    Y=              0.4031    Z=              0.0982  Tot=              0.6312
 Quadrupole moment (field-independent basis, Debye-Ang):
   XX=            -61.6694   YY=            -68.3416   ZZ=            -70.4273
   XY=             -1.5548   XZ=             -0.7287   YZ=             -1.0377

 Normal termination of Gaussian 16 at Mon Dec  4 05:15:10 2023.
