 Gaussian 16, Revision B.01,
 Gaussian 16:  ES64L-G16RevB.01 20-Dec-2017

 -------------------------
 #P B3LYP/6-311+g(d) force
 -------------------------

 -----
 DPGEN
 -----
 Symbolic Z-matrix:
 Charge =  0 Multiplicity = 2

                         Standard orientation:
 ---------------------------------------------------------------------
 Center     Atomic      Atomic             Coordinates (Angstroms)
 Number     Number       Type             X           Y           Z
 ---------------------------------------------------------------------
      1         11           0        0.300088   -0.393967   -1.670388
      2         11           0       -2.321574   -2.247868   -0.769442
      3         11           0        0.421883   -1.887991    1.397932
      4         11           0       -2.309853    0.603755    1.002537
      5         11           0        3.394813   -0.798199   -0.449011
      6         11           0        1.092591    1.514991    1.345349
      7         11           0       -0.577949    3.209280   -0.856976
 ---------------------------------------------------------------------

 SCF Done:  E(UB3LYP) =  -1136.13819247     A.U. after   20 cycles

 The electronic state is 2-A.
 Alpha  occ. eigenvalues --  -38.43796 -38.43722 -38.43694 -38.43468 -38.43387
 Alpha  occ. eigenvalues --  -38.43374 -38.43362  -2.19655  -2.19585  -2.19533
 Alpha  occ. eigenvalues --   -2.19323  -2.19295  -2.19278  -2.19218  -1.13353
 Alpha  occ. eigenvalues --   -1.13331  -1.13290  -1.13269  -1.13253  -1.13218
 Alpha  occ. eigenvalues --   -1.13195  -1.13186  -1.13155  -1.13018  -1.13006
 Alpha  occ. eigenvalues --   -1.12984  -1.12967  -1.12956  -1.12938  -1.12935
 Alpha  occ. eigenvalues --   -1.12915  -1.12870  -1.12867  -1.12855  -1.12849
 Alpha  occ. eigenvalues --   -0.18510  -0.12661  -0.12508  -0.11079
 Alpha virt. eigenvalues --   -0.05390  -0.04990  -0.04654  -0.03271  -0.03167
 Alpha virt. eigenvalues --   -0.02605  -0.01438  -0.01112  -0.00584   0.00114
 Alpha virt. eigenvalues --    0.00321   0.00365   0.00676   0.00778   0.00818

  Beta  occ. eigenvalues --  -38.43778 -38.43718 -38.43651 -38.43455 -38.43351
  Beta  occ. eigenvalues --  -38.43342 -38.43321  -2.19624  -2.19530  -2.19508
  Beta  occ. eigenvalues --   -2.19272  -2.19223  -2.19202  -2.19201  -1.13326
  Beta  occ. eigenvalues --   -1.13290  -1.13255  -1.13240  -1.13202  -1.13191
  Beta  occ. eigenvalues --   -1.13173  -1.13168  -1.13121  -1.12988  -1.12945
  Beta  occ. eigenvalues --   -1.12929  -1.12921  -1.12916  -1.12900  -1.12866
  Beta  occ. eigenvalues --   -1.12865  -1.12854  -1.12835  -1.12823  -1.12819
  Beta  occ. eigenvalues --   -0.17736  -0.12473  -0.12340
  Beta virt. eigenvalues --   -0.07147  -0.05286  -0.04815  -0.04487  -0.02741
  Beta virt. eigenvalues --   -0.02578  -0.01669  -0.01341  -0.01041  -0.00214
  Beta virt. eigenvalues --    0.00076   0.00385   0.00402   0.00763   0.00813

 Mulliken charges and spin densities:
               1          2
     1  Na  -0.446901   0.705159
     2  Na   0.545752  -0.109969
     3  Na  -0.212585   0.270210
     4  Na  -0.241773   0.164047
     5  Na   0.148818  -0.117107
     6  Na   0.126371   0.263471
     7  Na   0.080318  -0.175811
 Sum of Mulliken charges =  -0.00000   1.00000

 Dipole moment (field-independent basis, Debye):
    X=              0.0710    Y=             -0.0948    Z=              0.0289  Tot=              0.1219
 Quadrupole moment (field-independent basis, Debye-Ang):
   XX=            -59.6762   YY=            -63.8059   ZZ=            -69.6179
   XY=              0.0967   XZ=              0.2042   YZ=             -1.3778

 Normal termination of Gaussian 16 at Wed Nov 29 16:18:46 2023.
