 Gaussian 16, Revision B.01,
 Gaussian 16:  ES64L-G16RevB.01 20-Dec-2017

 -------------------------
 #P B3LYP/6-311+g(d) force
 -------------------------

 -----
 DPGEN
 -----
 Symbolic Z-matrix:
 Charge =  0 Multiplicity = 2

                         Standard orientation:
 ---------------------------------------------------------------------
 Center     Atomic      Atomic             Coordinates (Angstroms)
 Number     Number       Type             X           Y           Z
 ---------------------------------------------------------------------
      1         11           0        1.271873   -1.968339    0.594715
      2         11           0        4.356982   -1.463077    0.583514
      3         11           0        5.403654    2.478563   -0.029729
      4         11           0        2.337047    0.920938   -0.472032
      5         11           0       -1.127733   -1.057046   -0.886882
      6         11           0       -5.281546   -0.166847   -0.935583
      7         11           0       -6.960277    1.255808    1.145996
 ---------------------------------------------------------------------

 SCF Done:  E(UB3LYP) =  -1136.11144619     A.U. after   21 cycles

 The electronic state is 2-A.
 Alpha  occ. eigenvalues --  -38.44758 -38.44551 -38.44288 -38.44227 -38.43970
 Alpha  occ. eigenvalues --  -38.43808 -38.43738  -2.20621  -2.20430  -2.20087
 Alpha  occ. eigenvalues --   -2.20011  -2.19766  -2.19763  -2.19581  -1.14347
 Alpha  occ. eigenvalues --   -1.14322  -1.14206  -1.14122  -1.14080  -1.14017
 Alpha  occ. eigenvalues --   -1.13791  -1.13733  -1.13731  -1.13670  -1.13668
 Alpha  occ. eigenvalues --   -1.13622  -1.13520  -1.13432  -1.13423  -1.13417
 Alpha  occ. eigenvalues --   -1.13410  -1.13396  -1.13224  -1.13221  -1.13168
 Alpha  occ. eigenvalues --   -0.17116  -0.13711  -0.12479  -0.11136
 Alpha virt. eigenvalues --   -0.06637  -0.05423  -0.04332  -0.03677  -0.02818
 Alpha virt. eigenvalues --   -0.02524  -0.02178  -0.01811  -0.01461  -0.01001
 Alpha virt. eigenvalues --   -0.00369  -0.00179   0.00218   0.00463   0.00596

  Beta  occ. eigenvalues --  -38.44745 -38.44473 -38.44271 -38.44180 -38.43974
  Beta  occ. eigenvalues --  -38.43781 -38.43703  -2.20599  -2.20291  -2.20055
  Beta  occ. eigenvalues --   -2.19925  -2.19773  -2.19725  -2.19514  -1.14311
  Beta  occ. eigenvalues --   -1.14308  -1.14191  -1.14019  -1.13988  -1.13910
  Beta  occ. eigenvalues --   -1.13773  -1.13711  -1.13710  -1.13612  -1.13603
  Beta  occ. eigenvalues --   -1.13570  -1.13449  -1.13431  -1.13424  -1.13414
  Beta  occ. eigenvalues --   -1.13390  -1.13384  -1.13175  -1.13173  -1.13120
  Beta  occ. eigenvalues --   -0.16435  -0.13433  -0.12088
  Beta virt. eigenvalues --   -0.07605  -0.06144  -0.05226  -0.04103  -0.03340
  Beta virt. eigenvalues --   -0.02545  -0.02201  -0.01851  -0.01596  -0.01238
  Beta virt. eigenvalues --   -0.00711  -0.00074   0.00001   0.00387   0.00516

 Mulliken charges and spin densities:
               1          2
     1  Na  -0.340349   0.317536
     2  Na   0.577192   0.148177
     3  Na   1.051358   0.180574
     4  Na  -1.156841   0.269989
     5  Na  -0.061199   0.040625
     6  Na  -0.250176  -0.021608
     7  Na   0.180015   0.064707
 Sum of Mulliken charges =  -0.00000   1.00000

 Dipole moment (field-independent basis, Debye):
    X=              1.0490    Y=              0.1754    Z=              0.4434  Tot=              1.1523
 Quadrupole moment (field-independent basis, Debye-Ang):
   XX=            -58.1495   YY=            -67.9291   ZZ=            -68.4936
   XY=             -1.6719   XZ=             -2.5652   YZ=              2.3931

 Normal termination of Gaussian 16 at Tue Nov 28 21:00:11 2023.
