 Gaussian 16, Revision B.01,
 Gaussian 16:  ES64L-G16RevB.01 20-Dec-2017

 -------------------------
 #P B3LYP/6-311+g(d) force
 -------------------------

 -----
 DPGEN
 -----
 Symbolic Z-matrix:
 Charge =  0 Multiplicity = 2

                         Standard orientation:
 ---------------------------------------------------------------------
 Center     Atomic      Atomic             Coordinates (Angstroms)
 Number     Number       Type             X           Y           Z
 ---------------------------------------------------------------------
      1         11           0       -1.600527   -2.543010   -0.526354
      2         11           0        1.566980   -2.008919    0.846783
      3         11           0        4.621771    2.464850   -0.971943
      4         11           0       -4.279128    2.438326    0.291496
      5         11           0       -4.453554   -0.557079   -1.183238
      6         11           0        5.160160   -0.672327   -0.021376
      7         11           0       -1.015701    0.878159    1.564632
 ---------------------------------------------------------------------

 SCF Done:  E(UB3LYP) =  -1136.11101774     A.U. after   21 cycles

 The electronic state is 2-A.
 Alpha  occ. eigenvalues --  -38.45195 -38.45096 -38.44597 -38.44001 -38.43965
 Alpha  occ. eigenvalues --  -38.43956 -38.43836  -2.20957  -2.20846  -2.20365
 Alpha  occ. eigenvalues --   -2.19808  -2.19770  -2.19747  -2.19610  -1.14645
 Alpha  occ. eigenvalues --   -1.14611  -1.14543  -1.14512  -1.14510  -1.14484
 Alpha  occ. eigenvalues --   -1.14036  -1.14023  -1.14001  -1.13488  -1.13485
 Alpha  occ. eigenvalues --   -1.13447  -1.13439  -1.13435  -1.13416  -1.13406
 Alpha  occ. eigenvalues --   -1.13391  -1.13349  -1.13291  -1.13278  -1.13236
 Alpha  occ. eigenvalues --   -0.15877  -0.13863  -0.11817  -0.11166
 Alpha virt. eigenvalues --   -0.07300  -0.05281  -0.04663  -0.03642  -0.03044
 Alpha virt. eigenvalues --   -0.02488  -0.02150  -0.01990  -0.00987  -0.00784
 Alpha virt. eigenvalues --   -0.00620  -0.00174   0.00127   0.00341   0.00416

  Beta  occ. eigenvalues --  -38.45119 -38.45091 -38.44598 -38.43956 -38.43954
  Beta  occ. eigenvalues --  -38.43904 -38.43834  -2.20837  -2.20816  -2.20366
  Beta  occ. eigenvalues --   -2.19731  -2.19721  -2.19675  -2.19607  -1.14550
  Beta  occ. eigenvalues --   -1.14517  -1.14506  -1.14503  -1.14478  -1.14435
  Beta  occ. eigenvalues --   -1.14037  -1.14024  -1.14000  -1.13433  -1.13425
  Beta  occ. eigenvalues --   -1.13420  -1.13409  -1.13374  -1.13373  -1.13363
  Beta  occ. eigenvalues --   -1.13337  -1.13293  -1.13285  -1.13270  -1.13234
  Beta  occ. eigenvalues --   -0.15150  -0.13666  -0.11788
  Beta virt. eigenvalues --   -0.07325  -0.07075  -0.04947  -0.04118  -0.03450
  Beta virt. eigenvalues --   -0.02572  -0.02243  -0.02073  -0.01716  -0.00862
  Beta virt. eigenvalues --   -0.00656  -0.00312   0.00062   0.00286   0.00445

 Mulliken charges and spin densities:
               1          2
     1  Na   0.422741   0.295964
     2  Na  -0.106609  -0.080239
     3  Na   0.060589   0.009325
     4  Na   0.503414   0.023575
     5  Na  -0.299882   0.197154
     6  Na  -0.009357   0.010640
     7  Na  -0.570896   0.543581
 Sum of Mulliken charges =  -0.00000   1.00000

 Dipole moment (field-independent basis, Debye):
    X=              1.0281    Y=              0.8830    Z=             -0.0570  Tot=              1.3564
 Quadrupole moment (field-independent basis, Debye-Ang):
   XX=            -65.9916   YY=            -60.7074   ZZ=            -72.5517
   XY=             -3.8789   XZ=              1.4586   YZ=             -1.9052

 Normal termination of Gaussian 16 at Mon Dec  4 02:30:12 2023.
