 Gaussian 16, Revision B.01,
 Gaussian 16:  ES64L-G16RevB.01 20-Dec-2017

 -------------------------
 #P B3LYP/6-311+g(d) force
 -------------------------

 -----
 DPGEN
 -----
 Symbolic Z-matrix:
 Charge =  0 Multiplicity = 2

                         Standard orientation:
 ---------------------------------------------------------------------
 Center     Atomic      Atomic             Coordinates (Angstroms)
 Number     Number       Type             X           Y           Z
 ---------------------------------------------------------------------
      1         11           0       -2.769987   -1.033647   -1.282858
      2         11           0        1.142174   -1.766171   -1.349010
      3         11           0        0.081161    1.479954   -0.037194
      4         11           0        3.767922    1.177157   -0.952405
      5         11           0       -3.588199    1.784039    0.184649
      6         11           0        2.343619   -0.181626    1.686040
      7         11           0       -0.976691   -1.459706    1.750778
 ---------------------------------------------------------------------

 SCF Done:  E(UB3LYP) =  -1136.12531193     A.U. after   24 cycles

 The electronic state is 2-A.
 Alpha  occ. eigenvalues --  -38.44576 -38.44568 -38.44182 -38.43997 -38.43875
 Alpha  occ. eigenvalues --  -38.43455 -38.43237  -2.20416  -2.20405  -2.20085
 Alpha  occ. eigenvalues --   -2.19810  -2.19706  -2.19260  -2.19086  -1.14140
 Alpha  occ. eigenvalues --   -1.14104  -1.14092  -1.14063  -1.14021  -1.14013
 Alpha  occ. eigenvalues --   -1.13776  -1.13741  -1.13697  -1.13481  -1.13461
 Alpha  occ. eigenvalues --   -1.13435  -1.13401  -1.13352  -1.13304  -1.12931
 Alpha  occ. eigenvalues --   -1.12920  -1.12903  -1.12770  -1.12738  -1.12712
 Alpha  occ. eigenvalues --   -0.18154  -0.14073  -0.11138  -0.10992
 Alpha virt. eigenvalues --   -0.06559  -0.05446  -0.04994  -0.03137  -0.02559
 Alpha virt. eigenvalues --   -0.02515  -0.02230  -0.01228  -0.00950  -0.00353
 Alpha virt. eigenvalues --    0.00076   0.00157   0.00333   0.00384   0.00645

  Beta  occ. eigenvalues --  -38.44549 -38.44547 -38.44143 -38.43984 -38.43821
  Beta  occ. eigenvalues --  -38.43456 -38.43210  -2.20383  -2.20355  -2.20016
  Beta  occ. eigenvalues --   -2.19785  -2.19606  -2.19262  -2.19040  -1.14088
  Beta  occ. eigenvalues --   -1.14079  -1.14055  -1.14031  -1.13994  -1.13982
  Beta  occ. eigenvalues --   -1.13722  -1.13691  -1.13643  -1.13463  -1.13436
  Beta  occ. eigenvalues --   -1.13419  -1.13332  -1.13280  -1.13231  -1.12930
  Beta  occ. eigenvalues --   -1.12921  -1.12904  -1.12734  -1.12693  -1.12677
  Beta  occ. eigenvalues --   -0.17465  -0.13907  -0.10779
  Beta virt. eigenvalues --   -0.07329  -0.06358  -0.05264  -0.04444  -0.02792
  Beta virt. eigenvalues --   -0.02462  -0.02079  -0.01608  -0.01024  -0.00477
  Beta virt. eigenvalues --   -0.00238   0.00118   0.00231   0.00404   0.00508

 Mulliken charges and spin densities:
               1          2
     1  Na   0.328870   0.108656
     2  Na  -0.446064   0.392345
     3  Na  -1.206691   0.249417
     4  Na   0.718359   0.113116
     5  Na   0.117855  -0.036003
     6  Na   0.475345   0.060524
     7  Na   0.012325   0.111946
 Sum of Mulliken charges =  -0.00000   1.00000

 Dipole moment (field-independent basis, Debye):
    X=              0.3164    Y=             -0.5142    Z=              0.0869  Tot=              0.6100
 Quadrupole moment (field-independent basis, Debye-Ang):
   XX=            -54.6132   YY=            -74.3638   ZZ=            -67.7861
   XY=              1.7338   XZ=             -0.6276   YZ=              1.1007

 Normal termination of Gaussian 16 at Tue Dec  5 13:53:42 2023.
