 Gaussian 16, Revision B.01,
 Gaussian 16:  ES64L-G16RevB.01 20-Dec-2017

 -------------------------
 #P B3LYP/6-311+g(d) force
 -------------------------

 -----
 DPGEN
 -----
 Symbolic Z-matrix:
 Charge =  0 Multiplicity = 2

                         Standard orientation:
 ---------------------------------------------------------------------
 Center     Atomic      Atomic             Coordinates (Angstroms)
 Number     Number       Type             X           Y           Z
 ---------------------------------------------------------------------
      1         11           0        3.531953   -1.281078   -0.120620
      2         11           0       -1.166630   -2.762341   -0.140596
      3         11           0       -3.269742   -0.274890    0.166244
      4         11           0       -1.296627    2.660138    0.105804
      5         11           0        0.477177   -0.071095    2.016775
      6         11           0       -0.498894   -0.015668   -1.648736
      7         11           0        2.222763    1.744934   -0.378871
 ---------------------------------------------------------------------

 SCF Done:  E(UB3LYP) =  -1136.13043181     A.U. after   21 cycles

 The electronic state is 2-A.
 Alpha  occ. eigenvalues --  -38.44762 -38.44743 -38.43707 -38.43698 -38.43424
 Alpha  occ. eigenvalues --  -38.43355 -38.42841  -2.20591  -2.20530  -2.19575
 Alpha  occ. eigenvalues --   -2.19556  -2.19386  -2.19206  -2.18696  -1.14271
 Alpha  occ. eigenvalues --   -1.14250  -1.14230  -1.14206  -1.14193  -1.14168
 Alpha  occ. eigenvalues --   -1.13275  -1.13259  -1.13220  -1.13192  -1.13183
 Alpha  occ. eigenvalues --   -1.13162  -1.13082  -1.13042  -1.13019  -1.12870
 Alpha  occ. eigenvalues --   -1.12859  -1.12836  -1.12374  -1.12353  -1.12339
 Alpha  occ. eigenvalues --   -0.18364  -0.13539  -0.11883  -0.10493
 Alpha virt. eigenvalues --   -0.06557  -0.05166  -0.04326  -0.03472  -0.02617
 Alpha virt. eigenvalues --   -0.02380  -0.02090  -0.01247  -0.00535  -0.00274
 Alpha virt. eigenvalues --   -0.00076   0.00282   0.00684   0.00734   0.00806

  Beta  occ. eigenvalues --  -38.44765 -38.44741 -38.43695 -38.43605 -38.43363
  Beta  occ. eigenvalues --  -38.43350 -38.42837  -2.20589  -2.20537  -2.19556
  Beta  occ. eigenvalues --   -2.19385  -2.19275  -2.19200  -2.18691  -1.14265
  Beta  occ. eigenvalues --   -1.14241  -1.14225  -1.14211  -1.14189  -1.14173
  Beta  occ. eigenvalues --   -1.13257  -1.13214  -1.13184  -1.13112  -1.13068
  Beta  occ. eigenvalues --   -1.13039  -1.13010  -1.12968  -1.12941  -1.12850
  Beta  occ. eigenvalues --   -1.12847  -1.12820  -1.12371  -1.12340  -1.12324
  Beta  occ. eigenvalues --   -0.17648  -0.13353  -0.11672
  Beta virt. eigenvalues --   -0.06617  -0.06455  -0.05137  -0.04310  -0.02720
  Beta virt. eigenvalues --   -0.02034  -0.01842  -0.01376  -0.01186  -0.00551
  Beta virt. eigenvalues --   -0.00296   0.00095   0.00313   0.00769   0.00824

 Mulliken charges and spin densities:
               1          2
     1  Na   0.020429  -0.109637
     2  Na   0.025088  -0.126826
     3  Na   0.228878   0.052735
     4  Na   0.026178   0.012671
     5  Na  -0.486796   0.705217
     6  Na   0.009529   0.399340
     7  Na   0.176694   0.066501
 Sum of Mulliken charges =  -0.00000   1.00000

 Dipole moment (field-independent basis, Debye):
    X=              0.0772    Y=             -0.3346    Z=              0.1314  Tot=              0.3677
 Quadrupole moment (field-independent basis, Debye-Ang):
   XX=            -51.6868   YY=            -65.7700   ZZ=            -75.6098
   XY=             -2.2524   XZ=             -2.0906   YZ=              0.1501

 Normal termination of Gaussian 16 at Fri Dec  8 04:36:03 2023.
