 Gaussian 16, Revision B.01,
 Gaussian 16:  ES64L-G16RevB.01 20-Dec-2017

 -------------------------
 #P B3LYP/6-311+g(d) force
 -------------------------

 -----
 DPGEN
 -----
 Symbolic Z-matrix:
 Charge =  0 Multiplicity = 2

                         Standard orientation:
 ---------------------------------------------------------------------
 Center     Atomic      Atomic             Coordinates (Angstroms)
 Number     Number       Type             X           Y           Z
 ---------------------------------------------------------------------
      1         11           0       -3.029802   -0.875524   -0.823433
      2         11           0       -0.765740    0.498693    2.095354
      3         11           0       -1.369913    2.927012   -0.288557
      4         11           0        2.498472    1.952130    0.081104
      5         11           0       -0.419346   -2.768330    0.687856
      6         11           0        0.217307   -0.254762   -1.443454
      7         11           0        2.869022   -1.479219   -0.308870
 ---------------------------------------------------------------------

 SCF Done:  E(UB3LYP) =  -1136.13512577     A.U. after   20 cycles

 The electronic state is 2-A.
 Alpha  occ. eigenvalues --  -38.44166 -38.44074 -38.43902 -38.43648 -38.43627
 Alpha  occ. eigenvalues --  -38.43422 -38.43125  -2.19959  -2.19892  -2.19689
 Alpha  occ. eigenvalues --   -2.19493  -2.19484  -2.19276  -2.19105  -1.13642
 Alpha  occ. eigenvalues --   -1.13632  -1.13585  -1.13575  -1.13534  -1.13524
 Alpha  occ. eigenvalues --   -1.13372  -1.13352  -1.13325  -1.13211  -1.13152
 Alpha  occ. eigenvalues --   -1.13146  -1.13118  -1.13117  -1.13098  -1.12963
 Alpha  occ. eigenvalues --   -1.12937  -1.12903  -1.12791  -1.12742  -1.12727
 Alpha  occ. eigenvalues --   -0.18170  -0.12868  -0.12406  -0.10663
 Alpha virt. eigenvalues --   -0.05778  -0.05138  -0.04874  -0.03091  -0.03072
 Alpha virt. eigenvalues --   -0.02427  -0.01558  -0.01274  -0.00529  -0.00458
 Alpha virt. eigenvalues --   -0.00005   0.00340   0.00754   0.00804   0.00857

  Beta  occ. eigenvalues --  -38.44166 -38.44045 -38.43901 -38.43646 -38.43540
  Beta  occ. eigenvalues --  -38.43403 -38.43080  -2.19962  -2.19841  -2.19689
  Beta  occ. eigenvalues --   -2.19492  -2.19324  -2.19245  -2.19024  -1.13634
  Beta  occ. eigenvalues --   -1.13634  -1.13587  -1.13529  -1.13495  -1.13489
  Beta  occ. eigenvalues --   -1.13360  -1.13351  -1.13323  -1.13204  -1.13140
  Beta  occ. eigenvalues --   -1.13117  -1.13045  -1.13009  -1.12982  -1.12942
  Beta  occ. eigenvalues --   -1.12886  -1.12886  -1.12729  -1.12685  -1.12667
  Beta  occ. eigenvalues --   -0.17503  -0.12611  -0.12228
  Beta virt. eigenvalues --   -0.06782  -0.05752  -0.05034  -0.04750  -0.02463
  Beta virt. eigenvalues --   -0.02378  -0.01530  -0.01351  -0.01221  -0.00494
  Beta virt. eigenvalues --   -0.00433   0.00136   0.00397   0.00777   0.00853

 Mulliken charges and spin densities:
               1          2
     1  Na   0.094325   0.070700
     2  Na  -0.271124   0.579241
     3  Na  -0.052545  -0.064487
     4  Na  -0.079860  -0.058317
     5  Na   0.029129   0.164970
     6  Na   0.109336   0.306745
     7  Na   0.170738   0.001147
 Sum of Mulliken charges =  -0.00000   1.00000

 Dipole moment (field-independent basis, Debye):
    X=              0.0060    Y=              0.2440    Z=              0.1029  Tot=              0.2649
 Quadrupole moment (field-independent basis, Debye-Ang):
   XX=            -57.6315   YY=            -61.0727   ZZ=            -74.2943
   XY=             -0.0097   XZ=              2.0951   YZ=             -1.3481

 Normal termination of Gaussian 16 at Fri Dec  8 05:25:17 2023.
