 Gaussian 16, Revision B.01,
 Gaussian 16:  ES64L-G16RevB.01 20-Dec-2017

 -------------------------
 #P B3LYP/6-311+g(d) force
 -------------------------

 -----
 DPGEN
 -----
 Symbolic Z-matrix:
 Charge =  0 Multiplicity = 2

                         Standard orientation:
 ---------------------------------------------------------------------
 Center     Atomic      Atomic             Coordinates (Angstroms)
 Number     Number       Type             X           Y           Z
 ---------------------------------------------------------------------
      1         11           0        0.911179    3.664434    0.248857
      2         11           0       -2.241733   -2.229104    0.168313
      3         11           0        2.560412    1.260367   -0.742935
      4         11           0        3.395867   -2.409128   -0.698134
      5         11           0        0.880058   -1.474012    1.403310
      6         11           0       -3.873158    0.065218   -1.146656
      7         11           0       -1.632625    1.122225    0.767245
 ---------------------------------------------------------------------

 SCF Done:  E(UB3LYP) =  -1136.12377190     A.U. after   20 cycles

 The electronic state is 2-A.
 Alpha  occ. eigenvalues --  -38.44806 -38.44409 -38.44292 -38.43840 -38.43673
 Alpha  occ. eigenvalues --  -38.43508 -38.43273  -2.20671  -2.20280  -2.20113
 Alpha  occ. eigenvalues --   -2.19735  -2.19470  -2.19332  -2.19137  -1.14351
 Alpha  occ. eigenvalues --   -1.14334  -1.14326  -1.13999  -1.13967  -1.13889
 Alpha  occ. eigenvalues --   -1.13805  -1.13786  -1.13747  -1.13385  -1.13365
 Alpha  occ. eigenvalues --   -1.13351  -1.13132  -1.13121  -1.13103  -1.13011
 Alpha  occ. eigenvalues --   -1.12982  -1.12967  -1.12817  -1.12806  -1.12752
 Alpha  occ. eigenvalues --   -0.17365  -0.14124  -0.12502  -0.10485
 Alpha virt. eigenvalues --   -0.06531  -0.05153  -0.04298  -0.04133  -0.02942
 Alpha virt. eigenvalues --   -0.01909  -0.01587  -0.01438  -0.01195  -0.00768
 Alpha virt. eigenvalues --   -0.00192   0.00217   0.00424   0.00569   0.00609

  Beta  occ. eigenvalues --  -38.44788 -38.44392 -38.44277 -38.43773 -38.43639
  Beta  occ. eigenvalues --  -38.43510 -38.43227  -2.20645  -2.20254  -2.20085
  Beta  occ. eigenvalues --   -2.19609  -2.19407  -2.19337  -2.19058  -1.14335
  Beta  occ. eigenvalues --   -1.14318  -1.14262  -1.13966  -1.13924  -1.13877
  Beta  occ. eigenvalues --   -1.13786  -1.13763  -1.13725  -1.13297  -1.13287
  Beta  occ. eigenvalues --   -1.13266  -1.13089  -1.13078  -1.13058  -1.13015
  Beta  occ. eigenvalues --   -1.12985  -1.12966  -1.12765  -1.12755  -1.12666
  Beta  occ. eigenvalues --   -0.16712  -0.13663  -0.12260
  Beta virt. eigenvalues --   -0.06917  -0.06334  -0.04987  -0.04030  -0.03621
  Beta virt. eigenvalues --   -0.02505  -0.01803  -0.01369  -0.01055  -0.00941
  Beta virt. eigenvalues --   -0.00581   0.00110   0.00415   0.00483   0.00651

 Mulliken charges and spin densities:
               1          2
     1  Na   0.497278   0.010984
     2  Na   0.151947   0.172395
     3  Na  -0.576242   0.163327
     4  Na   0.287458   0.185507
     5  Na   0.133090   0.046055
     6  Na   0.377637   0.328460
     7  Na  -0.871168   0.093271
 Sum of Mulliken charges =  -0.00000   1.00000

 Dipole moment (field-independent basis, Debye):
    X=             -0.6705    Y=             -0.3221    Z=             -0.1631  Tot=              0.7616
 Quadrupole moment (field-independent basis, Debye-Ang):
   XX=            -67.3868   YY=            -60.3738   ZZ=            -70.5807
   XY=              1.4405   XZ=             -0.9344   YZ=              2.1656

 Normal termination of Gaussian 16 at Mon Dec  4 01:13:44 2023.
