 Gaussian 16, Revision B.01,
 Gaussian 16:  ES64L-G16RevB.01 20-Dec-2017

 -------------------------
 #P B3LYP/6-311+g(d) force
 -------------------------

 -----
 DPGEN
 -----
 Symbolic Z-matrix:
 Charge =  0 Multiplicity = 2

                         Standard orientation:
 ---------------------------------------------------------------------
 Center     Atomic      Atomic             Coordinates (Angstroms)
 Number     Number       Type             X           Y           Z
 ---------------------------------------------------------------------
      1         11           0       -2.106171    2.531437    0.444753
      2         11           0        2.966727   -1.220622    0.674564
      3         11           0       -0.083245   -0.393305    1.596062
      4         11           0        0.243406    0.441471   -1.239650
      5         11           0       -0.542038   -2.740406   -0.740329
      6         11           0        2.430824    2.124692   -0.593757
      7         11           0       -2.909503   -0.743267   -0.141644
 ---------------------------------------------------------------------

 SCF Done:  E(UB3LYP) =  -1136.12654084     A.U. after   20 cycles

 The electronic state is 2-A.
 Alpha  occ. eigenvalues --  -38.44148 -38.44063 -38.43940 -38.43591 -38.43501
 Alpha  occ. eigenvalues --  -38.43125 -38.43037  -2.19982  -2.19928  -2.19849
 Alpha  occ. eigenvalues --   -2.19502  -2.19405  -2.19201  -2.18945  -1.13728
 Alpha  occ. eigenvalues --   -1.13668  -1.13628  -1.13613  -1.13548  -1.13543
 Alpha  occ. eigenvalues --   -1.13521  -1.13521  -1.13485  -1.13298  -1.13121
 Alpha  occ. eigenvalues --   -1.13095  -1.13075  -1.13051  -1.13049  -1.12877
 Alpha  occ. eigenvalues --   -1.12844  -1.12775  -1.12615  -1.12597  -1.12568
 Alpha  occ. eigenvalues --   -0.18866  -0.13542  -0.12307  -0.10453
 Alpha virt. eigenvalues --   -0.05739  -0.05466  -0.04447  -0.03190  -0.02703
 Alpha virt. eigenvalues --   -0.01871  -0.01805  -0.01345  -0.00541  -0.00144
 Alpha virt. eigenvalues --    0.00038   0.00279   0.00741   0.00788   0.00881

  Beta  occ. eigenvalues --  -38.44120 -38.44037 -38.43932 -38.43584 -38.43442
  Beta  occ. eigenvalues --  -38.43077 -38.43016  -2.19933  -2.19881  -2.19839
  Beta  occ. eigenvalues --   -2.19395  -2.19391  -2.19117  -2.18908  -1.13686
  Beta  occ. eigenvalues --   -1.13621  -1.13596  -1.13576  -1.13541  -1.13510
  Beta  occ. eigenvalues --   -1.13504  -1.13489  -1.13459  -1.13224  -1.13066
  Beta  occ. eigenvalues --   -1.13055  -1.13048  -1.13035  -1.12996  -1.12802
  Beta  occ. eigenvalues --   -1.12778  -1.12725  -1.12590  -1.12571  -1.12524
  Beta  occ. eigenvalues --   -0.18272  -0.13188  -0.11964
  Beta virt. eigenvalues --   -0.06756  -0.05641  -0.05281  -0.04372  -0.02534
  Beta virt. eigenvalues --   -0.02100  -0.01657  -0.01262  -0.00939  -0.00490
  Beta virt. eigenvalues --   -0.00129   0.00156   0.00350   0.00804   0.00812

 Mulliken charges and spin densities:
               1          2
     1  Na  -0.252146   0.100055
     2  Na   0.061050   0.145402
     3  Na  -0.220781   0.485902
     4  Na   0.021751   0.027779
     5  Na   0.162625   0.151123
     6  Na  -0.132368   0.079609
     7  Na   0.359870   0.010129
 Sum of Mulliken charges =  -0.00000   1.00000

 Dipole moment (field-independent basis, Debye):
    X=              0.1735    Y=             -0.0089    Z=              0.2107  Tot=              0.2730
 Quadrupole moment (field-independent basis, Debye-Ang):
   XX=            -53.9170   YY=            -62.5555   ZZ=            -75.3058
   XY=             -0.6483   XZ=              0.6437   YZ=              1.6004

 Normal termination of Gaussian 16 at Thu Dec  7 15:31:34 2023.
