 Gaussian 16, Revision B.01,
 Gaussian 16:  ES64L-G16RevB.01 20-Dec-2017

 -------------------------
 #P B3LYP/6-311+g(d) force
 -------------------------

 -----
 DPGEN
 -----
 Symbolic Z-matrix:
 Charge =  0 Multiplicity = 2

                         Standard orientation:
 ---------------------------------------------------------------------
 Center     Atomic      Atomic             Coordinates (Angstroms)
 Number     Number       Type             X           Y           Z
 ---------------------------------------------------------------------
      1         11           0        1.917729   -1.582785    1.163986
      2         11           0       -2.332199    2.834604   -0.660082
      3         11           0       -1.342362   -0.112143    2.287043
      4         11           0        1.705786    1.600329    0.628814
      5         11           0        3.254122    0.027791   -1.589999
      6         11           0       -2.653580   -2.449773   -1.137965
      7         11           0       -0.549497   -0.318024   -0.691797
 ---------------------------------------------------------------------

 SCF Done:  E(UB3LYP) =  -1136.11601164     A.U. after   25 cycles

 The electronic state is 2-A.
 Alpha  occ. eigenvalues --  -38.44782 -38.44467 -38.44224 -38.43963 -38.43768
 Alpha  occ. eigenvalues --  -38.43542 -38.42634  -2.20620  -2.20322  -2.20110
 Alpha  occ. eigenvalues --   -2.19880  -2.19582  -2.19291  -2.18683  -1.14330
 Alpha  occ. eigenvalues --   -1.14255  -1.14216  -1.14004  -1.13968  -1.13951
 Alpha  occ. eigenvalues --   -1.13822  -1.13775  -1.13710  -1.13590  -1.13552
 Alpha  occ. eigenvalues --   -1.13462  -1.13289  -1.13210  -1.13196  -1.12970
 Alpha  occ. eigenvalues --   -1.12953  -1.12914  -1.12426  -1.12344  -1.12274
 Alpha  occ. eigenvalues --   -0.18377  -0.13366  -0.11448  -0.11009
 Alpha virt. eigenvalues --   -0.05651  -0.05471  -0.05133  -0.02997  -0.02501
 Alpha virt. eigenvalues --   -0.02387  -0.01716  -0.01274  -0.01111   0.00082
 Alpha virt. eigenvalues --    0.00196   0.00236   0.00278   0.00487   0.00753

  Beta  occ. eigenvalues --  -38.44725 -38.44432 -38.44196 -38.43956 -38.43723
  Beta  occ. eigenvalues --  -38.43534 -38.42614  -2.20518  -2.20254  -2.20062
  Beta  occ. eigenvalues --   -2.19872  -2.19499  -2.19277  -2.18651  -1.14264
  Beta  occ. eigenvalues --   -1.14168  -1.14144  -1.13961  -1.13919  -1.13909
  Beta  occ. eigenvalues --   -1.13789  -1.13740  -1.13659  -1.13589  -1.13505
  Beta  occ. eigenvalues --   -1.13462  -1.13227  -1.13154  -1.13141  -1.12956
  Beta  occ. eigenvalues --   -1.12944  -1.12906  -1.12357  -1.12327  -1.12257
  Beta  occ. eigenvalues --   -0.17661  -0.13009  -0.10772
  Beta virt. eigenvalues --   -0.07712  -0.05501  -0.05157  -0.04646  -0.02731
  Beta virt. eigenvalues --   -0.02109  -0.01757  -0.01602  -0.01011  -0.00729
  Beta virt. eigenvalues --    0.00189   0.00253   0.00327   0.00362   0.00557

 Mulliken charges and spin densities:
               1          2
     1  Na  -0.106194   0.358592
     2  Na  -0.057926   0.034257
     3  Na   0.211730   0.395420
     4  Na   0.863975   0.198082
     5  Na   0.399667  -0.008539
     6  Na  -0.236966   0.311170
     7  Na  -1.074286  -0.288983
 Sum of Mulliken charges =  -0.00000   1.00000

 Dipole moment (field-independent basis, Debye):
    X=              0.8213    Y=             -0.3056    Z=              0.4942  Tot=              1.0061
 Quadrupole moment (field-independent basis, Debye-Ang):
   XX=            -56.8027   YY=            -72.0465   ZZ=            -63.4870
   XY=             -0.7428   XZ=             -2.7973   YZ=             -0.4055

 Normal termination of Gaussian 16 at Tue Dec  5 13:11:05 2023.
