 Gaussian 16, Revision B.01,
 Gaussian 16:  ES64L-G16RevB.01 20-Dec-2017

 -------------------------
 #P B3LYP/6-311+g(d) force
 -------------------------

 -----
 DPGEN
 -----
 Symbolic Z-matrix:
 Charge =  0 Multiplicity = 2

                         Standard orientation:
 ---------------------------------------------------------------------
 Center     Atomic      Atomic             Coordinates (Angstroms)
 Number     Number       Type             X           Y           Z
 ---------------------------------------------------------------------
      1         11           0        0.121081    0.085630   -1.543369
      2         11           0       -2.505176    1.808313    0.005993
      3         11           0        4.155913   -0.313699   -0.982866
      4         11           0        1.096627    1.789796    0.556705
      5         11           0        1.920340   -1.292117    1.401190
      6         11           0       -1.247488   -0.443149    1.297742
      7         11           0       -3.541297   -1.634775   -0.735394
 ---------------------------------------------------------------------

 SCF Done:  E(UB3LYP) =  -1136.11276156     A.U. after   29 cycles

 The electronic state is 2-A.
 Alpha  occ. eigenvalues --  -38.45379 -38.44544 -38.44538 -38.43861 -38.43383
 Alpha  occ. eigenvalues --  -38.42873 -38.42859  -2.21317  -2.20438  -2.20342
 Alpha  occ. eigenvalues --   -2.19772  -2.19463  -2.18844  -2.18693  -1.15066
 Alpha  occ. eigenvalues --   -1.14979  -1.14896  -1.14227  -1.14101  -1.14003
 Alpha  occ. eigenvalues --   -1.13998  -1.13997  -1.13958  -1.13470  -1.13430
 Alpha  occ. eigenvalues --   -1.13383  -1.13171  -1.13134  -1.13030  -1.12594
 Alpha  occ. eigenvalues --   -1.12508  -1.12401  -1.12364  -1.12351  -1.12336
 Alpha  occ. eigenvalues --   -0.19112  -0.14337  -0.11414  -0.10770
 Alpha virt. eigenvalues --   -0.07020  -0.05028  -0.04631  -0.03016  -0.02892
 Alpha virt. eigenvalues --   -0.02220  -0.01946  -0.01149  -0.01055  -0.00123
 Alpha virt. eigenvalues --    0.00016   0.00284   0.00325   0.00628   0.00649

  Beta  occ. eigenvalues --  -38.45342 -38.44539 -38.44496 -38.43802 -38.43330
  Beta  occ. eigenvalues --  -38.42871 -38.42845  -2.21252  -2.20443  -2.20253
  Beta  occ. eigenvalues --   -2.19670  -2.19372  -2.18823  -2.18691  -1.15018
  Beta  occ. eigenvalues --   -1.14922  -1.14849  -1.14230  -1.14094  -1.13998
  Beta  occ. eigenvalues --   -1.13942  -1.13934  -1.13900  -1.13388  -1.13366
  Beta  occ. eigenvalues --   -1.13286  -1.13113  -1.13057  -1.12952  -1.12579
  Beta  occ. eigenvalues --   -1.12448  -1.12402  -1.12359  -1.12351  -1.12332
  Beta  occ. eigenvalues --   -0.18394  -0.13987  -0.10696
  Beta virt. eigenvalues --   -0.07350  -0.06811  -0.04940  -0.04050  -0.02680
  Beta virt. eigenvalues --   -0.02651  -0.01715  -0.01422  -0.01019  -0.00662
  Beta virt. eigenvalues --   -0.00020   0.00073   0.00368   0.00469   0.00668

 Mulliken charges and spin densities:
               1          2
     1  Na  -0.783653   0.273103
     2  Na   0.341663   0.208883
     3  Na   0.457860   0.293535
     4  Na   0.290435   0.093657
     5  Na  -0.361756   0.144516
     6  Na   0.067250  -0.090938
     7  Na  -0.011800   0.077244
 Sum of Mulliken charges =  -0.00000   1.00000

 Dipole moment (field-independent basis, Debye):
    X=              0.4944    Y=              0.9543    Z=             -0.2614  Tot=              1.1061
 Quadrupole moment (field-independent basis, Debye-Ang):
   XX=            -56.8846   YY=            -72.8719   ZZ=            -67.8397
   XY=             -3.2742   XZ=              0.1988   YZ=              0.7275

 Normal termination of Gaussian 16 at Thu Dec  7 11:49:44 2023.
