 Gaussian 16, Revision B.01,
 Gaussian 16:  ES64L-G16RevB.01 20-Dec-2017

 -------------------------
 #P B3LYP/6-311+g(d) force
 -------------------------

 -----
 DPGEN
 -----
 Symbolic Z-matrix:
 Charge =  0 Multiplicity = 2

                         Standard orientation:
 ---------------------------------------------------------------------
 Center     Atomic      Atomic             Coordinates (Angstroms)
 Number     Number       Type             X           Y           Z
 ---------------------------------------------------------------------
      1         11           0       -0.297267   -0.188359    1.996495
      2         11           0        2.222718   -2.661579   -0.008541
      3         11           0        3.136932    0.689867    0.006544
      4         11           0       -1.928517    1.480303   -0.828091
      5         11           0       -0.064774   -0.817492   -1.729141
      6         11           0        0.535323    2.873239    0.220132
      7         11           0       -3.604415   -1.375980    0.342603
 ---------------------------------------------------------------------

 SCF Done:  E(UB3LYP) =  -1136.12673407     A.U. after   21 cycles

 The electronic state is 2-A.
 Alpha  occ. eigenvalues --  -38.44794 -38.44714 -38.44297 -38.43813 -38.43662
 Alpha  occ. eigenvalues --  -38.43480 -38.42739  -2.20594  -2.20477  -2.20132
 Alpha  occ. eigenvalues --   -2.19703  -2.19470  -2.19427  -2.18619  -1.14277
 Alpha  occ. eigenvalues --   -1.14257  -1.14227  -1.14151  -1.14139  -1.14107
 Alpha  occ. eigenvalues --   -1.13811  -1.13773  -1.13738  -1.13427  -1.13361
 Alpha  occ. eigenvalues --   -1.13313  -1.13138  -1.13127  -1.13118  -1.13113
 Alpha  occ. eigenvalues --   -1.13088  -1.13035  -1.12305  -1.12265  -1.12261
 Alpha  occ. eigenvalues --   -0.18206  -0.13273  -0.12006  -0.10823
 Alpha virt. eigenvalues --   -0.06566  -0.05284  -0.04270  -0.03366  -0.02752
 Alpha virt. eigenvalues --   -0.02709  -0.02161  -0.01182  -0.00599  -0.00187
 Alpha virt. eigenvalues --   -0.00023   0.00252   0.00583   0.00672   0.00739

  Beta  occ. eigenvalues --  -38.44793 -38.44708 -38.44216 -38.43745 -38.43663
  Beta  occ. eigenvalues --  -38.43449 -38.42737  -2.20594  -2.20468  -2.19981
  Beta  occ. eigenvalues --   -2.19579  -2.19473  -2.19375  -2.18618  -1.14269
  Beta  occ. eigenvalues --   -1.14254  -1.14229  -1.14147  -1.14118  -1.14103
  Beta  occ. eigenvalues --   -1.13709  -1.13668  -1.13626  -1.13342  -1.13268
  Beta  occ. eigenvalues --   -1.13230  -1.13133  -1.13120  -1.13117  -1.13085
  Beta  occ. eigenvalues --   -1.13035  -1.12985  -1.12304  -1.12267  -1.12238
  Beta  occ. eigenvalues --   -0.17476  -0.13092  -0.11805
  Beta virt. eigenvalues --   -0.06973  -0.06409  -0.05181  -0.04179  -0.02757
  Beta virt. eigenvalues --   -0.02169  -0.01989  -0.01652  -0.01048  -0.00661
  Beta virt. eigenvalues --   -0.00068   0.00059   0.00286   0.00711   0.00780

 Mulliken charges and spin densities:
               1          2
     1  Na  -0.347340   0.646386
     2  Na   0.120649  -0.070981
     3  Na  -0.041601   0.028651
     4  Na   0.442190   0.261052
     5  Na  -0.085111   0.239046
     6  Na  -0.091192  -0.080037
     7  Na   0.002405  -0.024118
 Sum of Mulliken charges =  -0.00000   1.00000

 Dipole moment (field-independent basis, Debye):
    X=              0.0347    Y=             -0.6365    Z=              0.2288  Tot=              0.6773
 Quadrupole moment (field-independent basis, Debye-Ang):
   XX=            -53.5844   YY=            -66.3770   ZZ=            -73.9744
   XY=              2.1023   XZ=              0.3211   YZ=             -1.3714

 Normal termination of Gaussian 16 at Thu Dec  7 04:19:16 2023.
