 Gaussian 16, Revision B.01,
 Gaussian 16:  ES64L-G16RevB.01 20-Dec-2017

 -------------------------
 #P B3LYP/6-311+g(d) force
 -------------------------

 -----
 DPGEN
 -----
 Symbolic Z-matrix:
 Charge =  0 Multiplicity = 2

                         Standard orientation:
 ---------------------------------------------------------------------
 Center     Atomic      Atomic             Coordinates (Angstroms)
 Number     Number       Type             X           Y           Z
 ---------------------------------------------------------------------
      1         11           0       -0.456626    0.291346   -1.964642
      2         11           0       -2.406260   -1.637980    1.297370
      3         11           0        0.379462   -2.603227   -0.820755
      4         11           0        1.281489   -0.120242    2.385046
      5         11           0        3.154772   -0.231677   -0.872869
      6         11           0        0.917907    2.748667    0.571209
      7         11           0       -2.870744    1.553112   -0.595359
 ---------------------------------------------------------------------

 SCF Done:  E(UB3LYP) =  -1136.12643867     A.U. after   21 cycles

 The electronic state is 2-A.
 Alpha  occ. eigenvalues --  -38.44830 -38.44512 -38.44361 -38.44048 -38.43617
 Alpha  occ. eigenvalues --  -38.43551 -38.43147  -2.20638  -2.20297  -2.20143
 Alpha  occ. eigenvalues --   -2.19961  -2.19437  -2.19339  -2.18981  -1.14304
 Alpha  occ. eigenvalues --   -1.14269  -1.14256  -1.13980  -1.13950  -1.13927
 Alpha  occ. eigenvalues --   -1.13811  -1.13786  -1.13775  -1.13648  -1.13626
 Alpha  occ. eigenvalues --   -1.13591  -1.13131  -1.13079  -1.13053  -1.13034
 Alpha  occ. eigenvalues --   -1.13006  -1.12959  -1.12693  -1.12637  -1.12599
 Alpha  occ. eigenvalues --   -0.17728  -0.12740  -0.11904  -0.11792
 Alpha virt. eigenvalues --   -0.05747  -0.05267  -0.04273  -0.03719  -0.03414
 Alpha virt. eigenvalues --   -0.03250  -0.01485  -0.00787  -0.00524  -0.00122
 Alpha virt. eigenvalues --    0.00071   0.00384   0.00472   0.00539   0.00761

  Beta  occ. eigenvalues --  -38.44753 -38.44500 -38.44319 -38.43989 -38.43613
  Beta  occ. eigenvalues --  -38.43549 -38.43142  -2.20495  -2.20277  -2.20065
  Beta  occ. eigenvalues --   -2.19853  -2.19431  -2.19336  -2.18975  -1.14206
  Beta  occ. eigenvalues --   -1.14174  -1.14151  -1.13958  -1.13938  -1.13907
  Beta  occ. eigenvalues --   -1.13751  -1.13736  -1.13721  -1.13566  -1.13554
  Beta  occ. eigenvalues --   -1.13522  -1.13113  -1.13074  -1.13051  -1.13022
  Beta  occ. eigenvalues --   -1.13002  -1.12956  -1.12682  -1.12630  -1.12584
  Beta  occ. eigenvalues --   -0.16996  -0.12511  -0.11558
  Beta virt. eigenvalues --   -0.08081  -0.05613  -0.04826  -0.04054  -0.03333
  Beta virt. eigenvalues --   -0.02752  -0.02483  -0.01372  -0.00666  -0.00353
  Beta virt. eigenvalues --   -0.00005   0.00112   0.00436   0.00600   0.00715

 Mulliken charges and spin densities:
               1          2
     1  Na   0.068606   0.276889
     2  Na  -0.376260   0.255385
     3  Na  -0.033687   0.055531
     4  Na   0.042180   0.523052
     5  Na   0.220523  -0.054428
     6  Na  -0.381532  -0.076745
     7  Na   0.460171   0.020315
 Sum of Mulliken charges =  -0.00000   1.00000

 Dipole moment (field-independent basis, Debye):
    X=              0.4223    Y=             -0.0224    Z=              0.4069  Tot=              0.5869
 Quadrupole moment (field-independent basis, Debye-Ang):
   XX=            -59.6808   YY=            -70.6851   ZZ=            -66.5398
   XY=             -0.2794   XZ=             -3.5147   YZ=             -1.3793

 Normal termination of Gaussian 16 at Sun Dec  3 16:11:01 2023.
