 Gaussian 16, Revision B.01,
 Gaussian 16:  ES64L-G16RevB.01 20-Dec-2017

 -------------------------
 #P B3LYP/6-311+g(d) force
 -------------------------

 -----
 DPGEN
 -----
 Symbolic Z-matrix:
 Charge =  0 Multiplicity = 2

                         Standard orientation:
 ---------------------------------------------------------------------
 Center     Atomic      Atomic             Coordinates (Angstroms)
 Number     Number       Type             X           Y           Z
 ---------------------------------------------------------------------
      1         11           0        3.392566   -0.850405    0.042066
      2         11           0       -0.236923   -0.297745    2.281146
      3         11           0        0.379439   -2.979144   -0.482238
      4         11           0        1.561105    3.307557   -0.112297
      5         11           0       -2.657435    1.909986   -0.169156
      6         11           0        0.296525    0.288606   -1.305892
      7         11           0       -2.735277   -1.378856   -0.253628
 ---------------------------------------------------------------------

 SCF Done:  E(UB3LYP) =  -1136.12900562     A.U. after   20 cycles

 The electronic state is 2-A.
 Alpha  occ. eigenvalues --  -38.44911 -38.44358 -38.44343 -38.43645 -38.43619
 Alpha  occ. eigenvalues --  -38.43577 -38.43117  -2.20665  -2.20142  -2.20100
 Alpha  occ. eigenvalues --   -2.19482  -2.19473  -2.19411  -2.19048  -1.14343
 Alpha  occ. eigenvalues --   -1.14319  -1.14303  -1.13820  -1.13802  -1.13782
 Alpha  occ. eigenvalues --   -1.13778  -1.13753  -1.13744  -1.13153  -1.13140
 Alpha  occ. eigenvalues --   -1.13133  -1.13127  -1.13102  -1.13098  -1.13090
 Alpha  occ. eigenvalues --   -1.13064  -1.13034  -1.12757  -1.12684  -1.12683
 Alpha  occ. eigenvalues --   -0.17894  -0.12793  -0.12201  -0.10351
 Alpha virt. eigenvalues --   -0.06437  -0.05396  -0.04892  -0.02936  -0.02585
 Alpha virt. eigenvalues --   -0.02478  -0.01859  -0.01571  -0.00919  -0.00704
 Alpha virt. eigenvalues --   -0.00041   0.00281   0.00660   0.00730   0.00759

  Beta  occ. eigenvalues --  -38.44912 -38.44362 -38.44339 -38.43610 -38.43564
  Beta  occ. eigenvalues --  -38.43528 -38.43083  -2.20669  -2.20136  -2.20109
  Beta  occ. eigenvalues --   -2.19462  -2.19390  -2.19263  -2.18988  -1.14334
  Beta  occ. eigenvalues --   -1.14321  -1.14309  -1.13815  -1.13787  -1.13780
  Beta  occ. eigenvalues --   -1.13778  -1.13759  -1.13752  -1.13141  -1.13127
  Beta  occ. eigenvalues --   -1.13099  -1.13080  -1.13038  -1.13021  -1.12985
  Beta  occ. eigenvalues --   -1.12953  -1.12939  -1.12707  -1.12641  -1.12634
  Beta  occ. eigenvalues --   -0.17204  -0.12639  -0.12033
  Beta virt. eigenvalues --   -0.06458  -0.06308  -0.05294  -0.04867  -0.02265
  Beta virt. eigenvalues --   -0.01977  -0.01767  -0.01573  -0.01270  -0.00921
  Beta virt. eigenvalues --   -0.00738   0.00158   0.00351   0.00670   0.00815

 Mulliken charges and spin densities:
               1          2
     1  Na   0.016239  -0.020923
     2  Na  -0.600344   0.772195
     3  Na   0.276122   0.083972
     4  Na  -0.051000  -0.057025
     5  Na   0.089319  -0.010319
     6  Na  -0.048821   0.122045
     7  Na   0.318486   0.110055
 Sum of Mulliken charges =  -0.00000   1.00000

 Dipole moment (field-independent basis, Debye):
    X=              0.4470    Y=              0.2152    Z=              0.1041  Tot=              0.5069
 Quadrupole moment (field-independent basis, Debye-Ang):
   XX=            -54.6781   YY=            -59.7360   ZZ=            -77.6398
   XY=             -1.0511   XZ=              1.4140   YZ=              1.4195

 Normal termination of Gaussian 16 at Fri Dec  8 02:36:48 2023.
