 Gaussian 16, Revision B.01,
 Gaussian 16:  ES64L-G16RevB.01 20-Dec-2017

 -------------------------
 #P B3LYP/6-311+g(d) force
 -------------------------

 -----
 DPGEN
 -----
 Symbolic Z-matrix:
 Charge =  0 Multiplicity = 2

                         Standard orientation:
 ---------------------------------------------------------------------
 Center     Atomic      Atomic             Coordinates (Angstroms)
 Number     Number       Type             X           Y           Z
 ---------------------------------------------------------------------
      1         11           0       -0.088006    0.121226    0.160834
      2         11           0       -9.556388    1.294617   -0.031631
      3         11           0       -6.965980   -0.823297   -0.566213
      4         11           0       -2.902143   -0.816323    1.101271
      5         11           0        3.436110   -0.068573   -0.873597
      6         11           0        7.121075   -1.033604   -0.049505
      7         11           0        8.955332    1.325955    0.258840
 ---------------------------------------------------------------------

 SCF Done:  E(UB3LYP) =  -1136.10260841     A.U. after   19 cycles

 The electronic state is 2-A.
 Alpha  occ. eigenvalues --  -38.45162 -38.45079 -38.44691 -38.44596 -38.44417
 Alpha  occ. eigenvalues --  -38.44393 -38.43795  -2.20973  -2.20863  -2.20449
 Alpha  occ. eigenvalues --   -2.20400  -2.20228  -2.20132  -2.19585  -1.14664
 Alpha  occ. eigenvalues --   -1.14609  -1.14605  -1.14513  -1.14510  -1.14460
 Alpha  occ. eigenvalues --   -1.14109  -1.14108  -1.14077  -1.14065  -1.14060
 Alpha  occ. eigenvalues --   -1.14044  -1.13889  -1.13869  -1.13858  -1.13813
 Alpha  occ. eigenvalues --   -1.13806  -1.13765  -1.13261  -1.13260  -1.13246
 Alpha  occ. eigenvalues --   -0.15027  -0.14036  -0.12908  -0.11541
 Alpha virt. eigenvalues --   -0.06978  -0.05767  -0.04146  -0.03338  -0.03088
 Alpha virt. eigenvalues --   -0.02625  -0.02569  -0.02145  -0.01570  -0.01433
 Alpha virt. eigenvalues --   -0.01106  -0.00523  -0.00268   0.00111   0.00455

  Beta  occ. eigenvalues --  -38.45113 -38.44975 -38.44660 -38.44604 -38.44407
  Beta  occ. eigenvalues --  -38.44351 -38.43808  -2.20882  -2.20668  -2.20419
  Beta  occ. eigenvalues --   -2.20392  -2.20160  -2.20103  -2.19615  -1.14606
  Beta  occ. eigenvalues --   -1.14546  -1.14542  -1.14380  -1.14378  -1.14333
  Beta  occ. eigenvalues --   -1.14077  -1.14071  -1.14069  -1.14069  -1.14041
  Beta  occ. eigenvalues --   -1.14034  -1.13834  -1.13826  -1.13811  -1.13783
  Beta  occ. eigenvalues --   -1.13775  -1.13769  -1.13287  -1.13287  -1.13215
  Beta  occ. eigenvalues --   -0.14270  -0.13513  -0.12469
  Beta virt. eigenvalues --   -0.08379  -0.06556  -0.05389  -0.03830  -0.03131
  Beta virt. eigenvalues --   -0.02839  -0.02435  -0.02423  -0.01917  -0.01289
  Beta virt. eigenvalues --   -0.01149  -0.00755  -0.00321  -0.00059   0.00307

 Mulliken charges and spin densities:
               1          2
     1  Na  -0.083159   0.091232
     2  Na   0.277020   0.141441
     3  Na  -0.243506  -0.058152
     4  Na  -0.025153   0.236203
     5  Na   0.024514   0.398838
     6  Na  -0.129976  -0.032658
     7  Na   0.180261   0.223095
 Sum of Mulliken charges =  -0.00000   1.00000

 Dipole moment (field-independent basis, Debye):
    X=              1.5483    Y=              0.6639    Z=              0.0719  Tot=              1.6862
 Quadrupole moment (field-independent basis, Debye-Ang):
   XX=            -39.5574   YY=            -64.7366   ZZ=            -74.1480
   XY=              0.6239   XZ=             -1.7824   YZ=              1.0319

 Normal termination of Gaussian 16 at Sun Dec  3 14:49:09 2023.
