 Gaussian 16, Revision B.01,
 Gaussian 16:  ES64L-G16RevB.01 20-Dec-2017

 -------------------------
 #P B3LYP/6-311+g(d) force
 -------------------------

 -----
 DPGEN
 -----
 Symbolic Z-matrix:
 Charge =  0 Multiplicity = 2

                         Standard orientation:
 ---------------------------------------------------------------------
 Center     Atomic      Atomic             Coordinates (Angstroms)
 Number     Number       Type             X           Y           Z
 ---------------------------------------------------------------------
      1         11           0        3.208677    0.934259   -0.104884
      2         11           0        0.054162    0.237158   -1.630665
      3         11           0       -1.566738   -2.532749    0.210469
      4         11           0       -2.818615    0.285714   -0.354078
      5         11           0        1.720559   -2.238936   -0.267525
      6         11           0       -0.732631    3.191000    0.083048
      7         11           0        0.134586    0.123553    2.063634
 ---------------------------------------------------------------------

 SCF Done:  E(UB3LYP) =  -1136.13622991     A.U. after   19 cycles

 The electronic state is 2-A.
 Alpha  occ. eigenvalues --  -38.44216 -38.43891 -38.43671 -38.43642 -38.43584
 Alpha  occ. eigenvalues --  -38.43222 -38.43211  -2.20007  -2.19687  -2.19569
 Alpha  occ. eigenvalues --   -2.19516  -2.19459  -2.19188  -2.19106  -1.13681
 Alpha  occ. eigenvalues --   -1.13659  -1.13654  -1.13361  -1.13348  -1.13334
 Alpha  occ. eigenvalues --   -1.13296  -1.13236  -1.13195  -1.13187  -1.13165
 Alpha  occ. eigenvalues --   -1.13144  -1.13136  -1.13113  -1.13085  -1.12867
 Alpha  occ. eigenvalues --   -1.12818  -1.12807  -1.12772  -1.12755  -1.12750
 Alpha  occ. eigenvalues --   -0.18646  -0.12927  -0.12489  -0.10753
 Alpha virt. eigenvalues --   -0.05811  -0.05141  -0.04609  -0.03120  -0.02953
 Alpha virt. eigenvalues --   -0.02591  -0.01516  -0.01327  -0.00375  -0.00243
 Alpha virt. eigenvalues --    0.00006   0.00353   0.00802   0.00844   0.00907

  Beta  occ. eigenvalues --  -38.44215 -38.43890 -38.43660 -38.43575 -38.43546
  Beta  occ. eigenvalues --  -38.43217 -38.43148  -2.20008  -2.19688  -2.19553
  Beta  occ. eigenvalues --   -2.19447  -2.19338  -2.19101  -2.19073  -1.13669
  Beta  occ. eigenvalues --   -1.13662  -1.13652  -1.13353  -1.13346  -1.13332
  Beta  occ. eigenvalues --   -1.13280  -1.13209  -1.13176  -1.13158  -1.13095
  Beta  occ. eigenvalues --   -1.13082  -1.13064  -1.13014  -1.13003  -1.12792
  Beta  occ. eigenvalues --   -1.12772  -1.12755  -1.12733  -1.12725  -1.12715
  Beta  occ. eigenvalues --   -0.17904  -0.12685  -0.12278
  Beta virt. eigenvalues --   -0.06819  -0.05823  -0.05042  -0.04611  -0.02343
  Beta virt. eigenvalues --   -0.02188  -0.01564  -0.01420  -0.01226  -0.00415
  Beta virt. eigenvalues --   -0.00274   0.00136   0.00378   0.00801   0.00874

 Mulliken charges and spin densities:
               1          2
     1  Na   0.021357  -0.106380
     2  Na  -0.160355   0.303648
     3  Na   0.120397   0.052031
     4  Na   0.342145   0.056106
     5  Na   0.225075   0.034622
     6  Na  -0.004089  -0.097020
     7  Na  -0.544529   0.756993
 Sum of Mulliken charges =  -0.00000   1.00000

 Dipole moment (field-independent basis, Debye):
    X=              0.3833    Y=              0.4240    Z=              0.1493  Tot=              0.5908
 Quadrupole moment (field-independent basis, Debye-Ang):
   XX=            -58.8084   YY=            -59.8903   ZZ=            -74.5660
   XY=              0.9638   XZ=             -0.0860   YZ=              0.2641

 Normal termination of Gaussian 16 at Thu Dec  7 13:56:33 2023.
