 Gaussian 16, Revision B.01,
 Gaussian 16:  ES64L-G16RevB.01 20-Dec-2017

 -------------------------
 #P B3LYP/6-311+g(d) force
 -------------------------

 -----
 DPGEN
 -----
 Symbolic Z-matrix:
 Charge =  0 Multiplicity = 2

                         Standard orientation:
 ---------------------------------------------------------------------
 Center     Atomic      Atomic             Coordinates (Angstroms)
 Number     Number       Type             X           Y           Z
 ---------------------------------------------------------------------
      1         11           0        3.118814   -0.336294   -0.357759
      2         11           0       -0.050346   -0.345734    1.938394
      3         11           0        0.609766   -2.605304   -0.102951
      4         11           0       -2.432378    1.786913   -0.194821
      5         11           0        1.370233    2.569423    0.449741
      6         11           0       -2.519177   -1.379781   -0.007479
      7         11           0       -0.096910    0.310776   -1.725126
 ---------------------------------------------------------------------

 SCF Done:  E(UB3LYP) =  -1136.13745450     A.U. after   19 cycles

 The electronic state is 2-A.
 Alpha  occ. eigenvalues --  -38.44057 -38.43663 -38.43559 -38.43496 -38.43453
 Alpha  occ. eigenvalues --  -38.43301 -38.42921  -2.19895  -2.19539  -2.19481
 Alpha  occ. eigenvalues --   -2.19449  -2.19290  -2.19286  -2.18846  -1.13568
 Alpha  occ. eigenvalues --   -1.13551  -1.13541  -1.13286  -1.13227  -1.13190
 Alpha  occ. eigenvalues --   -1.13170  -1.13150  -1.13119  -1.13086  -1.13078
 Alpha  occ. eigenvalues --   -1.13049  -1.12978  -1.12959  -1.12953  -1.12921
 Alpha  occ. eigenvalues --   -1.12909  -1.12891  -1.12533  -1.12508  -1.12466
 Alpha  occ. eigenvalues --   -0.19090  -0.13275  -0.12413  -0.10977
 Alpha virt. eigenvalues --   -0.05595  -0.05079  -0.04405  -0.03314  -0.02980
 Alpha virt. eigenvalues --   -0.02571  -0.01515  -0.00968  -0.00237  -0.00038
 Alpha virt. eigenvalues --   -0.00000   0.00363   0.00824   0.00913   0.00943

  Beta  occ. eigenvalues --  -38.44051 -38.43658 -38.43552 -38.43443 -38.43408
  Beta  occ. eigenvalues --  -38.43233 -38.42913  -2.19886  -2.19533  -2.19472
  Beta  occ. eigenvalues --   -2.19287  -2.19272  -2.19163  -2.18836  -1.13552
  Beta  occ. eigenvalues --   -1.13544  -1.13530  -1.13278  -1.13213  -1.13165
  Beta  occ. eigenvalues --   -1.13153  -1.13115  -1.13076  -1.13026  -1.12978
  Beta  occ. eigenvalues --   -1.12956  -1.12940  -1.12915  -1.12911  -1.12880
  Beta  occ. eigenvalues --   -1.12825  -1.12807  -1.12525  -1.12479  -1.12449
  Beta  occ. eigenvalues --   -0.18346  -0.13010  -0.12150
  Beta virt. eigenvalues --   -0.07052  -0.05545  -0.05066  -0.04367  -0.02526
  Beta virt. eigenvalues --   -0.02195  -0.01522  -0.01418  -0.00899  -0.00253
  Beta virt. eigenvalues --   -0.00086   0.00121   0.00387   0.00884   0.00912

 Mulliken charges and spin densities:
               1          2
     1  Na   0.064228  -0.048438
     2  Na  -0.481375   0.675460
     3  Na   0.258895  -0.038828
     4  Na   0.230695  -0.044160
     5  Na   0.003974  -0.022996
     6  Na   0.317149  -0.029695
     7  Na  -0.393566   0.508657
 Sum of Mulliken charges =  -0.00000   1.00000

 Dipole moment (field-independent basis, Debye):
    X=              0.1341    Y=              0.1664    Z=              0.0528  Tot=              0.2202
 Quadrupole moment (field-independent basis, Debye-Ang):
   XX=            -56.3049   YY=            -64.6877   ZZ=            -73.0288
   XY=             -0.2337   XZ=             -0.4505   YZ=              1.5124

 Normal termination of Gaussian 16 at Thu Dec  7 19:14:53 2023.
