 Gaussian 16, Revision B.01,
 Gaussian 16:  ES64L-G16RevB.01 20-Dec-2017

 -------------------------
 #P B3LYP/6-311+g(d) force
 -------------------------

 -----
 DPGEN
 -----
 Symbolic Z-matrix:
 Charge =  0 Multiplicity = 2

                         Standard orientation:
 ---------------------------------------------------------------------
 Center     Atomic      Atomic             Coordinates (Angstroms)
 Number     Number       Type             X           Y           Z
 ---------------------------------------------------------------------
      1         11           0        2.096972    2.095079   -0.544503
      2         11           0        0.620611    0.125518    2.199097
      3         11           0        3.044429   -1.463999   -0.057170
      4         11           0       -0.754025   -2.751126   -0.237435
      5         11           0       -1.562862    2.786193    0.000861
      6         11           0       -0.047393   -0.126563   -1.447740
      7         11           0       -3.397732   -0.665103    0.086889
 ---------------------------------------------------------------------

 SCF Done:  E(UB3LYP) =  -1136.13222728     A.U. after   20 cycles

 The electronic state is 2-A.
 Alpha  occ. eigenvalues --  -38.44411 -38.44287 -38.43840 -38.43726 -38.43704
 Alpha  occ. eigenvalues --  -38.43502 -38.43170  -2.20196  -2.20079  -2.19684
 Alpha  occ. eigenvalues --   -2.19570  -2.19485  -2.19369  -2.19162  -1.13871
 Alpha  occ. eigenvalues --   -1.13851  -1.13841  -1.13751  -1.13732  -1.13728
 Alpha  occ. eigenvalues --   -1.13395  -1.13344  -1.13295  -1.13227  -1.13199
 Alpha  occ. eigenvalues --   -1.13182  -1.13172  -1.13163  -1.13149  -1.13123
 Alpha  occ. eigenvalues --   -1.13018  -1.12966  -1.12836  -1.12793  -1.12758
 Alpha  occ. eigenvalues --   -0.18169  -0.12992  -0.12238  -0.10507
 Alpha virt. eigenvalues --   -0.05939  -0.05553  -0.04603  -0.03106  -0.02707
 Alpha virt. eigenvalues --   -0.02517  -0.01820  -0.01323  -0.00632  -0.00465
 Alpha virt. eigenvalues --   -0.00045   0.00302   0.00713   0.00801   0.00832

  Beta  occ. eigenvalues --  -38.44413 -38.44285 -38.43823 -38.43705 -38.43623
  Beta  occ. eigenvalues --  -38.43494 -38.43118  -2.20201  -2.20078  -2.19655
  Beta  occ. eigenvalues --   -2.19489  -2.19379  -2.19358  -2.19069  -1.13868
  Beta  occ. eigenvalues --   -1.13854  -1.13845  -1.13735  -1.13731  -1.13725
  Beta  occ. eigenvalues --   -1.13368  -1.13306  -1.13279  -1.13160  -1.13149
  Beta  occ. eigenvalues --   -1.13147  -1.13126  -1.13097  -1.13068  -1.13044
  Beta  occ. eigenvalues --   -1.12995  -1.12963  -1.12769  -1.12729  -1.12691
  Beta  occ. eigenvalues --   -0.17477  -0.12801  -0.12036
  Beta virt. eigenvalues --   -0.06575  -0.05846  -0.05544  -0.04563  -0.02419
  Beta virt. eigenvalues --   -0.02003  -0.01726  -0.01430  -0.01253  -0.00648
  Beta virt. eigenvalues --   -0.00499   0.00134   0.00344   0.00784   0.00799

 Mulliken charges and spin densities:
               1          2
     1  Na   0.230690   0.000793
     2  Na  -0.611921   0.836887
     3  Na   0.244883  -0.014723
     4  Na   0.275505  -0.035542
     5  Na  -0.032851  -0.043300
     6  Na  -0.057763   0.270193
     7  Na  -0.048543  -0.014309
 Sum of Mulliken charges =  -0.00000   1.00000

 Dipole moment (field-independent basis, Debye):
    X=              0.0104    Y=             -0.0618    Z=              0.1541  Tot=              0.1663
 Quadrupole moment (field-independent basis, Debye-Ang):
   XX=            -52.9653   YY=            -63.2753   ZZ=            -76.1867
   XY=             -1.1781   XZ=             -1.7973   YZ=             -0.4106

 Normal termination of Gaussian 16 at Thu Dec  7 13:18:44 2023.
