 Gaussian 16, Revision B.01,
 Gaussian 16:  ES64L-G16RevB.01 20-Dec-2017

 -------------------------
 #P B3LYP/6-311+g(d) force
 -------------------------

 -----
 DPGEN
 -----
 Symbolic Z-matrix:
 Charge =  0 Multiplicity = 2

                         Standard orientation:
 ---------------------------------------------------------------------
 Center     Atomic      Atomic             Coordinates (Angstroms)
 Number     Number       Type             X           Y           Z
 ---------------------------------------------------------------------
      1         11           0        1.139658    1.627131   -0.968538
      2         11           0       -2.157419    2.123113   -0.111789
      3         11           0       -0.164513   -0.008304    2.199910
      4         11           0        3.948942    0.337804    0.411914
      5         11           0       -1.237523   -0.931915   -1.757978
      6         11           0       -3.284880   -1.143556    0.590258
      7         11           0        1.755735   -2.004273   -0.363777
 ---------------------------------------------------------------------

 SCF Done:  E(UB3LYP) =  -1136.12250629     A.U. after   28 cycles

 The electronic state is 2-A.
 Alpha  occ. eigenvalues --  -38.45482 -38.45061 -38.44689 -38.43509 -38.43469
 Alpha  occ. eigenvalues --  -38.43099 -38.42909  -2.21284  -2.20877  -2.20516
 Alpha  occ. eigenvalues --   -2.19381  -2.19354  -2.18948  -2.18785  -1.14950
 Alpha  occ. eigenvalues --   -1.14940  -1.14922  -1.14546  -1.14505  -1.14497
 Alpha  occ. eigenvalues --   -1.14216  -1.14167  -1.14159  -1.13080  -1.13038
 Alpha  occ. eigenvalues --   -1.13026  -1.13021  -1.12995  -1.12972  -1.12621
 Alpha  occ. eigenvalues --   -1.12611  -1.12595  -1.12482  -1.12455  -1.12394
 Alpha  occ. eigenvalues --   -0.18394  -0.14066  -0.11359  -0.10889
 Alpha virt. eigenvalues --   -0.07247  -0.05176  -0.04347  -0.03238  -0.02957
 Alpha virt. eigenvalues --   -0.02534  -0.02414  -0.01045  -0.00800  -0.00224
 Alpha virt. eigenvalues --    0.00086   0.00165   0.00224   0.00684   0.00746

  Beta  occ. eigenvalues --  -38.45478 -38.44978 -38.44696 -38.43491 -38.43406
  Beta  occ. eigenvalues --  -38.43095 -38.42888  -2.21275  -2.20721  -2.20533
  Beta  occ. eigenvalues --   -2.19326  -2.19266  -2.18943  -2.18750  -1.14940
  Beta  occ. eigenvalues --   -1.14937  -1.14915  -1.14441  -1.14398  -1.14382
  Beta  occ. eigenvalues --   -1.14224  -1.14175  -1.14159  -1.13032  -1.12990
  Beta  occ. eigenvalues --   -1.12975  -1.12961  -1.12951  -1.12895  -1.12616
  Beta  occ. eigenvalues --   -1.12604  -1.12582  -1.12457  -1.12409  -1.12377
  Beta  occ. eigenvalues --   -0.17624  -0.13963  -0.10689
  Beta virt. eigenvalues --   -0.07426  -0.06980  -0.05164  -0.03745  -0.02911
  Beta virt. eigenvalues --   -0.02595  -0.01932  -0.01752  -0.00980  -0.00475
  Beta virt. eigenvalues --   -0.00231   0.00123   0.00194   0.00398   0.00735

 Mulliken charges and spin densities:
               1          2
     1  Na  -0.474682   0.060828
     2  Na  -0.088553   0.068935
     3  Na  -0.182207   0.529142
     4  Na   0.464503   0.063463
     5  Na   0.349723   0.277863
     6  Na   0.178230  -0.044410
     7  Na  -0.247015   0.044180
 Sum of Mulliken charges =  -0.00000   1.00000

 Dipole moment (field-independent basis, Debye):
    X=              0.7169    Y=              0.0167    Z=              0.7943  Tot=              1.0701
 Quadrupole moment (field-independent basis, Debye-Ang):
   XX=            -45.5086   YY=            -78.4666   ZZ=            -69.8100
   XY=              0.6558   XZ=              0.7215   YZ=             -0.3651

 Normal termination of Gaussian 16 at Thu Dec  7 17:55:48 2023.
