 Gaussian 16, Revision B.01,
 Gaussian 16:  ES64L-G16RevB.01 20-Dec-2017

 -------------------------
 #P B3LYP/6-311+g(d) force
 -------------------------

 -----
 DPGEN
 -----
 Symbolic Z-matrix:
 Charge =  0 Multiplicity = 2

                         Standard orientation:
 ---------------------------------------------------------------------
 Center     Atomic      Atomic             Coordinates (Angstroms)
 Number     Number       Type             X           Y           Z
 ---------------------------------------------------------------------
      1         11           0       -0.163175    0.055165    2.222821
      2         11           0       -3.089809   -0.760556    0.080503
      3         11           0       -1.205278    3.052871   -0.093277
      4         11           0        2.434379    1.725720   -0.416877
      5         11           0       -0.166467    0.344479   -1.433043
      6         11           0       -0.532083   -2.833513   -0.693107
      7         11           0        2.722434   -1.584166    0.332979
 ---------------------------------------------------------------------

 SCF Done:  E(UB3LYP) =  -1136.13495217     A.U. after   19 cycles

 The electronic state is 2-A.
 Alpha  occ. eigenvalues --  -38.44037 -38.43926 -38.43918 -38.43915 -38.43570
 Alpha  occ. eigenvalues --  -38.43500 -38.43009  -2.19856  -2.19766  -2.19759
 Alpha  occ. eigenvalues --   -2.19731  -2.19386  -2.19351  -2.19020  -1.13529
 Alpha  occ. eigenvalues --   -1.13525  -1.13496  -1.13491  -1.13432  -1.13423
 Alpha  occ. eigenvalues --   -1.13414  -1.13393  -1.13383  -1.13379  -1.13370
 Alpha  occ. eigenvalues --   -1.13358  -1.13059  -1.13052  -1.13043  -1.13038
 Alpha  occ. eigenvalues --   -1.12998  -1.12970  -1.12699  -1.12660  -1.12649
 Alpha  occ. eigenvalues --   -0.18343  -0.12820  -0.12454  -0.10799
 Alpha virt. eigenvalues --   -0.05673  -0.05196  -0.04752  -0.03109  -0.02948
 Alpha virt. eigenvalues --   -0.02691  -0.01427  -0.01391  -0.00423  -0.00362
 Alpha virt. eigenvalues --   -0.00005   0.00343   0.00806   0.00822   0.00889

  Beta  occ. eigenvalues --  -38.44035 -38.43926 -38.43909 -38.43809 -38.43567
  Beta  occ. eigenvalues --  -38.43484 -38.42960  -2.19855  -2.19752  -2.19733
  Beta  occ. eigenvalues --   -2.19563  -2.19382  -2.19323  -2.18932  -1.13527
  Beta  occ. eigenvalues --   -1.13513  -1.13488  -1.13476  -1.13426  -1.13399
  Beta  occ. eigenvalues --   -1.13385  -1.13372  -1.13356  -1.13286  -1.13251
  Beta  occ. eigenvalues --   -1.13230  -1.13050  -1.13041  -1.13030  -1.13021
  Beta  occ. eigenvalues --   -1.12973  -1.12953  -1.12633  -1.12597  -1.12585
  Beta  occ. eigenvalues --   -0.17641  -0.12583  -0.12251
  Beta virt. eigenvalues --   -0.06863  -0.05682  -0.05086  -0.04698  -0.02357
  Beta virt. eigenvalues --   -0.02246  -0.01616  -0.01342  -0.01316  -0.00418
  Beta virt. eigenvalues --   -0.00392   0.00135   0.00382   0.00802   0.00869

 Mulliken charges and spin densities:
               1          2
     1  Na  -0.513222   0.778311
     2  Na   0.155651   0.032923
     3  Na   0.026588  -0.009773
     4  Na   0.186174   0.015637
     5  Na  -0.055988   0.043904
     6  Na   0.159581   0.078102
     7  Na   0.041216   0.060895
 Sum of Mulliken charges =  -0.00000   1.00000

 Dipole moment (field-independent basis, Debye):
    X=             -0.2353    Y=              0.2415    Z=              0.2456  Tot=              0.4172
 Quadrupole moment (field-independent basis, Debye-Ang):
   XX=            -58.2584   YY=            -60.4187   ZZ=            -74.5461
   XY=             -0.7092   XZ=             -0.2484   YZ=              0.5921

 Normal termination of Gaussian 16 at Thu Dec  7 07:09:23 2023.
