 Gaussian 16, Revision B.01,
 Gaussian 16:  ES64L-G16RevB.01 20-Dec-2017

 -------------------------
 #P B3LYP/6-311+g(d) force
 -------------------------

 -----
 DPGEN
 -----
 Symbolic Z-matrix:
 Charge =  0 Multiplicity = 2

                         Standard orientation:
 ---------------------------------------------------------------------
 Center     Atomic      Atomic             Coordinates (Angstroms)
 Number     Number       Type             X           Y           Z
 ---------------------------------------------------------------------
      1         11           0       -3.001011   -0.888832   -0.137698
      2         11           0       -0.067511    0.063998   -1.523922
      3         11           0        3.071767   -1.230426   -0.159079
      4         11           0        2.115074    2.247001   -0.150702
      5         11           0       -1.852869    2.481044   -0.050753
      6         11           0       -0.351596   -2.721316   -0.052643
      7         11           0        0.086146    0.048532    2.074797
 ---------------------------------------------------------------------

 SCF Done:  E(UB3LYP) =  -1136.13751008     A.U. after   19 cycles

 The electronic state is 2-A.
 Alpha  occ. eigenvalues --  -38.44197 -38.43947 -38.43931 -38.43617 -38.43452
 Alpha  occ. eigenvalues --  -38.43082 -38.43040  -2.19993  -2.19809  -2.19747
 Alpha  occ. eigenvalues --   -2.19440  -2.19335  -2.19044  -2.18980  -1.13667
 Alpha  occ. eigenvalues --   -1.13644  -1.13641  -1.13493  -1.13468  -1.13452
 Alpha  occ. eigenvalues --   -1.13435  -1.13413  -1.13370  -1.13127  -1.13104
 Alpha  occ. eigenvalues --   -1.13072  -1.13007  -1.12957  -1.12948  -1.12786
 Alpha  occ. eigenvalues --   -1.12712  -1.12659  -1.12637  -1.12615  -1.12599
 Alpha  occ. eigenvalues --   -0.18627  -0.13087  -0.12348  -0.10554
 Alpha virt. eigenvalues --   -0.05688  -0.05536  -0.04515  -0.03085  -0.02737
 Alpha virt. eigenvalues --   -0.02449  -0.01681  -0.01272  -0.00514  -0.00317
 Alpha virt. eigenvalues --   -0.00010   0.00334   0.00746   0.00830   0.00892

  Beta  occ. eigenvalues --  -38.44195 -38.43943 -38.43927 -38.43614 -38.43349
  Beta  occ. eigenvalues --  -38.43074 -38.42984  -2.19992  -2.19804  -2.19742
  Beta  occ. eigenvalues --   -2.19437  -2.19146  -2.18971  -2.18942  -1.13650
  Beta  occ. eigenvalues --   -1.13646  -1.13641  -1.13489  -1.13456  -1.13439
  Beta  occ. eigenvalues --   -1.13425  -1.13396  -1.13370  -1.13120  -1.13087
  Beta  occ. eigenvalues --   -1.13073  -1.12883  -1.12823  -1.12815  -1.12741
  Beta  occ. eigenvalues --   -1.12641  -1.12612  -1.12599  -1.12578  -1.12565
  Beta  occ. eigenvalues --   -0.17902  -0.12864  -0.12116
  Beta virt. eigenvalues --   -0.06615  -0.05670  -0.05519  -0.04498  -0.02321
  Beta virt. eigenvalues --   -0.01964  -0.01593  -0.01364  -0.01207  -0.00572
  Beta virt. eigenvalues --   -0.00361   0.00141   0.00368   0.00806   0.00828

 Mulliken charges and spin densities:
               1          2
     1  Na   0.285979   0.010593
     2  Na  -0.429120   0.381622
     3  Na   0.124742  -0.042161
     4  Na   0.119847  -0.084568
     5  Na   0.164999  -0.066822
     6  Na   0.291679   0.001036
     7  Na  -0.558125   0.800301
 Sum of Mulliken charges =  -0.00000   1.00000

 Dipole moment (field-independent basis, Debye):
    X=              0.2021    Y=              0.1636    Z=              0.1337  Tot=              0.2924
 Quadrupole moment (field-independent basis, Debye-Ang):
   XX=            -53.9876   YY=            -62.6424   ZZ=            -75.6852
   XY=             -0.3981   XZ=             -0.3120   YZ=              0.0949

 Normal termination of Gaussian 16 at Thu Dec  7 11:18:21 2023.
