 Gaussian 16, Revision B.01,
 Gaussian 16:  ES64L-G16RevB.01 20-Dec-2017

 -------------------------
 #P B3LYP/6-311+g(d) force
 -------------------------

 -----
 DPGEN
 -----
 Symbolic Z-matrix:
 Charge =  0 Multiplicity = 2

                         Standard orientation:
 ---------------------------------------------------------------------
 Center     Atomic      Atomic             Coordinates (Angstroms)
 Number     Number       Type             X           Y           Z
 ---------------------------------------------------------------------
      1         11           0       -2.549959    1.638401    0.012839
      2         11           0        1.142164   -2.723169   -0.004580
      3         11           0       -2.934335   -1.495505   -0.204404
      4         11           0        0.108148    0.201879   -1.653360
      5         11           0        2.923285    0.019534   -0.386905
      6         11           0        0.238714   -0.350732    1.979404
      7         11           0        1.071984    2.709591    0.257006
 ---------------------------------------------------------------------

 SCF Done:  E(UB3LYP) =  -1136.13555656     A.U. after   19 cycles

 The electronic state is 2-A.
 Alpha  occ. eigenvalues --  -38.44166 -38.43931 -38.43866 -38.43482 -38.43338
 Alpha  occ. eigenvalues --  -38.43250 -38.43045  -2.19976  -2.19856  -2.19714
 Alpha  occ. eigenvalues --   -2.19396  -2.19325  -2.19122  -2.18917  -1.13674
 Alpha  occ. eigenvalues --   -1.13642  -1.13612  -1.13582  -1.13507  -1.13484
 Alpha  occ. eigenvalues --   -1.13390  -1.13372  -1.13341  -1.13080  -1.13035
 Alpha  occ. eigenvalues --   -1.13014  -1.13004  -1.12961  -1.12949  -1.12788
 Alpha  occ. eigenvalues --   -1.12778  -1.12755  -1.12589  -1.12574  -1.12558
 Alpha  occ. eigenvalues --   -0.18821  -0.13394  -0.12257  -0.10786
 Alpha virt. eigenvalues --   -0.05698  -0.05237  -0.04520  -0.03296  -0.02870
 Alpha virt. eigenvalues --   -0.02487  -0.01551  -0.01084  -0.00398  -0.00255
 Alpha virt. eigenvalues --    0.00003   0.00359   0.00799   0.00868   0.00900

  Beta  occ. eigenvalues --  -38.44165 -38.43915 -38.43864 -38.43390 -38.43274
  Beta  occ. eigenvalues --  -38.43244 -38.43037  -2.19976  -2.19832  -2.19712
  Beta  occ. eigenvalues --   -2.19226  -2.19209  -2.19115  -2.18907  -1.13677
  Beta  occ. eigenvalues --   -1.13629  -1.13612  -1.13557  -1.13474  -1.13462
  Beta  occ. eigenvalues --   -1.13383  -1.13364  -1.13339  -1.12977  -1.12929
  Beta  occ. eigenvalues --   -1.12911  -1.12895  -1.12877  -1.12864  -1.12776
  Beta  occ. eigenvalues --   -1.12756  -1.12739  -1.12584  -1.12557  -1.12536
  Beta  occ. eigenvalues --   -0.18085  -0.13159  -0.12016
  Beta virt. eigenvalues --   -0.06850  -0.05641  -0.05231  -0.04484  -0.02535
  Beta virt. eigenvalues --   -0.02079  -0.01519  -0.01385  -0.01016  -0.00436
  Beta virt. eigenvalues --   -0.00291   0.00141   0.00389   0.00850   0.00884

 Mulliken charges and spin densities:
               1          2
     1  Na   0.045856  -0.042158
     2  Na   0.101117  -0.109625
     3  Na  -0.017208  -0.094808
     4  Na  -0.194695   0.420064
     5  Na   0.510610   0.092063
     6  Na  -0.466119   0.737632
     7  Na   0.020439  -0.003167
 Sum of Mulliken charges =  -0.00000   1.00000

 Dipole moment (field-independent basis, Debye):
    X=             -0.2682    Y=             -0.1287    Z=              0.0751  Tot=              0.3068
 Quadrupole moment (field-independent basis, Debye-Ang):
   XX=            -56.8559   YY=            -62.9546   ZZ=            -74.2367
   XY=              0.5832   XZ=             -0.3866   YZ=              1.5033

 Normal termination of Gaussian 16 at Tue Dec  5 11:21:23 2023.
