 Gaussian 16, Revision B.01,
 Gaussian 16:  ES64L-G16RevB.01 20-Dec-2017

 -------------------------
 #P B3LYP/6-311+g(d) force
 -------------------------

 -----
 DPGEN
 -----
 Symbolic Z-matrix:
 Charge =  0 Multiplicity = 2

                         Standard orientation:
 ---------------------------------------------------------------------
 Center     Atomic      Atomic             Coordinates (Angstroms)
 Number     Number       Type             X           Y           Z
 ---------------------------------------------------------------------
      1         11           0       -2.991660    0.786992   -0.206591
      2         11           0       -0.054458   -0.144710   -1.731178
      3         11           0        0.054084    0.121406    2.217950
      4         11           0        0.014577    2.931119   -0.165267
      5         11           0        2.002269   -2.417566   -0.215890
      6         11           0       -1.803800   -2.332050    0.147992
      7         11           0        2.778987    1.054810   -0.047016
 ---------------------------------------------------------------------

 SCF Done:  E(UB3LYP) =  -1136.14059581     A.U. after   18 cycles

 The electronic state is 2-A.
 Alpha  occ. eigenvalues --  -38.43961 -38.43734 -38.43687 -38.43630 -38.43555
 Alpha  occ. eigenvalues --  -38.43343 -38.43282  -2.19816  -2.19571  -2.19539
 Alpha  occ. eigenvalues --   -2.19475  -2.19370  -2.19299  -2.19134  -1.13472
 Alpha  occ. eigenvalues --   -1.13441  -1.13439  -1.13260  -1.13238  -1.13222
 Alpha  occ. eigenvalues --   -1.13217  -1.13207  -1.13182  -1.13158  -1.13140
 Alpha  occ. eigenvalues --   -1.13096  -1.13057  -1.13027  -1.13008  -1.12976
 Alpha  occ. eigenvalues --   -1.12934  -1.12915  -1.12804  -1.12795  -1.12770
 Alpha  occ. eigenvalues --   -0.18535  -0.12907  -0.12413  -0.10991
 Alpha virt. eigenvalues --   -0.05279  -0.05257  -0.04805  -0.03253  -0.02960
 Alpha virt. eigenvalues --   -0.02873  -0.01327  -0.01126  -0.00359  -0.00301
 Alpha virt. eigenvalues --   -0.00049   0.00373   0.00811   0.00887   0.00899

  Beta  occ. eigenvalues --  -38.43858 -38.43730 -38.43683 -38.43625 -38.43552
  Beta  occ. eigenvalues --  -38.43279 -38.43278  -2.19625  -2.19567  -2.19536
  Beta  occ. eigenvalues --   -2.19469  -2.19368  -2.19183  -2.19130  -1.13346
  Beta  occ. eigenvalues --   -1.13309  -1.13303  -1.13256  -1.13221  -1.13218
  Beta  occ. eigenvalues --   -1.13213  -1.13187  -1.13177  -1.13150  -1.13115
  Beta  occ. eigenvalues --   -1.13097  -1.13043  -1.13018  -1.13008  -1.12903
  Beta  occ. eigenvalues --   -1.12857  -1.12833  -1.12792  -1.12776  -1.12763
  Beta  occ. eigenvalues --   -0.17790  -0.12694  -0.12193
  Beta virt. eigenvalues --   -0.07034  -0.05292  -0.05227  -0.04722  -0.02438
  Beta virt. eigenvalues --   -0.02201  -0.01790  -0.01244  -0.01050  -0.00415
  Beta virt. eigenvalues --   -0.00364   0.00105   0.00393   0.00876   0.00887

 Mulliken charges and spin densities:
               1          2
     1  Na   0.169156  -0.050774
     2  Na  -0.165864   0.460015
     3  Na  -0.575789   0.754392
     4  Na   0.143908  -0.050021
     5  Na   0.110011  -0.065858
     6  Na   0.133642  -0.017820
     7  Na   0.184937  -0.029935
 Sum of Mulliken charges =  -0.00000   1.00000

 Dipole moment (field-independent basis, Debye):
    X=             -0.0483    Y=             -0.0660    Z=              0.1610  Tot=              0.1806
 Quadrupole moment (field-independent basis, Debye-Ang):
   XX=            -59.1657   YY=            -62.2926   ZZ=            -73.0091
   XY=             -0.4218   XZ=             -0.1126   YZ=             -0.6306

 Normal termination of Gaussian 16 at Thu Dec  7 09:51:07 2023.
