 Gaussian 16, Revision B.01,
 Gaussian 16:  ES64L-G16RevB.01 20-Dec-2017

 -------------------------
 #P B3LYP/6-311+g(d) force
 -------------------------

 -----
 DPGEN
 -----
 Symbolic Z-matrix:
 Charge =  0 Multiplicity = 2

                         Standard orientation:
 ---------------------------------------------------------------------
 Center     Atomic      Atomic             Coordinates (Angstroms)
 Number     Number       Type             X           Y           Z
 ---------------------------------------------------------------------
      1         11           0        1.228408    0.693318    1.856814
      2         11           0       -0.101873   -2.161725    1.149182
      3         11           0       -3.807995   -0.789031   -0.402018
      4         11           0        3.077396    2.080627   -0.535538
      5         11           0        2.851333   -1.546432   -0.651556
      6         11           0       -2.982045    2.066017    0.207841
      7         11           0       -0.265224   -0.342773   -1.624725
 ---------------------------------------------------------------------

 SCF Done:  E(UB3LYP) =  -1136.11896396     A.U. after   24 cycles

 The electronic state is 2-A.
 Alpha  occ. eigenvalues --  -38.45112 -38.44714 -38.44692 -38.44645 -38.43471
 Alpha  occ. eigenvalues --  -38.43097 -38.42514  -2.20927  -2.20553  -2.20493
 Alpha  occ. eigenvalues --   -2.20487  -2.19366  -2.18903  -2.18408  -1.14637
 Alpha  occ. eigenvalues --   -1.14587  -1.14554  -1.14241  -1.14212  -1.14187
 Alpha  occ. eigenvalues --   -1.14168  -1.14152  -1.14138  -1.14133  -1.14130
 Alpha  occ. eigenvalues --   -1.14101  -1.13038  -1.13010  -1.12994  -1.12569
 Alpha  occ. eigenvalues --   -1.12565  -1.12550  -1.12101  -1.12053  -1.12034
 Alpha  occ. eigenvalues --   -0.17849  -0.14099  -0.11094  -0.10811
 Alpha virt. eigenvalues --   -0.06568  -0.06110  -0.04013  -0.03310  -0.02774
 Alpha virt. eigenvalues --   -0.02513  -0.02426  -0.01335  -0.00779  -0.00494
 Alpha virt. eigenvalues --    0.00019   0.00183   0.00433   0.00467   0.00605

  Beta  occ. eigenvalues --  -38.45110 -38.44693 -38.44684 -38.44606 -38.43390
  Beta  occ. eigenvalues --  -38.43094 -38.42482  -2.20924  -2.20500  -2.20492
  Beta  occ. eigenvalues --   -2.20419  -2.19219  -2.18900  -2.18354  -1.14637
  Beta  occ. eigenvalues --   -1.14579  -1.14554  -1.14190  -1.14170  -1.14155
  Beta  occ. eigenvalues --   -1.14135  -1.14132  -1.14128  -1.14128  -1.14091
  Beta  occ. eigenvalues --   -1.14043  -1.12940  -1.12909  -1.12878  -1.12568
  Beta  occ. eigenvalues --   -1.12558  -1.12538  -1.12063  -1.12012  -1.11978
  Beta  occ. eigenvalues --   -0.17161  -0.13927  -0.10928
  Beta virt. eigenvalues --   -0.06908  -0.06338  -0.06030  -0.03733  -0.03048
  Beta virt. eigenvalues --   -0.02361  -0.02111  -0.01567  -0.01178  -0.00753
  Beta virt. eigenvalues --   -0.00257   0.00076   0.00251   0.00512   0.00626

 Mulliken charges and spin densities:
               1          2
     1  Na  -0.215801   0.372647
     2  Na  -0.025768   0.174135
     3  Na   0.332852  -0.005001
     4  Na  -0.120406  -0.007721
     5  Na   0.340288   0.224147
     6  Na  -0.083129   0.012406
     7  Na  -0.228034   0.229388
 Sum of Mulliken charges =  -0.00000   1.00000

 Dipole moment (field-independent basis, Debye):
    X=             -1.1252    Y=             -0.5827    Z=             -0.4380  Tot=              1.3406
 Quadrupole moment (field-independent basis, Debye-Ang):
   XX=            -54.9018   YY=            -68.8564   ZZ=            -73.0158
   XY=             -1.4833   XZ=             -1.6349   YZ=             -0.4738

 Normal termination of Gaussian 16 at Wed Nov 29 16:38:41 2023.
