 Gaussian 16, Revision B.01,
 Gaussian 16:  ES64L-G16RevB.01 20-Dec-2017

 -------------------------
 #P B3LYP/6-311+g(d) force
 -------------------------

 -----
 DPGEN
 -----
 Symbolic Z-matrix:
 Charge =  0 Multiplicity = 2

                         Standard orientation:
 ---------------------------------------------------------------------
 Center     Atomic      Atomic             Coordinates (Angstroms)
 Number     Number       Type             X           Y           Z
 ---------------------------------------------------------------------
      1         11           0       -0.089247    0.293586   -1.831152
      2         11           0        1.756119   -2.060767   -0.374330
      3         11           0       -3.061606    0.448137   -0.325118
      4         11           0       -0.108477   -0.037315    1.873828
      5         11           0        0.014187    2.888549    0.256431
      6         11           0        2.758090    0.751818    0.051215
      7         11           0       -1.269067   -2.284008    0.349125
 ---------------------------------------------------------------------

 SCF Done:  E(UB3LYP) =  -1136.13435161     A.U. after   19 cycles

 The electronic state is 2-A.
 Alpha  occ. eigenvalues --  -38.43937 -38.43662 -38.43557 -38.43432 -38.43373
 Alpha  occ. eigenvalues --  -38.43197 -38.43144  -2.19782  -2.19573  -2.19556
 Alpha  occ. eigenvalues --   -2.19416  -2.19235  -2.19160  -2.19100  -1.13471
 Alpha  occ. eigenvalues --   -1.13441  -1.13418  -1.13309  -1.13301  -1.13241
 Alpha  occ. eigenvalues --   -1.13226  -1.13188  -1.13152  -1.13091  -1.13066
 Alpha  occ. eigenvalues --   -1.13033  -1.12911  -1.12895  -1.12879  -1.12853
 Alpha  occ. eigenvalues --   -1.12824  -1.12779  -1.12753  -1.12735  -1.12686
 Alpha  occ. eigenvalues --   -0.19420  -0.13118  -0.12666  -0.11262
 Alpha virt. eigenvalues --   -0.05487  -0.04686  -0.04491  -0.03332  -0.03143
 Alpha virt. eigenvalues --   -0.02749  -0.01379  -0.00920  -0.00081   0.00024
 Alpha virt. eigenvalues --    0.00193   0.00372   0.00913   0.00941   0.01013

  Beta  occ. eigenvalues --  -38.43930 -38.43657 -38.43470 -38.43366 -38.43354
  Beta  occ. eigenvalues --  -38.43184 -38.43134  -2.19772  -2.19568  -2.19398
  Beta  occ. eigenvalues --   -2.19274  -2.19227  -2.19141  -2.19085  -1.13456
  Beta  occ. eigenvalues --   -1.13421  -1.13413  -1.13302  -1.13220  -1.13203
  Beta  occ. eigenvalues --   -1.13197  -1.13093  -1.13047  -1.13003  -1.12976
  Beta  occ. eigenvalues --   -1.12931  -1.12890  -1.12870  -1.12866  -1.12847
  Beta  occ. eigenvalues --   -1.12790  -1.12747  -1.12743  -1.12702  -1.12669
  Beta  occ. eigenvalues --   -0.18658  -0.12838  -0.12385
  Beta virt. eigenvalues --   -0.07290  -0.05465  -0.04657  -0.04489  -0.02509
  Beta virt. eigenvalues --   -0.02313  -0.01679  -0.01289  -0.00851  -0.00055
  Beta virt. eigenvalues --    0.00057   0.00175   0.00388   0.00920   0.00950

 Mulliken charges and spin densities:
               1          2
     1  Na  -0.453295   0.586485
     2  Na   0.168113   0.033595
     3  Na   0.039239  -0.094953
     4  Na  -0.404968   0.516074
     5  Na   0.040752  -0.110863
     6  Na   0.165141  -0.025780
     7  Na   0.445019   0.095443
 Sum of Mulliken charges =  -0.00000   1.00000

 Dipole moment (field-independent basis, Debye):
    X=             -0.2451    Y=              0.3812    Z=             -0.0416  Tot=              0.4551
 Quadrupole moment (field-independent basis, Debye-Ang):
   XX=            -58.6810   YY=            -64.1513   ZZ=            -71.9035
   XY=             -0.3493   XZ=              0.2811   YZ=              0.7664

 Normal termination of Gaussian 16 at Thu Dec  7 21:47:38 2023.
