 Gaussian 16, Revision B.01,
 Gaussian 16:  ES64L-G16RevB.01 20-Dec-2017

 -------------------------
 #P B3LYP/6-311+g(d) force
 -------------------------

 -----
 DPGEN
 -----
 Symbolic Z-matrix:
 Charge =  0 Multiplicity = 2

                         Standard orientation:
 ---------------------------------------------------------------------
 Center     Atomic      Atomic             Coordinates (Angstroms)
 Number     Number       Type             X           Y           Z
 ---------------------------------------------------------------------
      1         11           0       -0.596634   -1.173472   -0.635017
      2         11           0        3.036929   -0.833334   -1.801216
      3         11           0       -3.783336   -0.499022    0.152240
      4         11           0       -6.825070    0.717884    0.066876
      5         11           0        1.261283    1.940655    0.028960
      6         11           0        4.462733    1.371125    0.366141
      7         11           0        2.444094   -1.523836    1.822017
 ---------------------------------------------------------------------

 SCF Done:  E(UB3LYP) =  -1136.10472779     A.U. after   33 cycles

 The electronic state is 2-A.
 Alpha  occ. eigenvalues --  -38.47575 -38.45768 -38.45318 -38.43570 -38.43239
 Alpha  occ. eigenvalues --  -38.42999 -38.42630  -2.23354  -2.21570  -2.21170
 Alpha  occ. eigenvalues --   -2.19422  -2.19012  -2.18802  -2.18465  -1.17041
 Alpha  occ. eigenvalues --   -1.17007  -1.16981  -1.15244  -1.15193  -1.15175
 Alpha  occ. eigenvalues --   -1.14850  -1.14807  -1.14769  -1.13106  -1.13085
 Alpha  occ. eigenvalues --   -1.13064  -1.12671  -1.12670  -1.12668  -1.12482
 Alpha  occ. eigenvalues --   -1.12475  -1.12432  -1.12144  -1.12132  -1.12106
 Alpha  occ. eigenvalues --   -0.17976  -0.13271  -0.11518  -0.10911
 Alpha virt. eigenvalues --   -0.08323  -0.06102  -0.03622  -0.03448  -0.02990
 Alpha virt. eigenvalues --   -0.02624  -0.02406  -0.02226  -0.01329  -0.01166
 Alpha virt. eigenvalues --   -0.00603  -0.00073  -0.00000   0.00377   0.00436

  Beta  occ. eigenvalues --  -38.47576 -38.45678 -38.45233 -38.43565 -38.43226
  Beta  occ. eigenvalues --  -38.43003 -38.42626  -2.23360  -2.21404  -2.21014
  Beta  occ. eigenvalues --   -2.19418  -2.18988  -2.18810  -2.18459  -1.17016
  Beta  occ. eigenvalues --   -1.17011  -1.16995  -1.15124  -1.15081  -1.15058
  Beta  occ. eigenvalues --   -1.14740  -1.14705  -1.14650  -1.13104  -1.13086
  Beta  occ. eigenvalues --   -1.13032  -1.12656  -1.12654  -1.12653  -1.12488
  Beta  occ. eigenvalues --   -1.12481  -1.12431  -1.12142  -1.12121  -1.12099
  Beta  occ. eigenvalues --   -0.17249  -0.13169  -0.10842
  Beta virt. eigenvalues --   -0.08059  -0.07432  -0.05943  -0.03444  -0.02931
  Beta virt. eigenvalues --   -0.02603  -0.02274  -0.02025  -0.01601  -0.01236
  Beta virt. eigenvalues --   -0.00902  -0.00547   0.00019   0.00163   0.00451

 Mulliken charges and spin densities:
               1          2
     1  Na  -0.355311   0.120247
     2  Na   0.653551   0.286409
     3  Na  -0.923852  -0.209173
     4  Na   0.500076   0.037542
     5  Na  -0.201387   0.322472
     6  Na   0.273220   0.031203
     7  Na   0.053703   0.411300
 Sum of Mulliken charges =  -0.00000   1.00000

 Dipole moment (field-independent basis, Debye):
    X=              3.8258    Y=             -0.1484    Z=             -0.5743  Tot=              3.8715
 Quadrupole moment (field-independent basis, Debye-Ang):
   XX=            -73.5742   YY=            -73.2072   ZZ=            -61.0609
   XY=             -6.2551   XZ=             -4.9607   YZ=              4.0399

 Normal termination of Gaussian 16 at Thu Dec  7 08:42:46 2023.
