 Gaussian 16, Revision B.01,
 Gaussian 16:  ES64L-G16RevB.01 20-Dec-2017

 -------------------------
 #P B3LYP/6-311+g(d) force
 -------------------------

 -----
 DPGEN
 -----
 Symbolic Z-matrix:
 Charge =  0 Multiplicity = 2

                         Standard orientation:
 ---------------------------------------------------------------------
 Center     Atomic      Atomic             Coordinates (Angstroms)
 Number     Number       Type             X           Y           Z
 ---------------------------------------------------------------------
      1         11           0       -3.906868   -0.329586   -1.516960
      2         11           0        2.351960    1.927019   -0.908552
      3         11           0        3.588365   -1.632651   -0.576276
      4         11           0       -1.251929    2.113974    0.957694
      5         11           0        1.442217   -0.239212    1.843977
      6         11           0        0.044769   -0.494042   -1.179397
      7         11           0       -2.268515   -1.345502    1.379514
 ---------------------------------------------------------------------

 SCF Done:  E(UB3LYP) =  -1136.12351922     A.U. after   26 cycles

 The electronic state is 2-A.
 Alpha  occ. eigenvalues --  -38.44526 -38.44480 -38.44479 -38.43996 -38.43912
 Alpha  occ. eigenvalues --  -38.43480 -38.43113  -2.20362  -2.20361  -2.20311
 Alpha  occ. eigenvalues --   -2.19801  -2.19782  -2.19283  -2.18923  -1.14110
 Alpha  occ. eigenvalues --   -1.14077  -1.14026  -1.14006  -1.13995  -1.13969
 Alpha  occ. eigenvalues --   -1.13950  -1.13940  -1.13923  -1.13508  -1.13450
 Alpha  occ. eigenvalues --   -1.13445  -1.13441  -1.13402  -1.13394  -1.12957
 Alpha  occ. eigenvalues --   -1.12947  -1.12912  -1.12608  -1.12590  -1.12557
 Alpha  occ. eigenvalues --   -0.18114  -0.13918  -0.11200  -0.10698
 Alpha virt. eigenvalues --   -0.06377  -0.05558  -0.05134  -0.02998  -0.02624
 Alpha virt. eigenvalues --   -0.02307  -0.02156  -0.01291  -0.01169  -0.00350
 Alpha virt. eigenvalues --    0.00109   0.00179   0.00364   0.00404   0.00433

  Beta  occ. eigenvalues --  -38.44472 -38.44462 -38.44452 -38.43967 -38.43861
  Beta  occ. eigenvalues --  -38.43472 -38.43118  -2.20335  -2.20263  -2.20261
  Beta  occ. eigenvalues --   -2.19727  -2.19709  -2.19269  -2.18936  -1.14056
  Beta  occ. eigenvalues --   -1.14036  -1.13973  -1.13968  -1.13952  -1.13937
  Beta  occ. eigenvalues --   -1.13916  -1.13878  -1.13868  -1.13447  -1.13406
  Beta  occ. eigenvalues --   -1.13403  -1.13372  -1.13367  -1.13326  -1.12946
  Beta  occ. eigenvalues --   -1.12929  -1.12906  -1.12616  -1.12582  -1.12568
  Beta  occ. eigenvalues --   -0.17424  -0.13660  -0.10524
  Beta virt. eigenvalues --   -0.07475  -0.06127  -0.05131  -0.04790  -0.02685
  Beta virt. eigenvalues --   -0.02385  -0.01886  -0.01712  -0.01080  -0.00701
  Beta virt. eigenvalues --   -0.00202   0.00152   0.00354   0.00413   0.00484

 Mulliken charges and spin densities:
               1          2
     1  Na   0.105067   0.149917
     2  Na   0.097205   0.081085
     3  Na   0.204066  -0.061704
     4  Na  -0.095527  -0.013913
     5  Na   0.076075   0.392051
     6  Na  -0.596713   0.424610
     7  Na   0.209828   0.027955
 Sum of Mulliken charges =  -0.00000   1.00000

 Dipole moment (field-independent basis, Debye):
    X=              0.0809    Y=              0.5610    Z=              0.3191  Tot=              0.6504
 Quadrupole moment (field-independent basis, Debye-Ang):
   XX=            -56.2000   YY=            -71.3983   ZZ=            -68.8136
   XY=              0.1542   XZ=             -1.2635   YZ=             -4.7450

 Normal termination of Gaussian 16 at Tue Dec  5 22:45:29 2023.
