 Gaussian 16, Revision B.01,
 Gaussian 16:  ES64L-G16RevB.01 20-Dec-2017

 -------------------------
 #P B3LYP/6-311+g(d) force
 -------------------------

 -----
 DPGEN
 -----
 Symbolic Z-matrix:
 Charge =  0 Multiplicity = 2

                         Standard orientation:
 ---------------------------------------------------------------------
 Center     Atomic      Atomic             Coordinates (Angstroms)
 Number     Number       Type             X           Y           Z
 ---------------------------------------------------------------------
      1         11           0       -1.735145    2.127801    1.108599
      2         11           0        2.193664    1.863157   -0.948551
      3         11           0       -3.450643   -0.204192   -0.788851
      4         11           0        1.445591    0.327063    1.741309
      5         11           0       -0.240764   -0.385018   -1.786995
      6         11           0        2.478419   -1.338443   -0.378280
      7         11           0       -0.691121   -2.390369    1.052768
 ---------------------------------------------------------------------

 SCF Done:  E(UB3LYP) =  -1136.12652180     A.U. after   22 cycles

 The electronic state is 2-A.
 Alpha  occ. eigenvalues --  -38.44345 -38.43903 -38.43901 -38.43869 -38.43824
 Alpha  occ. eigenvalues --  -38.43519 -38.43181  -2.20152  -2.19890  -2.19858
 Alpha  occ. eigenvalues --   -2.19804  -2.19611  -2.19408  -2.19011  -1.13840
 Alpha  occ. eigenvalues --   -1.13800  -1.13789  -1.13781  -1.13602  -1.13521
 Alpha  occ. eigenvalues --   -1.13505  -1.13465  -1.13444  -1.13428  -1.13419
 Alpha  occ. eigenvalues --   -1.13404  -1.13288  -1.13262  -1.13243  -1.13076
 Alpha  occ. eigenvalues --   -1.13066  -1.13030  -1.12699  -1.12670  -1.12630
 Alpha  occ. eigenvalues --   -0.18746  -0.13545  -0.11656  -0.11503
 Alpha virt. eigenvalues --   -0.05915  -0.05107  -0.04525  -0.03351  -0.03017
 Alpha virt. eigenvalues --   -0.02785  -0.01619  -0.00744  -0.00602  -0.00003
 Alpha virt. eigenvalues --    0.00272   0.00369   0.00457   0.00643   0.00873

  Beta  occ. eigenvalues --  -38.44339 -38.43889 -38.43841 -38.43805 -38.43800
  Beta  occ. eigenvalues --  -38.43502 -38.43165  -2.20142  -2.19856  -2.19762
  Beta  occ. eigenvalues --   -2.19687  -2.19568  -2.19380  -2.18984  -1.13822
  Beta  occ. eigenvalues --   -1.13795  -1.13784  -1.13739  -1.13557  -1.13449
  Beta  occ. eigenvalues --   -1.13443  -1.13401  -1.13390  -1.13352  -1.13344
  Beta  occ. eigenvalues --   -1.13335  -1.13250  -1.13234  -1.13212  -1.13057
  Beta  occ. eigenvalues --   -1.13039  -1.12997  -1.12676  -1.12644  -1.12609
  Beta  occ. eigenvalues --   -0.17980  -0.13365  -0.11254
  Beta virt. eigenvalues --   -0.07694  -0.05717  -0.04988  -0.04089  -0.03019
  Beta virt. eigenvalues --   -0.02393  -0.01850  -0.01533  -0.00692  -0.00357
  Beta virt. eigenvalues --    0.00086   0.00279   0.00403   0.00647   0.00763

 Mulliken charges and spin densities:
               1          2
     1  Na  -0.291227   0.038384
     2  Na   0.127243   0.026744
     3  Na   0.308832  -0.023765
     4  Na  -0.290769   0.608821
     5  Na  -0.581779   0.357913
     6  Na   0.969833   0.029742
     7  Na  -0.242133  -0.037840
 Sum of Mulliken charges =  -0.00000   1.00000

 Dipole moment (field-independent basis, Debye):
    X=             -0.3109    Y=             -0.1046    Z=             -0.1796  Tot=              0.3740
 Quadrupole moment (field-independent basis, Debye-Ang):
   XX=            -55.7787   YY=            -71.7665   ZZ=            -67.9312
   XY=              0.9077   XZ=             -0.9135   YZ=             -0.5380

 Normal termination of Gaussian 16 at Fri Dec  8 07:50:19 2023.
