 Gaussian 16, Revision B.01,
 Gaussian 16:  ES64L-G16RevB.01 20-Dec-2017

 -------------------------
 #P B3LYP/6-311+g(d) force
 -------------------------

 -----
 DPGEN
 -----
 Symbolic Z-matrix:
 Charge =  0 Multiplicity = 2

                         Standard orientation:
 ---------------------------------------------------------------------
 Center     Atomic      Atomic             Coordinates (Angstroms)
 Number     Number       Type             X           Y           Z
 ---------------------------------------------------------------------
      1         11           0        3.736349   -0.555199    0.562747
      2         11           0       -0.250902   -0.036360    2.113771
      3         11           0        1.614451    1.785266   -0.690548
      4         11           0       -1.782170    2.453963    0.205063
      5         11           0        1.185222   -1.940648   -0.803116
      6         11           0       -1.066714   -0.003874   -1.649826
      7         11           0       -3.436237   -1.703146    0.261908
 ---------------------------------------------------------------------

 SCF Done:  E(UB3LYP) =  -1136.12463003     A.U. after   21 cycles

 The electronic state is 2-A.
 Alpha  occ. eigenvalues --  -38.44626 -38.44624 -38.44391 -38.43810 -38.43353
 Alpha  occ. eigenvalues --  -38.43343 -38.43206  -2.20457  -2.20446  -2.20141
 Alpha  occ. eigenvalues --   -2.19696  -2.19230  -2.19200  -2.19193  -1.14129
 Alpha  occ. eigenvalues --   -1.14119  -1.14106  -1.14095  -1.14088  -1.14066
 Alpha  occ. eigenvalues --   -1.13823  -1.13803  -1.13778  -1.13438  -1.13354
 Alpha  occ. eigenvalues --   -1.13295  -1.12964  -1.12950  -1.12904  -1.12879
 Alpha  occ. eigenvalues --   -1.12862  -1.12845  -1.12803  -1.12794  -1.12756
 Alpha  occ. eigenvalues --   -0.18490  -0.13472  -0.11442  -0.11173
 Alpha virt. eigenvalues --   -0.06690  -0.05331  -0.03970  -0.03217  -0.02980
 Alpha virt. eigenvalues --   -0.02659  -0.02171  -0.01267  -0.00621  -0.00036
 Alpha virt. eigenvalues --    0.00139   0.00190   0.00459   0.00654   0.00756

  Beta  occ. eigenvalues --  -38.44619 -38.44542 -38.44399 -38.43782 -38.43340
  Beta  occ. eigenvalues --  -38.43336 -38.43140  -2.20438  -2.20301  -2.20157
  Beta  occ. eigenvalues --   -2.19649  -2.19203  -2.19195  -2.19076  -1.14114
  Beta  occ. eigenvalues --   -1.14100  -1.14075  -1.14024  -1.13983  -1.13954
  Beta  occ. eigenvalues --   -1.13832  -1.13808  -1.13789  -1.13391  -1.13300
  Beta  occ. eigenvalues --   -1.13267  -1.12936  -1.12912  -1.12866  -1.12850
  Beta  occ. eigenvalues --   -1.12832  -1.12807  -1.12795  -1.12721  -1.12676
  Beta  occ. eigenvalues --   -0.17694  -0.13348  -0.11225
  Beta virt. eigenvalues --   -0.07234  -0.06451  -0.05299  -0.03633  -0.02921
  Beta virt. eigenvalues --   -0.02235  -0.01960  -0.01754  -0.01160  -0.00396
  Beta virt. eigenvalues --   -0.00007   0.00156   0.00207   0.00627   0.00726

 Mulliken charges and spin densities:
               1          2
     1  Na   0.283195   0.042124
     2  Na  -0.539422   0.726085
     3  Na  -0.085683   0.135052
     4  Na   0.213735   0.010746
     5  Na  -0.041197   0.104794
     6  Na   0.176537   0.026398
     7  Na  -0.007165  -0.045199
 Sum of Mulliken charges =  -0.00000   1.00000

 Dipole moment (field-independent basis, Debye):
    X=              0.3468    Y=              0.0349    Z=              0.6023  Tot=              0.6959
 Quadrupole moment (field-independent basis, Debye-Ang):
   XX=            -50.3472   YY=            -71.8170   ZZ=            -71.3786
   XY=             -0.7767   XZ=              0.3951   YZ=             -0.6769

 Normal termination of Gaussian 16 at Thu Dec  7 01:50:25 2023.
