 Gaussian 16, Revision B.01,
 Gaussian 16:  ES64L-G16RevB.01 20-Dec-2017

 -------------------------
 #P B3LYP/6-311+g(d) force
 -------------------------

 -----
 DPGEN
 -----
 Symbolic Z-matrix:
 Charge =  0 Multiplicity = 2

                         Standard orientation:
 ---------------------------------------------------------------------
 Center     Atomic      Atomic             Coordinates (Angstroms)
 Number     Number       Type             X           Y           Z
 ---------------------------------------------------------------------
      1         11           0       -2.024086    3.281205   -0.159969
      2         11           0        4.538523   -0.548881    0.718977
      3         11           0       -0.555158    0.383401    1.216884
      4         11           0        1.383768   -1.612535   -0.976855
      5         11           0        2.608884    1.872201   -0.701387
      6         11           0       -4.119432   -0.221701   -0.039926
      7         11           0       -1.832499   -3.153689   -0.057724
 ---------------------------------------------------------------------

 SCF Done:  E(UB3LYP) =  -1136.12018687     A.U. after   20 cycles

 The electronic state is 2-A.
 Alpha  occ. eigenvalues --  -38.45216 -38.44413 -38.44241 -38.44072 -38.44013
 Alpha  occ. eigenvalues --  -38.43912 -38.43527  -2.20991  -2.20234  -2.20058
 Alpha  occ. eigenvalues --   -2.19895  -2.19804  -2.19660  -2.19299  -1.14692
 Alpha  occ. eigenvalues --   -1.14654  -1.14614  -1.13934  -1.13893  -1.13850
 Alpha  occ. eigenvalues --   -1.13712  -1.13706  -1.13667  -1.13588  -1.13579
 Alpha  occ. eigenvalues --   -1.13481  -1.13473  -1.13439  -1.13414  -1.13343
 Alpha  occ. eigenvalues --   -1.13313  -1.13307  -1.12988  -1.12955  -1.12944
 Alpha  occ. eigenvalues --   -0.16821  -0.13964  -0.11794  -0.10126
 Alpha virt. eigenvalues --   -0.06365  -0.05923  -0.05325  -0.03062  -0.02969
 Alpha virt. eigenvalues --   -0.02272  -0.01980  -0.01598  -0.01063  -0.00606
 Alpha virt. eigenvalues --   -0.00397  -0.00244   0.00383   0.00434   0.00598

  Beta  occ. eigenvalues --  -38.45216 -38.44390 -38.44167 -38.44045 -38.43932
  Beta  occ. eigenvalues --  -38.43920 -38.43531  -2.20995  -2.20194  -2.19920
  Beta  occ. eigenvalues --   -2.19846  -2.19677  -2.19652  -2.19310  -1.14696
  Beta  occ. eigenvalues --   -1.14658  -1.14591  -1.13904  -1.13858  -1.13821
  Beta  occ. eigenvalues --   -1.13616  -1.13607  -1.13580  -1.13553  -1.13537
  Beta  occ. eigenvalues --   -1.13448  -1.13369  -1.13356  -1.13340  -1.13326
  Beta  occ. eigenvalues --   -1.13312  -1.13304  -1.12998  -1.12964  -1.12928
  Beta  occ. eigenvalues --   -0.16298  -0.13308  -0.11646
  Beta virt. eigenvalues --   -0.06723  -0.06113  -0.05795  -0.04911  -0.02732
  Beta virt. eigenvalues --   -0.02551  -0.01948  -0.01729  -0.01391  -0.00967
  Beta virt. eigenvalues --   -0.00493  -0.00051   0.00130   0.00520   0.00595

 Mulliken charges and spin densities:
               1          2
     1  Na  -0.009795  -0.032861
     2  Na   0.155579   0.462085
     3  Na  -0.054412  -0.026504
     4  Na  -0.252199   0.021808
     5  Na   0.110219   0.069196
     6  Na  -0.026597   0.518358
     7  Na   0.077205  -0.012082
 Sum of Mulliken charges =  -0.00000   1.00000

 Dipole moment (field-independent basis, Debye):
    X=              0.8922    Y=              0.3536    Z=             -0.3457  Tot=              1.0201
 Quadrupole moment (field-independent basis, Debye-Ang):
   XX=            -72.0729   YY=            -64.0265   ZZ=            -67.0488
   XY=             -0.6211   XZ=              0.9602   YZ=             -3.4872

 Normal termination of Gaussian 16 at Mon Dec  4 05:12:03 2023.
