 Gaussian 16, Revision B.01,
 Gaussian 16:  ES64L-G16RevB.01 20-Dec-2017

 -------------------------
 #P B3LYP/6-311+g(d) force
 -------------------------

 -----
 DPGEN
 -----
 Symbolic Z-matrix:
 Charge =  0 Multiplicity = 2

                         Standard orientation:
 ---------------------------------------------------------------------
 Center     Atomic      Atomic             Coordinates (Angstroms)
 Number     Number       Type             X           Y           Z
 ---------------------------------------------------------------------
      1         11           0        0.368028    2.713662    0.182193
      2         11           0       -0.027572    0.047295   -1.624605
      3         11           0        1.643295   -2.221760   -0.051938
      4         11           0       -1.748842   -2.032923   -0.219666
      5         11           0        3.130738    0.622338   -0.144454
      6         11           0       -2.818668    1.044772   -0.465791
      7         11           0       -0.546979   -0.173383    2.324261
 ---------------------------------------------------------------------

 SCF Done:  E(UB3LYP) =  -1136.13506473     A.U. after   18 cycles

 The electronic state is 2-A.
 Alpha  occ. eigenvalues --  -38.44208 -38.43903 -38.43856 -38.43347 -38.43187
 Alpha  occ. eigenvalues --  -38.43136 -38.43100  -2.20074  -2.19745  -2.19737
 Alpha  occ. eigenvalues --   -2.19401  -2.19133  -2.19032  -2.18958  -1.13723
 Alpha  occ. eigenvalues --   -1.13706  -1.13688  -1.13453  -1.13424  -1.13410
 Alpha  occ. eigenvalues --   -1.13389  -1.13389  -1.13367  -1.13132  -1.13062
 Alpha  occ. eigenvalues --   -1.13031  -1.12803  -1.12787  -1.12760  -1.12709
 Alpha  occ. eigenvalues --   -1.12687  -1.12652  -1.12645  -1.12625  -1.12577
 Alpha  occ. eigenvalues --   -0.19045  -0.13220  -0.12316  -0.11367
 Alpha virt. eigenvalues --   -0.05587  -0.04878  -0.04305  -0.03348  -0.03112
 Alpha virt. eigenvalues --   -0.02987  -0.01461  -0.00836  -0.00152  -0.00040
 Alpha virt. eigenvalues --    0.00050   0.00354   0.00825   0.00955   0.00957

  Beta  occ. eigenvalues --  -38.44098 -38.43904 -38.43845 -38.43288 -38.43176
  Beta  occ. eigenvalues --  -38.43133 -38.43096  -2.19871  -2.19749  -2.19719
  Beta  occ. eigenvalues --   -2.19294  -2.19119  -2.19029  -2.18952  -1.13589
  Beta  occ. eigenvalues --   -1.13564  -1.13543  -1.13431  -1.13427  -1.13402
  Beta  occ. eigenvalues --   -1.13391  -1.13372  -1.13345  -1.13071  -1.12987
  Beta  occ. eigenvalues --   -1.12951  -1.12789  -1.12758  -1.12733  -1.12703
  Beta  occ. eigenvalues --   -1.12670  -1.12647  -1.12639  -1.12599  -1.12578
  Beta  occ. eigenvalues --   -0.18298  -0.12987  -0.12086
  Beta virt. eigenvalues --   -0.07309  -0.05544  -0.04882  -0.04260  -0.02586
  Beta virt. eigenvalues --   -0.02178  -0.01956  -0.01381  -0.00792  -0.00130
  Beta virt. eigenvalues --   -0.00011   0.00104   0.00389   0.00914   0.00943

 Mulliken charges and spin densities:
               1          2
     1  Na   0.097567   0.048863
     2  Na  -0.439637   0.139141
     3  Na   0.210726   0.028718
     4  Na   0.498784   0.107184
     5  Na   0.055672  -0.029456
     6  Na   0.374072   0.035050
     7  Na  -0.797184   0.670501
 Sum of Mulliken charges =  -0.00000   1.00000

 Dipole moment (field-independent basis, Debye):
    X=             -0.0454    Y=              0.1550    Z=              0.3449  Tot=              0.3808
 Quadrupole moment (field-independent basis, Debye-Ang):
   XX=            -57.1492   YY=            -66.9192   ZZ=            -71.0327
   XY=             -0.2920   XZ=              0.8829   YZ=              0.2074

 Normal termination of Gaussian 16 at Thu Dec  7 15:35:33 2023.
