 Gaussian 16, Revision B.01,
 Gaussian 16:  ES64L-G16RevB.01 20-Dec-2017

 -------------------------
 #P B3LYP/6-311+g(d) force
 -------------------------

 -----
 DPGEN
 -----
 Symbolic Z-matrix:
 Charge =  0 Multiplicity = 2

                         Standard orientation:
 ---------------------------------------------------------------------
 Center     Atomic      Atomic             Coordinates (Angstroms)
 Number     Number       Type             X           Y           Z
 ---------------------------------------------------------------------
      1         11           0        2.313192    2.265623   -0.568867
      2         11           0        0.202512   -1.545132   -0.860622
      3         11           0        1.524708   -0.014583    2.305256
      4         11           0       -1.293711    1.597683   -0.231147
      5         11           0       -4.607226   -0.091607   -0.730068
      6         11           0       -2.053637   -0.904400    1.009039
      7         11           0        3.914163   -1.307585   -0.923591
 ---------------------------------------------------------------------

 SCF Done:  E(UB3LYP) =  -1136.10670913     A.U. after   33 cycles

 The electronic state is 2-A.
 Alpha  occ. eigenvalues --  -38.45849 -38.45275 -38.44175 -38.44040 -38.44004
 Alpha  occ. eigenvalues --  -38.43704 -38.43131  -2.21626  -2.21090  -2.20035
 Alpha  occ. eigenvalues --   -2.20004  -2.19821  -2.19584  -2.18924  -1.15295
 Alpha  occ. eigenvalues --   -1.15271  -1.15251  -1.14758  -1.14728  -1.14707
 Alpha  occ. eigenvalues --   -1.13881  -1.13761  -1.13701  -1.13659  -1.13595
 Alpha  occ. eigenvalues --   -1.13575  -1.13487  -1.13464  -1.13441  -1.13295
 Alpha  occ. eigenvalues --   -1.13275  -1.13134  -1.12610  -1.12576  -1.12550
 Alpha  occ. eigenvalues --   -0.18162  -0.14286  -0.11275  -0.10496
 Alpha virt. eigenvalues --   -0.07495  -0.05230  -0.04926  -0.03258  -0.02862
 Alpha virt. eigenvalues --   -0.02165  -0.02137  -0.01797  -0.01201  -0.00335
 Alpha virt. eigenvalues --   -0.00238   0.00233   0.00289   0.00508   0.00686

  Beta  occ. eigenvalues --  -38.45806 -38.45223 -38.44166 -38.43983 -38.43976
  Beta  occ. eigenvalues --  -38.43716 -38.43112  -2.21549  -2.20991  -2.20019
  Beta  occ. eigenvalues --   -2.19961  -2.19715  -2.19608  -2.18889  -1.15224
  Beta  occ. eigenvalues --   -1.15217  -1.15198  -1.14693  -1.14660  -1.14642
  Beta  occ. eigenvalues --   -1.13849  -1.13738  -1.13698  -1.13648  -1.13563
  Beta  occ. eigenvalues --   -1.13503  -1.13414  -1.13385  -1.13375  -1.13314
  Beta  occ. eigenvalues --   -1.13273  -1.13149  -1.12586  -1.12556  -1.12518
  Beta  occ. eigenvalues --   -0.17578  -0.13670  -0.10370
  Beta virt. eigenvalues --   -0.07736  -0.07164  -0.04924  -0.04448  -0.03003
  Beta virt. eigenvalues --   -0.02685  -0.01766  -0.01600  -0.01372  -0.01001
  Beta virt. eigenvalues --   -0.00216  -0.00070   0.00280   0.00375   0.00569

 Mulliken charges and spin densities:
               1          2
     1  Na  -0.192847   0.230058
     2  Na  -0.479272  -0.080094
     3  Na   0.045371   0.080061
     4  Na  -0.735645  -0.000239
     5  Na   0.572463   0.211403
     6  Na   0.656268   0.247768
     7  Na   0.133664   0.311043
 Sum of Mulliken charges =  -0.00000   1.00000

 Dipole moment (field-independent basis, Debye):
    X=             -1.0141    Y=             -0.3369    Z=              0.9931  Tot=              1.4589
 Quadrupole moment (field-independent basis, Debye-Ang):
   XX=            -50.4752   YY=            -83.5828   ZZ=            -62.0181
   XY=              1.8041   XZ=              5.1580   YZ=             -1.8914

 Normal termination of Gaussian 16 at Thu Dec  7 20:21:25 2023.
