 Gaussian 16, Revision B.01,
 Gaussian 16:  ES64L-G16RevB.01 20-Dec-2017

 -------------------------
 #P B3LYP/6-311+g(d) force
 -------------------------

 -----
 DPGEN
 -----
 Symbolic Z-matrix:
 Charge =  0 Multiplicity = 2

                         Standard orientation:
 ---------------------------------------------------------------------
 Center     Atomic      Atomic             Coordinates (Angstroms)
 Number     Number       Type             X           Y           Z
 ---------------------------------------------------------------------
      1         11           0       -4.342361   -0.946092    0.299571
      2         11           0        1.210581   -1.478736    0.853861
      3         11           0       -2.215831   -3.120873   -0.632943
      4         11           0       -3.072464    2.839553   -0.178182
      5         11           0        3.371057    1.361456   -0.381677
      6         11           0        4.446138   -1.537570   -0.109245
      7         11           0        0.602880    2.882261    0.148614
 ---------------------------------------------------------------------

 SCF Done:  E(UB3LYP) =  -1136.10941228     A.U. after   24 cycles

 The electronic state is 2-A.
 Alpha  occ. eigenvalues --  -38.46193 -38.45097 -38.44930 -38.44111 -38.44026
 Alpha  occ. eigenvalues --  -38.43931 -38.43021  -2.21949  -2.20979  -2.20697
 Alpha  occ. eigenvalues --   -2.19901  -2.19868  -2.19726  -2.18837  -1.15647
 Alpha  occ. eigenvalues --   -1.15631  -1.15551  -1.14667  -1.14645  -1.14617
 Alpha  occ. eigenvalues --   -1.14384  -1.14369  -1.14335  -1.13569  -1.13542
 Alpha  occ. eigenvalues --   -1.13530  -1.13524  -1.13518  -1.13487  -1.13387
 Alpha  occ. eigenvalues --   -1.13385  -1.13365  -1.12510  -1.12501  -1.12481
 Alpha  occ. eigenvalues --   -0.16651  -0.14070  -0.12563  -0.10539
 Alpha virt. eigenvalues --   -0.07619  -0.05530  -0.04244  -0.03524  -0.03102
 Alpha virt. eigenvalues --   -0.02945  -0.02242  -0.01781  -0.00943  -0.00665
 Alpha virt. eigenvalues --   -0.00326  -0.00110   0.00049   0.00427   0.00501

  Beta  occ. eigenvalues --  -38.46179 -38.45061 -38.44928 -38.44071 -38.43963
  Beta  occ. eigenvalues --  -38.43914 -38.42996  -2.21924  -2.20922  -2.20695
  Beta  occ. eigenvalues --   -2.19793  -2.19784  -2.19692  -2.18797  -1.15633
  Beta  occ. eigenvalues --   -1.15605  -1.15523  -1.14614  -1.14595  -1.14558
  Beta  occ. eigenvalues --   -1.14386  -1.14367  -1.14318  -1.13491  -1.13487
  Beta  occ. eigenvalues --   -1.13475  -1.13449  -1.13444  -1.13434  -1.13373
  Beta  occ. eigenvalues --   -1.13362  -1.13336  -1.12482  -1.12474  -1.12438
  Beta  occ. eigenvalues --   -0.16067  -0.13707  -0.12095
  Beta virt. eigenvalues --   -0.07405  -0.07206  -0.05132  -0.03947  -0.03095
  Beta virt. eigenvalues --   -0.02896  -0.02591  -0.02027  -0.01547  -0.00832
  Beta virt. eigenvalues --   -0.00393  -0.00088   0.00144   0.00249   0.00500

 Mulliken charges and spin densities:
               1          2
     1  Na  -0.162889   0.044049
     2  Na  -0.840397   0.122743
     3  Na   0.159229   0.063186
     4  Na   0.076476   0.379915
     5  Na   0.065903   0.088483
     6  Na   0.694291   0.333994
     7  Na   0.007387  -0.032372
 Sum of Mulliken charges =  -0.00000   1.00000

 Dipole moment (field-independent basis, Debye):
    X=              1.1709    Y=             -1.0620    Z=              0.0367  Tot=              1.5812
 Quadrupole moment (field-independent basis, Debye-Ang):
   XX=            -59.5991   YY=            -71.1506   ZZ=            -70.9807
   XY=              3.0990   XZ=             -1.9410   YZ=             -0.3575

 Normal termination of Gaussian 16 at Sun Dec  3 22:32:31 2023.
