 Gaussian 16, Revision B.01,
 Gaussian 16:  ES64L-G16RevB.01 20-Dec-2017

 -------------------------
 #P B3LYP/6-311+g(d) force
 -------------------------

 -----
 DPGEN
 -----
 Symbolic Z-matrix:
 Charge =  0 Multiplicity = 2

                         Standard orientation:
 ---------------------------------------------------------------------
 Center     Atomic      Atomic             Coordinates (Angstroms)
 Number     Number       Type             X           Y           Z
 ---------------------------------------------------------------------
      1         11           0       -2.645602   -1.765397   -0.515267
      2         11           0       -0.446133   -0.853942    1.821673
      3         11           0       -2.617203    1.957857   -0.176202
      4         11           0        1.386918   -2.346532    0.063364
      5         11           0        0.825367    2.282839    0.781336
      6         11           0        0.307598    0.301846   -1.580335
      7         11           0        3.189056    0.423329   -0.394568
 ---------------------------------------------------------------------

 SCF Done:  E(UB3LYP) =  -1136.13070230     A.U. after   19 cycles

 The electronic state is 2-A.
 Alpha  occ. eigenvalues --  -38.44231 -38.44057 -38.44001 -38.43465 -38.43383
 Alpha  occ. eigenvalues --  -38.43275 -38.43098  -2.20040  -2.19955  -2.19796
 Alpha  occ. eigenvalues --   -2.19387  -2.19381  -2.19232  -2.19014  -1.13724
 Alpha  occ. eigenvalues --   -1.13699  -1.13667  -1.13658  -1.13612  -1.13592
 Alpha  occ. eigenvalues --   -1.13473  -1.13450  -1.13440  -1.13197  -1.13107
 Alpha  occ. eigenvalues --   -1.13081  -1.13005  -1.12989  -1.12979  -1.12876
 Alpha  occ. eigenvalues --   -1.12842  -1.12822  -1.12696  -1.12657  -1.12631
 Alpha  occ. eigenvalues --   -0.18910  -0.13352  -0.12273  -0.10760
 Alpha virt. eigenvalues --   -0.05790  -0.05529  -0.04042  -0.03405  -0.02926
 Alpha virt. eigenvalues --   -0.02297  -0.01758  -0.01184  -0.00319  -0.00033
 Alpha virt. eigenvalues --    0.00063   0.00331   0.00736   0.00795   0.00911

  Beta  occ. eigenvalues --  -38.44219 -38.44047 -38.44000 -38.43454 -38.43329
  Beta  occ. eigenvalues --  -38.43198 -38.43072  -2.20020  -2.19941  -2.19798
  Beta  occ. eigenvalues --   -2.19366  -2.19290  -2.19092  -2.18968  -1.13703
  Beta  occ. eigenvalues --   -1.13682  -1.13652  -1.13644  -1.13594  -1.13575
  Beta  occ. eigenvalues --   -1.13467  -1.13450  -1.13437  -1.13160  -1.13045
  Beta  occ. eigenvalues --   -1.13022  -1.12980  -1.12945  -1.12917  -1.12790
  Beta  occ. eigenvalues --   -1.12742  -1.12728  -1.12665  -1.12606  -1.12598
  Beta  occ. eigenvalues --   -0.18199  -0.13078  -0.12051
  Beta virt. eigenvalues --   -0.06881  -0.05701  -0.05495  -0.03944  -0.02710
  Beta virt. eigenvalues --   -0.02198  -0.01638  -0.01324  -0.01142  -0.00281
  Beta virt. eigenvalues --    0.00021   0.00139   0.00377   0.00801   0.00819

 Mulliken charges and spin densities:
               1          2
     1  Na  -0.125421  -0.033896
     2  Na  -0.066102   0.418746
     3  Na  -0.064019  -0.031275
     4  Na   0.215682  -0.039930
     5  Na   0.046222   0.170572
     6  Na  -0.388212   0.438230
     7  Na   0.381849   0.077552
 Sum of Mulliken charges =  -0.00000   1.00000

 Dipole moment (field-independent basis, Debye):
    X=             -0.2699    Y=             -0.0751    Z=             -0.0980  Tot=              0.2968
 Quadrupole moment (field-independent basis, Debye-Ang):
   XX=            -53.0460   YY=            -66.4500   ZZ=            -73.5308
   XY=              0.0743   XZ=              0.9773   YZ=              2.0063

 Normal termination of Gaussian 16 at Thu Dec  7 13:40:55 2023.
