 Gaussian 16, Revision B.01,
 Gaussian 16:  ES64L-G16RevB.01 20-Dec-2017

 -------------------------
 #P B3LYP/6-311+g(d) force
 -------------------------

 -----
 DPGEN
 -----
 Symbolic Z-matrix:
 Charge =  0 Multiplicity = 2

                         Standard orientation:
 ---------------------------------------------------------------------
 Center     Atomic      Atomic             Coordinates (Angstroms)
 Number     Number       Type             X           Y           Z
 ---------------------------------------------------------------------
      1         11           0        1.996108   -0.085020    1.791192
      2         11           0       -1.611838    1.679763    0.724692
      3         11           0        1.836691    2.318309   -0.433870
      4         11           0        3.838320   -1.285892   -0.914086
      5         11           0       -3.794824    0.066963   -1.473715
      6         11           0       -2.456658   -1.633453    1.416893
      7         11           0        0.192202   -1.060670   -1.111107
 ---------------------------------------------------------------------

 SCF Done:  E(UB3LYP) =  -1136.11995315     A.U. after   25 cycles

 The electronic state is 2-A.
 Alpha  occ. eigenvalues --  -38.44957 -38.44936 -38.44589 -38.44256 -38.43690
 Alpha  occ. eigenvalues --  -38.43342 -38.43323  -2.20779  -2.20765  -2.20400
 Alpha  occ. eigenvalues --   -2.20084  -2.19488  -2.19184  -2.19150  -1.14496
 Alpha  occ. eigenvalues --   -1.14461  -1.14451  -1.14438  -1.14386  -1.14359
 Alpha  occ. eigenvalues --   -1.14059  -1.14054  -1.14013  -1.13749  -1.13741
 Alpha  occ. eigenvalues --   -1.13697  -1.13164  -1.13145  -1.13119  -1.12884
 Alpha  occ. eigenvalues --   -1.12874  -1.12836  -1.12817  -1.12793  -1.12759
 Alpha  occ. eigenvalues --   -0.17863  -0.14351  -0.10736  -0.10610
 Alpha virt. eigenvalues --   -0.06814  -0.05707  -0.05397  -0.02982  -0.02792
 Alpha virt. eigenvalues --   -0.02211  -0.02098  -0.01450  -0.01093  -0.00431
 Alpha virt. eigenvalues --   -0.00023   0.00044   0.00197   0.00343   0.00400

  Beta  occ. eigenvalues --  -38.44947 -38.44914 -38.44533 -38.44203 -38.43683
  Beta  occ. eigenvalues --  -38.43332 -38.43318  -2.20750  -2.20739  -2.20294
  Beta  occ. eigenvalues --   -2.19986  -2.19474  -2.19171  -2.19142  -1.14467
  Beta  occ. eigenvalues --   -1.14434  -1.14420  -1.14410  -1.14361  -1.14351
  Beta  occ. eigenvalues --   -1.13987  -1.13975  -1.13946  -1.13683  -1.13671
  Beta  occ. eigenvalues --   -1.13620  -1.13154  -1.13135  -1.13111  -1.12879
  Beta  occ. eigenvalues --   -1.12833  -1.12825  -1.12813  -1.12787  -1.12752
  Beta  occ. eigenvalues --   -0.17287  -0.14054  -0.10604
  Beta virt. eigenvalues --   -0.07078  -0.06581  -0.05241  -0.04965  -0.02817
  Beta virt. eigenvalues --   -0.02577  -0.01809  -0.01504  -0.01222  -0.00695
  Beta virt. eigenvalues --   -0.00282   0.00118   0.00201   0.00294   0.00427

 Mulliken charges and spin densities:
               1          2
     1  Na   0.188694   0.212365
     2  Na  -0.168890   0.240086
     3  Na  -0.065323  -0.043365
     4  Na   0.224520  -0.000355
     5  Na   0.332145   0.184527
     6  Na   0.101989   0.293227
     7  Na  -0.613136   0.113515
 Sum of Mulliken charges =  -0.00000   1.00000

 Dipole moment (field-independent basis, Debye):
    X=             -0.1110    Y=             -0.0968    Z=              0.2755  Tot=              0.3124
 Quadrupole moment (field-independent basis, Debye-Ang):
   XX=            -52.9588   YY=            -77.9782   ZZ=            -66.4150
   XY=              2.5637   XZ=              1.0526   YZ=             -3.0774

 Normal termination of Gaussian 16 at Fri Dec  8 01:07:31 2023.
