 Gaussian 16, Revision B.01,
 Gaussian 16:  ES64L-G16RevB.01 20-Dec-2017

 -------------------------
 #P B3LYP/6-311+g(d) force
 -------------------------

 -----
 DPGEN
 -----
 Symbolic Z-matrix:
 Charge =  0 Multiplicity = 2

                         Standard orientation:
 ---------------------------------------------------------------------
 Center     Atomic      Atomic             Coordinates (Angstroms)
 Number     Number       Type             X           Y           Z
 ---------------------------------------------------------------------
      1         11           0       -3.369457   -2.052033   -0.693225
      2         11           0       -0.207276   -2.862948   -0.300008
      3         11           0        1.739933    3.193255   -0.720971
      4         11           0       -1.622332    3.039387    0.684162
      5         11           0        4.555254    0.312421   -0.326523
      6         11           0        3.124946   -2.237494    0.977394
      7         11           0       -4.221067    0.607411    0.379171
 ---------------------------------------------------------------------

 SCF Done:  E(UB3LYP) =  -1136.10526002     A.U. after   24 cycles

 The electronic state is 2-A.
 Alpha  occ. eigenvalues --  -38.44905 -38.44893 -38.44870 -38.44737 -38.44600
 Alpha  occ. eigenvalues --  -38.44058 -38.43939  -2.20694  -2.20663  -2.20635
 Alpha  occ. eigenvalues --   -2.20573  -2.20352  -2.19907  -2.19746  -1.14415
 Alpha  occ. eigenvalues --   -1.14365  -1.14351  -1.14324  -1.14316  -1.14313
 Alpha  occ. eigenvalues --   -1.14298  -1.14295  -1.14271  -1.14262  -1.14232
 Alpha  occ. eigenvalues --   -1.14228  -1.14021  -1.14005  -1.13975  -1.13563
 Alpha  occ. eigenvalues --   -1.13540  -1.13526  -1.13399  -1.13392  -1.13374
 Alpha  occ. eigenvalues --   -0.15783  -0.14291  -0.13094  -0.10719
 Alpha virt. eigenvalues --   -0.07906  -0.04886  -0.04424  -0.03733  -0.03530
 Alpha virt. eigenvalues --   -0.02354  -0.02319  -0.01361  -0.01120  -0.01069
 Alpha virt. eigenvalues --   -0.00802  -0.00331   0.00211   0.00486   0.00666

  Beta  occ. eigenvalues --  -38.44898 -38.44894 -38.44824 -38.44733 -38.44557
  Beta  occ. eigenvalues --  -38.43998 -38.43872  -2.20686  -2.20642  -2.20581
  Beta  occ. eigenvalues --   -2.20573  -2.20274  -2.19795  -2.19623  -1.14383
  Beta  occ. eigenvalues --   -1.14363  -1.14332  -1.14330  -1.14321  -1.14272
  Beta  occ. eigenvalues --   -1.14262  -1.14246  -1.14241  -1.14236  -1.14209
  Beta  occ. eigenvalues --   -1.14208  -1.13969  -1.13954  -1.13915  -1.13494
  Beta  occ. eigenvalues --   -1.13464  -1.13453  -1.13315  -1.13310  -1.13292
  Beta  occ. eigenvalues --   -0.15229  -0.13634  -0.12349
  Beta virt. eigenvalues --   -0.08038  -0.07622  -0.04294  -0.03925  -0.03572
  Beta virt. eigenvalues --   -0.03272  -0.02213  -0.02086  -0.01216  -0.00951
  Beta virt. eigenvalues --   -0.00676  -0.00574  -0.00169   0.00235   0.00560

 Mulliken charges and spin densities:
               1          2
     1  Na   0.314220   0.011672
     2  Na  -0.447516   0.249763
     3  Na  -0.208737   0.176493
     4  Na  -0.034851  -0.014423
     5  Na   0.198665   0.245363
     6  Na   0.144610   0.069204
     7  Na   0.033609   0.261928
 Sum of Mulliken charges =  -0.00000   1.00000

 Dipole moment (field-independent basis, Debye):
    X=              0.5936    Y=              0.0147    Z=              0.0514  Tot=              0.5960
 Quadrupole moment (field-independent basis, Debye-Ang):
   XX=            -60.9916   YY=            -69.9430   ZZ=            -70.0725
   XY=              2.1894   XZ=             -1.4354   YZ=             -1.0573

 Normal termination of Gaussian 16 at Sun Dec  3 11:39:09 2023.
