 Gaussian 16, Revision B.01,
 Gaussian 16:  ES64L-G16RevB.01 20-Dec-2017

 -------------------------
 #P B3LYP/6-311+g(d) force
 -------------------------

 -----
 DPGEN
 -----
 Symbolic Z-matrix:
 Charge =  0 Multiplicity = 2

                         Standard orientation:
 ---------------------------------------------------------------------
 Center     Atomic      Atomic             Coordinates (Angstroms)
 Number     Number       Type             X           Y           Z
 ---------------------------------------------------------------------
      1         11           0       -0.176208   -2.627419   -0.023793
      2         11           0        2.268862    1.905497    0.082620
      3         11           0       -0.038351    0.422653   -1.692239
      4         11           0       -3.252424   -0.470532   -0.497302
      5         11           0       -1.166755    2.460586    0.367550
      6         11           0       -0.543492   -0.431038    1.904211
      7         11           0        2.908368   -1.259747   -0.141048
 ---------------------------------------------------------------------

 SCF Done:  E(UB3LYP) =  -1136.13443402     A.U. after   19 cycles

 The electronic state is 2-A.
 Alpha  occ. eigenvalues --  -38.44449 -38.43887 -38.43558 -38.43455 -38.43352
 Alpha  occ. eigenvalues --  -38.43266 -38.43170  -2.20265  -2.19729  -2.19428
 Alpha  occ. eigenvalues --   -2.19410  -2.19333  -2.19167  -2.19079  -1.13937
 Alpha  occ. eigenvalues --   -1.13911  -1.13906  -1.13416  -1.13392  -1.13375
 Alpha  occ. eigenvalues --   -1.13171  -1.13139  -1.13088  -1.13075  -1.13061
 Alpha  occ. eigenvalues --   -1.13036  -1.13003  -1.12990  -1.12933  -1.12835
 Alpha  occ. eigenvalues --   -1.12817  -1.12770  -1.12750  -1.12734  -1.12673
 Alpha  occ. eigenvalues --   -0.18931  -0.13218  -0.12476  -0.10799
 Alpha virt. eigenvalues --   -0.05945  -0.05037  -0.04364  -0.03242  -0.02960
 Alpha virt. eigenvalues --   -0.02425  -0.01832  -0.00945  -0.00181  -0.00159
 Alpha virt. eigenvalues --   -0.00014   0.00334   0.00806   0.00898   0.00910

  Beta  occ. eigenvalues --  -38.44434 -38.43887 -38.43556 -38.43370 -38.43290
  Beta  occ. eigenvalues --  -38.43252 -38.43161  -2.20239  -2.19731  -2.19426
  Beta  occ. eigenvalues --   -2.19254  -2.19219  -2.19146  -2.19067  -1.13900
  Beta  occ. eigenvalues --   -1.13897  -1.13889  -1.13420  -1.13388  -1.13368
  Beta  occ. eigenvalues --   -1.13124  -1.13078  -1.13075  -1.13056  -1.12997
  Beta  occ. eigenvalues --   -1.12949  -1.12914  -1.12897  -1.12849  -1.12804
  Beta  occ. eigenvalues --   -1.12771  -1.12757  -1.12730  -1.12688  -1.12668
  Beta  occ. eigenvalues --   -0.18211  -0.12981  -0.12225
  Beta virt. eigenvalues --   -0.06884  -0.05868  -0.05033  -0.04315  -0.02529
  Beta virt. eigenvalues --   -0.02163  -0.01717  -0.01380  -0.00890  -0.00206
  Beta virt. eigenvalues --   -0.00188   0.00119   0.00366   0.00857   0.00890

 Mulliken charges and spin densities:
               1          2
     1  Na   0.299729  -0.022038
     2  Na   0.182548  -0.028708
     3  Na  -0.434794   0.600195
     4  Na   0.144130  -0.022091
     5  Na   0.208114  -0.002122
     6  Na  -0.353940   0.559199
     7  Na  -0.045787  -0.084434
 Sum of Mulliken charges =  -0.00000   1.00000

 Dipole moment (field-independent basis, Debye):
    X=             -0.2798    Y=             -0.0078    Z=             -0.0274  Tot=              0.2812
 Quadrupole moment (field-independent basis, Debye-Ang):
   XX=            -53.6552   YY=            -66.0952   ZZ=            -73.7395
   XY=              0.1185   XZ=              1.1679   YZ=              1.8993

 Normal termination of Gaussian 16 at Fri Dec  8 03:29:21 2023.
