 Gaussian 16, Revision B.01,
 Gaussian 16:  ES64L-G16RevB.01 20-Dec-2017

 -------------------------
 #P B3LYP/6-311+g(d) force
 -------------------------

 -----
 DPGEN
 -----
 Symbolic Z-matrix:
 Charge =  0 Multiplicity = 2

                         Standard orientation:
 ---------------------------------------------------------------------
 Center     Atomic      Atomic             Coordinates (Angstroms)
 Number     Number       Type             X           Y           Z
 ---------------------------------------------------------------------
      1         11           0       -0.598969   -0.769133   -1.836041
      2         11           0       -1.196336   -0.801547    1.391292
      3         11           0        1.534103   -2.103675    0.135953
      4         11           0       -0.542512    2.576376   -0.213148
      5         11           0        2.629370    0.524197   -1.297231
      6         11           0       -3.907398   -0.105622    0.022647
      7         11           0        2.081743    0.679405    1.796528
 ---------------------------------------------------------------------

 SCF Done:  E(UB3LYP) =  -1136.12440188     A.U. after   24 cycles

 The electronic state is 2-A.
 Alpha  occ. eigenvalues --  -38.45230 -38.44433 -38.43946 -38.43932 -38.43560
 Alpha  occ. eigenvalues --  -38.42979 -38.42470  -2.21022  -2.20332  -2.19867
 Alpha  occ. eigenvalues --   -2.19834  -2.19513  -2.18768  -2.18435  -1.14724
 Alpha  occ. eigenvalues --   -1.14666  -1.14648  -1.14036  -1.13999  -1.13941
 Alpha  occ. eigenvalues --   -1.13580  -1.13503  -1.13500  -1.13499  -1.13479
 Alpha  occ. eigenvalues --   -1.13430  -1.13207  -1.13161  -1.13128  -1.12463
 Alpha  occ. eigenvalues --   -1.12448  -1.12379  -1.12121  -1.12094  -1.12074
 Alpha  occ. eigenvalues --   -0.18902  -0.13704  -0.11776  -0.11084
 Alpha virt. eigenvalues --   -0.06755  -0.04582  -0.04170  -0.03261  -0.02996
 Alpha virt. eigenvalues --   -0.02613  -0.02310  -0.00799  -0.00407  -0.00071
 Alpha virt. eigenvalues --    0.00199   0.00268   0.00356   0.00863   0.00881

  Beta  occ. eigenvalues --  -38.45231 -38.44403 -38.43885 -38.43879 -38.43520
  Beta  occ. eigenvalues --  -38.42973 -38.42459  -2.21025  -2.20280  -2.19756
  Beta  occ. eigenvalues --   -2.19737  -2.19441  -2.18759  -2.18420  -1.14721
  Beta  occ. eigenvalues --   -1.14668  -1.14650  -1.14002  -1.13942  -1.13905
  Beta  occ. eigenvalues --   -1.13513  -1.13442  -1.13423  -1.13416  -1.13390
  Beta  occ. eigenvalues --   -1.13357  -1.13162  -1.13091  -1.13080  -1.12455
  Beta  occ. eigenvalues --   -1.12427  -1.12376  -1.12117  -1.12077  -1.12028
  Beta  occ. eigenvalues --   -0.18080  -0.13561  -0.10884
  Beta virt. eigenvalues --   -0.07674  -0.06628  -0.04144  -0.03924  -0.03116
  Beta virt. eigenvalues --   -0.02273  -0.02116  -0.01795  -0.00436  -0.00348
  Beta virt. eigenvalues --   -0.00027   0.00248   0.00329   0.00426   0.00915

 Mulliken charges and spin densities:
               1          2
     1  Na  -0.190984   0.465125
     2  Na  -0.240307   0.197403
     3  Na   0.442160   0.072843
     4  Na  -0.518545  -0.068723
     5  Na   0.185342   0.138443
     6  Na   0.273616  -0.022426
     7  Na   0.048717   0.217336
 Sum of Mulliken charges =  -0.00000   1.00000

 Dipole moment (field-independent basis, Debye):
    X=             -0.9094    Y=              0.0319    Z=             -0.2627  Tot=              0.9471
 Quadrupole moment (field-independent basis, Debye-Ang):
   XX=            -48.8937   YY=            -77.9858   ZZ=            -66.2217
   XY=             -0.5478   XZ=              0.4811   YZ=             -1.1559

 Normal termination of Gaussian 16 at Fri Dec  8 04:11:08 2023.
