 Gaussian 16, Revision B.01,
 Gaussian 16:  ES64L-G16RevB.01 20-Dec-2017

 -------------------------
 #P B3LYP/6-311+g(d) force
 -------------------------

 -----
 DPGEN
 -----
 Symbolic Z-matrix:
 Charge =  0 Multiplicity = 2

                         Standard orientation:
 ---------------------------------------------------------------------
 Center     Atomic      Atomic             Coordinates (Angstroms)
 Number     Number       Type             X           Y           Z
 ---------------------------------------------------------------------
      1         11           0        2.996812   -0.384997    0.048482
      2         11           0        0.882145   -3.055730   -0.077642
      3         11           0       -0.469090   -0.245218    2.017433
      4         11           0        1.855626    2.644532    0.060338
      5         11           0       -3.559924   -0.957263   -0.217841
      6         11           0        0.290461   -0.258604   -1.606030
      7         11           0       -1.996029    2.257281   -0.224739
 ---------------------------------------------------------------------

 SCF Done:  E(UB3LYP) =  -1136.13113021     A.U. after   21 cycles

 The electronic state is 2-A.
 Alpha  occ. eigenvalues --  -38.44975 -38.44113 -38.44106 -38.43515 -38.43465
 Alpha  occ. eigenvalues --  -38.43416 -38.43309  -2.20728  -2.19993  -2.19915
 Alpha  occ. eigenvalues --   -2.19365  -2.19353  -2.19304  -2.19129  -1.14400
 Alpha  occ. eigenvalues --   -1.14387  -1.14365  -1.13703  -1.13651  -1.13625
 Alpha  occ. eigenvalues --   -1.13598  -1.13591  -1.13535  -1.13073  -1.13036
 Alpha  occ. eigenvalues --   -1.13016  -1.12995  -1.12987  -1.12979  -1.12954
 Alpha  occ. eigenvalues --   -1.12942  -1.12924  -1.12805  -1.12787  -1.12770
 Alpha  occ. eigenvalues --   -0.18137  -0.13259  -0.12110  -0.10291
 Alpha virt. eigenvalues --   -0.06346  -0.05280  -0.04763  -0.03289  -0.02614
 Alpha virt. eigenvalues --   -0.02294  -0.02002  -0.01266  -0.00710  -0.00549
 Alpha virt. eigenvalues --   -0.00035   0.00305   0.00689   0.00767   0.00801

  Beta  occ. eigenvalues --  -38.44975 -38.44107 -38.44100 -38.43461 -38.43419
  Beta  occ. eigenvalues --  -38.43358 -38.43309  -2.20729  -2.19986  -2.19905
  Beta  occ. eigenvalues --   -2.19301  -2.19249  -2.19188  -2.19130  -1.14391
  Beta  occ. eigenvalues --   -1.14385  -1.14367  -1.13695  -1.13629  -1.13620
  Beta  occ. eigenvalues --   -1.13588  -1.13567  -1.13532  -1.13026  -1.12961
  Beta  occ. eigenvalues --   -1.12950  -1.12933  -1.12914  -1.12906  -1.12874
  Beta  occ. eigenvalues --   -1.12865  -1.12854  -1.12808  -1.12774  -1.12769
  Beta  occ. eigenvalues --   -0.17441  -0.13056  -0.11919
  Beta virt. eigenvalues --   -0.06437  -0.06297  -0.05203  -0.04741  -0.02530
  Beta virt. eigenvalues --   -0.01921  -0.01913  -0.01299  -0.01178  -0.00751
  Beta virt. eigenvalues --   -0.00576   0.00135   0.00350   0.00718   0.00818

 Mulliken charges and spin densities:
               1          2
     1  Na   0.330165   0.097267
     2  Na   0.190599  -0.095192
     3  Na  -0.378949   0.713303
     4  Na  -0.126998  -0.032423
     5  Na   0.053482  -0.097022
     6  Na  -0.097326   0.397188
     7  Na   0.029027   0.016879
 Sum of Mulliken charges =  -0.00000   1.00000

 Dipole moment (field-independent basis, Debye):
    X=             -0.6539    Y=             -0.2878    Z=              0.0091  Tot=              0.7145
 Quadrupole moment (field-independent basis, Debye-Ang):
   XX=            -54.2187   YY=            -61.6154   ZZ=            -76.8946
   XY=              0.9867   XZ=              1.6730   YZ=              0.0172

 Normal termination of Gaussian 16 at Thu Dec  7 10:30:58 2023.
