 Gaussian 16, Revision B.01,
 Gaussian 16:  ES64L-G16RevB.01 20-Dec-2017

 -------------------------
 #P B3LYP/6-311+g(d) force
 -------------------------

 -----
 DPGEN
 -----
 Symbolic Z-matrix:
 Charge =  0 Multiplicity = 2

                         Standard orientation:
 ---------------------------------------------------------------------
 Center     Atomic      Atomic             Coordinates (Angstroms)
 Number     Number       Type             X           Y           Z
 ---------------------------------------------------------------------
      1         11           0        0.556695    2.119135   -0.528195
      2         11           0       -3.232531   -1.053406    0.911190
      3         11           0       -0.924856   -1.005790   -1.629787
      4         11           0        2.259447   -1.862819   -0.951625
      5         11           0        0.175604   -0.689046    1.868466
      6         11           0       -2.533895    1.669084   -0.374359
      7         11           0        3.699536    0.822842    0.704311
 ---------------------------------------------------------------------

 SCF Done:  E(UB3LYP) =  -1136.12335574     A.U. after   25 cycles

 The electronic state is 2-A.
 Alpha  occ. eigenvalues --  -38.45047 -38.44864 -38.44390 -38.43869 -38.43667
 Alpha  occ. eigenvalues --  -38.43556 -38.42577  -2.20839  -2.20686  -2.20259
 Alpha  occ. eigenvalues --   -2.19705  -2.19592  -2.19474  -2.18441  -1.14511
 Alpha  occ. eigenvalues --   -1.14485  -1.14469  -1.14381  -1.14338  -1.14295
 Alpha  occ. eigenvalues --   -1.13952  -1.13908  -1.13888  -1.13398  -1.13358
 Alpha  occ. eigenvalues --   -1.13339  -1.13274  -1.13236  -1.13215  -1.13147
 Alpha  occ. eigenvalues --   -1.13123  -1.13109  -1.12143  -1.12111  -1.12066
 Alpha  occ. eigenvalues --   -0.18511  -0.14198  -0.11289  -0.11199
 Alpha virt. eigenvalues --   -0.07059  -0.05265  -0.04513  -0.03238  -0.02709
 Alpha virt. eigenvalues --   -0.02583  -0.02353  -0.01122  -0.00794  -0.00157
 Alpha virt. eigenvalues --    0.00125   0.00234   0.00316   0.00673   0.00733

  Beta  occ. eigenvalues --  -38.45025 -38.44817 -38.44367 -38.43841 -38.43599
  Beta  occ. eigenvalues --  -38.43549 -38.42577  -2.20797  -2.20599  -2.20217
  Beta  occ. eigenvalues --   -2.19656  -2.19469  -2.19464  -2.18443  -1.14478
  Beta  occ. eigenvalues --   -1.14459  -1.14440  -1.14322  -1.14276  -1.14225
  Beta  occ. eigenvalues --   -1.13926  -1.13872  -1.13856  -1.13346  -1.13327
  Beta  occ. eigenvalues --   -1.13297  -1.13200  -1.13160  -1.13144  -1.13128
  Beta  occ. eigenvalues --   -1.13100  -1.13074  -1.12149  -1.12101  -1.12057
  Beta  occ. eigenvalues --   -0.17857  -0.13944  -0.10930
  Beta virt. eigenvalues --   -0.07475  -0.06826  -0.05197  -0.03916  -0.03019
  Beta virt. eigenvalues --   -0.02492  -0.01947  -0.01603  -0.01022  -0.00478
  Beta virt. eigenvalues --   -0.00120   0.00158   0.00254   0.00449   0.00751

 Mulliken charges and spin densities:
               1          2
     1  Na  -0.581944  -0.051873
     2  Na   0.596826   0.194358
     3  Na  -0.076118   0.319779
     4  Na  -0.114905   0.029937
     5  Na  -0.584127   0.344774
     6  Na   0.054745   0.045677
     7  Na   0.705523   0.117347
 Sum of Mulliken charges =  -0.00000   1.00000

 Dipole moment (field-independent basis, Debye):
    X=              0.4502    Y=             -0.3997    Z=              0.4672  Tot=              0.7621
 Quadrupole moment (field-independent basis, Debye-Ang):
   XX=            -46.6545   YY=            -77.8037   ZZ=            -70.4122
   XY=              0.3499   XZ=              0.4936   YZ=              1.7140

 Normal termination of Gaussian 16 at Thu Dec  7 04:50:23 2023.
