 Gaussian 16, Revision B.01,
 Gaussian 16:  ES64L-G16RevB.01 20-Dec-2017

 -------------------------
 #P B3LYP/6-311+g(d) force
 -------------------------

 -----
 DPGEN
 -----
 Symbolic Z-matrix:
 Charge =  0 Multiplicity = 2

                         Standard orientation:
 ---------------------------------------------------------------------
 Center     Atomic      Atomic             Coordinates (Angstroms)
 Number     Number       Type             X           Y           Z
 ---------------------------------------------------------------------
      1         11           0       -0.024073    2.285134   -0.502110
      2         11           0        3.557975   -1.616017    0.609594
      3         11           0       -4.088262   -1.604416   -0.583341
      4         11           0       -0.437025   -1.443556   -0.552119
      5         11           0        2.893039    0.775694   -1.530836
      6         11           0       -3.109577    1.289170    0.803527
      7         11           0        1.207922    0.313991    1.755285
 ---------------------------------------------------------------------

 SCF Done:  E(UB3LYP) =  -1136.11864829     A.U. after   26 cycles

 The electronic state is 2-A.
 Alpha  occ. eigenvalues --  -38.45781 -38.45320 -38.44297 -38.43912 -38.43788
 Alpha  occ. eigenvalues --  -38.43548 -38.42356  -2.21561  -2.21111  -2.20141
 Alpha  occ. eigenvalues --   -2.19794  -2.19728  -2.19352  -2.18245  -1.15291
 Alpha  occ. eigenvalues --   -1.15246  -1.15152  -1.14807  -1.14767  -1.14741
 Alpha  occ. eigenvalues --   -1.13826  -1.13810  -1.13774  -1.13455  -1.13430
 Alpha  occ. eigenvalues --   -1.13423  -1.13413  -1.13369  -1.13322  -1.13019
 Alpha  occ. eigenvalues --   -1.13011  -1.12987  -1.11931  -1.11919  -1.11878
 Alpha  occ. eigenvalues --   -0.18191  -0.14309  -0.11488  -0.10621
 Alpha virt. eigenvalues --   -0.07376  -0.05703  -0.04284  -0.03308  -0.02935
 Alpha virt. eigenvalues --   -0.02523  -0.02082  -0.01618  -0.00901  -0.00394
 Alpha virt. eigenvalues --   -0.00124   0.00066   0.00360   0.00409   0.00599

  Beta  occ. eigenvalues --  -38.45785 -38.45324 -38.44275 -38.43826 -38.43719
  Beta  occ. eigenvalues --  -38.43534 -38.42347  -2.21571  -2.21120  -2.20104
  Beta  occ. eigenvalues --   -2.19635  -2.19602  -2.19326  -2.18232  -1.15270
  Beta  occ. eigenvalues --   -1.15257  -1.15165  -1.14812  -1.14774  -1.14739
  Beta  occ. eigenvalues --   -1.13805  -1.13759  -1.13744  -1.13344  -1.13340
  Beta  occ. eigenvalues --   -1.13323  -1.13297  -1.13278  -1.13225  -1.13001
  Beta  occ. eigenvalues --   -1.12993  -1.12973  -1.11925  -1.11913  -1.11838
  Beta  occ. eigenvalues --   -0.17553  -0.14003  -0.11179
  Beta virt. eigenvalues --   -0.07280  -0.06853  -0.05501  -0.03930  -0.03020
  Beta virt. eigenvalues --   -0.02789  -0.01896  -0.01725  -0.01197  -0.00501
  Beta virt. eigenvalues --   -0.00313   0.00031   0.00117   0.00487   0.00573

 Mulliken charges and spin densities:
               1          2
     1  Na  -0.011739   0.038523
     2  Na   0.850876   0.213593
     3  Na   0.325986   0.055158
     4  Na  -0.984543  -0.079047
     5  Na  -0.045255   0.437112
     6  Na  -0.004177   0.004597
     7  Na  -0.131148   0.330064
 Sum of Mulliken charges =  -0.00000   1.00000

 Dipole moment (field-independent basis, Debye):
    X=             -0.3193    Y=             -0.0124    Z=              0.6037  Tot=              0.6830
 Quadrupole moment (field-independent basis, Debye-Ang):
   XX=            -55.4923   YY=            -71.8552   ZZ=            -71.5428
   XY=             -5.5010   XZ=             -0.4030   YZ=              2.5708

 Normal termination of Gaussian 16 at Thu Dec  7 10:14:15 2023.
