 Gaussian 16, Revision B.01,
 Gaussian 16:  ES64L-G16RevB.01 20-Dec-2017

 -------------------------
 #P B3LYP/6-311+g(d) force
 -------------------------

 -----
 DPGEN
 -----
 Symbolic Z-matrix:
 Charge =  0 Multiplicity = 2

                         Standard orientation:
 ---------------------------------------------------------------------
 Center     Atomic      Atomic             Coordinates (Angstroms)
 Number     Number       Type             X           Y           Z
 ---------------------------------------------------------------------
      1         11           0        0.917501    2.827618    0.028640
      2         11           0       -3.116500    1.755697    0.264242
      3         11           0        0.014130   -0.449418    1.946810
      4         11           0        1.636920   -2.381429    0.174076
      5         11           0        3.149125    0.414019   -0.266929
      6         11           0       -2.452471   -2.238022   -0.436730
      7         11           0       -0.148705    0.071535   -1.710109
 ---------------------------------------------------------------------

 SCF Done:  E(UB3LYP) =  -1136.13033511     A.U. after   20 cycles

 The electronic state is 2-A.
 Alpha  occ. eigenvalues --  -38.44800 -38.44299 -38.43965 -38.43636 -38.43451
 Alpha  occ. eigenvalues --  -38.43449 -38.43433  -2.20534  -2.20076  -2.19831
 Alpha  occ. eigenvalues --   -2.19528  -2.19357  -2.19324  -2.19276  -1.14214
 Alpha  occ. eigenvalues --   -1.14182  -1.14175  -1.13756  -1.13727  -1.13710
 Alpha  occ. eigenvalues --   -1.13513  -1.13493  -1.13484  -1.13252  -1.13172
 Alpha  occ. eigenvalues --   -1.13138  -1.13054  -1.13016  -1.12986  -1.12979
 Alpha  occ. eigenvalues --   -1.12967  -1.12945  -1.12941  -1.12934  -1.12905
 Alpha  occ. eigenvalues --   -0.18256  -0.12977  -0.12198  -0.10520
 Alpha virt. eigenvalues --   -0.06161  -0.05645  -0.04402  -0.03188  -0.02811
 Alpha virt. eigenvalues --   -0.02375  -0.01834  -0.01491  -0.00614  -0.00415
 Alpha virt. eigenvalues --   -0.00033   0.00308   0.00683   0.00742   0.00813

  Beta  occ. eigenvalues --  -38.44798 -38.44286 -38.43959 -38.43551 -38.43449
  Beta  occ. eigenvalues --  -38.43423 -38.43385  -2.20530  -2.20054  -2.19824
  Beta  occ. eigenvalues --   -2.19372  -2.19312  -2.19275  -2.19241  -1.14203
  Beta  occ. eigenvalues --   -1.14179  -1.14173  -1.13726  -1.13712  -1.13698
  Beta  occ. eigenvalues --   -1.13512  -1.13490  -1.13455  -1.13162  -1.13063
  Beta  occ. eigenvalues --   -1.13031  -1.12986  -1.12975  -1.12953  -1.12938
  Beta  occ. eigenvalues --   -1.12935  -1.12919  -1.12901  -1.12894  -1.12878
  Beta  occ. eigenvalues --   -0.17551  -0.12750  -0.11946
  Beta virt. eigenvalues --   -0.06734  -0.06085  -0.05550  -0.04357  -0.02491
  Beta virt. eigenvalues --   -0.02102  -0.01724  -0.01389  -0.01379  -0.00653
  Beta virt. eigenvalues --   -0.00440   0.00110   0.00351   0.00745   0.00768

 Mulliken charges and spin densities:
               1          2
     1  Na  -0.032677  -0.066384
     2  Na  -0.129159  -0.059301
     3  Na  -0.380456   0.655439
     4  Na   0.521252   0.041413
     5  Na   0.120705   0.004100
     6  Na  -0.000629  -0.076813
     7  Na  -0.099036   0.501546
 Sum of Mulliken charges =  -0.00000   1.00000

 Dipole moment (field-independent basis, Debye):
    X=             -0.5339    Y=             -0.0102    Z=              0.0205  Tot=              0.5344
 Quadrupole moment (field-independent basis, Debye-Ang):
   XX=            -53.8446   YY=            -63.5043   ZZ=            -75.5679
   XY=             -0.1311   XZ=             -0.8223   YZ=              1.4696

 Normal termination of Gaussian 16 at Thu Dec  7 23:22:47 2023.
