 Gaussian 16, Revision B.01,
 Gaussian 16:  ES64L-G16RevB.01 20-Dec-2017

 -------------------------
 #P B3LYP/6-311+g(d) force
 -------------------------

 -----
 DPGEN
 -----
 Symbolic Z-matrix:
 Charge =  0 Multiplicity = 2

                         Standard orientation:
 ---------------------------------------------------------------------
 Center     Atomic      Atomic             Coordinates (Angstroms)
 Number     Number       Type             X           Y           Z
 ---------------------------------------------------------------------
      1         11           0        2.658426    1.468654   -0.818111
      2         11           0       -1.711141   -2.156724   -0.894150
      3         11           0       -4.535855   -0.650302    1.240193
      4         11           0       -2.508651    1.690585   -0.914538
      5         11           0        0.492275    3.249504    0.624112
      6         11           0        4.117167   -0.967694    0.963834
      7         11           0        1.487780   -2.634023   -0.201340
 ---------------------------------------------------------------------

 SCF Done:  E(UB3LYP) =  -1136.11751174     A.U. after   20 cycles

 The electronic state is 2-A.
 Alpha  occ. eigenvalues --  -38.45388 -38.44625 -38.44443 -38.43946 -38.43929
 Alpha  occ. eigenvalues --  -38.43654 -38.43588  -2.21127  -2.20439  -2.20228
 Alpha  occ. eigenvalues --   -2.19763  -2.19757  -2.19478  -2.19393  -1.14830
 Alpha  occ. eigenvalues --   -1.14808  -1.14733  -1.14137  -1.14111  -1.14074
 Alpha  occ. eigenvalues --   -1.13881  -1.13878  -1.13829  -1.13442  -1.13435
 Alpha  occ. eigenvalues --   -1.13417  -1.13408  -1.13404  -1.13369  -1.13154
 Alpha  occ. eigenvalues --   -1.13148  -1.13100  -1.13069  -1.13049  -1.13027
 Alpha  occ. eigenvalues --   -0.16194  -0.13995  -0.12706  -0.10573
 Alpha virt. eigenvalues --   -0.06638  -0.05650  -0.04489  -0.03648  -0.02576
 Alpha virt. eigenvalues --   -0.02316  -0.01968  -0.01729  -0.01288  -0.00760
 Alpha virt. eigenvalues --   -0.00343   0.00050   0.00132   0.00414   0.00583

  Beta  occ. eigenvalues --  -38.45388 -38.44624 -38.44362 -38.43899 -38.43886
  Beta  occ. eigenvalues --  -38.43626 -38.43583  -2.21130  -2.20439  -2.20076
  Beta  occ. eigenvalues --   -2.19682  -2.19676  -2.19432  -2.19383  -1.14831
  Beta  occ. eigenvalues --   -1.14811  -1.14719  -1.14142  -1.14107  -1.14059
  Beta  occ. eigenvalues --   -1.13777  -1.13772  -1.13732  -1.13387  -1.13380
  Beta  occ. eigenvalues --   -1.13365  -1.13353  -1.13348  -1.13288  -1.13128
  Beta  occ. eigenvalues --   -1.13116  -1.13066  -1.13042  -1.13033  -1.13016
  Beta  occ. eigenvalues --   -0.15752  -0.13437  -0.12183
  Beta virt. eigenvalues --   -0.07112  -0.06560  -0.05431  -0.04060  -0.03469
  Beta virt. eigenvalues --   -0.02177  -0.02074  -0.01673  -0.01382  -0.00987
  Beta virt. eigenvalues --   -0.00646  -0.00082   0.00178   0.00344   0.00543

 Mulliken charges and spin densities:
               1          2
     1  Na  -0.054724   0.062866
     2  Na  -0.158352   0.072269
     3  Na   0.134583   0.449251
     4  Na   0.025877   0.040033
     5  Na   0.017850  -0.013053
     6  Na   0.249867   0.314581
     7  Na  -0.215102   0.074052
 Sum of Mulliken charges =  -0.00000   1.00000

 Dipole moment (field-independent basis, Debye):
    X=             -0.1498    Y=              0.4216    Z=              0.2775  Tot=              0.5265
 Quadrupole moment (field-independent basis, Debye-Ang):
   XX=            -64.3077   YY=            -70.6492   ZZ=            -65.6533
   XY=             -0.7877   XZ=              1.0692   YZ=             -1.7866

 Normal termination of Gaussian 16 at Sun Dec  3 22:35:03 2023.
