 Gaussian 16, Revision B.01,
 Gaussian 16:  ES64L-G16RevB.01 20-Dec-2017

 -------------------------
 #P B3LYP/6-311+g(d) force
 -------------------------

 -----
 DPGEN
 -----
 Symbolic Z-matrix:
 Charge =  0 Multiplicity = 2

                         Standard orientation:
 ---------------------------------------------------------------------
 Center     Atomic      Atomic             Coordinates (Angstroms)
 Number     Number       Type             X           Y           Z
 ---------------------------------------------------------------------
      1         11           0       -0.897359   -1.686337    0.850044
      2         11           0        1.546619    0.872338    2.050551
      3         11           0        0.964128    3.209663   -0.563357
      4         11           0       -2.307531    1.347212   -0.538048
      5         11           0       -4.440714   -0.872528   -0.220707
      6         11           0        2.766902    0.185456   -0.875699
      7         11           0        2.367955   -3.055804   -0.702784
 ---------------------------------------------------------------------

 SCF Done:  E(UB3LYP) =  -1136.12349532     A.U. after   21 cycles

 The electronic state is 2-A.
 Alpha  occ. eigenvalues --  -38.44826 -38.44429 -38.44314 -38.44169 -38.44016
 Alpha  occ. eigenvalues --  -38.43504 -38.43493  -2.20636  -2.20253  -2.20164
 Alpha  occ. eigenvalues --   -2.19966  -2.19883  -2.19316  -2.19293  -1.14333
 Alpha  occ. eigenvalues --   -1.14290  -1.14266  -1.13937  -1.13925  -1.13863
 Alpha  occ. eigenvalues --   -1.13856  -1.13815  -1.13764  -1.13670  -1.13642
 Alpha  occ. eigenvalues --   -1.13577  -1.13555  -1.13544  -1.13496  -1.12988
 Alpha  occ. eigenvalues --   -1.12975  -1.12958  -1.12954  -1.12952  -1.12920
 Alpha  occ. eigenvalues --   -0.17257  -0.13954  -0.12235  -0.10393
 Alpha virt. eigenvalues --   -0.06710  -0.05490  -0.04828  -0.03297  -0.02844
 Alpha virt. eigenvalues --   -0.02419  -0.01974  -0.01329  -0.01164  -0.00745
 Alpha virt. eigenvalues --   -0.00275   0.00230   0.00243   0.00605   0.00700

  Beta  occ. eigenvalues --  -38.44820 -38.44420 -38.44243 -38.44135 -38.43983
  Beta  occ. eigenvalues --  -38.43493 -38.43469  -2.20624  -2.20238  -2.20033
  Beta  occ. eigenvalues --   -2.19905  -2.19825  -2.19296  -2.19250  -1.14323
  Beta  occ. eigenvalues --   -1.14282  -1.14257  -1.13928  -1.13903  -1.13853
  Beta  occ. eigenvalues --   -1.13770  -1.13722  -1.13668  -1.13630  -1.13582
  Beta  occ. eigenvalues --   -1.13530  -1.13519  -1.13502  -1.13446  -1.12967
  Beta  occ. eigenvalues --   -1.12960  -1.12939  -1.12925  -1.12917  -1.12891
  Beta  occ. eigenvalues --   -0.16682  -0.13701  -0.11956
  Beta virt. eigenvalues --   -0.06793  -0.06549  -0.05088  -0.04648  -0.02942
  Beta virt. eigenvalues --   -0.02411  -0.02281  -0.01339  -0.01165  -0.01010
  Beta virt. eigenvalues --   -0.00501   0.00044   0.00301   0.00407   0.00652

 Mulliken charges and spin densities:
               1          2
     1  Na  -0.913574   0.272657
     2  Na   0.192181   0.261752
     3  Na   0.018550   0.186459
     4  Na  -0.716275   0.024795
     5  Na   1.234729  -0.012251
     6  Na  -0.225144   0.335948
     7  Na   0.409533  -0.069360
 Sum of Mulliken charges =  -0.00000   1.00000

 Dipole moment (field-independent basis, Debye):
    X=             -1.4009    Y=             -0.1262    Z=              0.3127  Tot=              1.4409
 Quadrupole moment (field-independent basis, Debye-Ang):
   XX=            -57.3631   YY=            -64.3276   ZZ=            -73.5932
   XY=              5.4956   XZ=              2.2520   YZ=             -0.0400

 Normal termination of Gaussian 16 at Tue Nov 28 23:02:35 2023.
