 Gaussian 16, Revision B.01,
 Gaussian 16:  ES64L-G16RevB.01 20-Dec-2017

 -------------------------
 #P B3LYP/6-311+g(d) force
 -------------------------

 -----
 DPGEN
 -----
 Symbolic Z-matrix:
 Charge =  0 Multiplicity = 2

                         Standard orientation:
 ---------------------------------------------------------------------
 Center     Atomic      Atomic             Coordinates (Angstroms)
 Number     Number       Type             X           Y           Z
 ---------------------------------------------------------------------
      1         11           0       -0.471672   -2.125879   -0.663711
      2         11           0       -1.404947   -0.939450    2.286088
      3         11           0       -2.617791    1.989979    0.627465
      4         11           0       -3.100937    0.036895   -1.957230
      5         11           0        3.970470    1.890221   -0.341594
      6         11           0        3.115944   -1.561332   -0.075388
      7         11           0        0.508932    0.709566    0.124371
 ---------------------------------------------------------------------

 SCF Done:  E(UB3LYP) =  -1136.12039137     A.U. after   25 cycles

 The electronic state is 2-A.
 Alpha  occ. eigenvalues --  -38.44863 -38.44542 -38.44459 -38.43958 -38.43789
 Alpha  occ. eigenvalues --  -38.43475 -38.42692  -2.20658  -2.20412  -2.20295
 Alpha  occ. eigenvalues --   -2.19901  -2.19560  -2.19326  -2.18601  -1.14348
 Alpha  occ. eigenvalues --   -1.14331  -1.14261  -1.14089  -1.14056  -1.14014
 Alpha  occ. eigenvalues --   -1.13946  -1.13926  -1.13922  -1.13633  -1.13576
 Alpha  occ. eigenvalues --   -1.13510  -1.13233  -1.13228  -1.13192  -1.13000
 Alpha  occ. eigenvalues --   -1.12980  -1.12975  -1.12313  -1.12253  -1.12207
 Alpha  occ. eigenvalues --   -0.18078  -0.13819  -0.11521  -0.11125
 Alpha virt. eigenvalues --   -0.06250  -0.06054  -0.04055  -0.03160  -0.02916
 Alpha virt. eigenvalues --   -0.02556  -0.02209  -0.01263  -0.00976  -0.00486
 Alpha virt. eigenvalues --    0.00066   0.00168   0.00346   0.00623   0.00644

  Beta  occ. eigenvalues --  -38.44862 -38.44470 -38.44373 -38.43944 -38.43796
  Beta  occ. eigenvalues --  -38.43465 -38.42669  -2.20655  -2.20278  -2.20135
  Beta  occ. eigenvalues --   -2.19879  -2.19574  -2.19311  -2.18561  -1.14343
  Beta  occ. eigenvalues --   -1.14330  -1.14262  -1.13993  -1.13970  -1.13914
  Beta  occ. eigenvalues --   -1.13836  -1.13820  -1.13807  -1.13597  -1.13559
  Beta  occ. eigenvalues --   -1.13496  -1.13242  -1.13237  -1.13201  -1.12994
  Beta  occ. eigenvalues --   -1.12974  -1.12931  -1.12291  -1.12222  -1.12162
  Beta  occ. eigenvalues --   -0.17381  -0.13577  -0.11033
  Beta virt. eigenvalues --   -0.07497  -0.05946  -0.05911  -0.03502  -0.03033
  Beta virt. eigenvalues --   -0.02405  -0.02001  -0.01875  -0.01116  -0.00644
  Beta virt. eigenvalues --   -0.00334   0.00127   0.00223   0.00522   0.00666

 Mulliken charges and spin densities:
               1          2
     1  Na   0.478287   0.264606
     2  Na   0.207598   0.044933
     3  Na   1.234649   0.026735
     4  Na  -0.166342   0.226888
     5  Na   0.330488  -0.059372
     6  Na   0.599586   0.007088
     7  Na  -2.684267   0.489122
 Sum of Mulliken charges =  -0.00000   1.00000

 Dipole moment (field-independent basis, Debye):
    X=              0.2696    Y=             -0.7534    Z=              0.5327  Tot=              0.9613
 Quadrupole moment (field-independent basis, Debye-Ang):
   XX=            -57.5134   YY=            -69.3856   ZZ=            -67.9595
   XY=             -1.1952   XZ=             -1.4816   YZ=             -0.1638

 Normal termination of Gaussian 16 at Tue Dec  5 19:17:33 2023.
