 Gaussian 16, Revision B.01,
 Gaussian 16:  ES64L-G16RevB.01 20-Dec-2017

 -------------------------
 #P B3LYP/6-311+g(d) force
 -------------------------

 -----
 DPGEN
 -----
 Symbolic Z-matrix:
 Charge =  0 Multiplicity = 2

                         Standard orientation:
 ---------------------------------------------------------------------
 Center     Atomic      Atomic             Coordinates (Angstroms)
 Number     Number       Type             X           Y           Z
 ---------------------------------------------------------------------
      1         11           0        1.022958    0.625670   -2.175667
      2         11           0        0.429480   -0.679662    2.293805
      3         11           0       -4.642947   -0.425940    0.136487
      4         11           0       -2.068160    0.275346   -0.400608
      5         11           0        1.305267   -2.763291   -0.744521
      6         11           0        3.311004   -0.020992    0.541629
      7         11           0        0.642399    2.988869    0.348875
 ---------------------------------------------------------------------

 SCF Done:  E(UB3LYP) =  -1136.11428479     A.U. after   23 cycles

 The electronic state is 2-A.
 Alpha  occ. eigenvalues --  -38.45535 -38.44930 -38.44671 -38.43922 -38.43767
 Alpha  occ. eigenvalues --  -38.43271 -38.43105  -2.21339  -2.20744  -2.20502
 Alpha  occ. eigenvalues --   -2.19787  -2.19568  -2.19177  -2.18902  -1.15033
 Alpha  occ. eigenvalues --   -1.15002  -1.14952  -1.14405  -1.14386  -1.14353
 Alpha  occ. eigenvalues --   -1.14316  -1.14121  -1.14116  -1.13472  -1.13437
 Alpha  occ. eigenvalues --   -1.13382  -1.13238  -1.13226  -1.13195  -1.12861
 Alpha  occ. eigenvalues --   -1.12830  -1.12784  -1.12572  -1.12558  -1.12547
 Alpha  occ. eigenvalues --   -0.17814  -0.13135  -0.11610  -0.11421
 Alpha virt. eigenvalues --   -0.07210  -0.04778  -0.03839  -0.03448  -0.03147
 Alpha virt. eigenvalues --   -0.02858  -0.02576  -0.00899  -0.00759  -0.00519
 Alpha virt. eigenvalues --   -0.00113  -0.00087   0.00236   0.00698   0.00848

  Beta  occ. eigenvalues --  -38.45525 -38.44853 -38.44680 -38.43853 -38.43740
  Beta  occ. eigenvalues --  -38.43265 -38.43100  -2.21324  -2.20601  -2.20519
  Beta  occ. eigenvalues --   -2.19662  -2.19520  -2.19166  -2.18893  -1.14997
  Beta  occ. eigenvalues --   -1.14986  -1.14946  -1.14328  -1.14309  -1.14279
  Beta  occ. eigenvalues --   -1.14255  -1.14132  -1.14127  -1.13385  -1.13357
  Beta  occ. eigenvalues --   -1.13283  -1.13205  -1.13182  -1.13159  -1.12858
  Beta  occ. eigenvalues --   -1.12804  -1.12779  -1.12564  -1.12547  -1.12538
  Beta  occ. eigenvalues --   -0.16990  -0.13092  -0.11287
  Beta virt. eigenvalues --   -0.07595  -0.07013  -0.04476  -0.03535  -0.02861
  Beta virt. eigenvalues --   -0.02821  -0.02501  -0.01940  -0.00815  -0.00630
  Beta virt. eigenvalues --   -0.00394  -0.00039   0.00140   0.00249   0.00759

 Mulliken charges and spin densities:
               1          2
     1  Na   0.908525   0.459077
     2  Na   0.279378   0.496311
     3  Na  -0.547465   0.054175
     4  Na  -1.047030  -0.094474
     5  Na   0.094448   0.029383
     6  Na   0.151350   0.079879
     7  Na   0.160793  -0.024351
 Sum of Mulliken charges =  -0.00000   1.00000

 Dipole moment (field-independent basis, Debye):
    X=              0.6945    Y=             -0.2615    Z=              0.4920  Tot=              0.8903
 Quadrupole moment (field-independent basis, Debye-Ang):
   XX=            -53.9470   YY=            -71.9003   ZZ=            -68.9307
   XY=              2.8910   XZ=             -1.4379   YZ=              3.1207

 Normal termination of Gaussian 16 at Fri Dec  8 17:40:58 2023.
