 Gaussian 16, Revision B.01,
 Gaussian 16:  ES64L-G16RevB.01 20-Dec-2017

 -------------------------
 #P B3LYP/6-311+g(d) force
 -------------------------

 -----
 DPGEN
 -----
 Symbolic Z-matrix:
 Charge =  0 Multiplicity = 2

                         Standard orientation:
 ---------------------------------------------------------------------
 Center     Atomic      Atomic             Coordinates (Angstroms)
 Number     Number       Type             X           Y           Z
 ---------------------------------------------------------------------
      1         11           0       -0.056998    1.972751    0.085867
      2         11           0       -2.865551    3.304057   -0.109887
      3         11           0       -3.380447   -0.746083   -0.111652
      4         11           0       -1.653437   -3.293068   -0.728410
      5         11           0       -0.270046   -1.524545    1.449291
      6         11           0        2.728943    0.135617   -0.620088
      7         11           0        5.497535    0.151272    0.034880
 ---------------------------------------------------------------------

 SCF Done:  E(UB3LYP) =  -1136.11618795     A.U. after   19 cycles

 The electronic state is 2-A.
 Alpha  occ. eigenvalues --  -38.44768 -38.44724 -38.44656 -38.43935 -38.43684
 Alpha  occ. eigenvalues --  -38.43572 -38.43209  -2.20628  -2.20560  -2.20515
 Alpha  occ. eigenvalues --   -2.19792  -2.19489  -2.19432  -2.19086  -1.14346
 Alpha  occ. eigenvalues --   -1.14309  -1.14277  -1.14255  -1.14224  -1.14201
 Alpha  occ. eigenvalues --   -1.14156  -1.14129  -1.14084  -1.13544  -1.13401
 Alpha  occ. eigenvalues --   -1.13400  -1.13225  -1.13149  -1.13126  -1.13109
 Alpha  occ. eigenvalues --   -1.13087  -1.13017  -1.12769  -1.12736  -1.12714
 Alpha  occ. eigenvalues --   -0.17205  -0.13909  -0.12724  -0.10662
 Alpha virt. eigenvalues --   -0.06173  -0.05928  -0.04410  -0.03555  -0.02952
 Alpha virt. eigenvalues --   -0.02203  -0.01700  -0.01585  -0.01124  -0.00730
 Alpha virt. eigenvalues --   -0.00428  -0.00031   0.00389   0.00429   0.00561

  Beta  occ. eigenvalues --  -38.44723 -38.44679 -38.44647 -38.43855 -38.43678
  Beta  occ. eigenvalues --  -38.43550 -38.43207  -2.20547  -2.20502  -2.20476
  Beta  occ. eigenvalues --   -2.19642  -2.19477  -2.19392  -2.19092  -1.14305
  Beta  occ. eigenvalues --   -1.14259  -1.14227  -1.14194  -1.14170  -1.14148
  Beta  occ. eigenvalues --   -1.14143  -1.14094  -1.14044  -1.13451  -1.13299
  Beta  occ. eigenvalues --   -1.13297  -1.13213  -1.13140  -1.13113  -1.13086
  Beta  occ. eigenvalues --   -1.13058  -1.12988  -1.12757  -1.12749  -1.12669
  Beta  occ. eigenvalues --   -0.16601  -0.13288  -0.12479
  Beta virt. eigenvalues --   -0.07311  -0.05909  -0.05504  -0.04070  -0.03162
  Beta virt. eigenvalues --   -0.02680  -0.02077  -0.01575  -0.01297  -0.00832
  Beta virt. eigenvalues --   -0.00349  -0.00154   0.00171   0.00453   0.00568

 Mulliken charges and spin densities:
               1          2
     1  Na  -1.022567  -0.024419
     2  Na   0.861304   0.163081
     3  Na  -0.110577   0.355663
     4  Na   0.263309   0.021865
     5  Na  -0.140277   0.246272
     6  Na  -0.037439  -0.134682
     7  Na   0.186247   0.372220
 Sum of Mulliken charges =  -0.00000   1.00000

 Dipole moment (field-independent basis, Debye):
    X=             -1.1362    Y=             -1.3404    Z=              0.3185  Tot=              1.7858
 Quadrupole moment (field-independent basis, Debye-Ang):
   XX=            -69.5089   YY=            -62.9596   ZZ=            -67.9470
   XY=             -1.3946   XZ=              2.2158   YZ=              1.5845

 Normal termination of Gaussian 16 at Tue Nov 28 21:20:48 2023.
