 Gaussian 16, Revision B.01,
 Gaussian 16:  ES64L-G16RevB.01 20-Dec-2017

 -------------------------
 #P B3LYP/6-311+g(d) force
 -------------------------

 -----
 DPGEN
 -----
 Symbolic Z-matrix:
 Charge =  0 Multiplicity = 2

                         Standard orientation:
 ---------------------------------------------------------------------
 Center     Atomic      Atomic             Coordinates (Angstroms)
 Number     Number       Type             X           Y           Z
 ---------------------------------------------------------------------
      1         11           0        0.833017    2.957310   -0.039886
      2         11           0       -2.941981    1.619350   -0.276214
      3         11           0        3.232468    0.241683   -0.148167
      4         11           0       -2.300822   -2.146774   -0.054351
      5         11           0       -0.223614    0.226834    1.998193
      6         11           0        0.121565   -0.292685   -1.653347
      7         11           0        1.279366   -2.605717    0.173771
 ---------------------------------------------------------------------

 SCF Done:  E(UB3LYP) =  -1136.13750212     A.U. after   19 cycles

 The electronic state is 2-A.
 Alpha  occ. eigenvalues --  -38.44303 -38.43991 -38.43906 -38.43732 -38.43416
 Alpha  occ. eigenvalues --  -38.43386 -38.43257  -2.20071  -2.19811  -2.19722
 Alpha  occ. eigenvalues --   -2.19534  -2.19288  -2.19261  -2.19201  -1.13749
 Alpha  occ. eigenvalues --   -1.13722  -1.13714  -1.13486  -1.13473  -1.13455
 Alpha  occ. eigenvalues --   -1.13403  -1.13386  -1.13355  -1.13213  -1.13206
 Alpha  occ. eigenvalues --   -1.13164  -1.13030  -1.12956  -1.12929  -1.12909
 Alpha  occ. eigenvalues --   -1.12882  -1.12879  -1.12872  -1.12821  -1.12812
 Alpha  occ. eigenvalues --   -0.18297  -0.12818  -0.12455  -0.10421
 Alpha virt. eigenvalues --   -0.05817  -0.05410  -0.04836  -0.03013  -0.02890
 Alpha virt. eigenvalues --   -0.02350  -0.01635  -0.01314  -0.00666  -0.00512
 Alpha virt. eigenvalues --   -0.00011   0.00345   0.00745   0.00819   0.00852

  Beta  occ. eigenvalues --  -38.44300 -38.43988 -38.43903 -38.43729 -38.43408
  Beta  occ. eigenvalues --  -38.43294 -38.43196  -2.20066  -2.19809  -2.19718
  Beta  occ. eigenvalues --   -2.19531  -2.19278  -2.19093  -2.19088  -1.13731
  Beta  occ. eigenvalues --   -1.13720  -1.13712  -1.13477  -1.13464  -1.13452
  Beta  occ. eigenvalues --   -1.13395  -1.13369  -1.13355  -1.13206  -1.13189
  Beta  occ. eigenvalues --   -1.13166  -1.13009  -1.12920  -1.12903  -1.12826
  Beta  occ. eigenvalues --   -1.12794  -1.12762  -1.12755  -1.12746  -1.12731
  Beta  occ. eigenvalues --   -0.17580  -0.12602  -0.12240
  Beta virt. eigenvalues --   -0.06551  -0.05804  -0.05384  -0.04765  -0.02284
  Beta virt. eigenvalues --   -0.02119  -0.01539  -0.01331  -0.01244  -0.00714
  Beta virt. eigenvalues --   -0.00559   0.00133   0.00375   0.00783   0.00835

 Mulliken charges and spin densities:
               1          2
     1  Na   0.019654  -0.125097
     2  Na  -0.039298  -0.103588
     3  Na   0.149396  -0.044210
     4  Na   0.149340  -0.071019
     5  Na  -0.348396   0.762456
     6  Na  -0.175001   0.587596
     7  Na   0.244306  -0.006136
 Sum of Mulliken charges =  -0.00000   1.00000

 Dipole moment (field-independent basis, Debye):
    X=             -0.1730    Y=              0.1108    Z=              0.0261  Tot=              0.2071
 Quadrupole moment (field-independent basis, Debye-Ang):
   XX=            -55.2445   YY=            -61.0816   ZZ=            -76.0392
   XY=              0.1085   XZ=              0.7022   YZ=             -1.2561

 Normal termination of Gaussian 16 at Fri Dec  8 03:27:19 2023.
