 Gaussian 16, Revision B.01,
 Gaussian 16:  ES64L-G16RevB.01 20-Dec-2017

 -------------------------
 #P B3LYP/6-311+g(d) force
 -------------------------

 -----
 DPGEN
 -----
 Symbolic Z-matrix:
 Charge =  0 Multiplicity = 2

                         Standard orientation:
 ---------------------------------------------------------------------
 Center     Atomic      Atomic             Coordinates (Angstroms)
 Number     Number       Type             X           Y           Z
 ---------------------------------------------------------------------
      1         11           0       -0.096357    0.200467   -1.615203
      2         11           0       -3.055859   -0.795725   -0.206108
      3         11           0        1.889458    2.292545   -0.080776
      4         11           0       -1.778277    2.291933    0.111670
      5         11           0        3.133523   -0.895087   -0.108663
      6         11           0       -0.043656   -2.820485   -0.200817
      7         11           0       -0.048832   -0.273648    2.099898
 ---------------------------------------------------------------------

 SCF Done:  E(UB3LYP) =  -1136.13897440     A.U. after   18 cycles

 The electronic state is 2-A.
 Alpha  occ. eigenvalues --  -38.44206 -38.44067 -38.43592 -38.43458 -38.43377
 Alpha  occ. eigenvalues --  -38.43176 -38.43153  -2.20011  -2.19910  -2.19473
 Alpha  occ. eigenvalues --   -2.19307  -2.19252  -2.19149  -2.19031  -1.13684
 Alpha  occ. eigenvalues --   -1.13672  -1.13653  -1.13587  -1.13573  -1.13550
 Alpha  occ. eigenvalues --   -1.13141  -1.13104  -1.13089  -1.13021  -1.12977
 Alpha  occ. eigenvalues --   -1.12965  -1.12938  -1.12909  -1.12875  -1.12833
 Alpha  occ. eigenvalues --   -1.12790  -1.12758  -1.12701  -1.12697  -1.12650
 Alpha  occ. eigenvalues --   -0.18694  -0.13107  -0.12357  -0.10739
 Alpha virt. eigenvalues --   -0.05815  -0.05153  -0.04521  -0.03164  -0.02873
 Alpha virt. eigenvalues --   -0.02566  -0.01670  -0.01069  -0.00355  -0.00308
 Alpha virt. eigenvalues --   -0.00022   0.00352   0.00779   0.00891   0.00898

  Beta  occ. eigenvalues --  -38.44205 -38.44061 -38.43493 -38.43454 -38.43371
  Beta  occ. eigenvalues --  -38.43169 -38.43093  -2.20012  -2.19904  -2.19304
  Beta  occ. eigenvalues --   -2.19289  -2.19244  -2.19039  -2.19022  -1.13676
  Beta  occ. eigenvalues --   -1.13667  -1.13655  -1.13580  -1.13553  -1.13544
  Beta  occ. eigenvalues --   -1.13025  -1.13006  -1.12974  -1.12965  -1.12955
  Beta  occ. eigenvalues --   -1.12947  -1.12936  -1.12881  -1.12873  -1.12770
  Beta  occ. eigenvalues --   -1.12727  -1.12680  -1.12679  -1.12656  -1.12646
  Beta  occ. eigenvalues --   -0.17960  -0.12892  -0.12117
  Beta virt. eigenvalues --   -0.06793  -0.05780  -0.05169  -0.04477  -0.02396
  Beta virt. eigenvalues --   -0.02069  -0.01587  -0.01482  -0.01010  -0.00404
  Beta virt. eigenvalues --   -0.00363   0.00128   0.00377   0.00835   0.00881

 Mulliken charges and spin densities:
               1          2
     1  Na  -0.300037   0.439749
     2  Na   0.267926  -0.027484
     3  Na   0.171489  -0.045847
     4  Na   0.227926   0.004865
     5  Na   0.073966  -0.070554
     6  Na   0.147858  -0.088542
     7  Na  -0.589127   0.787813
 Sum of Mulliken charges =  -0.00000   1.00000

 Dipole moment (field-independent basis, Debye):
    X=              0.0547    Y=             -0.1074    Z=              0.1423  Tot=              0.1865
 Quadrupole moment (field-independent basis, Debye-Ang):
   XX=            -54.5631   YY=            -64.1227   ZZ=            -74.4542
   XY=             -0.1257   XZ=              0.0005   YZ=              1.1058

 Normal termination of Gaussian 16 at Thu Dec  7 19:58:00 2023.
