 Gaussian 16, Revision B.01,
 Gaussian 16:  ES64L-G16RevB.01 20-Dec-2017

 -------------------------
 #P B3LYP/6-311+g(d) force
 -------------------------

 -----
 DPGEN
 -----
 Symbolic Z-matrix:
 Charge =  0 Multiplicity = 2

                         Standard orientation:
 ---------------------------------------------------------------------
 Center     Atomic      Atomic             Coordinates (Angstroms)
 Number     Number       Type             X           Y           Z
 ---------------------------------------------------------------------
      1         11           0       -3.294174    2.001482   -0.381384
      2         11           0       -4.734521   -3.306688   -0.944012
      3         11           0        4.220475   -1.138023   -0.245068
      4         11           0        0.864782    1.023773    0.945285
      5         11           0        7.473798   -1.069810   -0.086693
      6         11           0       -3.999634   -1.202673    1.292402
      7         11           0       -0.530725    3.691939   -0.580530
 ---------------------------------------------------------------------

 SCF Done:  E(UB3LYP) =  -1136.10631442     A.U. after   19 cycles

 The electronic state is 2-A.
 Alpha  occ. eigenvalues --  -38.45333 -38.44940 -38.44687 -38.44595 -38.44426
 Alpha  occ. eigenvalues --  -38.43675 -38.43415  -2.21109  -2.20743  -2.20483
 Alpha  occ. eigenvalues --   -2.20414  -2.20227  -2.19463  -2.19173  -1.14769
 Alpha  occ. eigenvalues --   -1.14763  -1.14756  -1.14424  -1.14410  -1.14402
 Alpha  occ. eigenvalues --   -1.14147  -1.14144  -1.14132  -1.14076  -1.14056
 Alpha  occ. eigenvalues --   -1.14021  -1.13886  -1.13880  -1.13821  -1.13111
 Alpha  occ. eigenvalues --   -1.13111  -1.13107  -1.12857  -1.12851  -1.12809
 Alpha  occ. eigenvalues --   -0.15869  -0.13686  -0.12673  -0.10626
 Alpha virt. eigenvalues --   -0.07343  -0.05535  -0.04384  -0.03581  -0.03352
 Alpha virt. eigenvalues --   -0.02465  -0.02076  -0.01783  -0.01469  -0.01100
 Alpha virt. eigenvalues --   -0.00818  -0.00565   0.00027   0.00150   0.00302

  Beta  occ. eigenvalues --  -38.45314 -38.44949 -38.44690 -38.44527 -38.44338
  Beta  occ. eigenvalues --  -38.43625 -38.43429  -2.21073  -2.20765  -2.20491
  Beta  occ. eigenvalues --   -2.20287  -2.20063  -2.19369  -2.19203  -1.14745
  Beta  occ. eigenvalues --   -1.14738  -1.14733  -1.14433  -1.14424  -1.14394
  Beta  occ. eigenvalues --   -1.14153  -1.14144  -1.14127  -1.13990  -1.13969
  Beta  occ. eigenvalues --   -1.13942  -1.13774  -1.13769  -1.13714  -1.13050
  Beta  occ. eigenvalues --   -1.13046  -1.13045  -1.12881  -1.12874  -1.12795
  Beta  occ. eigenvalues --   -0.15304  -0.13318  -0.12234
  Beta virt. eigenvalues --   -0.07440  -0.06898  -0.05037  -0.04272  -0.03300
  Beta virt. eigenvalues --   -0.03047  -0.02110  -0.01991  -0.01659  -0.01287
  Beta virt. eigenvalues --   -0.00953  -0.00445  -0.00162   0.00134   0.00286

 Mulliken charges and spin densities:
               1          2
     1  Na  -0.019598   0.335065
     2  Na   0.190101   0.067443
     3  Na  -0.513038  -0.056153
     4  Na  -0.623372   0.411005
     5  Na   0.562189   0.229149
     6  Na  -0.162231   0.043620
     7  Na   0.565949  -0.030129
 Sum of Mulliken charges =  -0.00000   1.00000

 Dipole moment (field-independent basis, Debye):
    X=             -2.6088    Y=              0.2688    Z=             -0.4893  Tot=              2.6679
 Quadrupole moment (field-independent basis, Debye-Ang):
   XX=            -69.1643   YY=            -61.3444   ZZ=            -68.0014
   XY=              9.0017   XZ=              2.7878   YZ=              1.8034

 Normal termination of Gaussian 16 at Sun Dec  3 20:08:07 2023.
