 Gaussian 16, Revision B.01,
 Gaussian 16:  ES64L-G16RevB.01 20-Dec-2017

 -------------------------
 #P B3LYP/6-311+g(d) force
 -------------------------

 -----
 DPGEN
 -----
 Symbolic Z-matrix:
 Charge =  0 Multiplicity = 2

                         Standard orientation:
 ---------------------------------------------------------------------
 Center     Atomic      Atomic             Coordinates (Angstroms)
 Number     Number       Type             X           Y           Z
 ---------------------------------------------------------------------
      1         11           0       -0.021178   -1.163167    1.817028
      2         11           0        2.536855   -2.082329    0.373351
      3         11           0       -3.504602   -1.256473   -0.483903
      4         11           0        0.338294    2.360932   -0.408425
      5         11           0       -2.633634    1.994943    0.772261
      6         11           0       -0.369993   -1.186777   -1.772488
      7         11           0        3.654258    1.332871   -0.297825
 ---------------------------------------------------------------------

 SCF Done:  E(UB3LYP) =  -1136.11983076     A.U. after   21 cycles

 The electronic state is 2-A.
 Alpha  occ. eigenvalues --  -38.44954 -38.44697 -38.44423 -38.44060 -38.44010
 Alpha  occ. eigenvalues --  -38.43949 -38.43220  -2.20745  -2.20469  -2.20255
 Alpha  occ. eigenvalues --   -2.19918  -2.19851  -2.19769  -2.19041  -1.14414
 Alpha  occ. eigenvalues --   -1.14401  -1.14384  -1.14136  -1.14122  -1.14107
 Alpha  occ. eigenvalues --   -1.13931  -1.13899  -1.13875  -1.13671  -1.13568
 Alpha  occ. eigenvalues --   -1.13550  -1.13501  -1.13479  -1.13453  -1.13450
 Alpha  occ. eigenvalues --   -1.13423  -1.13397  -1.12727  -1.12718  -1.12677
 Alpha  occ. eigenvalues --   -0.17625  -0.13605  -0.12033  -0.10644
 Alpha virt. eigenvalues --   -0.07082  -0.05842  -0.03988  -0.03408  -0.02951
 Alpha virt. eigenvalues --   -0.02539  -0.02326  -0.01696  -0.00712  -0.00317
 Alpha virt. eigenvalues --    0.00021   0.00058   0.00380   0.00524   0.00642

  Beta  occ. eigenvalues --  -38.44934 -38.44680 -38.44367 -38.43999 -38.43994
  Beta  occ. eigenvalues --  -38.43922 -38.43220  -2.20711  -2.20438  -2.20153
  Beta  occ. eigenvalues --   -2.19835  -2.19795  -2.19720  -2.19044  -1.14384
  Beta  occ. eigenvalues --   -1.14373  -1.14357  -1.14113  -1.14101  -1.14087
  Beta  occ. eigenvalues --   -1.13863  -1.13830  -1.13795  -1.13611  -1.13496
  Beta  occ. eigenvalues --   -1.13486  -1.13465  -1.13458  -1.13419  -1.13393
  Beta  occ. eigenvalues --   -1.13380  -1.13367  -1.12732  -1.12715  -1.12663
  Beta  occ. eigenvalues --   -0.17070  -0.13298  -0.11632
  Beta virt. eigenvalues --   -0.07205  -0.06862  -0.05621  -0.03590  -0.03088
  Beta virt. eigenvalues --   -0.02549  -0.02154  -0.01735  -0.01429  -0.00659
  Beta virt. eigenvalues --   -0.00107   0.00086   0.00113   0.00534   0.00574

 Mulliken charges and spin densities:
               1          2
     1  Na  -0.357637   0.311629
     2  Na   0.526516   0.120648
     3  Na   0.178331   0.014709
     4  Na  -0.283763  -0.026446
     5  Na   0.349736   0.127935
     6  Na  -0.211563   0.378204
     7  Na  -0.201619   0.073321
 Sum of Mulliken charges =  -0.00000   1.00000

 Dipole moment (field-independent basis, Debye):
    X=             -0.1675    Y=             -0.6608    Z=              0.1112  Tot=              0.6907
 Quadrupole moment (field-independent basis, Debye-Ang):
   XX=            -48.5065   YY=            -74.4484   ZZ=            -73.1877
   XY=             -0.9652   XZ=             -2.0731   YZ=              0.8176

 Normal termination of Gaussian 16 at Tue Nov 28 23:15:34 2023.
