 Gaussian 16, Revision B.01,
 Gaussian 16:  ES64L-G16RevB.01 20-Dec-2017

 -------------------------
 #P B3LYP/6-311+g(d) force
 -------------------------

 -----
 DPGEN
 -----
 Symbolic Z-matrix:
 Charge =  0 Multiplicity = 2

                         Standard orientation:
 ---------------------------------------------------------------------
 Center     Atomic      Atomic             Coordinates (Angstroms)
 Number     Number       Type             X           Y           Z
 ---------------------------------------------------------------------
      1         11           0        0.440501   -0.322812    1.660450
      2         11           0       -0.806905    2.302376   -0.419835
      3         11           0        2.321512    1.866992    0.221537
      4         11           0        2.974731   -1.306475   -0.134926
      5         11           0        0.200022   -1.881478   -1.451288
      6         11           0       -2.368255    0.278894   -1.398822
      7         11           0       -2.761606   -0.937497    1.522883
 ---------------------------------------------------------------------

 SCF Done:  E(UB3LYP) =  -1136.12085466     A.U. after   21 cycles

 The electronic state is 2-A.
 Alpha  occ. eigenvalues --  -38.44662 -38.44245 -38.43998 -38.43949 -38.43575
 Alpha  occ. eigenvalues --  -38.43456 -38.43280  -2.20522  -2.20215  -2.19925
 Alpha  occ. eigenvalues --   -2.19896  -2.19455  -2.19346  -2.19212  -1.14204
 Alpha  occ. eigenvalues --   -1.14176  -1.14139  -1.14032  -1.13843  -1.13803
 Alpha  occ. eigenvalues --   -1.13644  -1.13601  -1.13580  -1.13566  -1.13541
 Alpha  occ. eigenvalues --   -1.13505  -1.13124  -1.13095  -1.13083  -1.13035
 Alpha  occ. eigenvalues --   -1.13010  -1.12988  -1.12884  -1.12826  -1.12813
 Alpha  occ. eigenvalues --   -0.18974  -0.14086  -0.11903  -0.11681
 Alpha virt. eigenvalues --   -0.06039  -0.05122  -0.04628  -0.03551  -0.02939
 Alpha virt. eigenvalues --   -0.02651  -0.01847  -0.00746  -0.00359   0.00184
 Alpha virt. eigenvalues --    0.00243   0.00303   0.00522   0.00774   0.00816

  Beta  occ. eigenvalues --  -38.44601 -38.44205 -38.43998 -38.43891 -38.43533
  Beta  occ. eigenvalues --  -38.43458 -38.43263  -2.20412  -2.20145  -2.19897
  Beta  occ. eigenvalues --   -2.19820  -2.19379  -2.19351  -2.19185  -1.14111
  Beta  occ. eigenvalues --   -1.14105  -1.14066  -1.13980  -1.13782  -1.13749
  Beta  occ. eigenvalues --   -1.13611  -1.13563  -1.13550  -1.13534  -1.13487
  Beta  occ. eigenvalues --   -1.13451  -1.13074  -1.13037  -1.13033  -1.13030
  Beta  occ. eigenvalues --   -1.13002  -1.12993  -1.12860  -1.12804  -1.12789
  Beta  occ. eigenvalues --   -0.18323  -0.13837  -0.11633
  Beta virt. eigenvalues --   -0.07701  -0.05920  -0.04948  -0.04056  -0.03295
  Beta virt. eigenvalues --   -0.02245  -0.01882  -0.01623  -0.00653  -0.00091
  Beta virt. eigenvalues --    0.00229   0.00271   0.00334   0.00699   0.00868

 Mulliken charges and spin densities:
               1          2
     1  Na  -0.755877   0.244745
     2  Na  -0.424598   0.154636
     3  Na   0.275491  -0.037286
     4  Na   0.836688   0.033942
     5  Na  -0.524307   0.199029
     6  Na   0.455595   0.243548
     7  Na   0.137009   0.161385
 Sum of Mulliken charges =  -0.00000   1.00000

 Dipole moment (field-independent basis, Debye):
    X=              0.0376    Y=             -0.4313    Z=              0.1275  Tot=              0.4513
 Quadrupole moment (field-independent basis, Debye-Ang):
   XX=            -53.2530   YY=            -74.2656   ZZ=            -69.3476
   XY=              1.0563   XZ=             -0.8637   YZ=             -0.9119

 Normal termination of Gaussian 16 at Wed Dec  6 00:02:17 2023.
