 Gaussian 16, Revision B.01,
 Gaussian 16:  ES64L-G16RevB.01 20-Dec-2017

 -------------------------
 #P B3LYP/6-311+g(d) force
 -------------------------

 -----
 DPGEN
 -----
 Symbolic Z-matrix:
 Charge =  0 Multiplicity = 2

                         Standard orientation:
 ---------------------------------------------------------------------
 Center     Atomic      Atomic             Coordinates (Angstroms)
 Number     Number       Type             X           Y           Z
 ---------------------------------------------------------------------
      1         11           0        4.054319   -0.238814   -0.524776
      2         11           0        0.741848   -1.836990    0.953561
      3         11           0       -3.144183   -1.413366   -0.860441
      4         11           0       -1.698763   -0.319642    1.787414
      5         11           0        0.971837   -0.229342   -1.803157
      6         11           0       -2.231018    2.178885   -0.825369
      7         11           0        1.305958    1.859270    1.272767
 ---------------------------------------------------------------------

 SCF Done:  E(UB3LYP) =  -1136.11900277     A.U. after   27 cycles

 The electronic state is 2-A.
 Alpha  occ. eigenvalues --  -38.45378 -38.44969 -38.44620 -38.43745 -38.43729
 Alpha  occ. eigenvalues --  -38.43157 -38.42970  -2.21163  -2.20823  -2.20427
 Alpha  occ. eigenvalues --   -2.19679  -2.19542  -2.19063  -2.18756  -1.14844
 Alpha  occ. eigenvalues --   -1.14811  -1.14792  -1.14532  -1.14457  -1.14430
 Alpha  occ. eigenvalues --   -1.14119  -1.14074  -1.14044  -1.13429  -1.13323
 Alpha  occ. eigenvalues --   -1.13279  -1.13221  -1.13193  -1.13156  -1.12767
 Alpha  occ. eigenvalues --   -1.12738  -1.12638  -1.12439  -1.12420  -1.12392
 Alpha  occ. eigenvalues --   -0.18174  -0.13869  -0.11523  -0.10683
 Alpha virt. eigenvalues --   -0.06832  -0.05195  -0.04565  -0.03100  -0.02805
 Alpha virt. eigenvalues --   -0.02589  -0.02513  -0.01146  -0.00634  -0.00215
 Alpha virt. eigenvalues --    0.00107   0.00258   0.00263   0.00644   0.00712

  Beta  occ. eigenvalues --  -38.45366 -38.44932 -38.44593 -38.43701 -38.43680
  Beta  occ. eigenvalues --  -38.43125 -38.42966  -2.21142  -2.20753  -2.20378
  Beta  occ. eigenvalues --   -2.19604  -2.19454  -2.19010  -2.18751  -1.14819
  Beta  occ. eigenvalues --   -1.14797  -1.14781  -1.14484  -1.14408  -1.14376
  Beta  occ. eigenvalues --   -1.14089  -1.14039  -1.14005  -1.13363  -1.13257
  Beta  occ. eigenvalues --   -1.13227  -1.13159  -1.13120  -1.13101  -1.12737
  Beta  occ. eigenvalues --   -1.12661  -1.12610  -1.12433  -1.12418  -1.12380
  Beta  occ. eigenvalues --   -0.17422  -0.13572  -0.10514
  Beta virt. eigenvalues --   -0.07699  -0.06627  -0.04903  -0.04130  -0.02862
  Beta virt. eigenvalues --   -0.02508  -0.02156  -0.01788  -0.00860  -0.00486
  Beta virt. eigenvalues --   -0.00073   0.00176   0.00249   0.00358   0.00704

 Mulliken charges and spin densities:
               1          2
     1  Na   0.455122   0.065266
     2  Na  -0.104883   0.035644
     3  Na   0.024475   0.198234
     4  Na   0.662650   0.154425
     5  Na  -0.324539   0.315455
     6  Na  -0.324680   0.079714
     7  Na  -0.388145   0.151262
 Sum of Mulliken charges =  -0.00000   1.00000

 Dipole moment (field-independent basis, Debye):
    X=              1.2741    Y=             -0.4137    Z=             -0.5158  Tot=              1.4355
 Quadrupole moment (field-independent basis, Debye-Ang):
   XX=            -47.2868   YY=            -78.9982   ZZ=            -67.1896
   XY=              1.8198   XZ=              1.8972   YZ=              3.1110

 Normal termination of Gaussian 16 at Thu Dec  7 19:13:08 2023.
