 Gaussian 16, Revision B.01,
 Gaussian 16:  ES64L-G16RevB.01 20-Dec-2017

 -------------------------
 #P B3LYP/6-311+g(d) force
 -------------------------

 -----
 DPGEN
 -----
 Symbolic Z-matrix:
 Charge =  0 Multiplicity = 2

                         Standard orientation:
 ---------------------------------------------------------------------
 Center     Atomic      Atomic             Coordinates (Angstroms)
 Number     Number       Type             X           Y           Z
 ---------------------------------------------------------------------
      1         11           0       -1.549170    3.146091   -0.268104
      2         11           0        1.399549    3.231380    0.653920
      3         11           0        3.432554    0.422304   -0.644689
      4         11           0        3.869308   -2.669942   -0.290372
      5         11           0        0.677133   -1.935090    1.029046
      6         11           0       -2.571657   -0.370961   -0.451785
      7         11           0       -5.257715   -1.823783   -0.028016
 ---------------------------------------------------------------------

 SCF Done:  E(UB3LYP) =  -1136.11129638     A.U. after   21 cycles

 The electronic state is 2-A.
 Alpha  occ. eigenvalues --  -38.45245 -38.44830 -38.44830 -38.44321 -38.44083
 Alpha  occ. eigenvalues --  -38.43783 -38.43274  -2.21050  -2.20633  -2.20617
 Alpha  occ. eigenvalues --   -2.20152  -2.19887  -2.19604  -2.19093  -1.14739
 Alpha  occ. eigenvalues --   -1.14714  -1.14688  -1.14310  -1.14291  -1.14283
 Alpha  occ. eigenvalues --   -1.14275  -1.14274  -1.14212  -1.13816  -1.13807
 Alpha  occ. eigenvalues --   -1.13774  -1.13553  -1.13546  -1.13540  -1.13274
 Alpha  occ. eigenvalues --   -1.13235  -1.13233  -1.12769  -1.12763  -1.12749
 Alpha  occ. eigenvalues --   -0.16343  -0.13956  -0.12867  -0.10354
 Alpha virt. eigenvalues --   -0.07256  -0.06008  -0.03875  -0.03539  -0.02958
 Alpha virt. eigenvalues --   -0.02838  -0.02051  -0.01833  -0.01050  -0.00667
 Alpha virt. eigenvalues --   -0.00408  -0.00015   0.00061   0.00364   0.00391

  Beta  occ. eigenvalues --  -38.45251 -38.44822 -38.44756 -38.44266 -38.44085
  Beta  occ. eigenvalues --  -38.43707 -38.43281  -2.21064  -2.20616  -2.20479
  Beta  occ. eigenvalues --   -2.20050  -2.19892  -2.19463  -2.19113  -1.14740
  Beta  occ. eigenvalues --   -1.14726  -1.14683  -1.14306  -1.14278  -1.14263
  Beta  occ. eigenvalues --   -1.14188  -1.14180  -1.14121  -1.13747  -1.13733
  Beta  occ. eigenvalues --   -1.13704  -1.13559  -1.13549  -1.13527  -1.13186
  Beta  occ. eigenvalues --   -1.13138  -1.13137  -1.12787  -1.12779  -1.12718
  Beta  occ. eigenvalues --   -0.15833  -0.13740  -0.12291
  Beta virt. eigenvalues --   -0.07152  -0.06792  -0.05496  -0.03733  -0.03365
  Beta virt. eigenvalues --   -0.02719  -0.02379  -0.01945  -0.01571  -0.00873
  Beta virt. eigenvalues --   -0.00320  -0.00054   0.00142   0.00215   0.00448

 Mulliken charges and spin densities:
               1          2
     1  Na   0.866530  -0.007744
     2  Na  -0.214960  -0.004068
     3  Na  -0.145251   0.416500
     4  Na   0.597429  -0.042286
     5  Na  -0.237552   0.277826
     6  Na  -0.902615   0.173559
     7  Na   0.036420   0.186214
 Sum of Mulliken charges =  -0.00000   1.00000

 Dipole moment (field-independent basis, Debye):
    X=              1.4229    Y=             -0.5531    Z=              0.1925  Tot=              1.5387
 Quadrupole moment (field-independent basis, Debye-Ang):
   XX=            -64.4188   YY=            -62.1884   ZZ=            -71.3196
   XY=            -10.4361   XZ=             -0.6198   YZ=              0.1654

 Normal termination of Gaussian 16 at Sun Dec  3 14:12:57 2023.
