 Gaussian 16, Revision B.01,
 Gaussian 16:  ES64L-G16RevB.01 20-Dec-2017

 -------------------------
 #P B3LYP/6-311+g(d) force
 -------------------------

 -----
 DPGEN
 -----
 Symbolic Z-matrix:
 Charge =  0 Multiplicity = 2

                         Standard orientation:
 ---------------------------------------------------------------------
 Center     Atomic      Atomic             Coordinates (Angstroms)
 Number     Number       Type             X           Y           Z
 ---------------------------------------------------------------------
      1         11           0        2.967375   -1.152811   -0.134702
      2         11           0        1.476803    2.391477   -0.231535
      3         11           0        0.070826   -2.344980   -0.280088
      4         11           0       -2.940683   -1.184819    0.024227
      5         11           0        0.232182    0.096123    2.414296
      6         11           0       -1.713795    2.003491   -0.065399
      7         11           0       -0.092708    0.191519   -1.726798
 ---------------------------------------------------------------------

 SCF Done:  E(UB3LYP) =  -1136.13033014     A.U. after   19 cycles

 The electronic state is 2-A.
 Alpha  occ. eigenvalues --  -38.44528 -38.43762 -38.43717 -38.43547 -38.43331
 Alpha  occ. eigenvalues --  -38.43286 -38.42993  -2.20372  -2.19783  -2.19598
 Alpha  occ. eigenvalues --   -2.19397  -2.19270  -2.19180  -2.18961  -1.14019
 Alpha  occ. eigenvalues --   -1.13998  -1.13989  -1.13534  -1.13492  -1.13396
 Alpha  occ. eigenvalues --   -1.13292  -1.13254  -1.13235  -1.13077  -1.13058
 Alpha  occ. eigenvalues --   -1.13050  -1.12971  -1.12928  -1.12896  -1.12860
 Alpha  occ. eigenvalues --   -1.12819  -1.12776  -1.12672  -1.12601  -1.12558
 Alpha  occ. eigenvalues --   -0.19113  -0.12839  -0.12566  -0.11561
 Alpha virt. eigenvalues --   -0.05325  -0.04939  -0.04161  -0.03455  -0.03237
 Alpha virt. eigenvalues --   -0.03137  -0.01411  -0.00915  -0.00123   0.00108
 Alpha virt. eigenvalues --    0.00242   0.00348   0.00786   0.00947   0.00986

  Beta  occ. eigenvalues --  -38.44416 -38.43763 -38.43651 -38.43547 -38.43324
  Beta  occ. eigenvalues --  -38.43280 -38.42981  -2.20165  -2.19663  -2.19602
  Beta  occ. eigenvalues --   -2.19401  -2.19261  -2.19172  -2.18945  -1.13881
  Beta  occ. eigenvalues --   -1.13852  -1.13842  -1.13450  -1.13416  -1.13315
  Beta  occ. eigenvalues --   -1.13292  -1.13239  -1.13237  -1.13081  -1.13061
  Beta  occ. eigenvalues --   -1.13035  -1.12958  -1.12905  -1.12878  -1.12844
  Beta  occ. eigenvalues --   -1.12799  -1.12776  -1.12651  -1.12564  -1.12553
  Beta  occ. eigenvalues --   -0.18344  -0.12643  -0.12316
  Beta virt. eigenvalues --   -0.07493  -0.05259  -0.04944  -0.04152  -0.02527
  Beta virt. eigenvalues --   -0.02331  -0.02183  -0.01337  -0.00869   0.00046
  Beta virt. eigenvalues --    0.00064   0.00206   0.00366   0.00859   0.00929

 Mulliken charges and spin densities:
               1          2
     1  Na   0.141671  -0.044794
     2  Na   0.320457   0.024905
     3  Na   0.385542   0.131769
     4  Na   0.107548   0.004917
     5  Na  -0.864949   0.646693
     6  Na   0.400663   0.130983
     7  Na  -0.490933   0.105528
 Sum of Mulliken charges =  -0.00000   1.00000

 Dipole moment (field-independent basis, Debye):
    X=              0.1625    Y=              0.1088    Z=              0.5071  Tot=              0.5435
 Quadrupole moment (field-independent basis, Debye-Ang):
   XX=            -57.5702   YY=            -68.0209   ZZ=            -69.8059
   XY=              0.7288   XZ=             -0.6388   YZ=              0.0754

 Normal termination of Gaussian 16 at Thu Dec  7 23:43:28 2023.
