 Gaussian 16, Revision B.01,
 Gaussian 16:  ES64L-G16RevB.01 20-Dec-2017

 -------------------------
 #P B3LYP/6-311+g(d) force
 -------------------------

 -----
 DPGEN
 -----
 Symbolic Z-matrix:
 Charge =  0 Multiplicity = 2

                         Standard orientation:
 ---------------------------------------------------------------------
 Center     Atomic      Atomic             Coordinates (Angstroms)
 Number     Number       Type             X           Y           Z
 ---------------------------------------------------------------------
      1         11           0       -2.516988    1.679102   -0.047296
      2         11           0        0.200703   -0.206356   -1.722520
      3         11           0       -2.633898   -1.561101   -0.156756
      4         11           0        3.210417   -0.344784    0.151481
      5         11           0        1.238923    2.769310   -0.272558
      6         11           0        0.750951   -2.749530    0.177097
      7         11           0       -0.250108    0.413360    1.870551
 ---------------------------------------------------------------------

 SCF Done:  E(UB3LYP) =  -1136.13905635     A.U. after   20 cycles

 The electronic state is 2-A.
 Alpha  occ. eigenvalues --  -38.44290 -38.43851 -38.43719 -38.43511 -38.43317
 Alpha  occ. eigenvalues --  -38.43218 -38.43143  -2.20104  -2.19716  -2.19577
 Alpha  occ. eigenvalues --   -2.19335  -2.19238  -2.19101  -2.19085  -1.13777
 Alpha  occ. eigenvalues --   -1.13765  -1.13745  -1.13423  -1.13389  -1.13355
 Alpha  occ. eigenvalues --   -1.13243  -1.13232  -1.13210  -1.13017  -1.13009
 Alpha  occ. eigenvalues --   -1.12966  -1.12914  -1.12869  -1.12851  -1.12839
 Alpha  occ. eigenvalues --   -1.12766  -1.12743  -1.12721  -1.12706  -1.12696
 Alpha  occ. eigenvalues --   -0.18688  -0.13177  -0.12410  -0.10540
 Alpha virt. eigenvalues --   -0.05789  -0.05236  -0.04646  -0.03205  -0.02844
 Alpha virt. eigenvalues --   -0.02326  -0.01620  -0.01137  -0.00453  -0.00335
 Alpha virt. eigenvalues --    0.00003   0.00364   0.00787   0.00860   0.00899

  Beta  occ. eigenvalues --  -38.44287 -38.43846 -38.43714 -38.43504 -38.43236
  Beta  occ. eigenvalues --  -38.43212 -38.43071  -2.20102  -2.19710  -2.19570
  Beta  occ. eigenvalues --   -2.19326  -2.19091  -2.19076  -2.18971  -1.13768
  Beta  occ. eigenvalues --   -1.13754  -1.13746  -1.13419  -1.13369  -1.13343
  Beta  occ. eigenvalues --   -1.13233  -1.13216  -1.13203  -1.13007  -1.12981
  Beta  occ. eigenvalues --   -1.12962  -1.12822  -1.12800  -1.12760  -1.12748
  Beta  occ. eigenvalues --   -1.12719  -1.12708  -1.12683  -1.12623  -1.12617
  Beta  occ. eigenvalues --   -0.17963  -0.12947  -0.12165
  Beta virt. eigenvalues --   -0.06665  -0.05749  -0.05233  -0.04598  -0.02418
  Beta virt. eigenvalues --   -0.02078  -0.01528  -0.01304  -0.01065  -0.00509
  Beta virt. eigenvalues --   -0.00381   0.00142   0.00389   0.00841   0.00853

 Mulliken charges and spin densities:
               1          2
     1  Na   0.302814  -0.067993
     2  Na  -0.229058   0.647818
     3  Na   0.139581  -0.040472
     4  Na   0.059469  -0.070955
     5  Na   0.034461  -0.136723
     6  Na   0.070810  -0.055720
     7  Na  -0.378076   0.724045
 Sum of Mulliken charges =  -0.00000   1.00000

 Dipole moment (field-independent basis, Debye):
    X=              0.1579    Y=              0.1131    Z=              0.0501  Tot=              0.2006
 Quadrupole moment (field-independent basis, Debye-Ang):
   XX=            -54.8980   YY=            -62.7027   ZZ=            -75.2338
   XY=              0.2185   XZ=              1.1201   YZ=             -1.3508

 Normal termination of Gaussian 16 at Sun Dec  3 23:57:26 2023.
