 Gaussian 16, Revision B.01,
 Gaussian 16:  ES64L-G16RevB.01 20-Dec-2017

 -------------------------
 #P B3LYP/6-311+g(d) force
 -------------------------

 -----
 DPGEN
 -----
 Symbolic Z-matrix:
 Charge =  0 Multiplicity = 2

                         Standard orientation:
 ---------------------------------------------------------------------
 Center     Atomic      Atomic             Coordinates (Angstroms)
 Number     Number       Type             X           Y           Z
 ---------------------------------------------------------------------
      1         11           0        1.758840   -2.519396    0.123117
      2         11           0       -0.289341   -0.005724    2.070978
      3         11           0        0.939422    2.916157    0.212240
      4         11           0       -2.926578    1.435749   -0.394978
      5         11           0       -0.097687   -0.096978   -1.395695
      6         11           0       -2.415763   -2.042576   -0.139007
      7         11           0        3.031108    0.312768   -0.476654
 ---------------------------------------------------------------------

 SCF Done:  E(UB3LYP) =  -1136.13511924     A.U. after   19 cycles

 The electronic state is 2-A.
 Alpha  occ. eigenvalues --  -38.44391 -38.44098 -38.43787 -38.43473 -38.43457
 Alpha  occ. eigenvalues --  -38.43263 -38.43098  -2.20201  -2.19926  -2.19671
 Alpha  occ. eigenvalues --   -2.19337  -2.19320  -2.19103  -2.19083  -1.13886
 Alpha  occ. eigenvalues --   -1.13855  -1.13832  -1.13619  -1.13587  -1.13550
 Alpha  occ. eigenvalues --   -1.13368  -1.13339  -1.13308  -1.13018  -1.12992
 Alpha  occ. eigenvalues --   -1.12982  -1.12961  -1.12956  -1.12943  -1.12800
 Alpha  occ. eigenvalues --   -1.12764  -1.12749  -1.12735  -1.12730  -1.12715
 Alpha  occ. eigenvalues --   -0.18508  -0.13386  -0.12101  -0.10536
 Alpha virt. eigenvalues --   -0.05798  -0.05465  -0.04566  -0.03193  -0.02659
 Alpha virt. eigenvalues --   -0.02397  -0.01731  -0.01297  -0.00518  -0.00399
 Alpha virt. eigenvalues --   -0.00004   0.00327   0.00733   0.00787   0.00885

  Beta  occ. eigenvalues --  -38.44379 -38.44094 -38.43776 -38.43470 -38.43353
  Beta  occ. eigenvalues --  -38.43260 -38.43054  -2.20183  -2.19921  -2.19652
  Beta  occ. eigenvalues --   -2.19320  -2.19145  -2.19080  -2.19025  -1.13863
  Beta  occ. eigenvalues --   -1.13840  -1.13816  -1.13611  -1.13573  -1.13540
  Beta  occ. eigenvalues --   -1.13355  -1.13322  -1.13288  -1.12994  -1.12975
  Beta  occ. eigenvalues --   -1.12943  -1.12888  -1.12828  -1.12808  -1.12757
  Beta  occ. eigenvalues --   -1.12735  -1.12727  -1.12720  -1.12680  -1.12670
  Beta  occ. eigenvalues --   -0.17816  -0.13106  -0.11898
  Beta virt. eigenvalues --   -0.06655  -0.05760  -0.05394  -0.04525  -0.02468
  Beta virt. eigenvalues --   -0.01936  -0.01618  -0.01347  -0.01242  -0.00524
  Beta virt. eigenvalues --   -0.00435   0.00146   0.00378   0.00782   0.00825

 Mulliken charges and spin densities:
               1          2
     1  Na   0.177672   0.028540
     2  Na  -0.468800   0.767896
     3  Na   0.069797   0.000288
     4  Na   0.121503   0.016284
     5  Na  -0.331646   0.116710
     6  Na   0.193274   0.012807
     7  Na   0.238200   0.057475
 Sum of Mulliken charges =  -0.00000   1.00000

 Dipole moment (field-independent basis, Debye):
    X=             -0.5516    Y=             -0.0663    Z=              0.1189  Tot=              0.5681
 Quadrupole moment (field-independent basis, Debye-Ang):
   XX=            -55.2587   YY=            -61.7665   ZZ=            -75.5819
   XY=             -0.2096   XZ=              0.1980   YZ=             -0.4368

 Normal termination of Gaussian 16 at Thu Dec  7 23:27:43 2023.
