 Gaussian 16, Revision B.01,
 Gaussian 16:  ES64L-G16RevB.01 20-Dec-2017

 -------------------------
 #P B3LYP/6-311+g(d) force
 -------------------------

 -----
 DPGEN
 -----
 Symbolic Z-matrix:
 Charge =  0 Multiplicity = 2

                         Standard orientation:
 ---------------------------------------------------------------------
 Center     Atomic      Atomic             Coordinates (Angstroms)
 Number     Number       Type             X           Y           Z
 ---------------------------------------------------------------------
      1         11           0        3.214070   -0.927519   -0.172300
      2         11           0        1.564003    2.518934   -0.200511
      3         11           0        0.313323    0.310512    2.090784
      4         11           0       -3.297228   -1.373613    0.138795
      5         11           0        0.394958   -2.589721   -0.014538
      6         11           0       -0.154155   -0.195226   -1.633979
      7         11           0       -2.034971    2.256632   -0.208251
 ---------------------------------------------------------------------

 SCF Done:  E(UB3LYP) =  -1136.13331922     A.U. after   20 cycles

 The electronic state is 2-A.
 Alpha  occ. eigenvalues --  -38.44376 -38.44260 -38.43906 -38.43585 -38.43447
 Alpha  occ. eigenvalues --  -38.43379 -38.43320  -2.20132  -2.20077  -2.19720
 Alpha  occ. eigenvalues --   -2.19459  -2.19348  -2.19285  -2.19225  -1.13808
 Alpha  occ. eigenvalues --   -1.13791  -1.13771  -1.13748  -1.13739  -1.13720
 Alpha  occ. eigenvalues --   -1.13413  -1.13387  -1.13341  -1.13179  -1.13127
 Alpha  occ. eigenvalues --   -1.13097  -1.13074  -1.13013  -1.12962  -1.12951
 Alpha  occ. eigenvalues --   -1.12928  -1.12912  -1.12876  -1.12854  -1.12813
 Alpha  occ. eigenvalues --   -0.18406  -0.12864  -0.12356  -0.10586
 Alpha virt. eigenvalues --   -0.05967  -0.05480  -0.04411  -0.03039  -0.02909
 Alpha virt. eigenvalues --   -0.02469  -0.01886  -0.01317  -0.00469  -0.00250
 Alpha virt. eigenvalues --   -0.00053   0.00306   0.00706   0.00820   0.00877

  Beta  occ. eigenvalues --  -38.44379 -38.44257 -38.43901 -38.43488 -38.43440
  Beta  occ. eigenvalues --  -38.43317 -38.43310  -2.20138  -2.20075  -2.19713
  Beta  occ. eigenvalues --   -2.19281  -2.19277  -2.19239  -2.19208  -1.13802
  Beta  occ. eigenvalues --   -1.13796  -1.13776  -1.13749  -1.13724  -1.13714
  Beta  occ. eigenvalues --   -1.13400  -1.13370  -1.13341  -1.13122  -1.13018
  Beta  occ. eigenvalues --   -1.12983  -1.12954  -1.12949  -1.12917  -1.12912
  Beta  occ. eigenvalues --   -1.12908  -1.12858  -1.12847  -1.12804  -1.12801
  Beta  occ. eigenvalues --   -0.17669  -0.12675  -0.12131
  Beta virt. eigenvalues --   -0.06670  -0.05895  -0.05483  -0.04370  -0.02339
  Beta virt. eigenvalues --   -0.02119  -0.01786  -0.01418  -0.01261  -0.00526
  Beta virt. eigenvalues --   -0.00275   0.00107   0.00331   0.00763   0.00812

 Mulliken charges and spin densities:
               1          2
     1  Na   0.199799  -0.029014
     2  Na   0.151244  -0.081744
     3  Na  -0.505109   0.803822
     4  Na  -0.012650  -0.055612
     5  Na   0.231052  -0.012485
     6  Na  -0.136036   0.481989
     7  Na   0.071699  -0.106957
 Sum of Mulliken charges =  -0.00000   1.00000

 Dipole moment (field-independent basis, Debye):
    X=             -0.0723    Y=              0.0870    Z=              0.1191  Tot=              0.1642
 Quadrupole moment (field-independent basis, Debye-Ang):
   XX=            -52.3151   YY=            -64.7810   ZZ=            -75.2702
   XY=              0.1327   XZ=             -1.3100   YZ=             -1.1838

 Normal termination of Gaussian 16 at Fri Dec  8 06:41:42 2023.
