 Gaussian 16, Revision B.01,
 Gaussian 16:  ES64L-G16RevB.01 20-Dec-2017

 -------------------------
 #P B3LYP/6-311+g(d) force
 -------------------------

 -----
 DPGEN
 -----
 Symbolic Z-matrix:
 Charge =  0 Multiplicity = 2

                         Standard orientation:
 ---------------------------------------------------------------------
 Center     Atomic      Atomic             Coordinates (Angstroms)
 Number     Number       Type             X           Y           Z
 ---------------------------------------------------------------------
      1         11           0        3.824146    1.874921   -0.188349
      2         11           0       -0.789431   -1.859707   -1.094781
      3         11           0        2.920420   -1.170314   -0.223984
      4         11           0        0.852043   -3.118805    1.263953
      5         11           0       -3.846747   -1.189815   -0.409389
      6         11           0       -0.050991    3.063388   -0.085030
      7         11           0       -2.909440    2.400332    0.737581
 ---------------------------------------------------------------------

 SCF Done:  E(UB3LYP) =  -1136.11570189     A.U. after   20 cycles

 The electronic state is 2-A.
 Alpha  occ. eigenvalues --  -38.44566 -38.44356 -38.44321 -38.44177 -38.44153
 Alpha  occ. eigenvalues --  -38.44098 -38.43519  -2.20416  -2.20222  -2.20119
 Alpha  occ. eigenvalues --   -2.20010  -2.19994  -2.19918  -2.19338  -1.14133
 Alpha  occ. eigenvalues --   -1.14083  -1.14077  -1.13893  -1.13863  -1.13854
 Alpha  occ. eigenvalues --   -1.13842  -1.13787  -1.13763  -1.13698  -1.13679
 Alpha  occ. eigenvalues --   -1.13647  -1.13642  -1.13618  -1.13601  -1.13572
 Alpha  occ. eigenvalues --   -1.13559  -1.13531  -1.12999  -1.12982  -1.12958
 Alpha  occ. eigenvalues --   -0.16545  -0.13907  -0.13306  -0.10693
 Alpha virt. eigenvalues --   -0.06472  -0.05511  -0.03975  -0.03717  -0.02842
 Alpha virt. eigenvalues --   -0.02698  -0.02061  -0.01409  -0.01228  -0.00741
 Alpha virt. eigenvalues --   -0.00214  -0.00103   0.00506   0.00577   0.00658

  Beta  occ. eigenvalues --  -38.44558 -38.44310 -38.44292 -38.44145 -38.44139
  Beta  occ. eigenvalues --  -38.44030 -38.43467  -2.20406  -2.20138  -2.20071
  Beta  occ. eigenvalues --   -2.19991  -2.19941  -2.19794  -2.19241  -1.14126
  Beta  occ. eigenvalues --   -1.14081  -1.14032  -1.13832  -1.13811  -1.13797
  Beta  occ. eigenvalues --   -1.13789  -1.13758  -1.13725  -1.13690  -1.13672
  Beta  occ. eigenvalues --   -1.13615  -1.13585  -1.13581  -1.13542  -1.13483
  Beta  occ. eigenvalues --   -1.13476  -1.13451  -1.12930  -1.12915  -1.12896
  Beta  occ. eigenvalues --   -0.16127  -0.13112  -0.12470
  Beta virt. eigenvalues --   -0.07530  -0.06509  -0.05312  -0.03761  -0.03240
  Beta virt. eigenvalues --   -0.02436  -0.02376  -0.01781  -0.01202  -0.01026
  Beta virt. eigenvalues --   -0.00575   0.00042   0.00170   0.00563   0.00662

 Mulliken charges and spin densities:
               1          2
     1  Na   0.238807   0.257328
     2  Na  -0.002795   0.069009
     3  Na  -0.436714   0.122652
     4  Na   0.354591   0.166780
     5  Na   0.037873   0.239203
     6  Na  -0.359085   0.078347
     7  Na   0.167324   0.066681
 Sum of Mulliken charges =  -0.00000   1.00000

 Dipole moment (field-independent basis, Debye):
    X=             -0.4845    Y=             -0.8782    Z=              0.6058  Tot=              1.1717
 Quadrupole moment (field-independent basis, Debye-Ang):
   XX=            -64.4126   YY=            -68.7574   ZZ=            -68.3408
   XY=             -0.9227   XZ=             -2.2876   YZ=             -2.6566

 Normal termination of Gaussian 16 at Mon Dec  4 01:45:46 2023.
