 Gaussian 16, Revision B.01,
 Gaussian 16:  ES64L-G16RevB.01 20-Dec-2017

 -------------------------
 #P B3LYP/6-311+g(d) force
 -------------------------

 -----
 DPGEN
 -----
 Symbolic Z-matrix:
 Charge =  0 Multiplicity = 2

                         Standard orientation:
 ---------------------------------------------------------------------
 Center     Atomic      Atomic             Coordinates (Angstroms)
 Number     Number       Type             X           Y           Z
 ---------------------------------------------------------------------
      1         11           0        2.244646   -1.590306   -0.832213
      2         11           0       -3.452098   -1.479057    0.344411
      3         11           0       -2.525513    2.351579    0.131159
      4         11           0        0.336388   -0.563866    2.140327
      5         11           0        0.723347    1.592131   -0.881958
      6         11           0       -1.202973   -0.914375   -1.339089
      7         11           0        3.876203    0.603894    0.437362
 ---------------------------------------------------------------------

 SCF Done:  E(UB3LYP) =  -1136.11186633     A.U. after   29 cycles

 The electronic state is 2-A.
 Alpha  occ. eigenvalues --  -38.45502 -38.45078 -38.44749 -38.44154 -38.43624
 Alpha  occ. eigenvalues --  -38.43417 -38.42939  -2.21337  -2.20882  -2.20551
 Alpha  occ. eigenvalues --   -2.20055  -2.19415  -2.19387  -2.18840  -1.15037
 Alpha  occ. eigenvalues --   -1.14979  -1.14963  -1.14553  -1.14525  -1.14480
 Alpha  occ. eigenvalues --   -1.14335  -1.14194  -1.14187  -1.13726  -1.13712
 Alpha  occ. eigenvalues --   -1.13696  -1.13091  -1.13087  -1.13065  -1.13057
 Alpha  occ. eigenvalues --   -1.13039  -1.12984  -1.12564  -1.12520  -1.12428
 Alpha  occ. eigenvalues --   -0.18547  -0.14153  -0.11026  -0.10920
 Alpha virt. eigenvalues --   -0.07481  -0.05680  -0.04214  -0.03117  -0.02974
 Alpha virt. eigenvalues --   -0.02533  -0.02226  -0.01446  -0.00830  -0.00361
 Alpha virt. eigenvalues --   -0.00001   0.00171   0.00318   0.00557   0.00639

  Beta  occ. eigenvalues --  -38.45484 -38.44982 -38.44800 -38.44122 -38.43614
  Beta  occ. eigenvalues --  -38.43370 -38.42929  -2.21305  -2.20705  -2.20647
  Beta  occ. eigenvalues --   -2.20004  -2.19395  -2.19303  -2.18825  -1.15022
  Beta  occ. eigenvalues --   -1.14953  -1.14930  -1.14433  -1.14400  -1.14399
  Beta  occ. eigenvalues --   -1.14350  -1.14252  -1.14248  -1.13685  -1.13673
  Beta  occ. eigenvalues --   -1.13631  -1.13068  -1.13056  -1.13053  -1.13044
  Beta  occ. eigenvalues --   -1.12970  -1.12909  -1.12546  -1.12482  -1.12427
  Beta  occ. eigenvalues --   -0.17683  -0.14219  -0.10879
  Beta virt. eigenvalues --   -0.07235  -0.06937  -0.05496  -0.03741  -0.02923
  Beta virt. eigenvalues --   -0.02738  -0.01789  -0.01603  -0.01215  -0.00592
  Beta virt. eigenvalues --   -0.00275   0.00036   0.00203   0.00448   0.00607

 Mulliken charges and spin densities:
               1          2
     1  Na   0.279469   0.120381
     2  Na   0.389338  -0.103012
     3  Na  -0.078905   0.056513
     4  Na  -0.535155   0.602456
     5  Na  -0.553275   0.064497
     6  Na  -0.125371   0.094379
     7  Na   0.623899   0.164786
 Sum of Mulliken charges =  -0.00000   1.00000

 Dipole moment (field-independent basis, Debye):
    X=              0.8528    Y=              0.0410    Z=              0.7213  Tot=              1.1177
 Quadrupole moment (field-independent basis, Debye-Ang):
   XX=            -46.1480   YY=            -75.9350   ZZ=            -72.3156
   XY=              0.0468   XZ=             -1.8278   YZ=              1.8687

 Normal termination of Gaussian 16 at Thu Dec  7 05:40:08 2023.
