 Gaussian 16, Revision B.01,
 Gaussian 16:  ES64L-G16RevB.01 20-Dec-2017

 -------------------------
 #P B3LYP/6-311+g(d) force
 -------------------------

 -----
 DPGEN
 -----
 Symbolic Z-matrix:
 Charge =  0 Multiplicity = 2

                         Standard orientation:
 ---------------------------------------------------------------------
 Center     Atomic      Atomic             Coordinates (Angstroms)
 Number     Number       Type             X           Y           Z
 ---------------------------------------------------------------------
      1         11           0       -1.850848   -2.395884   -0.076061
      2         11           0        0.074260   -0.075993   -1.007934
      3         11           0       -0.558242    2.878750   -0.354161
      4         11           0        3.278748   -1.600544   -0.610155
      5         11           0       -3.144646    0.304965   -0.600687
      6         11           0       -0.646403   -0.244678    2.202378
      7         11           0        2.847131    1.133384    0.446620
 ---------------------------------------------------------------------

 SCF Done:  E(UB3LYP) =  -1136.12317219     A.U. after   22 cycles

 The electronic state is 2-A.
 Alpha  occ. eigenvalues --  -38.44535 -38.44375 -38.44076 -38.43823 -38.43411
 Alpha  occ. eigenvalues --  -38.43311 -38.42593  -2.20438  -2.20245  -2.19917
 Alpha  occ. eigenvalues --   -2.19713  -2.19379  -2.19329  -2.18443  -1.14134
 Alpha  occ. eigenvalues --   -1.14089  -1.14063  -1.13987  -1.13901  -1.13891
 Alpha  occ. eigenvalues --   -1.13565  -1.13553  -1.13541  -1.13399  -1.13336
 Alpha  occ. eigenvalues --   -1.13314  -1.13121  -1.13080  -1.13016  -1.12979
 Alpha  occ. eigenvalues --   -1.12959  -1.12948  -1.12145  -1.12089  -1.12072
 Alpha  occ. eigenvalues --   -0.18681  -0.14045  -0.11736  -0.10714
 Alpha virt. eigenvalues --   -0.06259  -0.05361  -0.04226  -0.03350  -0.02542
 Alpha virt. eigenvalues --   -0.02356  -0.02141  -0.01094  -0.00522  -0.00241
 Alpha virt. eigenvalues --   -0.00111   0.00278   0.00670   0.00779   0.00847

  Beta  occ. eigenvalues --  -38.44506 -38.44374 -38.44066 -38.43710 -38.43403
  Beta  occ. eigenvalues --  -38.43287 -38.42592  -2.20386  -2.20245  -2.19898
  Beta  occ. eigenvalues --   -2.19506  -2.19340  -2.19319  -2.18443  -1.14101
  Beta  occ. eigenvalues --   -1.14036  -1.14028  -1.13986  -1.13899  -1.13880
  Beta  occ. eigenvalues --   -1.13552  -1.13537  -1.13529  -1.13266  -1.13196
  Beta  occ. eigenvalues --   -1.13166  -1.13101  -1.13024  -1.12986  -1.12969
  Beta  occ. eigenvalues --   -1.12937  -1.12915  -1.12144  -1.12089  -1.12059
  Beta  occ. eigenvalues --   -0.17986  -0.13798  -0.11515
  Beta virt. eigenvalues --   -0.06843  -0.06077  -0.05199  -0.04123  -0.02826
  Beta virt. eigenvalues --   -0.02111  -0.01739  -0.01400  -0.01037  -0.00470
  Beta virt. eigenvalues --   -0.00167   0.00095   0.00344   0.00767   0.00808

 Mulliken charges and spin densities:
               1          2
     1  Na   0.201809   0.211571
     2  Na  -0.578031  -0.097039
     3  Na   0.063996   0.009800
     4  Na   0.075233   0.110901
     5  Na   0.451378   0.110233
     6  Na  -0.517050   0.575535
     7  Na   0.302665   0.078999
 Sum of Mulliken charges =  -0.00000   1.00000

 Dipole moment (field-independent basis, Debye):
    X=              0.0392    Y=             -0.1339    Z=              0.3838  Tot=              0.4083
 Quadrupole moment (field-independent basis, Debye-Ang):
   XX=            -54.3924   YY=            -66.0315   ZZ=            -73.6978
   XY=             -0.1002   XZ=              1.0444   YZ=              2.1782

 Normal termination of Gaussian 16 at Tue Dec  5 13:44:31 2023.
