 Gaussian 16, Revision B.01,
 Gaussian 16:  ES64L-G16RevB.01 20-Dec-2017

 -------------------------
 #P B3LYP/6-311+g(d) force
 -------------------------

 -----
 DPGEN
 -----
 Symbolic Z-matrix:
 Charge =  0 Multiplicity = 2

                         Standard orientation:
 ---------------------------------------------------------------------
 Center     Atomic      Atomic             Coordinates (Angstroms)
 Number     Number       Type             X           Y           Z
 ---------------------------------------------------------------------
      1         11           0       -3.221311   -1.061550    0.754550
      2         11           0        3.219228    0.128020   -0.715748
      3         11           0       -1.616558    2.566829   -0.580036
      4         11           0        1.587398    1.996424    1.405306
      5         11           0        0.905270   -2.740975   -0.616212
      6         11           0        0.149383   -1.091102    1.594934
      7         11           0       -1.023411    0.202354   -1.842794
 ---------------------------------------------------------------------

 SCF Done:  E(UB3LYP) =  -1136.11905409     A.U. after   21 cycles

 The electronic state is 2-A.
 Alpha  occ. eigenvalues --  -38.44900 -38.44687 -38.43912 -38.43851 -38.43704
 Alpha  occ. eigenvalues --  -38.43661 -38.43404  -2.20680  -2.20480  -2.19848
 Alpha  occ. eigenvalues --   -2.19708  -2.19611  -2.19567  -2.19249  -1.14357
 Alpha  occ. eigenvalues --   -1.14322  -1.14308  -1.14152  -1.14149  -1.14116
 Alpha  occ. eigenvalues --   -1.13816  -1.13521  -1.13472  -1.13446  -1.13319
 Alpha  occ. eigenvalues --   -1.13301  -1.13270  -1.13253  -1.13214  -1.13203
 Alpha  occ. eigenvalues --   -1.13154  -1.13129  -1.12923  -1.12900  -1.12868
 Alpha  occ. eigenvalues --   -0.18103  -0.13076  -0.12205  -0.11158
 Alpha virt. eigenvalues --   -0.06308  -0.04883  -0.04200  -0.03700  -0.03274
 Alpha virt. eigenvalues --   -0.02647  -0.01949  -0.00897  -0.00336  -0.00091
 Alpha virt. eigenvalues --    0.00096   0.00292   0.00454   0.00740   0.00856

  Beta  occ. eigenvalues --  -38.44873 -38.44684 -38.43855 -38.43838 -38.43690
  Beta  occ. eigenvalues --  -38.43617 -38.43368  -2.20631  -2.20476  -2.19750
  Beta  occ. eigenvalues --   -2.19680  -2.19557  -2.19517  -2.19183  -1.14312
  Beta  occ. eigenvalues --   -1.14293  -1.14274  -1.14149  -1.14136  -1.14110
  Beta  occ. eigenvalues --   -1.13758  -1.13481  -1.13403  -1.13378  -1.13293
  Beta  occ. eigenvalues --   -1.13284  -1.13226  -1.13208  -1.13177  -1.13162
  Beta  occ. eigenvalues --   -1.13116  -1.13085  -1.12871  -1.12858  -1.12823
  Beta  occ. eigenvalues --   -0.17444  -0.12803  -0.11936
  Beta virt. eigenvalues --   -0.07444  -0.06172  -0.04673  -0.03977  -0.03121
  Beta virt. eigenvalues --   -0.02713  -0.01840  -0.01748  -0.00822  -0.00132
  Beta virt. eigenvalues --   -0.00068   0.00144   0.00380   0.00537   0.00758

 Mulliken charges and spin densities:
               1          2
     1  Na  -0.041840  -0.077881
     2  Na  -0.322017   0.020440
     3  Na  -0.226231   0.095175
     4  Na   0.197766   0.026993
     5  Na   0.323393   0.271090
     6  Na  -0.119509   0.377628
     7  Na   0.188438   0.286555
 Sum of Mulliken charges =  -0.00000   1.00000

 Dipole moment (field-independent basis, Debye):
    X=             -0.2342    Y=             -0.2320    Z=             -0.1413  Tot=              0.3587
 Quadrupole moment (field-independent basis, Debye-Ang):
   XX=            -56.6569   YY=            -67.9204   ZZ=            -70.6766
   XY=              0.6462   XZ=             -4.3575   YZ=              2.5339

 Normal termination of Gaussian 16 at Tue Dec  5 13:42:22 2023.
