 Gaussian 16, Revision B.01,
 Gaussian 16:  ES64L-G16RevB.01 20-Dec-2017

 -------------------------
 #P B3LYP/6-311+g(d) force
 -------------------------

 -----
 DPGEN
 -----
 Symbolic Z-matrix:
 Charge =  0 Multiplicity = 2

                         Standard orientation:
 ---------------------------------------------------------------------
 Center     Atomic      Atomic             Coordinates (Angstroms)
 Number     Number       Type             X           Y           Z
 ---------------------------------------------------------------------
      1         11           0        0.024597   -0.268505   -1.141032
      2         11           0       -2.147816    2.195086   -0.043541
      3         11           0       -2.971349   -1.360556   -0.309468
      4         11           0        1.187269    2.984622   -0.229744
      5         11           0        1.212789   -2.821888   -0.628249
      6         11           0        3.016040    0.096791    0.241481
      7         11           0       -0.321530   -0.825551    2.110553
 ---------------------------------------------------------------------

 SCF Done:  E(UB3LYP) =  -1136.13136234     A.U. after   19 cycles

 The electronic state is 2-A.
 Alpha  occ. eigenvalues --  -38.44235 -38.43998 -38.43990 -38.43981 -38.43453
 Alpha  occ. eigenvalues --  -38.43409 -38.42806  -2.20051  -2.19881  -2.19832
 Alpha  occ. eigenvalues --   -2.19798  -2.19284  -2.19274  -2.18892  -1.13735
 Alpha  occ. eigenvalues --   -1.13706  -1.13687  -1.13662  -1.13525  -1.13506
 Alpha  occ. eigenvalues --   -1.13497  -1.13490  -1.13480  -1.13469  -1.13448
 Alpha  occ. eigenvalues --   -1.13424  -1.12963  -1.12945  -1.12933  -1.12922
 Alpha  occ. eigenvalues --   -1.12909  -1.12886  -1.12573  -1.12549  -1.12505
 Alpha  occ. eigenvalues --   -0.18468  -0.13008  -0.12679  -0.10317
 Alpha virt. eigenvalues --   -0.05893  -0.05253  -0.04983  -0.02963  -0.02667
 Alpha virt. eigenvalues --   -0.02226  -0.01621  -0.01384  -0.00605  -0.00554
 Alpha virt. eigenvalues --    0.00002   0.00320   0.00768   0.00816   0.00826

  Beta  occ. eigenvalues --  -38.44230 -38.43985 -38.43979 -38.43975 -38.43454
  Beta  occ. eigenvalues --  -38.43307 -38.42764  -2.20045  -2.19842  -2.19826
  Beta  occ. eigenvalues --   -2.19796  -2.19277  -2.19095  -2.18820  -1.13725
  Beta  occ. eigenvalues --   -1.13689  -1.13684  -1.13630  -1.13519  -1.13483
  Beta  occ. eigenvalues --   -1.13477  -1.13469  -1.13458  -1.13456  -1.13436
  Beta  occ. eigenvalues --   -1.13426  -1.12943  -1.12933  -1.12923  -1.12838
  Beta  occ. eigenvalues --   -1.12779  -1.12751  -1.12511  -1.12481  -1.12457
  Beta  occ. eigenvalues --   -0.17801  -0.12798  -0.12469
  Beta virt. eigenvalues --   -0.06389  -0.05843  -0.05218  -0.04877  -0.02229
  Beta virt. eigenvalues --   -0.02056  -0.01561  -0.01331  -0.01130  -0.00633
  Beta virt. eigenvalues --   -0.00537   0.00194   0.00388   0.00779   0.00846

 Mulliken charges and spin densities:
               1          2
     1  Na  -0.562482   0.058393
     2  Na   0.155134   0.040822
     3  Na   0.250862   0.019692
     4  Na  -0.046268  -0.007971
     5  Na   0.428441   0.097050
     6  Na   0.255319   0.128817
     7  Na  -0.481005   0.663196
 Sum of Mulliken charges =  -0.00000   1.00000

 Dipole moment (field-independent basis, Debye):
    X=             -0.2242    Y=             -0.2116    Z=              0.2070  Tot=              0.3713
 Quadrupole moment (field-independent basis, Debye-Ang):
   XX=            -55.6264   YY=            -59.5785   ZZ=            -76.7902
   XY=              0.1673   XZ=              0.9576   YZ=              1.1343

 Normal termination of Gaussian 16 at Thu Dec  7 06:17:53 2023.
