 Gaussian 16, Revision B.01,
 Gaussian 16:  ES64L-G16RevB.01 20-Dec-2017

 -------------------------
 #P B3LYP/6-311+g(d) force
 -------------------------

 -----
 DPGEN
 -----
 Symbolic Z-matrix:
 Charge =  0 Multiplicity = 2

                         Standard orientation:
 ---------------------------------------------------------------------
 Center     Atomic      Atomic             Coordinates (Angstroms)
 Number     Number       Type             X           Y           Z
 ---------------------------------------------------------------------
      1         11           0       -1.755487    2.554692   -0.303869
      2         11           0        0.146614   -1.855974   -1.310247
      3         11           0        1.170713    2.045453   -0.676223
      4         11           0        3.777030   -0.616383   -0.480578
      5         11           0        1.318729   -0.111694    1.938240
      6         11           0       -2.819770   -1.153181   -1.262586
      7         11           0       -1.837829   -0.862914    2.095262
 ---------------------------------------------------------------------

 SCF Done:  E(UB3LYP) =  -1136.12481125     A.U. after   22 cycles

 The electronic state is 2-A.
 Alpha  occ. eigenvalues --  -38.44753 -38.44543 -38.44503 -38.44097 -38.44034
 Alpha  occ. eigenvalues --  -38.43085 -38.42837  -2.20595  -2.20425  -2.20294
 Alpha  occ. eigenvalues --   -2.19935  -2.19884  -2.18966  -2.18669  -1.14308
 Alpha  occ. eigenvalues --   -1.14224  -1.14202  -1.14099  -1.14071  -1.14043
 Alpha  occ. eigenvalues --   -1.13966  -1.13948  -1.13918  -1.13706  -1.13597
 Alpha  occ. eigenvalues --   -1.13592  -1.13523  -1.13504  -1.13463  -1.12694
 Alpha  occ. eigenvalues --   -1.12641  -1.12608  -1.12327  -1.12306  -1.12294
 Alpha  occ. eigenvalues --   -0.18020  -0.13420  -0.12071  -0.11561
 Alpha virt. eigenvalues --   -0.06139  -0.05016  -0.04631  -0.03703  -0.03049
 Alpha virt. eigenvalues --   -0.02735  -0.02005  -0.00932  -0.00705  -0.00071
 Alpha virt. eigenvalues --    0.00181   0.00240   0.00319   0.00745   0.00813

  Beta  occ. eigenvalues --  -38.44677 -38.44499 -38.44477 -38.44063 -38.44010
  Beta  occ. eigenvalues --  -38.43077 -38.42833  -2.20458  -2.20307  -2.20287
  Beta  occ. eigenvalues --   -2.19875  -2.19841  -2.18951  -2.18660  -1.14195
  Beta  occ. eigenvalues --   -1.14133  -1.14105  -1.14023  -1.13991  -1.13971
  Beta  occ. eigenvalues --   -1.13946  -1.13938  -1.13895  -1.13662  -1.13553
  Beta  occ. eigenvalues --   -1.13547  -1.13489  -1.13475  -1.13426  -1.12685
  Beta  occ. eigenvalues --   -1.12623  -1.12600  -1.12315  -1.12299  -1.12291
  Beta  occ. eigenvalues --   -0.17297  -0.13285  -0.11360
  Beta virt. eigenvalues --   -0.07915  -0.05982  -0.04727  -0.04269  -0.03361
  Beta virt. eigenvalues --   -0.02296  -0.02145  -0.01875  -0.00745  -0.00400
  Beta virt. eigenvalues --    0.00025   0.00241   0.00280   0.00467   0.00819

 Mulliken charges and spin densities:
               1          2
     1  Na  -0.350320   0.036983
     2  Na  -0.654495   0.160888
     3  Na  -0.126519   0.084002
     4  Na   0.895871   0.057642
     5  Na  -0.237995   0.219203
     6  Na   0.491712   0.204419
     7  Na  -0.018254   0.236862
 Sum of Mulliken charges =  -0.00000   1.00000

 Dipole moment (field-independent basis, Debye):
    X=              0.4218    Y=             -0.7343    Z=              0.1411  Tot=              0.8584
 Quadrupole moment (field-independent basis, Debye-Ang):
   XX=            -51.3428   YY=            -78.5327   ZZ=            -66.9250
   XY=             -0.7391   XZ=             -2.0639   YZ=              0.1341

 Normal termination of Gaussian 16 at Mon Dec  4 00:09:43 2023.
