 Gaussian 16, Revision B.01,
 Gaussian 16:  ES64L-G16RevB.01 20-Dec-2017

 -------------------------
 #P B3LYP/6-311+g(d) force
 -------------------------

 -----
 DPGEN
 -----
 Symbolic Z-matrix:
 Charge =  0 Multiplicity = 2

                         Standard orientation:
 ---------------------------------------------------------------------
 Center     Atomic      Atomic             Coordinates (Angstroms)
 Number     Number       Type             X           Y           Z
 ---------------------------------------------------------------------
      1         11           0       -2.371779    1.892997   -0.071598
      2         11           0       -0.104775    0.011431    2.093508
      3         11           0        0.256839   -0.164572   -1.662681
      4         11           0       -2.590764   -1.512801   -0.115551
      5         11           0        1.037236    2.819714   -0.258334
      6         11           0        0.569964   -2.828705   -0.151223
      7         11           0        3.203278   -0.218065    0.165878
 ---------------------------------------------------------------------

 SCF Done:  E(UB3LYP) =  -1136.13999798     A.U. after   18 cycles

 The electronic state is 2-A.
 Alpha  occ. eigenvalues --  -38.44043 -38.43662 -38.43590 -38.43573 -38.43559
 Alpha  occ. eigenvalues --  -38.43452 -38.43183  -2.19850  -2.19538  -2.19418
 Alpha  occ. eigenvalues --   -2.19416  -2.19409  -2.19331  -2.19164  -1.13525
 Alpha  occ. eigenvalues --   -1.13510  -1.13490  -1.13208  -1.13169  -1.13160
 Alpha  occ. eigenvalues --   -1.13118  -1.13114  -1.13103  -1.13086  -1.13080
 Alpha  occ. eigenvalues --   -1.13074  -1.13066  -1.13064  -1.13040  -1.13020
 Alpha  occ. eigenvalues --   -1.12982  -1.12938  -1.12832  -1.12785  -1.12774
 Alpha  occ. eigenvalues --   -0.18628  -0.12797  -0.12636  -0.10769
 Alpha virt. eigenvalues --   -0.05549  -0.05080  -0.04867  -0.03098  -0.02976
 Alpha virt. eigenvalues --   -0.02624  -0.01449  -0.01136  -0.00396  -0.00341
 Alpha virt. eigenvalues --   -0.00017   0.00365   0.00827   0.00877   0.00903

  Beta  occ. eigenvalues --  -38.44040 -38.43585 -38.43570 -38.43565 -38.43554
  Beta  occ. eigenvalues --  -38.43444 -38.43119  -2.19847  -2.19413  -2.19411
  Beta  occ. eigenvalues --   -2.19407  -2.19358  -2.19322  -2.19048  -1.13514
  Beta  occ. eigenvalues --   -1.13499  -1.13492  -1.13124  -1.13109  -1.13104
  Beta  occ. eigenvalues --   -1.13079  -1.13074  -1.13064  -1.13059  -1.13053
  Beta  occ. eigenvalues --   -1.13049  -1.13041  -1.13030  -1.13020  -1.13018
  Beta  occ. eigenvalues --   -1.12955  -1.12935  -1.12755  -1.12704  -1.12691
  Beta  occ. eigenvalues --   -0.17892  -0.12589  -0.12386
  Beta virt. eigenvalues --   -0.06841  -0.05530  -0.05096  -0.04790  -0.02324
  Beta virt. eigenvalues --   -0.02186  -0.01549  -0.01361  -0.01059  -0.00452
  Beta virt. eigenvalues --   -0.00405   0.00126   0.00384   0.00856   0.00881

 Mulliken charges and spin densities:
               1          2
     1  Na   0.086569  -0.057897
     2  Na  -0.548322   0.810853
     3  Na  -0.207994   0.465138
     4  Na   0.182221  -0.039635
     5  Na   0.075098  -0.085538
     6  Na   0.324366  -0.036340
     7  Na   0.088063  -0.056581
 Sum of Mulliken charges =  -0.00000   1.00000

 Dipole moment (field-independent basis, Debye):
    X=              0.2117    Y=              0.0298    Z=              0.1662  Tot=              0.2708
 Quadrupole moment (field-independent basis, Debye-Ang):
   XX=            -57.4620   YY=            -61.7379   ZZ=            -74.2931
   XY=              0.0429   XZ=              0.8918   YZ=             -0.3943

 Normal termination of Gaussian 16 at Thu Dec  7 09:27:38 2023.
