 Gaussian 16, Revision B.01,
 Gaussian 16:  ES64L-G16RevB.01 20-Dec-2017

 -------------------------
 #P B3LYP/6-311+g(d) force
 -------------------------

 -----
 DPGEN
 -----
 Symbolic Z-matrix:
 Charge =  0 Multiplicity = 2

                         Standard orientation:
 ---------------------------------------------------------------------
 Center     Atomic      Atomic             Coordinates (Angstroms)
 Number     Number       Type             X           Y           Z
 ---------------------------------------------------------------------
      1         11           0       -2.991545    1.357256    0.107934
      2         11           0        0.438222    2.651130   -0.374169
      3         11           0       -2.506900   -2.065005   -0.027636
      4         11           0        1.094647   -2.271568    0.091332
      5         11           0        0.262085   -0.133888   -1.818642
      6         11           0        3.630068    0.058898    0.181587
      7         11           0        0.073422    0.403178    1.839595
 ---------------------------------------------------------------------

 SCF Done:  E(UB3LYP) =  -1136.13016561     A.U. after   20 cycles

 The electronic state is 2-A.
 Alpha  occ. eigenvalues --  -38.45155 -38.44410 -38.43650 -38.43603 -38.43417
 Alpha  occ. eigenvalues --  -38.43104 -38.43015  -2.20927  -2.20209  -2.19569
 Alpha  occ. eigenvalues --   -2.19408  -2.19383  -2.19024  -2.18901  -1.14597
 Alpha  occ. eigenvalues --   -1.14591  -1.14558  -1.13887  -1.13872  -1.13844
 Alpha  occ. eigenvalues --   -1.13267  -1.13231  -1.13165  -1.13127  -1.13082
 Alpha  occ. eigenvalues --   -1.13068  -1.13058  -1.13055  -1.12965  -1.12713
 Alpha  occ. eigenvalues --   -1.12693  -1.12606  -1.12593  -1.12572  -1.12495
 Alpha  occ. eigenvalues --   -0.18596  -0.13160  -0.12088  -0.10649
 Alpha virt. eigenvalues --   -0.06562  -0.05076  -0.04072  -0.03182  -0.02751
 Alpha virt. eigenvalues --   -0.02445  -0.02335  -0.01134  -0.00336  -0.00119
 Alpha virt. eigenvalues --   -0.00066   0.00268   0.00726   0.00770   0.00829

  Beta  occ. eigenvalues --  -38.45152 -38.44409 -38.43604 -38.43579 -38.43329
  Beta  occ. eigenvalues --  -38.43092 -38.43000  -2.20925  -2.20209  -2.19438
  Beta  occ. eigenvalues --   -2.19413  -2.19223  -2.19007  -2.18877  -1.14592
  Beta  occ. eigenvalues --   -1.14577  -1.14559  -1.13874  -1.13869  -1.13847
  Beta  occ. eigenvalues --   -1.13180  -1.13138  -1.13082  -1.13071  -1.13063
  Beta  occ. eigenvalues --   -1.13057  -1.13020  -1.12948  -1.12854  -1.12694
  Beta  occ. eigenvalues --   -1.12642  -1.12596  -1.12577  -1.12519  -1.12484
  Beta  occ. eigenvalues --   -0.17857  -0.12966  -0.11826
  Beta virt. eigenvalues --   -0.06771  -0.06451  -0.05083  -0.04053  -0.02496
  Beta virt. eigenvalues --   -0.02215  -0.01947  -0.01389  -0.01102  -0.00370
  Beta virt. eigenvalues --   -0.00123   0.00065   0.00294   0.00772   0.00837

 Mulliken charges and spin densities:
               1          2
     1  Na   0.138787  -0.065568
     2  Na   0.080022  -0.162185
     3  Na  -0.045319  -0.100991
     4  Na   0.113464  -0.026099
     5  Na  -0.151040   0.653201
     6  Na   0.202369  -0.053892
     7  Na  -0.338282   0.755534
 Sum of Mulliken charges =  -0.00000   1.00000

 Dipole moment (field-independent basis, Debye):
    X=              0.3678    Y=              0.2482    Z=              0.1139  Tot=              0.4581
 Quadrupole moment (field-independent basis, Debye-Ang):
   XX=            -48.6037   YY=            -68.2303   ZZ=            -74.8583
   XY=              0.3185   XZ=              0.4540   YZ=             -0.8408

 Normal termination of Gaussian 16 at Thu Dec  7 23:41:59 2023.
