 Gaussian 16, Revision B.01,
 Gaussian 16:  ES64L-G16RevB.01 20-Dec-2017

 -------------------------
 #P B3LYP/6-311+g(d) force
 -------------------------

 -----
 DPGEN
 -----
 Symbolic Z-matrix:
 Charge =  0 Multiplicity = 2

                         Standard orientation:
 ---------------------------------------------------------------------
 Center     Atomic      Atomic             Coordinates (Angstroms)
 Number     Number       Type             X           Y           Z
 ---------------------------------------------------------------------
      1         11           0        2.409685   -2.046280    0.106135
      2         11           0       -0.984907    3.046203    0.193107
      3         11           0        2.713213    1.443612   -0.646118
      4         11           0       -1.149780   -2.761630    0.019488
      5         11           0        0.479493    0.369249    2.108982
      6         11           0       -3.545311   -0.183813   -0.231008
      7         11           0        0.077607    0.132658   -1.550585
 ---------------------------------------------------------------------

 SCF Done:  E(UB3LYP) =  -1136.13398119     A.U. after   19 cycles

 The electronic state is 2-A.
 Alpha  occ. eigenvalues --  -38.44388 -38.44043 -38.43873 -38.43757 -38.43713
 Alpha  occ. eigenvalues --  -38.43474 -38.43376  -2.20149  -2.19901  -2.19658
 Alpha  occ. eigenvalues --   -2.19582  -2.19570  -2.19325  -2.19287  -1.13828
 Alpha  occ. eigenvalues --   -1.13800  -1.13790  -1.13628  -1.13545  -1.13512
 Alpha  occ. eigenvalues --   -1.13336  -1.13327  -1.13293  -1.13255  -1.13252
 Alpha  occ. eigenvalues --   -1.13227  -1.13226  -1.13203  -1.13174  -1.13014
 Alpha  occ. eigenvalues --   -1.12994  -1.12962  -1.12947  -1.12938  -1.12912
 Alpha  occ. eigenvalues --   -0.18117  -0.12813  -0.12338  -0.10634
 Alpha virt. eigenvalues --   -0.05924  -0.05377  -0.04807  -0.02974  -0.02875
 Alpha virt. eigenvalues --   -0.02547  -0.01703  -0.01349  -0.00735  -0.00479
 Alpha virt. eigenvalues --   -0.00045   0.00311   0.00736   0.00770   0.00854

  Beta  occ. eigenvalues --  -38.44387 -38.44017 -38.43869 -38.43753 -38.43616
  Beta  occ. eigenvalues --  -38.43473 -38.43323  -2.20149  -2.19856  -2.19653
  Beta  occ. eigenvalues --   -2.19577  -2.19392  -2.19288  -2.19229  -1.13823
  Beta  occ. eigenvalues --   -1.13800  -1.13792  -1.13586  -1.13503  -1.13482
  Beta  occ. eigenvalues --   -1.13325  -1.13311  -1.13293  -1.13247  -1.13236
  Beta  occ. eigenvalues --   -1.13213  -1.13113  -1.13085  -1.13045  -1.12981
  Beta  occ. eigenvalues --   -1.12954  -1.12941  -1.12910  -1.12885  -1.12871
  Beta  occ. eigenvalues --   -0.17424  -0.12589  -0.12123
  Beta virt. eigenvalues --   -0.06738  -0.05856  -0.05331  -0.04723  -0.02334
  Beta virt. eigenvalues --   -0.02162  -0.01639  -0.01465  -0.01253  -0.00742
  Beta virt. eigenvalues --   -0.00518   0.00120   0.00366   0.00774   0.00812

 Mulliken charges and spin densities:
               1          2
     1  Na   0.140908   0.043719
     2  Na  -0.047292  -0.066855
     3  Na   0.399573   0.059616
     4  Na  -0.100792  -0.046995
     5  Na  -0.343404   0.734827
     6  Na  -0.032303  -0.049739
     7  Na  -0.016691   0.325427
 Sum of Mulliken charges =  -0.00000   1.00000

 Dipole moment (field-independent basis, Debye):
    X=             -0.0415    Y=              0.2166    Z=              0.1316  Tot=              0.2568
 Quadrupole moment (field-independent basis, Debye-Ang):
   XX=            -55.7022   YY=            -62.1389   ZZ=            -75.3314
   XY=             -1.3109   XZ=             -0.5102   YZ=             -0.7008

 Normal termination of Gaussian 16 at Thu Dec  7 16:26:55 2023.
