 Gaussian 16, Revision B.01,
 Gaussian 16:  ES64L-G16RevB.01 20-Dec-2017

 -------------------------
 #P B3LYP/6-311+g(d) force
 -------------------------

 -----
 DPGEN
 -----
 Symbolic Z-matrix:
 Charge =  0 Multiplicity = 2

                         Standard orientation:
 ---------------------------------------------------------------------
 Center     Atomic      Atomic             Coordinates (Angstroms)
 Number     Number       Type             X           Y           Z
 ---------------------------------------------------------------------
      1         11           0        2.205668    0.398811   -1.357700
      2         11           0        2.450749   -2.299121    0.537337
      3         11           0        1.030999    3.074093    0.486757
      4         11           0       -3.380701   -0.814844    0.540121
      5         11           0       -1.780819    1.383849   -1.278320
      6         11           0       -0.613827   -2.063995   -0.899453
      7         11           0        0.087931    0.321207    1.971258
 ---------------------------------------------------------------------

 SCF Done:  E(UB3LYP) =  -1136.13647753     A.U. after   20 cycles

 The electronic state is 2-A.
 Alpha  occ. eigenvalues --  -38.43988 -38.43977 -38.43875 -38.43667 -38.43639
 Alpha  occ. eigenvalues --  -38.43579 -38.43173  -2.19833  -2.19810  -2.19729
 Alpha  occ. eigenvalues --   -2.19543  -2.19506  -2.19412  -2.19011  -1.13539
 Alpha  occ. eigenvalues --   -1.13519  -1.13478  -1.13473  -1.13457  -1.13408
 Alpha  occ. eigenvalues --   -1.13404  -1.13399  -1.13353  -1.13214  -1.13199
 Alpha  occ. eigenvalues --   -1.13195  -1.13178  -1.13170  -1.13127  -1.13073
 Alpha  occ. eigenvalues --   -1.13063  -1.13039  -1.12685  -1.12668  -1.12649
 Alpha  occ. eigenvalues --   -0.18183  -0.13111  -0.12366  -0.10838
 Alpha virt. eigenvalues --   -0.05511  -0.05246  -0.04747  -0.03447  -0.03179
 Alpha virt. eigenvalues --   -0.02662  -0.01517  -0.01115  -0.00497  -0.00136
 Alpha virt. eigenvalues --    0.00190   0.00359   0.00715   0.00770   0.00801

  Beta  occ. eigenvalues --  -38.43976 -38.43957 -38.43840 -38.43625 -38.43579
  Beta  occ. eigenvalues --  -38.43577 -38.43170  -2.19809  -2.19776  -2.19666
  Beta  occ. eigenvalues --   -2.19483  -2.19410  -2.19381  -2.19008  -1.13519
  Beta  occ. eigenvalues --   -1.13485  -1.13465  -1.13447  -1.13435  -1.13378
  Beta  occ. eigenvalues --   -1.13362  -1.13348  -1.13312  -1.13190  -1.13152
  Beta  occ. eigenvalues --   -1.13118  -1.13098  -1.13073  -1.13067  -1.13059
  Beta  occ. eigenvalues --   -1.13041  -1.13034  -1.12673  -1.12665  -1.12637
  Beta  occ. eigenvalues --   -0.17461  -0.12943  -0.12171
  Beta virt. eigenvalues --   -0.07018  -0.05372  -0.05119  -0.04609  -0.02879
  Beta virt. eigenvalues --   -0.02484  -0.01726  -0.01450  -0.01022  -0.00207
  Beta virt. eigenvalues --   -0.00163   0.00269   0.00406   0.00781   0.00816

 Mulliken charges and spin densities:
               1          2
     1  Na  -0.166023   0.222907
     2  Na   0.400044  -0.094346
     3  Na   0.343330  -0.062620
     4  Na   0.506855  -0.075206
     5  Na  -0.259673   0.171190
     6  Na  -0.286623   0.174568
     7  Na  -0.537911   0.663507
 Sum of Mulliken charges =  -0.00000   1.00000

 Dipole moment (field-independent basis, Debye):
    X=             -0.2997    Y=             -0.1612    Z=             -0.0118  Tot=              0.3405
 Quadrupole moment (field-independent basis, Debye-Ang):
   XX=            -58.5152   YY=            -65.0899   ZZ=            -70.9965
   XY=             -0.0338   XZ=             -0.7672   YZ=             -1.9408

 Normal termination of Gaussian 16 at Wed Dec  6 01:18:12 2023.
