 Gaussian 16, Revision B.01,
 Gaussian 16:  ES64L-G16RevB.01 20-Dec-2017

 -------------------------
 #P B3LYP/6-311+g(d) force
 -------------------------

 -----
 DPGEN
 -----
 Symbolic Z-matrix:
 Charge =  0 Multiplicity = 2

                         Standard orientation:
 ---------------------------------------------------------------------
 Center     Atomic      Atomic             Coordinates (Angstroms)
 Number     Number       Type             X           Y           Z
 ---------------------------------------------------------------------
      1         11           0        0.115467    0.199140   -1.388525
      2         11           0       -1.415457    2.843706   -0.019104
      3         11           0        2.858440   -1.383529   -0.292748
      4         11           0        2.041294    2.249120    0.009974
      5         11           0       -3.114819   -0.554718   -0.210741
      6         11           0       -0.565842   -2.952099   -0.215650
      7         11           0        0.080917   -0.401619    2.116795
 ---------------------------------------------------------------------

 SCF Done:  E(UB3LYP) =  -1136.13816530     A.U. after   19 cycles

 The electronic state is 2-A.
 Alpha  occ. eigenvalues --  -38.43844 -38.43813 -38.43806 -38.43798 -38.43778
 Alpha  occ. eigenvalues --  -38.43405 -38.42854  -2.19692  -2.19625  -2.19623
 Alpha  occ. eigenvalues --   -2.19622  -2.19617  -2.19277  -2.18873  -1.13409
 Alpha  occ. eigenvalues --   -1.13352  -1.13327  -1.13319  -1.13305  -1.13302
 Alpha  occ. eigenvalues --   -1.13298  -1.13293  -1.13286  -1.13282  -1.13272
 Alpha  occ. eigenvalues --   -1.13270  -1.13252  -1.13247  -1.13226  -1.12943
 Alpha  occ. eigenvalues --   -1.12898  -1.12890  -1.12567  -1.12517  -1.12495
 Alpha  occ. eigenvalues --   -0.18462  -0.12871  -0.12602  -0.10393
 Alpha virt. eigenvalues --   -0.05448  -0.05392  -0.05097  -0.02964  -0.02757
 Alpha virt. eigenvalues --   -0.02342  -0.01457  -0.01364  -0.00616  -0.00567
 Alpha virt. eigenvalues --    0.00001   0.00339   0.00812   0.00834   0.00841

  Beta  occ. eigenvalues --  -38.43840 -38.43809 -38.43805 -38.43791 -38.43771
  Beta  occ. eigenvalues --  -38.43301 -38.42806  -2.19688  -2.19624  -2.19619
  Beta  occ. eigenvalues --   -2.19613  -2.19607  -2.19084  -2.18788  -1.13404
  Beta  occ. eigenvalues --   -1.13330  -1.13327  -1.13315  -1.13300  -1.13291
  Beta  occ. eigenvalues --   -1.13279  -1.13277  -1.13273  -1.13268  -1.13260
  Beta  occ. eigenvalues --   -1.13254  -1.13249  -1.13248  -1.13225  -1.12814
  Beta  occ. eigenvalues --   -1.12761  -1.12755  -1.12498  -1.12456  -1.12431
  Beta  occ. eigenvalues --   -0.17764  -0.12655  -0.12385
  Beta virt. eigenvalues --   -0.06464  -0.05448  -0.05396  -0.05003  -0.02191
  Beta virt. eigenvalues --   -0.02054  -0.01380  -0.01289  -0.01254  -0.00660
  Beta virt. eigenvalues --   -0.00618   0.00167   0.00383   0.00834   0.00840

 Mulliken charges and spin densities:
               1          2
     1  Na  -0.470852   0.259678
     2  Na   0.121875  -0.021456
     3  Na   0.247409  -0.007017
     4  Na   0.266637   0.003021
     5  Na   0.101478  -0.026670
     6  Na   0.281650   0.000437
     7  Na  -0.548198   0.792007
 Sum of Mulliken charges =  -0.00000   1.00000

 Dipole moment (field-independent basis, Debye):
    X=              0.0269    Y=              0.0236    Z=              0.1302  Tot=              0.1350
 Quadrupole moment (field-independent basis, Debye-Ang):
   XX=            -57.4090   YY=            -58.1279   ZZ=            -76.5393
   XY=             -0.4531   XZ=              0.0278   YZ=              1.4123

 Normal termination of Gaussian 16 at Thu Dec  7 06:28:27 2023.
