 Gaussian 16, Revision B.01,
 Gaussian 16:  ES64L-G16RevB.01 20-Dec-2017

 -------------------------
 #P B3LYP/6-311+g(d) force
 -------------------------

 -----
 DPGEN
 -----
 Symbolic Z-matrix:
 Charge =  0 Multiplicity = 2

                         Standard orientation:
 ---------------------------------------------------------------------
 Center     Atomic      Atomic             Coordinates (Angstroms)
 Number     Number       Type             X           Y           Z
 ---------------------------------------------------------------------
      1         11           0        1.118495   -1.967068   -0.964410
      2         11           0        2.241937    1.879773   -0.364236
      3         11           0       -0.803748    3.221442   -0.463790
      4         11           0       -2.402698   -2.465365   -0.356907
      5         11           0       -3.803569    0.448667    0.504305
      6         11           0       -0.058187   -0.133114    0.933705
      7         11           0        3.707771   -0.984334    0.711333
 ---------------------------------------------------------------------

 SCF Done:  E(UB3LYP) =  -1136.12486372     A.U. after   20 cycles

 The electronic state is 2-A.
 Alpha  occ. eigenvalues --  -38.44574 -38.44096 -38.44058 -38.43828 -38.43557
 Alpha  occ. eigenvalues --  -38.43486 -38.43476  -2.20520  -2.19968  -2.19883
 Alpha  occ. eigenvalues --   -2.19759  -2.19360  -2.19355  -2.19313  -1.14319
 Alpha  occ. eigenvalues --   -1.14160  -1.14133  -1.13661  -1.13649  -1.13587
 Alpha  occ. eigenvalues --   -1.13565  -1.13547  -1.13531  -1.13465  -1.13409
 Alpha  occ. eigenvalues --   -1.13346  -1.13030  -1.13009  -1.13007  -1.13006
 Alpha  occ. eigenvalues --   -1.13001  -1.12970  -1.12968  -1.12945  -1.12935
 Alpha  occ. eigenvalues --   -0.17947  -0.14034  -0.12713  -0.09896
 Alpha virt. eigenvalues --   -0.06171  -0.05825  -0.04828  -0.03191  -0.02615
 Alpha virt. eigenvalues --   -0.02468  -0.01825  -0.01255  -0.00772  -0.00506
 Alpha virt. eigenvalues --   -0.00219   0.00094   0.00514   0.00674   0.00726

  Beta  occ. eigenvalues --  -38.44570 -38.44084 -38.44051 -38.43793 -38.43550
  Beta  occ. eigenvalues --  -38.43415 -38.43409  -2.20514  -2.19952  -2.19877
  Beta  occ. eigenvalues --   -2.19699  -2.19348  -2.19241  -2.19170  -1.14295
  Beta  occ. eigenvalues --   -1.14158  -1.14141  -1.13655  -1.13635  -1.13567
  Beta  occ. eigenvalues --   -1.13549  -1.13546  -1.13476  -1.13427  -1.13366
  Beta  occ. eigenvalues --   -1.13284  -1.13023  -1.13000  -1.12989  -1.12928
  Beta  occ. eigenvalues --   -1.12919  -1.12898  -1.12872  -1.12852  -1.12837
  Beta  occ. eigenvalues --   -0.17559  -0.13328  -0.12317
  Beta virt. eigenvalues --   -0.06495  -0.06039  -0.05754  -0.04468  -0.02660
  Beta virt. eigenvalues --   -0.02336  -0.02151  -0.01471  -0.01034  -0.00648
  Beta virt. eigenvalues --   -0.00339   0.00090   0.00324   0.00657   0.00729

 Mulliken charges and spin densities:
               1          2
     1  Na  -0.286554   0.067552
     2  Na  -0.004207   0.095199
     3  Na  -0.179715  -0.036800
     4  Na  -0.036448   0.032353
     5  Na   0.309383   0.507786
     6  Na  -0.978548  -0.190088
     7  Na   1.176090   0.523997
 Sum of Mulliken charges =  -0.00000   1.00000

 Dipole moment (field-independent basis, Debye):
    X=              0.3851    Y=             -0.2417    Z=             -0.6786  Tot=              0.8168
 Quadrupole moment (field-independent basis, Debye-Ang):
   XX=            -69.6528   YY=            -63.9795   ZZ=            -68.1965
   XY=              0.6514   XZ=              0.6902   YZ=              0.0004

 Normal termination of Gaussian 16 at Tue Dec  5 14:53:37 2023.
