 Gaussian 16, Revision B.01,
 Gaussian 16:  ES64L-G16RevB.01 20-Dec-2017

 -------------------------
 #P B3LYP/6-311+g(d) force
 -------------------------

 -----
 DPGEN
 -----
 Symbolic Z-matrix:
 Charge =  0 Multiplicity = 2

                         Standard orientation:
 ---------------------------------------------------------------------
 Center     Atomic      Atomic             Coordinates (Angstroms)
 Number     Number       Type             X           Y           Z
 ---------------------------------------------------------------------
      1         11           0        1.105110    2.742957    0.181679
      2         11           0        3.094758   -0.138097   -0.486243
      3         11           0       -2.481177   -1.530566    0.187516
      4         11           0        0.694606   -2.415213   -0.156236
      5         11           0       -2.788792    1.651733   -0.190838
      6         11           0        0.560185   -0.234863    1.921559
      7         11           0       -0.184691   -0.075951   -1.457436
 ---------------------------------------------------------------------

 SCF Done:  E(UB3LYP) =  -1136.12932769     A.U. after   19 cycles

 The electronic state is 2-A.
 Alpha  occ. eigenvalues --  -38.44196 -38.43996 -38.43664 -38.43460 -38.43364
 Alpha  occ. eigenvalues --  -38.43172 -38.42988  -2.20071  -2.19822  -2.19575
 Alpha  occ. eigenvalues --   -2.19333  -2.19284  -2.19263  -2.19011  -1.13745
 Alpha  occ. eigenvalues --   -1.13733  -1.13704  -1.13515  -1.13494  -1.13454
 Alpha  occ. eigenvalues --   -1.13292  -1.13228  -1.13205  -1.13132  -1.13046
 Alpha  occ. eigenvalues --   -1.12997  -1.12962  -1.12948  -1.12921  -1.12908
 Alpha  occ. eigenvalues --   -1.12894  -1.12852  -1.12643  -1.12617  -1.12589
 Alpha  occ. eigenvalues --   -0.19264  -0.13491  -0.12346  -0.10739
 Alpha virt. eigenvalues --   -0.05865  -0.05156  -0.04343  -0.03248  -0.02675
 Alpha virt. eigenvalues --   -0.02329  -0.01724  -0.00981  -0.00382  -0.00042
 Alpha virt. eigenvalues --    0.00008   0.00333   0.00802   0.00888   0.00925

  Beta  occ. eigenvalues --  -38.44180 -38.43996 -38.43659 -38.43455 -38.43271
  Beta  occ. eigenvalues --  -38.43114 -38.42971  -2.20045  -2.19823  -2.19569
  Beta  occ. eigenvalues --   -2.19278  -2.19164  -2.19160  -2.18987  -1.13728
  Beta  occ. eigenvalues --   -1.13702  -1.13678  -1.13518  -1.13485  -1.13454
  Beta  occ. eigenvalues --   -1.13284  -1.13215  -1.13187  -1.13077  -1.12969
  Beta  occ. eigenvalues --   -1.12944  -1.12932  -1.12912  -1.12849  -1.12810
  Beta  occ. eigenvalues --   -1.12803  -1.12777  -1.12609  -1.12584  -1.12541
  Beta  occ. eigenvalues --   -0.18525  -0.13242  -0.12081
  Beta virt. eigenvalues --   -0.06763  -0.05802  -0.05142  -0.04326  -0.02494
  Beta virt. eigenvalues --   -0.01917  -0.01647  -0.01254  -0.00913  -0.00390
  Beta virt. eigenvalues --   -0.00088   0.00157   0.00373   0.00855   0.00889

 Mulliken charges and spin densities:
               1          2
     1  Na  -0.105106  -0.067020
     2  Na   0.270867   0.025771
     3  Na   0.240838   0.028959
     4  Na   0.663711   0.151953
     5  Na   0.011831  -0.061152
     6  Na  -0.516679   0.646792
     7  Na  -0.565462   0.274698
 Sum of Mulliken charges =  -0.00000   1.00000

 Dipole moment (field-independent basis, Debye):
    X=              0.0443    Y=              0.3032    Z=              0.1980  Tot=              0.3648
 Quadrupole moment (field-independent basis, Debye-Ang):
   XX=            -53.8120   YY=            -64.5197   ZZ=            -74.4970
   XY=             -0.0718   XZ=             -1.7452   YZ=              0.0368

 Normal termination of Gaussian 16 at Tue Dec  5 20:48:40 2023.
