 Gaussian 16, Revision B.01,
 Gaussian 16:  ES64L-G16RevB.01 20-Dec-2017

 -------------------------
 #P B3LYP/6-311+g(d) force
 -------------------------

 -----
 DPGEN
 -----
 Symbolic Z-matrix:
 Charge =  0 Multiplicity = 2

                         Standard orientation:
 ---------------------------------------------------------------------
 Center     Atomic      Atomic             Coordinates (Angstroms)
 Number     Number       Type             X           Y           Z
 ---------------------------------------------------------------------
      1         11           0       -3.444548   -0.685858    0.394965
      2         11           0        1.929823    2.032684   -0.540451
      3         11           0       -1.322915    2.486772    0.057719
      4         11           0        0.056428   -0.160205    2.024798
      5         11           0       -1.254366   -0.461424   -1.719604
      6         11           0        3.539276   -0.647740    0.103994
      7         11           0        0.496302   -2.564230   -0.321422
 ---------------------------------------------------------------------

 SCF Done:  E(UB3LYP) =  -1136.12665316     A.U. after   21 cycles

 The electronic state is 2-A.
 Alpha  occ. eigenvalues --  -38.45423 -38.44794 -38.43825 -38.43533 -38.43404
 Alpha  occ. eigenvalues --  -38.43334 -38.43140  -2.21231  -2.20593  -2.19697
 Alpha  occ. eigenvalues --   -2.19485  -2.19265  -2.19178  -2.18994  -1.14940
 Alpha  occ. eigenvalues --   -1.14872  -1.14863  -1.14282  -1.14255  -1.14222
 Alpha  occ. eigenvalues --   -1.13374  -1.13335  -1.13306  -1.13208  -1.13137
 Alpha  occ. eigenvalues --   -1.13104  -1.12940  -1.12930  -1.12859  -1.12848
 Alpha  occ. eigenvalues --   -1.12842  -1.12837  -1.12673  -1.12662  -1.12616
 Alpha  occ. eigenvalues --   -0.18359  -0.13518  -0.11993  -0.10708
 Alpha virt. eigenvalues --   -0.06882  -0.05023  -0.04146  -0.03520  -0.02796
 Alpha virt. eigenvalues --   -0.02528  -0.02301  -0.00974  -0.00453  -0.00177
 Alpha virt. eigenvalues --   -0.00067   0.00227   0.00470   0.00792   0.00827

  Beta  occ. eigenvalues --  -38.45421 -38.44796 -38.43731 -38.43472 -38.43392
  Beta  occ. eigenvalues --  -38.43325 -38.43135  -2.21229  -2.20600  -2.19525
  Beta  occ. eigenvalues --   -2.19372  -2.19246  -2.19163  -2.18988  -1.14929
  Beta  occ. eigenvalues --   -1.14866  -1.14855  -1.14286  -1.14252  -1.14226
  Beta  occ. eigenvalues --   -1.13261  -1.13214  -1.13181  -1.13139  -1.13060
  Beta  occ. eigenvalues --   -1.13024  -1.12921  -1.12883  -1.12847  -1.12841
  Beta  occ. eigenvalues --   -1.12833  -1.12813  -1.12671  -1.12633  -1.12613
  Beta  occ. eigenvalues --   -0.17650  -0.13358  -0.11743
  Beta virt. eigenvalues --   -0.06846  -0.06762  -0.05003  -0.04012  -0.02895
  Beta virt. eigenvalues --   -0.02285  -0.01951  -0.01513  -0.00945  -0.00431
  Beta virt. eigenvalues --   -0.00085   0.00014   0.00273   0.00634   0.00836

 Mulliken charges and spin densities:
               1          2
     1  Na   0.271063  -0.087209
     2  Na  -0.198570  -0.002448
     3  Na  -0.008459   0.030590
     4  Na  -0.380179   0.712792
     5  Na   0.148592   0.446079
     6  Na   0.130187  -0.034970
     7  Na   0.037366  -0.064834
 Sum of Mulliken charges =  -0.00000   1.00000

 Dipole moment (field-independent basis, Debye):
    X=             -0.3536    Y=             -0.3663    Z=              0.3472  Tot=              0.6162
 Quadrupole moment (field-independent basis, Debye-Ang):
   XX=            -48.4907   YY=            -71.1652   ZZ=            -73.9670
   XY=             -0.6964   XZ=             -2.0210   YZ=             -0.7843

 Normal termination of Gaussian 16 at Tue Dec  5 16:12:45 2023.
