 Gaussian 16, Revision B.01,
 Gaussian 16:  ES64L-G16RevB.01 20-Dec-2017

 -------------------------
 #P B3LYP/6-311+g(d) force
 -------------------------

 -----
 DPGEN
 -----
 Symbolic Z-matrix:
 Charge =  0 Multiplicity = 2

                         Standard orientation:
 ---------------------------------------------------------------------
 Center     Atomic      Atomic             Coordinates (Angstroms)
 Number     Number       Type             X           Y           Z
 ---------------------------------------------------------------------
      1         11           0        0.258128    2.824550   -0.206218
      2         11           0       -5.784829   -0.736734    0.949289
      3         11           0       -2.611952    1.399685    0.089521
      4         11           0       -3.380197   -1.879781   -1.276744
      5         11           0        0.464563   -0.025144   -0.178574
      6         11           0        4.368326   -1.252838    1.129460
      7         11           0        6.685962   -0.329737   -0.506734
 ---------------------------------------------------------------------

 SCF Done:  E(UB3LYP) =  -1136.10892378     A.U. after   19 cycles

 The electronic state is 2-A.
 Alpha  occ. eigenvalues --  -38.44441 -38.44371 -38.44326 -38.44285 -38.44143
 Alpha  occ. eigenvalues --  -38.44087 -38.44086  -2.20234  -2.20214  -2.20129
 Alpha  occ. eigenvalues --   -2.20081  -2.20047  -2.19972  -2.19888  -1.13944
 Alpha  occ. eigenvalues --   -1.13937  -1.13910  -1.13884  -1.13879  -1.13865
 Alpha  occ. eigenvalues --   -1.13851  -1.13834  -1.13775  -1.13773  -1.13761
 Alpha  occ. eigenvalues --   -1.13737  -1.13685  -1.13678  -1.13656  -1.13619
 Alpha  occ. eigenvalues --   -1.13591  -1.13542  -1.13533  -1.13509  -1.13503
 Alpha  occ. eigenvalues --   -0.16653  -0.13738  -0.12788  -0.09989
 Alpha virt. eigenvalues --   -0.06843  -0.05597  -0.04692  -0.03654  -0.02856
 Alpha virt. eigenvalues --   -0.02501  -0.01958  -0.01913  -0.01316  -0.00986
 Alpha virt. eigenvalues --   -0.00391  -0.00131   0.00335   0.00411   0.00522

  Beta  occ. eigenvalues --  -38.44421 -38.44341 -38.44313 -38.44246 -38.44122
  Beta  occ. eigenvalues --  -38.44088 -38.44051  -2.20183  -2.20175  -2.20105
  Beta  occ. eigenvalues --   -2.20009  -2.20006  -2.19905  -2.19893  -1.13909
  Beta  occ. eigenvalues --   -1.13896  -1.13857  -1.13856  -1.13853  -1.13846
  Beta  occ. eigenvalues --   -1.13820  -1.13799  -1.13758  -1.13756  -1.13713
  Beta  occ. eigenvalues --   -1.13687  -1.13651  -1.13625  -1.13618  -1.13576
  Beta  occ. eigenvalues --   -1.13547  -1.13544  -1.13535  -1.13501  -1.13456
  Beta  occ. eigenvalues --   -0.16078  -0.13587  -0.12590
  Beta virt. eigenvalues --   -0.06712  -0.06233  -0.05310  -0.04267  -0.03433
  Beta virt. eigenvalues --   -0.02700  -0.02254  -0.01853  -0.01479  -0.01168
  Beta virt. eigenvalues --   -0.00678  -0.00070   0.00099   0.00443   0.00563

 Mulliken charges and spin densities:
               1          2
     1  Na   0.690001   0.192852
     2  Na   0.568902   0.083194
     3  Na  -0.334649   0.206601
     4  Na   0.155708   0.121372
     5  Na  -1.013982   0.364637
     6  Na  -0.195282  -0.024431
     7  Na   0.129302   0.055776
 Sum of Mulliken charges =  -0.00000   1.00000

 Dipole moment (field-independent basis, Debye):
    X=             -0.1401    Y=              0.3602    Z=             -0.1213  Tot=              0.4050
 Quadrupole moment (field-independent basis, Debye-Ang):
   XX=            -56.8848   YY=            -69.4323   ZZ=            -68.4328
   XY=              8.1250   XZ=             -6.4113   YZ=             -2.4254

 Normal termination of Gaussian 16 at Wed Nov 29 02:24:58 2023.
