 Gaussian 16, Revision B.01,
 Gaussian 16:  ES64L-G16RevB.01 20-Dec-2017

 -------------------------
 #P B3LYP/6-311+g(d) force
 -------------------------

 -----
 DPGEN
 -----
 Symbolic Z-matrix:
 Charge =  0 Multiplicity = 2

                         Standard orientation:
 ---------------------------------------------------------------------
 Center     Atomic      Atomic             Coordinates (Angstroms)
 Number     Number       Type             X           Y           Z
 ---------------------------------------------------------------------
      1         11           0       -0.757355    0.779657   -1.300235
      2         11           0        3.568090   -1.836031   -0.215489
      3         11           0       -3.690707   -0.277058   -0.731989
      4         11           0       -0.083325   -2.513996   -0.788397
      5         11           0       -2.227862   -0.722400    2.334824
      6         11           0        2.648869    0.864912    0.872628
      7         11           0        0.542289    3.704916   -0.171342
 ---------------------------------------------------------------------

 SCF Done:  E(UB3LYP) =  -1136.11811294     A.U. after   21 cycles

 The electronic state is 2-A.
 Alpha  occ. eigenvalues --  -38.45428 -38.44777 -38.44504 -38.44102 -38.44036
 Alpha  occ. eigenvalues --  -38.43374 -38.43127  -2.21235  -2.20561  -2.20315
 Alpha  occ. eigenvalues --   -2.19924  -2.19845  -2.19276  -2.18913  -1.14934
 Alpha  occ. eigenvalues --   -1.14894  -1.14867  -1.14263  -1.14237  -1.14147
 Alpha  occ. eigenvalues --   -1.13957  -1.13951  -1.13922  -1.13684  -1.13600
 Alpha  occ. eigenvalues --   -1.13571  -1.13498  -1.13469  -1.13445  -1.12969
 Alpha  occ. eigenvalues --   -1.12945  -1.12890  -1.12581  -1.12576  -1.12552
 Alpha  occ. eigenvalues --   -0.17222  -0.13731  -0.11887  -0.10752
 Alpha virt. eigenvalues --   -0.07001  -0.05138  -0.04808  -0.03458  -0.02841
 Alpha virt. eigenvalues --   -0.02510  -0.02213  -0.01195  -0.00856  -0.00492
 Alpha virt. eigenvalues --   -0.00316   0.00119   0.00147   0.00594   0.00716

  Beta  occ. eigenvalues --  -38.45430 -38.44742 -38.44396 -38.44086 -38.44038
  Beta  occ. eigenvalues --  -38.43331 -38.43132  -2.21245  -2.20498  -2.20115
  Beta  occ. eigenvalues --   -2.19895  -2.19850  -2.19198  -2.18924  -1.14939
  Beta  occ. eigenvalues --   -1.14879  -1.14863  -1.14216  -1.14184  -1.14107
  Beta  occ. eigenvalues --   -1.13818  -1.13812  -1.13790  -1.13673  -1.13580
  Beta  occ. eigenvalues --   -1.13551  -1.13502  -1.13467  -1.13438  -1.12916
  Beta  occ. eigenvalues --   -1.12894  -1.12825  -1.12587  -1.12580  -1.12560
  Beta  occ. eigenvalues --   -0.16608  -0.13403  -0.11806
  Beta virt. eigenvalues --   -0.07062  -0.06610  -0.04933  -0.04571  -0.03038
  Beta virt. eigenvalues --   -0.02492  -0.02027  -0.01738  -0.01134  -0.00665
  Beta virt. eigenvalues --   -0.00419  -0.00032   0.00228   0.00343   0.00641

 Mulliken charges and spin densities:
               1          2
     1  Na  -0.180920   0.248717
     2  Na   0.180940  -0.047415
     3  Na   0.362509   0.070378
     4  Na  -0.087625   0.113888
     5  Na  -0.320879   0.556274
     6  Na  -0.344183   0.143392
     7  Na   0.390158  -0.085234
 Sum of Mulliken charges =  -0.00000   1.00000

 Dipole moment (field-independent basis, Debye):
    X=             -0.8201    Y=             -0.6788    Z=             -0.2787  Tot=              1.1005
 Quadrupole moment (field-independent basis, Debye-Ang):
   XX=            -56.6977   YY=            -66.8391   ZZ=            -73.1317
   XY=             -1.8360   XZ=              4.8214   YZ=              1.9137

 Normal termination of Gaussian 16 at Sun Dec  3 18:30:43 2023.
