 Gaussian 16, Revision B.01,
 Gaussian 16:  ES64L-G16RevB.01 20-Dec-2017

 -------------------------
 #P B3LYP/6-311+g(d) force
 -------------------------

 -----
 DPGEN
 -----
 Symbolic Z-matrix:
 Charge =  0 Multiplicity = 2

                         Standard orientation:
 ---------------------------------------------------------------------
 Center     Atomic      Atomic             Coordinates (Angstroms)
 Number     Number       Type             X           Y           Z
 ---------------------------------------------------------------------
      1         11           0       -3.866495   -0.571131   -0.163202
      2         11           0        2.700673   -1.159556   -1.301510
      3         11           0       -1.038386    0.464221   -1.685700
      4         11           0       -1.179131    0.571187    1.711126
      5         11           0        0.682634    2.378340   -0.540540
      6         11           0        2.350553    0.522219    1.413176
      7         11           0        0.350152   -2.205280    0.566649
 ---------------------------------------------------------------------

 SCF Done:  E(UB3LYP) =  -1136.12290289     A.U. after   23 cycles

 The electronic state is 2-A.
 Alpha  occ. eigenvalues --  -38.44830 -38.44206 -38.43984 -38.43948 -38.43831
 Alpha  occ. eigenvalues --  -38.43264 -38.42339  -2.20620  -2.20129  -2.19912
 Alpha  occ. eigenvalues --   -2.19852  -2.19768  -2.19141  -2.18292  -1.14302
 Alpha  occ. eigenvalues --   -1.14278  -1.14251  -1.13820  -1.13804  -1.13751
 Alpha  occ. eigenvalues --   -1.13667  -1.13553  -1.13525  -1.13515  -1.13503
 Alpha  occ. eigenvalues --   -1.13470  -1.13468  -1.13405  -1.13363  -1.12837
 Alpha  occ. eigenvalues --   -1.12821  -1.12742  -1.12015  -1.11930  -1.11894
 Alpha  occ. eigenvalues --   -0.18979  -0.13600  -0.11697  -0.11469
 Alpha virt. eigenvalues --   -0.06618  -0.04729  -0.03785  -0.03431  -0.03026
 Alpha virt. eigenvalues --   -0.02761  -0.02246  -0.00911  -0.00360   0.00107
 Alpha virt. eigenvalues --    0.00218   0.00291   0.00387   0.00828   0.00877

  Beta  occ. eigenvalues --  -38.44831 -38.44175 -38.43953 -38.43891 -38.43770
  Beta  occ. eigenvalues --  -38.43251 -38.42328  -2.20623  -2.20075  -2.19808
  Beta  occ. eigenvalues --   -2.19796  -2.19659  -2.19122  -2.18277  -1.14295
  Beta  occ. eigenvalues --   -1.14282  -1.14254  -1.13781  -1.13745  -1.13719
  Beta  occ. eigenvalues --   -1.13599  -1.13482  -1.13476  -1.13468  -1.13437
  Beta  occ. eigenvalues --   -1.13425  -1.13393  -1.13323  -1.13277  -1.12827
  Beta  occ. eigenvalues --   -1.12773  -1.12736  -1.11995  -1.11916  -1.11868
  Beta  occ. eigenvalues --   -0.18178  -0.13468  -0.11235
  Beta virt. eigenvalues --   -0.07664  -0.06488  -0.04205  -0.03577  -0.03357
  Beta virt. eigenvalues --   -0.02318  -0.02118  -0.01836  -0.00571  -0.00259
  Beta virt. eigenvalues --    0.00187   0.00257   0.00316   0.00486   0.00906

 Mulliken charges and spin densities:
               1          2
     1  Na   0.248433  -0.088231
     2  Na   0.058927   0.105139
     3  Na  -0.160946   0.404218
     4  Na  -0.063296   0.330616
     5  Na  -0.078002   0.070191
     6  Na   0.400813   0.176295
     7  Na  -0.405930   0.001773
 Sum of Mulliken charges =  -0.00000   1.00000

 Dipole moment (field-independent basis, Debye):
    X=             -0.6000    Y=             -0.2234    Z=              0.0776  Tot=              0.6449
 Quadrupole moment (field-independent basis, Debye-Ang):
   XX=            -51.1022   YY=            -76.6566   ZZ=            -66.4306
   XY=              2.5596   XZ=             -0.3388   YZ=              1.7066

 Normal termination of Gaussian 16 at Wed Dec  6 00:45:10 2023.
