 Gaussian 16, Revision B.01,
 Gaussian 16:  ES64L-G16RevB.01 20-Dec-2017

 -------------------------
 #P B3LYP/6-311+g(d) force
 -------------------------

 -----
 DPGEN
 -----
 Symbolic Z-matrix:
 Charge =  0 Multiplicity = 2

                         Standard orientation:
 ---------------------------------------------------------------------
 Center     Atomic      Atomic             Coordinates (Angstroms)
 Number     Number       Type             X           Y           Z
 ---------------------------------------------------------------------
      1         11           0       -1.105505    1.018562    2.051808
      2         11           0        0.675033   -1.694452    1.848634
      3         11           0       -0.104392   -1.762587   -1.944437
      4         11           0       -3.052760   -1.142241   -0.214082
      5         11           0       -1.614022    2.180693   -1.145441
      6         11           0        2.004725    1.977217   -0.186217
      7         11           0        3.196922   -0.577192   -0.410265
 ---------------------------------------------------------------------

 SCF Done:  E(UB3LYP) =  -1136.12478669     A.U. after   21 cycles

 The electronic state is 2-A.
 Alpha  occ. eigenvalues --  -38.44400 -38.44344 -38.44174 -38.44165 -38.43949
 Alpha  occ. eigenvalues --  -38.43764 -38.43529  -2.20240  -2.20137  -2.20031
 Alpha  occ. eigenvalues --   -2.19969  -2.19822  -2.19569  -2.19384  -1.13952
 Alpha  occ. eigenvalues --   -1.13865  -1.13859  -1.13819  -1.13796  -1.13780
 Alpha  occ. eigenvalues --   -1.13705  -1.13663  -1.13648  -1.13645  -1.13638
 Alpha  occ. eigenvalues --   -1.13615  -1.13593  -1.13462  -1.13430  -1.13244
 Alpha  occ. eigenvalues --   -1.13225  -1.13197  -1.13038  -1.13024  -1.12995
 Alpha  occ. eigenvalues --   -0.17946  -0.13210  -0.12036  -0.11608
 Alpha virt. eigenvalues --   -0.05926  -0.05035  -0.04557  -0.03602  -0.03485
 Alpha virt. eigenvalues --   -0.03139  -0.01482  -0.00672  -0.00509  -0.00202
 Alpha virt. eigenvalues --    0.00026   0.00356   0.00452   0.00609   0.00846

  Beta  occ. eigenvalues --  -38.44342 -38.44331 -38.44131 -38.44100 -38.43946
  Beta  occ. eigenvalues --  -38.43745 -38.43525  -2.20136  -2.20115  -2.19916
  Beta  occ. eigenvalues --   -2.19889  -2.19817  -2.19534  -2.19376  -1.13853
  Beta  occ. eigenvalues --   -1.13803  -1.13793  -1.13783  -1.13780  -1.13767
  Beta  occ. eigenvalues --   -1.13641  -1.13623  -1.13589  -1.13581  -1.13564
  Beta  occ. eigenvalues --   -1.13551  -1.13534  -1.13447  -1.13428  -1.13214
  Beta  occ. eigenvalues --   -1.13203  -1.13171  -1.13028  -1.13014  -1.12991
  Beta  occ. eigenvalues --   -0.17181  -0.13042  -0.11434
  Beta virt. eigenvalues --   -0.08016  -0.05781  -0.04873  -0.04003  -0.03301
  Beta virt. eigenvalues --   -0.02901  -0.02263  -0.01411  -0.00640  -0.00242
  Beta virt. eigenvalues --   -0.00070   0.00060   0.00465   0.00518   0.00778

 Mulliken charges and spin densities:
               1          2
     1  Na   0.060324   0.360417
     2  Na   0.007653   0.112094
     3  Na  -0.269016   0.272601
     4  Na   0.172650  -0.013528
     5  Na  -0.059164   0.180000
     6  Na  -0.270743   0.017432
     7  Na   0.358297   0.070983
 Sum of Mulliken charges =  -0.00000   1.00000

 Dipole moment (field-independent basis, Debye):
    X=             -0.4788    Y=             -0.4090    Z=             -0.0980  Tot=              0.6373
 Quadrupole moment (field-independent basis, Debye-Ang):
   XX=            -60.0881   YY=            -73.2519   ZZ=            -65.2391
   XY=             -1.1603   XZ=             -0.2043   YZ=             -1.5724

 Normal termination of Gaussian 16 at Mon Dec  4 05:26:32 2023.
