 Gaussian 16, Revision B.01,
 Gaussian 16:  ES64L-G16RevB.01 20-Dec-2017

 -------------------------
 #P B3LYP/6-311+g(d) force
 -------------------------

 -----
 DPGEN
 -----
 Symbolic Z-matrix:
 Charge =  0 Multiplicity = 2

                         Standard orientation:
 ---------------------------------------------------------------------
 Center     Atomic      Atomic             Coordinates (Angstroms)
 Number     Number       Type             X           Y           Z
 ---------------------------------------------------------------------
      1         11           0       -1.964611   -2.487913    0.537867
      2         11           0        0.984364    2.098632   -0.966863
      3         11           0        0.547023    0.084576    2.076124
      4         11           0       -2.726581    0.030900   -1.125667
      5         11           0       -1.689922    2.496254    0.514120
      6         11           0        1.006925   -2.060488   -0.935120
      7         11           0        3.842801   -0.161961   -0.100460
 ---------------------------------------------------------------------

 SCF Done:  E(UB3LYP) =  -1136.12955016     A.U. after   20 cycles

 The electronic state is 2-A.
 Alpha  occ. eigenvalues --  -38.44502 -38.44123 -38.44094 -38.44091 -38.43655
 Alpha  occ. eigenvalues --  -38.43514 -38.43414  -2.20286  -2.19963  -2.19959
 Alpha  occ. eigenvalues --   -2.19910  -2.19512  -2.19365  -2.19304  -1.13953
 Alpha  occ. eigenvalues --   -1.13950  -1.13920  -1.13662  -1.13645  -1.13637
 Alpha  occ. eigenvalues --   -1.13625  -1.13607  -1.13598  -1.13595  -1.13587
 Alpha  occ. eigenvalues --   -1.13525  -1.13172  -1.13136  -1.13134  -1.13037
 Alpha  occ. eigenvalues --   -1.13016  -1.13003  -1.12967  -1.12966  -1.12934
 Alpha  occ. eigenvalues --   -0.17999  -0.13311  -0.12574  -0.10545
 Alpha virt. eigenvalues --   -0.06214  -0.05349  -0.04586  -0.03432  -0.03163
 Alpha virt. eigenvalues --   -0.02466  -0.01965  -0.01084  -0.00456  -0.00328
 Alpha virt. eigenvalues --   -0.00062   0.00302   0.00598   0.00731   0.00800

  Beta  occ. eigenvalues --  -38.44496 -38.44111 -38.44081 -38.44064 -38.43551
  Beta  occ. eigenvalues --  -38.43510 -38.43408  -2.20275  -2.19941  -2.19906
  Beta  occ. eigenvalues --   -2.19892  -2.19362  -2.19320  -2.19297  -1.13945
  Beta  occ. eigenvalues --   -1.13933  -1.13915  -1.13645  -1.13613  -1.13606
  Beta  occ. eigenvalues --   -1.13591  -1.13585  -1.13574  -1.13567  -1.13566
  Beta  occ. eigenvalues --   -1.13515  -1.13046  -1.13034  -1.13016  -1.13000
  Beta  occ. eigenvalues --   -1.12999  -1.12978  -1.12967  -1.12961  -1.12897
  Beta  occ. eigenvalues --   -0.17345  -0.13050  -0.12400
  Beta virt. eigenvalues --   -0.06801  -0.06070  -0.05269  -0.04432  -0.02854
  Beta virt. eigenvalues --   -0.02441  -0.01926  -0.01484  -0.01032  -0.00423
  Beta virt. eigenvalues --   -0.00218   0.00107   0.00382   0.00685   0.00814

 Mulliken charges and spin densities:
               1          2
     1  Na   0.319123   0.081135
     2  Na  -0.333974   0.101919
     3  Na  -0.477383   0.496756
     4  Na  -0.079070   0.022058
     5  Na   0.496779   0.176494
     6  Na  -0.369820   0.119424
     7  Na   0.444344   0.002215
 Sum of Mulliken charges =  -0.00000   1.00000

 Dipole moment (field-independent basis, Debye):
    X=              0.6932    Y=             -0.0439    Z=             -0.0488  Tot=              0.6963
 Quadrupole moment (field-independent basis, Debye-Ang):
   XX=            -56.2875   YY=            -67.8049   ZZ=            -72.2003
   XY=              0.1801   XZ=             -0.6942   YZ=             -0.3547

 Normal termination of Gaussian 16 at Thu Dec  7 01:51:42 2023.
