 Gaussian 16, Revision B.01,
 Gaussian 16:  ES64L-G16RevB.01 20-Dec-2017

 -------------------------
 #P B3LYP/6-311+g(d) force
 -------------------------

 -----
 DPGEN
 -----
 Symbolic Z-matrix:
 Charge =  0 Multiplicity = 2

                         Standard orientation:
 ---------------------------------------------------------------------
 Center     Atomic      Atomic             Coordinates (Angstroms)
 Number     Number       Type             X           Y           Z
 ---------------------------------------------------------------------
      1         11           0       -3.628114   -0.146734    0.306860
      2         11           0        0.359266    0.370184    1.665345
      3         11           0       -1.337436    2.253686   -0.390635
      4         11           0       -0.568124   -2.650071    0.115132
      5         11           0        2.241581    2.312225   -0.146321
      6         11           0        2.971496   -1.469201    0.108305
      7         11           0       -0.038669   -0.670089   -1.658686
 ---------------------------------------------------------------------

 SCF Done:  E(UB3LYP) =  -1136.12713513     A.U. after   20 cycles

 The electronic state is 2-A.
 Alpha  occ. eigenvalues --  -38.44684 -38.44580 -38.43748 -38.43733 -38.43267
 Alpha  occ. eigenvalues --  -38.43239 -38.43236  -2.20458  -2.20382  -2.19646
 Alpha  occ. eigenvalues --   -2.19573  -2.19234  -2.19196  -2.19152  -1.14132
 Alpha  occ. eigenvalues --   -1.14122  -1.14088  -1.14062  -1.14040  -1.14014
 Alpha  occ. eigenvalues --   -1.13595  -1.13288  -1.13264  -1.13228  -1.13213
 Alpha  occ. eigenvalues --   -1.13207  -1.12939  -1.12875  -1.12855  -1.12841
 Alpha  occ. eigenvalues --   -1.12816  -1.12812  -1.12786  -1.12785  -1.12758
 Alpha  occ. eigenvalues --   -0.18635  -0.13064  -0.12494  -0.10193
 Alpha virt. eigenvalues --   -0.06361  -0.05349  -0.04362  -0.03025  -0.02814
 Alpha virt. eigenvalues --   -0.02167  -0.01956  -0.01342  -0.00469  -0.00181
 Alpha virt. eigenvalues --   -0.00031   0.00269   0.00730   0.00783   0.00876

  Beta  occ. eigenvalues --  -38.44678 -38.44575 -38.43745 -38.43723 -38.43253
  Beta  occ. eigenvalues --  -38.43177 -38.43159  -2.20450  -2.20376  -2.19632
  Beta  occ. eigenvalues --   -2.19572  -2.19131  -2.19096  -2.19082  -1.14126
  Beta  occ. eigenvalues --   -1.14106  -1.14083  -1.14042  -1.14034  -1.14011
  Beta  occ. eigenvalues --   -1.13559  -1.13258  -1.13254  -1.13222  -1.13206
  Beta  occ. eigenvalues --   -1.13203  -1.12887  -1.12806  -1.12797  -1.12763
  Beta  occ. eigenvalues --   -1.12750  -1.12730  -1.12727  -1.12716  -1.12696
  Beta  occ. eigenvalues --   -0.17938  -0.12847  -0.12239
  Beta virt. eigenvalues --   -0.06463  -0.06186  -0.05328  -0.04309  -0.02394
  Beta virt. eigenvalues --   -0.02074  -0.01978  -0.01293  -0.01006  -0.00509
  Beta virt. eigenvalues --   -0.00188   0.00120   0.00311   0.00766   0.00808

 Mulliken charges and spin densities:
               1          2
     1  Na  -0.078284   0.031171
     2  Na  -0.325256   0.761393
     3  Na   0.109149  -0.006684
     4  Na   0.243703  -0.058007
     5  Na   0.094470  -0.111742
     6  Na   0.098142  -0.134755
     7  Na  -0.141924   0.518624
 Sum of Mulliken charges =  -0.00000   1.00000

 Dipole moment (field-independent basis, Debye):
    X=              0.2033    Y=             -0.1616    Z=              0.0667  Tot=              0.2681
 Quadrupole moment (field-independent basis, Debye-Ang):
   XX=            -49.3726   YY=            -64.8422   ZZ=            -76.7581
   XY=              0.2728   XZ=             -1.3835   YZ=             -2.3269

 Normal termination of Gaussian 16 at Tue Dec  5 17:49:03 2023.
