 Gaussian 16, Revision B.01,
 Gaussian 16:  ES64L-G16RevB.01 20-Dec-2017

 -------------------------
 #P B3LYP/6-311+g(d) force
 -------------------------

 -----
 DPGEN
 -----
 Symbolic Z-matrix:
 Charge =  0 Multiplicity = 2

                         Standard orientation:
 ---------------------------------------------------------------------
 Center     Atomic      Atomic             Coordinates (Angstroms)
 Number     Number       Type             X           Y           Z
 ---------------------------------------------------------------------
      1         11           0       -0.240415    0.279942   -1.341238
      2         11           0        0.174992    3.198719   -0.333337
      3         11           0       -3.052430    0.942356    0.348257
      4         11           0       -2.263338   -2.332908   -0.453581
      5         11           0        3.058857    0.718182    0.095894
      6         11           0        2.144415   -2.335959   -0.417313
      7         11           0        0.177920   -0.470333    2.101319
 ---------------------------------------------------------------------

 SCF Done:  E(UB3LYP) =  -1136.13323292     A.U. after   19 cycles

 The electronic state is 2-A.
 Alpha  occ. eigenvalues --  -38.44519 -38.44248 -38.43916 -38.43850 -38.43587
 Alpha  occ. eigenvalues --  -38.43252 -38.42924  -2.20333  -2.20081  -2.19725
 Alpha  occ. eigenvalues --   -2.19676  -2.19442  -2.19072  -2.18915  -1.14014
 Alpha  occ. eigenvalues --   -1.13997  -1.13961  -1.13766  -1.13749  -1.13718
 Alpha  occ. eigenvalues --   -1.13404  -1.13376  -1.13365  -1.13344  -1.13327
 Alpha  occ. eigenvalues --   -1.13320  -1.13114  -1.13071  -1.13048  -1.12811
 Alpha  occ. eigenvalues --   -1.12723  -1.12701  -1.12610  -1.12546  -1.12530
 Alpha  occ. eigenvalues --   -0.18212  -0.13294  -0.12114  -0.10331
 Alpha virt. eigenvalues --   -0.05885  -0.05548  -0.04776  -0.03273  -0.02571
 Alpha virt. eigenvalues --   -0.02253  -0.01745  -0.01316  -0.00681  -0.00632
 Alpha virt. eigenvalues --   -0.00009   0.00328   0.00746   0.00781   0.00813

  Beta  occ. eigenvalues --  -38.44514 -38.44245 -38.43906 -38.43843 -38.43487
  Beta  occ. eigenvalues --  -38.43249 -38.42881  -2.20326  -2.20078  -2.19709
  Beta  occ. eigenvalues --   -2.19665  -2.19258  -2.19069  -2.18838  -1.14007
  Beta  occ. eigenvalues --   -1.13976  -1.13962  -1.13763  -1.13733  -1.13714
  Beta  occ. eigenvalues --   -1.13385  -1.13361  -1.13353  -1.13333  -1.13316
  Beta  occ. eigenvalues --   -1.13303  -1.12990  -1.12943  -1.12916  -1.12798
  Beta  occ. eigenvalues --   -1.12712  -1.12700  -1.12546  -1.12492  -1.12475
  Beta  occ. eigenvalues --   -0.17533  -0.13112  -0.11893
  Beta virt. eigenvalues --   -0.06478  -0.05776  -0.05514  -0.04710  -0.02534
  Beta virt. eigenvalues --   -0.01929  -0.01645  -0.01261  -0.01212  -0.00718
  Beta virt. eigenvalues --   -0.00608   0.00159   0.00376   0.00794   0.00810

 Mulliken charges and spin densities:
               1          2
     1  Na  -0.196255   0.255039
     2  Na   0.139167  -0.007763
     3  Na   0.148226   0.075351
     4  Na   0.053803  -0.027165
     5  Na   0.239768   0.049336
     6  Na   0.021730  -0.014314
     7  Na  -0.406440   0.669515
 Sum of Mulliken charges =  -0.00000   1.00000

 Dipole moment (field-independent basis, Debye):
    X=             -0.1668    Y=             -0.1426    Z=              0.2140  Tot=              0.3065
 Quadrupole moment (field-independent basis, Debye-Ang):
   XX=            -54.1349   YY=            -61.3770   ZZ=            -76.7604
   XY=             -0.1104   XZ=             -0.9726   YZ=              2.1775

 Normal termination of Gaussian 16 at Thu Dec  7 07:50:52 2023.
