 Gaussian 16, Revision B.01,
 Gaussian 16:  ES64L-G16RevB.01 20-Dec-2017

 -------------------------
 #P B3LYP/6-311+g(d) force
 -------------------------

 -----
 DPGEN
 -----
 Symbolic Z-matrix:
 Charge =  0 Multiplicity = 2

                         Standard orientation:
 ---------------------------------------------------------------------
 Center     Atomic      Atomic             Coordinates (Angstroms)
 Number     Number       Type             X           Y           Z
 ---------------------------------------------------------------------
      1         11           0       -2.285720    2.135552   -0.500167
      2         11           0       -0.331926   -0.102057    1.927477
      3         11           0       -3.270159   -1.197027    0.267005
      4         11           0        2.179950    2.234180    0.626042
      5         11           0        0.403013   -2.567313   -0.273233
      6         11           0        0.068431    0.402090   -1.812006
      7         11           0        3.236411   -0.905425   -0.235118
 ---------------------------------------------------------------------

 SCF Done:  E(UB3LYP) =  -1136.13122785     A.U. after   21 cycles

 The electronic state is 2-A.
 Alpha  occ. eigenvalues --  -38.44722 -38.44479 -38.43960 -38.43787 -38.43670
 Alpha  occ. eigenvalues --  -38.43563 -38.42731  -2.20509  -2.20305  -2.19837
 Alpha  occ. eigenvalues --   -2.19615  -2.19580  -2.19374  -2.18609  -1.14186
 Alpha  occ. eigenvalues --   -1.14157  -1.14150  -1.13974  -1.13966  -1.13954
 Alpha  occ. eigenvalues --   -1.13521  -1.13476  -1.13447  -1.13352  -1.13269
 Alpha  occ. eigenvalues --   -1.13251  -1.13243  -1.13205  -1.13179  -1.13041
 Alpha  occ. eigenvalues --   -1.13031  -1.13014  -1.12304  -1.12283  -1.12226
 Alpha  occ. eigenvalues --   -0.18288  -0.13444  -0.11756  -0.10886
 Alpha virt. eigenvalues --   -0.06342  -0.05476  -0.04030  -0.03382  -0.02834
 Alpha virt. eigenvalues --   -0.02548  -0.02099  -0.01312  -0.00448  -0.00143
 Alpha virt. eigenvalues --   -0.00089   0.00283   0.00639   0.00718   0.00802

  Beta  occ. eigenvalues --  -38.44717 -38.44477 -38.43885 -38.43772 -38.43597
  Beta  occ. eigenvalues --  -38.43546 -38.42723  -2.20502  -2.20305  -2.19698
  Beta  occ. eigenvalues --   -2.19590  -2.19448  -2.19345  -2.18598  -1.14170
  Beta  occ. eigenvalues --   -1.14152  -1.14147  -1.13975  -1.13960  -1.13944
  Beta  occ. eigenvalues --   -1.13428  -1.13385  -1.13340  -1.13309  -1.13236
  Beta  occ. eigenvalues --   -1.13231  -1.13168  -1.13118  -1.13089  -1.13015
  Beta  occ. eigenvalues --   -1.13008  -1.12992  -1.12300  -1.12260  -1.12209
  Beta  occ. eigenvalues --   -0.17591  -0.13213  -0.11450
  Beta virt. eigenvalues --   -0.07085  -0.06232  -0.05414  -0.03901  -0.02768
  Beta virt. eigenvalues --   -0.02086  -0.01998  -0.01585  -0.01201  -0.00450
  Beta virt. eigenvalues --   -0.00159   0.00046   0.00317   0.00731   0.00802

 Mulliken charges and spin densities:
               1          2
     1  Na   0.064974  -0.037677
     2  Na  -0.247372   0.621377
     3  Na   0.114361  -0.017753
     4  Na   0.023854   0.063884
     5  Na  -0.019571  -0.015763
     6  Na  -0.036695   0.436314
     7  Na   0.100449  -0.050382
 Sum of Mulliken charges =  -0.00000   1.00000

 Dipole moment (field-independent basis, Debye):
    X=             -0.2978    Y=             -0.0600    Z=              0.0866  Tot=              0.3159
 Quadrupole moment (field-independent basis, Debye-Ang):
   XX=            -50.6890   YY=            -69.0992   ZZ=            -73.7314
   XY=              0.4005   XZ=             -0.1296   YZ=              1.0932

 Normal termination of Gaussian 16 at Fri Dec  8 01:53:49 2023.
