 Gaussian 16, Revision B.01,
 Gaussian 16:  ES64L-G16RevB.01 20-Dec-2017

 -------------------------
 #P B3LYP/6-311+g(d) force
 -------------------------

 -----
 DPGEN
 -----
 Symbolic Z-matrix:
 Charge =  0 Multiplicity = 2

                         Standard orientation:
 ---------------------------------------------------------------------
 Center     Atomic      Atomic             Coordinates (Angstroms)
 Number     Number       Type             X           Y           Z
 ---------------------------------------------------------------------
      1         11           0       -2.140702   -1.992742   -0.325846
      2         11           0        0.344257    3.016827   -0.413143
      3         11           0       -0.359832    0.074092    2.297866
      4         11           0        3.550543    0.320812    0.322448
      5         11           0        1.559893   -2.534819   -0.323743
      6         11           0       -3.187187    0.796090    0.001570
      7         11           0        0.233026    0.319741   -1.559153
 ---------------------------------------------------------------------

 SCF Done:  E(UB3LYP) =  -1136.12677160     A.U. after   20 cycles

 The electronic state is 2-A.
 Alpha  occ. eigenvalues --  -38.45232 -38.44631 -38.44277 -38.43484 -38.43324
 Alpha  occ. eigenvalues --  -38.43261 -38.43221  -2.20986  -2.20468  -2.20098
 Alpha  occ. eigenvalues --   -2.19360  -2.19230  -2.19145  -2.19054  -1.14662
 Alpha  occ. eigenvalues --   -1.14635  -1.14624  -1.14188  -1.14122  -1.14091
 Alpha  occ. eigenvalues --   -1.13750  -1.13728  -1.13713  -1.13049  -1.13032
 Alpha  occ. eigenvalues --   -1.13007  -1.13003  -1.12908  -1.12851  -1.12814
 Alpha  occ. eigenvalues --   -1.12805  -1.12773  -1.12696  -1.12680  -1.12661
 Alpha  occ. eigenvalues --   -0.18144  -0.13215  -0.11947  -0.10807
 Alpha virt. eigenvalues --   -0.06586  -0.04922  -0.04447  -0.03411  -0.02796
 Alpha virt. eigenvalues --   -0.02659  -0.02145  -0.01021  -0.00586  -0.00344
 Alpha virt. eigenvalues --   -0.00080   0.00311   0.00601   0.00733   0.00819

  Beta  occ. eigenvalues --  -38.45230 -38.44629 -38.44173 -38.43476 -38.43320
  Beta  occ. eigenvalues --  -38.43213 -38.43206  -2.20982  -2.20468  -2.19904
  Beta  occ. eigenvalues --   -2.19349  -2.19140  -2.19131  -2.19042  -1.14650
  Beta  occ. eigenvalues --   -1.14635  -1.14624  -1.14192  -1.14101  -1.14091
  Beta  occ. eigenvalues --   -1.13620  -1.13594  -1.13574  -1.13041  -1.13002
  Beta  occ. eigenvalues --   -1.12979  -1.12969  -1.12855  -1.12809  -1.12796
  Beta  occ. eigenvalues --   -1.12768  -1.12759  -1.12672  -1.12655  -1.12650
  Beta  occ. eigenvalues --   -0.17440  -0.13069  -0.11695
  Beta virt. eigenvalues --   -0.06951  -0.06378  -0.04932  -0.04383  -0.02734
  Beta virt. eigenvalues --   -0.01987  -0.01967  -0.01698  -0.00960  -0.00602
  Beta virt. eigenvalues --   -0.00378   0.00092   0.00348   0.00768   0.00793

 Mulliken charges and spin densities:
               1          2
     1  Na   0.098326   0.015053
     2  Na   0.041740  -0.039909
     3  Na  -0.595653   0.736776
     4  Na   0.002835   0.038265
     5  Na   0.092247  -0.020530
     6  Na   0.338952   0.048212
     7  Na   0.021552   0.222133
 Sum of Mulliken charges =  -0.00000   1.00000

 Dipole moment (field-independent basis, Debye):
    X=              0.3455    Y=              0.2036    Z=              0.3989  Tot=              0.5657
 Quadrupole moment (field-independent basis, Debye-Ang):
   XX=            -51.9259   YY=            -67.1445   ZZ=            -74.7163
   XY=             -0.0993   XZ=              1.8000   YZ=              1.1894

 Normal termination of Gaussian 16 at Thu Dec  7 01:55:11 2023.
