 Gaussian 16, Revision B.01,
 Gaussian 16:  ES64L-G16RevB.01 20-Dec-2017

 -------------------------
 #P B3LYP/6-311+g(d) force
 -------------------------

 -----
 DPGEN
 -----
 Symbolic Z-matrix:
 Charge =  0 Multiplicity = 2

                         Standard orientation:
 ---------------------------------------------------------------------
 Center     Atomic      Atomic             Coordinates (Angstroms)
 Number     Number       Type             X           Y           Z
 ---------------------------------------------------------------------
      1         11           0        3.163716   -0.975545   -1.459896
      2         11           0        0.138021   -1.293711   -0.422710
      3         11           0       -0.430667    1.990037    1.641963
      4         11           0        2.454715   -0.366235    2.012381
      5         11           0       -2.805132    0.785784   -0.489664
      6         11           0        0.199829    2.343385   -1.512535
      7         11           0       -2.720483   -2.483715    0.230461
 ---------------------------------------------------------------------

 SCF Done:  E(UB3LYP) =  -1136.12983982     A.U. after   21 cycles

 The electronic state is 2-A.
 Alpha  occ. eigenvalues --  -38.44354 -38.44195 -38.44051 -38.43803 -38.43725
 Alpha  occ. eigenvalues --  -38.43001 -38.42998  -2.20173  -2.20016  -2.19917
 Alpha  occ. eigenvalues --   -2.19647  -2.19588  -2.18943  -2.18836  -1.13850
 Alpha  occ. eigenvalues --   -1.13820  -1.13786  -1.13701  -1.13655  -1.13634
 Alpha  occ. eigenvalues --   -1.13622  -1.13603  -1.13517  -1.13345  -1.13316
 Alpha  occ. eigenvalues --   -1.13267  -1.13255  -1.13236  -1.13180  -1.12666
 Alpha  occ. eigenvalues --   -1.12630  -1.12601  -1.12484  -1.12483  -1.12454
 Alpha  occ. eigenvalues --   -0.17923  -0.13345  -0.11973  -0.11241
 Alpha virt. eigenvalues --   -0.05673  -0.05083  -0.04863  -0.03561  -0.02949
 Alpha virt. eigenvalues --   -0.02523  -0.01724  -0.00915  -0.00712  -0.00061
 Alpha virt. eigenvalues --    0.00220   0.00294   0.00346   0.00619   0.00798

  Beta  occ. eigenvalues --  -38.44295 -38.44162 -38.44048 -38.43766 -38.43691
  Beta  occ. eigenvalues --  -38.43000 -38.42987  -2.20065  -2.19954  -2.19911
  Beta  occ. eigenvalues --   -2.19578  -2.19526  -2.18922  -2.18840  -1.13773
  Beta  occ. eigenvalues --   -1.13748  -1.13702  -1.13654  -1.13610  -1.13609
  Beta  occ. eigenvalues --   -1.13598  -1.13592  -1.13514  -1.13303  -1.13263
  Beta  occ. eigenvalues --   -1.13219  -1.13214  -1.13189  -1.13121  -1.12634
  Beta  occ. eigenvalues --   -1.12608  -1.12590  -1.12486  -1.12483  -1.12452
  Beta  occ. eigenvalues --   -0.17298  -0.13111  -0.11839
  Beta virt. eigenvalues --   -0.07386  -0.05549  -0.04733  -0.04328  -0.03366
  Beta virt. eigenvalues --   -0.02331  -0.01930  -0.01619  -0.00841  -0.00250
  Beta virt. eigenvalues --   -0.00037   0.00297   0.00424   0.00499   0.00775

 Mulliken charges and spin densities:
               1          2
     1  Na   1.702414   0.141246
     2  Na  -2.266038   0.738318
     3  Na   0.262159   0.294751
     4  Na  -0.059119   0.032547
     5  Na   0.239367  -0.037886
     6  Na  -0.183144   0.134773
     7  Na   0.304360  -0.303749
 Sum of Mulliken charges =  -0.00000   1.00000

 Dipole moment (field-independent basis, Debye):
    X=              0.4588    Y=              0.5070    Z=             -0.0112  Tot=              0.6839
 Quadrupole moment (field-independent basis, Debye-Ang):
   XX=            -57.1911   YY=            -70.7890   ZZ=            -66.3222
   XY=             -1.6173   XZ=             -1.6057   YZ=             -1.7710

 Normal termination of Gaussian 16 at Wed Nov 29 16:55:16 2023.
