 Gaussian 16, Revision B.01,
 Gaussian 16:  ES64L-G16RevB.01 20-Dec-2017

 -------------------------
 #P B3LYP/6-311+g(d) force
 -------------------------

 -----
 DPGEN
 -----
 Symbolic Z-matrix:
 Charge =  0 Multiplicity = 2

                         Standard orientation:
 ---------------------------------------------------------------------
 Center     Atomic      Atomic             Coordinates (Angstroms)
 Number     Number       Type             X           Y           Z
 ---------------------------------------------------------------------
      1         11           0        0.374451   -0.693885   -1.406293
      2         11           0        0.232445   -0.473404    1.913835
      3         11           0       -3.443419    0.413915    0.465630
      4         11           0       -0.916391    2.700290   -0.241385
      5         11           0        3.784429   -1.483731    0.229589
      6         11           0        2.360226    1.847010   -0.358661
      7         11           0       -2.391741   -2.310194   -0.602715
 ---------------------------------------------------------------------

 SCF Done:  E(UB3LYP) =  -1136.12308180     A.U. after   23 cycles

 The electronic state is 2-A.
 Alpha  occ. eigenvalues --  -38.44993 -38.44924 -38.44789 -38.43999 -38.43654
 Alpha  occ. eigenvalues --  -38.43568 -38.42620  -2.20752  -2.20748  -2.20606
 Alpha  occ. eigenvalues --   -2.19848  -2.19565  -2.19427  -2.18450  -1.14428
 Alpha  occ. eigenvalues --   -1.14425  -1.14416  -1.14413  -1.14392  -1.14374
 Alpha  occ. eigenvalues --   -1.14315  -1.14247  -1.14195  -1.13540  -1.13518
 Alpha  occ. eigenvalues --   -1.13461  -1.13280  -1.13212  -1.13181  -1.13094
 Alpha  occ. eigenvalues --   -1.13068  -1.13058  -1.12125  -1.12114  -1.12103
 Alpha  occ. eigenvalues --   -0.18091  -0.13828  -0.11718  -0.10317
 Alpha virt. eigenvalues --   -0.07155  -0.05648  -0.04318  -0.03290  -0.02738
 Alpha virt. eigenvalues --   -0.02381  -0.02179  -0.01546  -0.00782  -0.00328
 Alpha virt. eigenvalues --   -0.00111   0.00102   0.00435   0.00583   0.00684

  Beta  occ. eigenvalues --  -38.44994 -38.44913 -38.44718 -38.43985 -38.43593
  Beta  occ. eigenvalues --  -38.43549 -38.42620  -2.20751  -2.20732  -2.20475
  Beta  occ. eigenvalues --   -2.19825  -2.19455  -2.19394  -2.18452  -1.14428
  Beta  occ. eigenvalues --   -1.14415  -1.14409  -1.14395  -1.14377  -1.14373
  Beta  occ. eigenvalues --   -1.14221  -1.14159  -1.14097  -1.13517  -1.13495
  Beta  occ. eigenvalues --   -1.13447  -1.13201  -1.13132  -1.13107  -1.13075
  Beta  occ. eigenvalues --   -1.13032  -1.13019  -1.12129  -1.12119  -1.12082
  Beta  occ. eigenvalues --   -0.17440  -0.13660  -0.11426
  Beta virt. eigenvalues --   -0.07026  -0.06568  -0.05564  -0.04044  -0.02842
  Beta virt. eigenvalues --   -0.02539  -0.01759  -0.01549  -0.01199  -0.00750
  Beta virt. eigenvalues --   -0.00171  -0.00026   0.00141   0.00562   0.00699

 Mulliken charges and spin densities:
               1          2
     1  Na  -0.289205   0.374462
     2  Na  -0.406282   0.558602
     3  Na   0.125940   0.162262
     4  Na  -0.228234  -0.127044
     5  Na   0.226910   0.005489
     6  Na   0.293077   0.065305
     7  Na   0.277794  -0.039076
 Sum of Mulliken charges =  -0.00000   1.00000

 Dipole moment (field-independent basis, Debye):
    X=              0.5706    Y=             -0.3344    Z=              0.2379  Tot=              0.7028
 Quadrupole moment (field-independent basis, Debye-Ang):
   XX=            -47.2745   YY=            -70.2772   ZZ=            -75.8383
   XY=             -1.0123   XZ=             -0.9044   YZ=             -0.1089

 Normal termination of Gaussian 16 at Tue Dec  5 15:20:44 2023.
