 Gaussian 16, Revision B.01,
 Gaussian 16:  ES64L-G16RevB.01 20-Dec-2017

 -------------------------
 #P B3LYP/6-311+g(d) force
 -------------------------

 -----
 DPGEN
 -----
 Symbolic Z-matrix:
 Charge =  0 Multiplicity = 2

                         Standard orientation:
 ---------------------------------------------------------------------
 Center     Atomic      Atomic             Coordinates (Angstroms)
 Number     Number       Type             X           Y           Z
 ---------------------------------------------------------------------
      1         11           0        0.349040   -0.393558   -1.524729
      2         11           0        0.862542    1.647042    0.729071
      3         11           0        3.013860    0.003039   -0.381729
      4         11           0        0.904238   -1.446158    1.039671
      5         11           0       -1.881962   -1.638055   -0.375229
      6         11           0       -1.717058    1.448245   -1.034229
      7         11           0       -1.530660    0.379445    1.547171
 ---------------------------------------------------------------------

 SCF Done:  E(UB3LYP) =  -1136.08440846     A.U. after   23 cycles

 The electronic state is 2-A.
 Alpha  occ. eigenvalues --  -38.44469 -38.44305 -38.44105 -38.43740 -38.43305
 Alpha  occ. eigenvalues --  -38.43295 -38.42872  -2.20501  -2.20480  -2.20406
 Alpha  occ. eigenvalues --   -2.19843  -2.19468  -2.19393  -2.19028  -1.14363
 Alpha  occ. eigenvalues --   -1.14309  -1.14233  -1.14198  -1.14145  -1.14130
 Alpha  occ. eigenvalues --   -1.14119  -1.14074  -1.13973  -1.13489  -1.13455
 Alpha  occ. eigenvalues --   -1.13407  -1.13190  -1.13109  -1.13096  -1.13053
 Alpha  occ. eigenvalues --   -1.13028  -1.12926  -1.12736  -1.12675  -1.12602
 Alpha  occ. eigenvalues --   -0.21464  -0.14314  -0.12654  -0.11957
 Alpha virt. eigenvalues --   -0.05732  -0.04191  -0.04022  -0.03593  -0.02867
 Alpha virt. eigenvalues --   -0.02773  -0.01355  -0.00391  -0.00292   0.00299
 Alpha virt. eigenvalues --    0.00675   0.00924   0.00960   0.01033   0.01082

  Beta  occ. eigenvalues --  -38.44463 -38.44240 -38.44030 -38.43704 -38.43281
  Beta  occ. eigenvalues --  -38.43265 -38.42846  -2.20470  -2.20387  -2.20274
  Beta  occ. eigenvalues --   -2.19780  -2.19402  -2.19373  -2.18987  -1.14315
  Beta  occ. eigenvalues --   -1.14250  -1.14149  -1.14134  -1.14105  -1.14079
  Beta  occ. eigenvalues --   -1.14045  -1.13996  -1.13899  -1.13441  -1.13396
  Beta  occ. eigenvalues --   -1.13351  -1.13150  -1.13083  -1.13013  -1.13008
  Beta  occ. eigenvalues --   -1.12997  -1.12896  -1.12707  -1.12621  -1.12557
  Beta  occ. eigenvalues --   -0.20605  -0.14067  -0.11714
  Beta virt. eigenvalues --   -0.08206  -0.05643  -0.04038  -0.03445  -0.03247
  Beta virt. eigenvalues --   -0.02099  -0.01790  -0.01294  -0.00331  -0.00067
  Beta virt. eigenvalues --    0.00338   0.00736   0.00917   0.01043   0.01087

 Mulliken charges and spin densities:
               1          2
     1  Na  -0.023190   0.421780
     2  Na  -0.777426   0.180753
     3  Na   0.994251  -0.037815
     4  Na  -0.680356   0.205098
     5  Na  -0.058211  -0.080837
     6  Na  -0.170511  -0.030690
     7  Na   0.715444   0.341711
 Sum of Mulliken charges =  -0.00000   1.00000

 Dipole moment (field-independent basis, Debye):
    X=              0.3434    Y=              0.0411    Z=             -0.0310  Tot=              0.3473
 Quadrupole moment (field-independent basis, Debye-Ang):
   XX=            -55.7032   YY=            -74.8930   ZZ=            -65.7349
   XY=              0.2957   XZ=             -0.1077   YZ=             -1.2250

 Normal termination of Gaussian 16 at Fri Dec  8 17:14:38 2023.
