 Gaussian 16, Revision B.01,
 Gaussian 16:  ES64L-G16RevB.01 20-Dec-2017

 -------------------------
 #P B3LYP/6-311+g(d) force
 -------------------------

 -----
 DPGEN
 -----
 Symbolic Z-matrix:
 Charge =  0 Multiplicity = 2

                         Standard orientation:
 ---------------------------------------------------------------------
 Center     Atomic      Atomic             Coordinates (Angstroms)
 Number     Number       Type             X           Y           Z
 ---------------------------------------------------------------------
      1         11           0       -4.575505   -1.149267   -0.417120
      2         11           0        3.231690    2.286365   -1.302020
      3         11           0       -1.540689   -1.914956   -0.155206
      4         11           0        1.814802   -1.510760   -0.951204
      5         11           0        0.051280    2.158060    0.942857
      6         11           0        4.113196   -1.742868    1.326930
      7         11           0       -3.094774    1.873426    0.555763
 ---------------------------------------------------------------------

 SCF Done:  E(UB3LYP) =  -1136.10552523     A.U. after   27 cycles

 The electronic state is 2-A.
 Alpha  occ. eigenvalues --  -38.45236 -38.45106 -38.44749 -38.44579 -38.44349
 Alpha  occ. eigenvalues --  -38.43643 -38.43475  -2.21044  -2.20907  -2.20517
 Alpha  occ. eigenvalues --   -2.20390  -2.20145  -2.19483  -2.19260  -1.14727
 Alpha  occ. eigenvalues --   -1.14703  -1.14689  -1.14548  -1.14540  -1.14535
 Alpha  occ. eigenvalues --   -1.14174  -1.14154  -1.14128  -1.14068  -1.14056
 Alpha  occ. eigenvalues --   -1.14015  -1.13840  -1.13823  -1.13777  -1.13179
 Alpha  occ. eigenvalues --   -1.13140  -1.13102  -1.12947  -1.12937  -1.12881
 Alpha  occ. eigenvalues --   -0.16466  -0.14369  -0.12152  -0.10447
 Alpha virt. eigenvalues --   -0.07985  -0.05552  -0.04013  -0.03611  -0.03396
 Alpha virt. eigenvalues --   -0.02687  -0.02114  -0.01474  -0.01186  -0.01021
 Alpha virt. eigenvalues --   -0.00470  -0.00098   0.00213   0.00257   0.00406

  Beta  occ. eigenvalues --  -38.45237 -38.45015 -38.44665 -38.44564 -38.44368
  Beta  occ. eigenvalues --  -38.43599 -38.43480  -2.21048  -2.20738  -2.20363
  Beta  occ. eigenvalues --   -2.20360  -2.20184  -2.19401  -2.19275  -1.14721
  Beta  occ. eigenvalues --   -1.14708  -1.14688  -1.14434  -1.14426  -1.14420
  Beta  occ. eigenvalues --   -1.14065  -1.14052  -1.14048  -1.14030  -1.14024
  Beta  occ. eigenvalues --   -1.14006  -1.13868  -1.13827  -1.13800  -1.13127
  Beta  occ. eigenvalues --   -1.13084  -1.13048  -1.12961  -1.12949  -1.12858
  Beta  occ. eigenvalues --   -0.16269  -0.13760  -0.11480
  Beta virt. eigenvalues --   -0.07727  -0.07201  -0.05268  -0.03708  -0.03391
  Beta virt. eigenvalues --   -0.03259  -0.02376  -0.01673  -0.01045  -0.00976
  Beta virt. eigenvalues --   -0.00729  -0.00335  -0.00008   0.00361   0.00421

 Mulliken charges and spin densities:
               1          2
     1  Na   0.858156  -0.058141
     2  Na   0.257066   0.380983
     3  Na  -0.458042   0.030872
     4  Na  -0.490728   0.211698
     5  Na  -0.155159  -0.099598
     6  Na   0.218717   0.331628
     7  Na  -0.230009   0.202559
 Sum of Mulliken charges =  -0.00000   1.00000

 Dipole moment (field-independent basis, Debye):
    X=             -0.3888    Y=             -0.4817    Z=             -0.0873  Tot=              0.6252
 Quadrupole moment (field-independent basis, Debye-Ang):
   XX=            -45.2853   YY=            -80.6112   ZZ=            -70.7922
   XY=              3.4082   XZ=              3.1160   YZ=             -1.4900

 Normal termination of Gaussian 16 at Sun Dec  3 12:47:28 2023.
