 Gaussian 16, Revision B.01,
 Gaussian 16:  ES64L-G16RevB.01 20-Dec-2017

 -------------------------
 #P B3LYP/6-311+g(d) force
 -------------------------

 -----
 DPGEN
 -----
 Symbolic Z-matrix:
 Charge =  0 Multiplicity = 2

                         Standard orientation:
 ---------------------------------------------------------------------
 Center     Atomic      Atomic             Coordinates (Angstroms)
 Number     Number       Type             X           Y           Z
 ---------------------------------------------------------------------
      1         11           0        2.366083    2.488805   -0.379876
      2         11           0       -1.452566   -2.880111   -0.065812
      3         11           0        2.446823   -2.783297    0.713545
      4         11           0        4.661784   -0.613720   -0.604578
      5         11           0       -0.197208    3.504169    0.904596
      6         11           0       -3.507973    1.874879   -0.491208
      7         11           0       -4.316942   -1.590725   -0.076666
 ---------------------------------------------------------------------

 SCF Done:  E(UB3LYP) =  -1136.10657710     A.U. after   23 cycles

 The electronic state is 2-A.
 Alpha  occ. eigenvalues --  -38.45310 -38.45014 -38.44856 -38.44712 -38.44156
 Alpha  occ. eigenvalues --  -38.43952 -38.43841  -2.21054  -2.20784  -2.20657
 Alpha  occ. eigenvalues --   -2.20506  -2.19954  -2.19759  -2.19653  -1.14740
 Alpha  occ. eigenvalues --   -1.14727  -1.14694  -1.14448  -1.14428  -1.14399
 Alpha  occ. eigenvalues --   -1.14349  -1.14317  -1.14288  -1.14203  -1.14178
 Alpha  occ. eigenvalues --   -1.14149  -1.13608  -1.13601  -1.13586  -1.13413
 Alpha  occ. eigenvalues --   -1.13403  -1.13389  -1.13330  -1.13304  -1.13290
 Alpha  occ. eigenvalues --   -0.15524  -0.14025  -0.13279  -0.10643
 Alpha virt. eigenvalues --   -0.07818  -0.04840  -0.04597  -0.03590  -0.03286
 Alpha virt. eigenvalues --   -0.02531  -0.02258  -0.02039  -0.01103  -0.00804
 Alpha virt. eigenvalues --   -0.00603  -0.00192   0.00009   0.00363   0.00556

  Beta  occ. eigenvalues --  -38.45314 -38.44939 -38.44828 -38.44724 -38.44107
  Beta  occ. eigenvalues --  -38.43893 -38.43827  -2.21065  -2.20646  -2.20609
  Beta  occ. eigenvalues --   -2.20533  -2.19862  -2.19648  -2.19631  -1.14752
  Beta  occ. eigenvalues --   -1.14738  -1.14668  -1.14355  -1.14336  -1.14307
  Beta  occ. eigenvalues --   -1.14302  -1.14288  -1.14245  -1.14217  -1.14201
  Beta  occ. eigenvalues --   -1.14139  -1.13544  -1.13537  -1.13528  -1.13338
  Beta  occ. eigenvalues --   -1.13327  -1.13321  -1.13304  -1.13291  -1.13269
  Beta  occ. eigenvalues --   -0.15004  -0.13472  -0.12659
  Beta virt. eigenvalues --   -0.07769  -0.07432  -0.04503  -0.04044  -0.03430
  Beta virt. eigenvalues --   -0.02875  -0.02377  -0.02053  -0.01859  -0.01016
  Beta virt. eigenvalues --   -0.00503  -0.00362   0.00013   0.00219   0.00420

 Mulliken charges and spin densities:
               1          2
     1  Na  -0.271327   0.168944
     2  Na  -0.421566   0.268530
     3  Na   0.007222  -0.046568
     4  Na   0.344837   0.230583
     5  Na   0.062935  -0.025446
     6  Na  -0.073132   0.390214
     7  Na   0.351030   0.013743
 Sum of Mulliken charges =  -0.00000   1.00000

 Dipole moment (field-independent basis, Debye):
    X=              0.0428    Y=              0.0343    Z=              0.0067  Tot=              0.0553
 Quadrupole moment (field-independent basis, Debye-Ang):
   XX=            -60.0223   YY=            -69.3510   ZZ=            -71.2385
   XY=              1.1298   XZ=             -2.1950   YZ=             -1.7970

 Normal termination of Gaussian 16 at Sun Dec  3 19:05:27 2023.
