 Gaussian 16, Revision B.01,
 Gaussian 16:  ES64L-G16RevB.01 20-Dec-2017

 -------------------------
 #P B3LYP/6-311+g(d) force
 -------------------------

 -----
 DPGEN
 -----
 Symbolic Z-matrix:
 Charge =  0 Multiplicity = 2

                         Standard orientation:
 ---------------------------------------------------------------------
 Center     Atomic      Atomic             Coordinates (Angstroms)
 Number     Number       Type             X           Y           Z
 ---------------------------------------------------------------------
      1         11           0       -3.333860   -0.972012   -0.149554
      2         11           0        2.972855   -1.536591   -0.083849
      3         11           0       -0.185696    0.106259    2.036119
      4         11           0        2.097971    2.152852    0.109731
      5         11           0        0.164767    0.254095   -1.781146
      6         11           0       -1.539822    2.355560   -0.123865
      7         11           0       -0.176215   -2.360164   -0.007437
 ---------------------------------------------------------------------

 SCF Done:  E(UB3LYP) =  -1136.13469589     A.U. after   19 cycles

 The electronic state is 2-A.
 Alpha  occ. eigenvalues --  -38.44302 -38.43960 -38.43747 -38.43680 -38.43507
 Alpha  occ. eigenvalues --  -38.43470 -38.42869  -2.20089  -2.19774  -2.19593
 Alpha  occ. eigenvalues --   -2.19582  -2.19439  -2.19375  -2.18808  -1.13759
 Alpha  occ. eigenvalues --   -1.13753  -1.13728  -1.13449  -1.13436  -1.13418
 Alpha  occ. eigenvalues --   -1.13288  -1.13275  -1.13260  -1.13231  -1.13206
 Alpha  occ. eigenvalues --   -1.13189  -1.13157  -1.13124  -1.13049  -1.13041
 Alpha  occ. eigenvalues --   -1.13001  -1.12974  -1.12511  -1.12487  -1.12402
 Alpha  occ. eigenvalues --   -0.18742  -0.12883  -0.12380  -0.10874
 Alpha virt. eigenvalues --   -0.05869  -0.05375  -0.04083  -0.03100  -0.02942
 Alpha virt. eigenvalues --   -0.02675  -0.01853  -0.01259  -0.00252  -0.00071
 Alpha virt. eigenvalues --    0.00038   0.00313   0.00720   0.00843   0.00948

  Beta  occ. eigenvalues --  -38.44304 -38.43961 -38.43742 -38.43584 -38.43498
  Beta  occ. eigenvalues --  -38.43398 -38.42857  -2.20094  -2.19779  -2.19577
  Beta  occ. eigenvalues --   -2.19416  -2.19364  -2.19306  -2.18790  -1.13762
  Beta  occ. eigenvalues --   -1.13744  -1.13732  -1.13455  -1.13423  -1.13423
  Beta  occ. eigenvalues --   -1.13271  -1.13230  -1.13208  -1.13163  -1.13125
  Beta  occ. eigenvalues --   -1.13098  -1.13067  -1.13035  -1.13006  -1.12976
  Beta  occ. eigenvalues --   -1.12957  -1.12929  -1.12502  -1.12432  -1.12398
  Beta  occ. eigenvalues --   -0.17976  -0.12695  -0.12121
  Beta virt. eigenvalues --   -0.06920  -0.05809  -0.05376  -0.04075  -0.02374
  Beta virt. eigenvalues --   -0.02098  -0.01770  -0.01594  -0.01214  -0.00319
  Beta virt. eigenvalues --    0.00003   0.00081   0.00326   0.00766   0.00834

 Mulliken charges and spin densities:
               1          2
     1  Na   0.070304  -0.084558
     2  Na   0.073267  -0.092321
     3  Na  -0.486208   0.731341
     4  Na   0.200237  -0.096464
     5  Na  -0.368463   0.662810
     6  Na   0.260129  -0.103714
     7  Na   0.250734  -0.017094
 Sum of Mulliken charges =  -0.00000   1.00000

 Dipole moment (field-independent basis, Debye):
    X=             -0.0337    Y=              0.2152    Z=              0.0872  Tot=              0.2346
 Quadrupole moment (field-independent basis, Debye-Ang):
   XX=            -52.1578   YY=            -66.8656   ZZ=            -73.6129
   XY=              0.2145   XZ=              0.8084   YZ=              0.4841

 Normal termination of Gaussian 16 at Tue Dec  5 11:54:15 2023.
