 Gaussian 16, Revision B.01,
 Gaussian 16:  ES64L-G16RevB.01 20-Dec-2017

 -------------------------
 #P B3LYP/6-311+g(d) force
 -------------------------

 -----
 DPGEN
 -----
 Symbolic Z-matrix:
 Charge =  0 Multiplicity = 2

                         Standard orientation:
 ---------------------------------------------------------------------
 Center     Atomic      Atomic             Coordinates (Angstroms)
 Number     Number       Type             X           Y           Z
 ---------------------------------------------------------------------
      1         11           0       -4.044599   -1.385594    0.172129
      2         11           0        4.225512   -0.504752   -0.779013
      3         11           0       -3.574095    1.816021   -0.598827
      4         11           0        2.512645   -2.693383    1.152844
      5         11           0       -0.668168    3.400517    0.957323
      6         11           0       -1.143757   -3.587580   -0.528081
      7         11           0        2.692461    2.954772   -0.376375
 ---------------------------------------------------------------------

 SCF Done:  E(UB3LYP) =  -1136.10332842     A.U. after   24 cycles

 The electronic state is 2-A.
 Alpha  occ. eigenvalues --  -38.45298 -38.44954 -38.44939 -38.44623 -38.44619
 Alpha  occ. eigenvalues --  -38.44134 -38.43971  -2.21045  -2.20715  -2.20680
 Alpha  occ. eigenvalues --   -2.20397  -2.20379  -2.19904  -2.19776  -1.14721
 Alpha  occ. eigenvalues --   -1.14709  -1.14683  -1.14401  -1.14390  -1.14366
 Alpha  occ. eigenvalues --   -1.14359  -1.14355  -1.14312  -1.14062  -1.14052
 Alpha  occ. eigenvalues --   -1.14050  -1.14039  -1.14031  -1.14001  -1.13560
 Alpha  occ. eigenvalues --   -1.13547  -1.13524  -1.13428  -1.13423  -1.13408
 Alpha  occ. eigenvalues --   -0.15215  -0.13840  -0.13120  -0.10551
 Alpha virt. eigenvalues --   -0.07861  -0.05132  -0.04634  -0.03454  -0.03172
 Alpha virt. eigenvalues --   -0.02663  -0.02358  -0.01827  -0.01303  -0.00895
 Alpha virt. eigenvalues --   -0.00777  -0.00019   0.00155   0.00200   0.00506

  Beta  occ. eigenvalues --  -38.45287 -38.44954 -38.44937 -38.44589 -38.44585
  Beta  occ. eigenvalues --  -38.44055 -38.43916  -2.21027  -2.20721  -2.20681
  Beta  occ. eigenvalues --   -2.20342  -2.20311  -2.19758  -2.19674  -1.14712
  Beta  occ. eigenvalues --   -1.14700  -1.14648  -1.14410  -1.14398  -1.14371
  Beta  occ. eigenvalues --   -1.14359  -1.14323  -1.14288  -1.14026  -1.14015
  Beta  occ. eigenvalues --   -1.14006  -1.13993  -1.13985  -1.13947  -1.13460
  Beta  occ. eigenvalues --   -1.13450  -1.13425  -1.13359  -1.13356  -1.13341
  Beta  occ. eigenvalues --   -0.14712  -0.13221  -0.12294
  Beta virt. eigenvalues --   -0.08080  -0.07462  -0.04716  -0.04185  -0.03258
  Beta virt. eigenvalues --   -0.02865  -0.02406  -0.02056  -0.01704  -0.01137
  Beta virt. eigenvalues --   -0.00727  -0.00411  -0.00012   0.00180   0.00366

 Mulliken charges and spin densities:
               1          2
     1  Na   0.031952  -0.015222
     2  Na   0.058572   0.133444
     3  Na  -0.016745   0.261289
     4  Na  -0.024594   0.038733
     5  Na  -0.043046  -0.018369
     6  Na  -0.055883   0.405663
     7  Na   0.049743   0.194463
 Sum of Mulliken charges =  -0.00000   1.00000

 Dipole moment (field-independent basis, Debye):
    X=              0.5593    Y=              0.0260    Z=              0.2307  Tot=              0.6056
 Quadrupole moment (field-independent basis, Debye-Ang):
   XX=            -63.4074   YY=            -70.7181   ZZ=            -67.7673
   XY=              0.4201   XZ=             -3.1754   YZ=             -2.1126

 Normal termination of Gaussian 16 at Mon Dec  4 03:20:52 2023.
