 Gaussian 16, Revision B.01,
 Gaussian 16:  ES64L-G16RevB.01 20-Dec-2017

 -------------------------
 #P B3LYP/6-311+g(d) force
 -------------------------

 -----
 DPGEN
 -----
 Symbolic Z-matrix:
 Charge =  0 Multiplicity = 2

                         Standard orientation:
 ---------------------------------------------------------------------
 Center     Atomic      Atomic             Coordinates (Angstroms)
 Number     Number       Type             X           Y           Z
 ---------------------------------------------------------------------
      1         11           0        2.771158    1.820250    0.128414
      2         11           0       -1.317333   -2.323796   -0.480774
      3         11           0        0.346903   -0.027232   -1.758550
      4         11           0        3.236850   -1.711572    0.173606
      5         11           0       -0.102990    0.013800    1.982524
      6         11           0       -3.543338   -0.253720    0.371648
      7         11           0       -1.391250    2.482269   -0.416868
 ---------------------------------------------------------------------

 SCF Done:  E(UB3LYP) =  -1136.12510267     A.U. after   22 cycles

 The electronic state is 2-A.
 Alpha  occ. eigenvalues --  -38.44976 -38.44672 -38.44544 -38.44446 -38.43388
 Alpha  occ. eigenvalues --  -38.43070 -38.42934  -2.20798  -2.20429  -2.20330
 Alpha  occ. eigenvalues --   -2.20282  -2.19327  -2.18957  -2.18765  -1.14475
 Alpha  occ. eigenvalues --   -1.14457  -1.14434  -1.14106  -1.14090  -1.14073
 Alpha  occ. eigenvalues --   -1.14015  -1.13990  -1.13969  -1.13955  -1.13918
 Alpha  occ. eigenvalues --   -1.13892  -1.13040  -1.12970  -1.12939  -1.12639
 Alpha  occ. eigenvalues --   -1.12602  -1.12588  -1.12452  -1.12425  -1.12395
 Alpha  occ. eigenvalues --   -0.18207  -0.13562  -0.11429  -0.10734
 Alpha virt. eigenvalues --   -0.06697  -0.05747  -0.03875  -0.03375  -0.02648
 Alpha virt. eigenvalues --   -0.02510  -0.02343  -0.01452  -0.00658  -0.00150
 Alpha virt. eigenvalues --   -0.00070   0.00244   0.00549   0.00612   0.00754

  Beta  occ. eigenvalues --  -38.44971 -38.44674 -38.44541 -38.44376 -38.43303
  Beta  occ. eigenvalues --  -38.43053 -38.42925  -2.20790  -2.20434  -2.20327
  Beta  occ. eigenvalues --   -2.20152  -2.19172  -2.18931  -2.18751  -1.14472
  Beta  occ. eigenvalues --   -1.14437  -1.14428  -1.14105  -1.14088  -1.14076
  Beta  occ. eigenvalues --   -1.13999  -1.13988  -1.13953  -1.13879  -1.13829
  Beta  occ. eigenvalues --   -1.13795  -1.12938  -1.12856  -1.12827  -1.12614
  Beta  occ. eigenvalues --   -1.12576  -1.12555  -1.12437  -1.12402  -1.12386
  Beta  occ. eigenvalues --   -0.17472  -0.13387  -0.11170
  Beta virt. eigenvalues --   -0.06926  -0.06466  -0.05794  -0.03687  -0.02844
  Beta virt. eigenvalues --   -0.02218  -0.01848  -0.01537  -0.01394  -0.00672
  Beta virt. eigenvalues --   -0.00090   0.00014   0.00271   0.00669   0.00751

 Mulliken charges and spin densities:
               1          2
     1  Na   0.017857  -0.051451
     2  Na   0.053322  -0.066003
     3  Na   0.259049   0.485677
     4  Na  -0.059451  -0.070158
     5  Na  -0.280663   0.643196
     6  Na   0.165679   0.123301
     7  Na  -0.155793  -0.064562
 Sum of Mulliken charges =  -0.00000   1.00000

 Dipole moment (field-independent basis, Debye):
    X=              0.3495    Y=              0.0627    Z=              0.4231  Tot=              0.5524
 Quadrupole moment (field-independent basis, Debye-Ang):
   XX=            -48.3621   YY=            -70.0716   ZZ=            -74.3514
   XY=             -0.3403   XZ=              0.0647   YZ=             -0.2572

 Normal termination of Gaussian 16 at Thu Dec  7 03:27:44 2023.
