 Gaussian 16, Revision B.01,
 Gaussian 16:  ES64L-G16RevB.01 20-Dec-2017

 -------------------------
 #P B3LYP/6-311+g(d) force
 -------------------------

 -----
 DPGEN
 -----
 Symbolic Z-matrix:
 Charge =  0 Multiplicity = 2

                         Standard orientation:
 ---------------------------------------------------------------------
 Center     Atomic      Atomic             Coordinates (Angstroms)
 Number     Number       Type             X           Y           Z
 ---------------------------------------------------------------------
      1         11           0       -1.427211    2.040562   -0.120400
      2         11           0       -0.056205   -0.045444    1.897815
      3         11           0       -3.469405   -0.020617    0.098624
      4         11           0        2.900858   -1.442049    0.421495
      5         11           0        2.350372    2.237357   -0.167208
      6         11           0        0.450299   -0.259371   -1.791226
      7         11           0       -0.748708   -2.510439   -0.339100
 ---------------------------------------------------------------------

 SCF Done:  E(UB3LYP) =  -1136.12883110     A.U. after   21 cycles

 The electronic state is 2-A.
 Alpha  occ. eigenvalues --  -38.44729 -38.44572 -38.43796 -38.43600 -38.43360
 Alpha  occ. eigenvalues --  -38.43195 -38.43055  -2.20574  -2.20379  -2.19716
 Alpha  occ. eigenvalues --   -2.19402  -2.19340  -2.19131  -2.18952  -1.14315
 Alpha  occ. eigenvalues --   -1.14215  -1.14190  -1.14058  -1.14035  -1.14006
 Alpha  occ. eigenvalues --   -1.13414  -1.13359  -1.13320  -1.13098  -1.13077
 Alpha  occ. eigenvalues --   -1.13057  -1.13050  -1.12985  -1.12946  -1.12811
 Alpha  occ. eigenvalues --   -1.12786  -1.12759  -1.12632  -1.12608  -1.12537
 Alpha  occ. eigenvalues --   -0.18812  -0.13422  -0.11967  -0.10856
 Alpha virt. eigenvalues --   -0.06315  -0.05246  -0.03858  -0.03441  -0.02692
 Alpha virt. eigenvalues --   -0.02561  -0.02099  -0.01214  -0.00305  -0.00062
 Alpha virt. eigenvalues --    0.00053   0.00301   0.00707   0.00791   0.00855

  Beta  occ. eigenvalues --  -38.44731 -38.44560 -38.43717 -38.43599 -38.43280
  Beta  occ. eigenvalues --  -38.43186 -38.43041  -2.20579  -2.20360  -2.19572
  Beta  occ. eigenvalues --   -2.19402  -2.19195  -2.19117  -2.18931  -1.14321
  Beta  occ. eigenvalues --   -1.14203  -1.14195  -1.14026  -1.14022  -1.13998
  Beta  occ. eigenvalues --   -1.13317  -1.13258  -1.13214  -1.13070  -1.13054
  Beta  occ. eigenvalues --   -1.13048  -1.12999  -1.12890  -1.12844  -1.12799
  Beta  occ. eigenvalues --   -1.12768  -1.12729  -1.12607  -1.12561  -1.12527
  Beta  occ. eigenvalues --   -0.18073  -0.13211  -0.11692
  Beta virt. eigenvalues --   -0.06943  -0.06221  -0.05251  -0.03847  -0.02697
  Beta virt. eigenvalues --   -0.01991  -0.01904  -0.01515  -0.01153  -0.00330
  Beta virt. eigenvalues --    0.00017   0.00084   0.00325   0.00766   0.00849

 Mulliken charges and spin densities:
               1          2
     1  Na   0.263753  -0.008869
     2  Na  -0.480592   0.681698
     3  Na   0.051321  -0.045294
     4  Na   0.100683  -0.027380
     5  Na   0.047935  -0.091802
     6  Na  -0.328797   0.535354
     7  Na   0.345697  -0.043708
 Sum of Mulliken charges =  -0.00000   1.00000

 Dipole moment (field-independent basis, Debye):
    X=              0.1681    Y=             -0.2653    Z=              0.2327  Tot=              0.3909
 Quadrupole moment (field-independent basis, Debye-Ang):
   XX=            -50.0916   YY=            -68.7477   ZZ=            -73.8990
   XY=              0.5356   XZ=              0.8065   YZ=             -0.9090

 Normal termination of Gaussian 16 at Tue Dec  5 21:30:07 2023.
