 Gaussian 16, Revision B.01,
 Gaussian 16:  ES64L-G16RevB.01 20-Dec-2017

 -------------------------
 #P B3LYP/6-311+g(d) force
 -------------------------

 -----
 DPGEN
 -----
 Symbolic Z-matrix:
 Charge =  0 Multiplicity = 2

                         Standard orientation:
 ---------------------------------------------------------------------
 Center     Atomic      Atomic             Coordinates (Angstroms)
 Number     Number       Type             X           Y           Z
 ---------------------------------------------------------------------
      1         11           0       -2.425111   -2.264224   -0.631830
      2         11           0        0.912533   -3.406428    0.992135
      3         11           0       -2.534388    2.538350    0.996998
      4         11           0        3.902062    1.540076   -0.540744
      5         11           0        3.438374   -1.787201   -0.172896
      6         11           0        1.218443    3.391398   -0.019280
      7         11           0       -4.511912   -0.011972   -0.624382
 ---------------------------------------------------------------------

 SCF Done:  E(UB3LYP) =  -1136.10817722     A.U. after   23 cycles

 The electronic state is 2-A.
 Alpha  occ. eigenvalues --  -38.45284 -38.44986 -38.44980 -38.44806 -38.44425
 Alpha  occ. eigenvalues --  -38.43710 -38.43654  -2.21080  -2.20775  -2.20731
 Alpha  occ. eigenvalues --   -2.20576  -2.20254  -2.19517  -2.19481  -1.14752
 Alpha  occ. eigenvalues --   -1.14746  -1.14724  -1.14453  -1.14442  -1.14432
 Alpha  occ. eigenvalues --   -1.14421  -1.14413  -1.14373  -1.14241  -1.14223
 Alpha  occ. eigenvalues --   -1.14190  -1.13927  -1.13904  -1.13882  -1.13174
 Alpha  occ. eigenvalues --   -1.13165  -1.13157  -1.13131  -1.13129  -1.13120
 Alpha  occ. eigenvalues --   -0.15708  -0.14292  -0.13180  -0.10787
 Alpha virt. eigenvalues --   -0.07756  -0.04814  -0.04539  -0.03556  -0.03505
 Alpha virt. eigenvalues --   -0.02424  -0.02146  -0.01838  -0.01237  -0.00985
 Alpha virt. eigenvalues --   -0.00712  -0.00083  -0.00003   0.00423   0.00710

  Beta  occ. eigenvalues --  -38.45246 -38.44997 -38.44972 -38.44736 -38.44402
  Beta  occ. eigenvalues --  -38.43670 -38.43607  -2.21015  -2.20765  -2.20755
  Beta  occ. eigenvalues --   -2.20446  -2.20215  -2.19444  -2.19394  -1.14707
  Beta  occ. eigenvalues --   -1.14706  -1.14656  -1.14450  -1.14442  -1.14440
  Beta  occ. eigenvalues --   -1.14433  -1.14387  -1.14359  -1.14154  -1.14136
  Beta  occ. eigenvalues --   -1.14098  -1.13889  -1.13881  -1.13846  -1.13124
  Beta  occ. eigenvalues --   -1.13115  -1.13107  -1.13073  -1.13069  -1.13069
  Beta  occ. eigenvalues --   -0.15182  -0.13696  -0.12528
  Beta virt. eigenvalues --   -0.07837  -0.07538  -0.04346  -0.04095  -0.03285
  Beta virt. eigenvalues --   -0.03159  -0.02228  -0.02060  -0.01618  -0.01068
  Beta virt. eigenvalues --   -0.00639  -0.00439   0.00149   0.00195   0.00445

 Mulliken charges and spin densities:
               1          2
     1  Na  -0.421756   0.219651
     2  Na  -0.130217   0.165769
     3  Na  -0.118076   0.349738
     4  Na   0.407702   0.215249
     5  Na  -0.184388   0.107047
     6  Na  -0.157105  -0.070222
     7  Na   0.603841   0.012767
 Sum of Mulliken charges =  -0.00000   1.00000

 Dipole moment (field-independent basis, Debye):
    X=             -0.7180    Y=             -0.0965    Z=             -0.1455  Tot=              0.7389
 Quadrupole moment (field-independent basis, Debye-Ang):
   XX=            -59.7762   YY=            -69.1964   ZZ=            -72.0853
   XY=             -2.0952   XZ=             -1.1059   YZ=             -0.1139

 Normal termination of Gaussian 16 at Mon Dec  4 01:34:01 2023.
