 Gaussian 16, Revision B.01,
 Gaussian 16:  ES64L-G16RevB.01 20-Dec-2017

 -------------------------
 #P B3LYP/6-311+g(d) force
 -------------------------

 -----
 DPGEN
 -----
 Symbolic Z-matrix:
 Charge =  0 Multiplicity = 2

                         Standard orientation:
 ---------------------------------------------------------------------
 Center     Atomic      Atomic             Coordinates (Angstroms)
 Number     Number       Type             X           Y           Z
 ---------------------------------------------------------------------
      1         11           0       -2.325056   -1.436833    1.294984
      2         11           0        0.914312   -0.165760    2.199591
      3         11           0       -0.249483   -0.066511   -2.100839
      4         11           0        0.280771    2.403248    0.007423
      5         11           0        2.026376   -2.253339   -1.007112
      6         11           0        3.469011    0.914773    0.117669
      7         11           0       -4.115931    0.604423   -0.511715
 ---------------------------------------------------------------------

 SCF Done:  E(UB3LYP) =  -1136.11525366     A.U. after   27 cycles

 The electronic state is 2-A.
 Alpha  occ. eigenvalues --  -38.45406 -38.45403 -38.44631 -38.43956 -38.43862
 Alpha  occ. eigenvalues --  -38.43807 -38.42382  -2.21196  -2.21161  -2.20440
 Alpha  occ. eigenvalues --   -2.19809  -2.19691  -2.19673  -2.18203  -1.14893
 Alpha  occ. eigenvalues --   -1.14851  -1.14841  -1.14825  -1.14820  -1.14801
 Alpha  occ. eigenvalues --   -1.14105  -1.14083  -1.14075  -1.13495  -1.13453
 Alpha  occ. eigenvalues --   -1.13440  -1.13429  -1.13361  -1.13324  -1.13313
 Alpha  occ. eigenvalues --   -1.13297  -1.13259  -1.11867  -1.11859  -1.11855
 Alpha  occ. eigenvalues --   -0.17815  -0.13524  -0.11857  -0.10733
 Alpha virt. eigenvalues --   -0.07388  -0.05227  -0.04077  -0.03338  -0.03014
 Alpha virt. eigenvalues --   -0.02764  -0.02557  -0.01397  -0.00593  -0.00229
 Alpha virt. eigenvalues --   -0.00131   0.00116   0.00187   0.00719   0.00776

  Beta  occ. eigenvalues --  -38.45417 -38.45411 -38.44586 -38.43894 -38.43837
  Beta  occ. eigenvalues --  -38.43739 -38.42372  -2.21213  -2.21181  -2.20358
  Beta  occ. eigenvalues --   -2.19696  -2.19647  -2.19549  -2.18184  -1.14893
  Beta  occ. eigenvalues --   -1.14864  -1.14852  -1.14839  -1.14829  -1.14811
  Beta  occ. eigenvalues --   -1.14044  -1.14034  -1.14008  -1.13419  -1.13385
  Beta  occ. eigenvalues --   -1.13368  -1.13344  -1.13323  -1.13270  -1.13249
  Beta  occ. eigenvalues --   -1.13220  -1.13175  -1.11857  -1.11843  -1.11839
  Beta  occ. eigenvalues --   -0.16996  -0.13487  -0.10684
  Beta virt. eigenvalues --   -0.07826  -0.07075  -0.04690  -0.03818  -0.02951
  Beta virt. eigenvalues --   -0.02646  -0.02458  -0.01983  -0.01050  -0.00541
  Beta virt. eigenvalues --   -0.00059   0.00038   0.00107   0.00273   0.00821

 Mulliken charges and spin densities:
               1          2
     1  Na  -0.039925   0.000796
     2  Na  -0.059747   0.425858
     3  Na  -0.349146   0.212586
     4  Na  -0.138594   0.251849
     5  Na  -0.087653   0.084794
     6  Na   0.466362   0.045479
     7  Na   0.208704  -0.021362
 Sum of Mulliken charges =  -0.00000   1.00000

 Dipole moment (field-independent basis, Debye):
    X=             -0.6109    Y=              0.7753    Z=              0.1776  Tot=              1.0029
 Quadrupole moment (field-independent basis, Debye-Ang):
   XX=            -47.8931   YY=            -72.0074   ZZ=            -75.2871
   XY=             -0.1415   XZ=              2.8409   YZ=             -8.3105

 Normal termination of Gaussian 16 at Sun Dec  3 22:10:51 2023.
