 Gaussian 16, Revision B.01,
 Gaussian 16:  ES64L-G16RevB.01 20-Dec-2017

 -------------------------
 #P B3LYP/6-311+g(d) force
 -------------------------

 -----
 DPGEN
 -----
 Symbolic Z-matrix:
 Charge =  0 Multiplicity = 2

                         Standard orientation:
 ---------------------------------------------------------------------
 Center     Atomic      Atomic             Coordinates (Angstroms)
 Number     Number       Type             X           Y           Z
 ---------------------------------------------------------------------
      1         11           0       -1.716141    2.315391    0.693932
      2         11           0       -3.236426   -0.602849   -1.607271
      3         11           0        0.371065   -2.020038   -1.109879
      4         11           0        1.025977    2.759241   -0.541143
      5         11           0        3.491109   -0.352080   -0.897080
      6         11           0       -1.474491   -1.460626    1.738543
      7         11           0        1.538907   -0.639040    1.722899
 ---------------------------------------------------------------------

 SCF Done:  E(UB3LYP) =  -1136.12586735     A.U. after   19 cycles

 The electronic state is 2-A.
 Alpha  occ. eigenvalues --  -38.44772 -38.44214 -38.44145 -38.44125 -38.43806
 Alpha  occ. eigenvalues --  -38.43355 -38.43329  -2.20542  -2.20052  -2.20039
 Alpha  occ. eigenvalues --   -2.19968  -2.19682  -2.19163  -2.19145  -1.14206
 Alpha  occ. eigenvalues --   -1.14179  -1.14160  -1.13790  -1.13749  -1.13732
 Alpha  occ. eigenvalues --   -1.13700  -1.13668  -1.13652  -1.13623  -1.13596
 Alpha  occ. eigenvalues --   -1.13588  -1.13365  -1.13319  -1.13291  -1.12963
 Alpha  occ. eigenvalues --   -1.12833  -1.12810  -1.12790  -1.12780  -1.12721
 Alpha  occ. eigenvalues --   -0.17741  -0.13190  -0.12055  -0.11438
 Alpha virt. eigenvalues --   -0.06020  -0.05120  -0.04722  -0.03780  -0.02901
 Alpha virt. eigenvalues --   -0.02839  -0.01729  -0.00845  -0.00598  -0.00265
 Alpha virt. eigenvalues --   -0.00029   0.00276   0.00355   0.00432   0.00793

  Beta  occ. eigenvalues --  -38.44710 -38.44196 -38.44126 -38.44074 -38.43756
  Beta  occ. eigenvalues --  -38.43356 -38.43327  -2.20427  -2.20020  -2.19951
  Beta  occ. eigenvalues --   -2.19933  -2.19596  -2.19165  -2.19143  -1.14124
  Beta  occ. eigenvalues --   -1.14099  -1.14087  -1.13751  -1.13704  -1.13676
  Beta  occ. eigenvalues --   -1.13666  -1.13632  -1.13600  -1.13588  -1.13571
  Beta  occ. eigenvalues --   -1.13545  -1.13299  -1.13263  -1.13212  -1.12964
  Beta  occ. eigenvalues --   -1.12829  -1.12808  -1.12783  -1.12781  -1.12722
  Beta  occ. eigenvalues --   -0.17088  -0.12853  -0.11904
  Beta virt. eigenvalues --   -0.07639  -0.05781  -0.04866  -0.04316  -0.03607
  Beta virt. eigenvalues --   -0.02424  -0.01985  -0.01525  -0.00591  -0.00466
  Beta virt. eigenvalues --   -0.00160   0.00058   0.00341   0.00431   0.00677

 Mulliken charges and spin densities:
               1          2
     1  Na  -0.380304   0.142908
     2  Na   0.237714   0.249372
     3  Na  -0.626003   0.338804
     4  Na  -0.065418  -0.112583
     5  Na   0.575424   0.117245
     6  Na   0.289989   0.068796
     7  Na  -0.031401   0.195458
 Sum of Mulliken charges =  -0.00000   1.00000

 Dipole moment (field-independent basis, Debye):
    X=              0.1482    Y=             -0.6471    Z=             -0.3962  Tot=              0.7731
 Quadrupole moment (field-independent basis, Debye-Ang):
   XX=            -56.2693   YY=            -75.1219   ZZ=            -66.1473
   XY=              0.4821   XZ=             -0.9494   YZ=              0.1614

 Normal termination of Gaussian 16 at Sun Dec  3 15:31:46 2023.
