 Gaussian 16, Revision B.01,
 Gaussian 16:  ES64L-G16RevB.01 20-Dec-2017

 -------------------------
 #P B3LYP/6-311+g(d) force
 -------------------------

 -----
 DPGEN
 -----
 Symbolic Z-matrix:
 Charge =  0 Multiplicity = 2

                         Standard orientation:
 ---------------------------------------------------------------------
 Center     Atomic      Atomic             Coordinates (Angstroms)
 Number     Number       Type             X           Y           Z
 ---------------------------------------------------------------------
      1         11           0       -2.303752    2.088487   -0.591726
      2         11           0        0.087051   -2.478243    0.705200
      3         11           0       -2.943900   -1.026693    0.050841
      4         11           0        2.298909    2.087019    0.057303
      5         11           0        3.046000   -0.851643   -0.276144
      6         11           0       -0.230390    0.750527    2.054538
      7         11           0        0.046081   -0.569453   -2.000013
 ---------------------------------------------------------------------

 SCF Done:  E(UB3LYP) =  -1136.13231269     A.U. after   21 cycles

 The electronic state is 2-A.
 Alpha  occ. eigenvalues --  -38.44266 -38.44145 -38.44098 -38.43923 -38.43750
 Alpha  occ. eigenvalues --  -38.43660 -38.42720  -2.20118  -2.20011  -2.19974
 Alpha  occ. eigenvalues --   -2.19785  -2.19572  -2.19496  -2.18612  -1.13795
 Alpha  occ. eigenvalues --   -1.13783  -1.13767  -1.13720  -1.13678  -1.13663
 Alpha  occ. eigenvalues --   -1.13640  -1.13610  -1.13585  -1.13456  -1.13422
 Alpha  occ. eigenvalues --   -1.13410  -1.13233  -1.13232  -1.13211  -1.13164
 Alpha  occ. eigenvalues --   -1.13149  -1.13134  -1.12295  -1.12267  -1.12245
 Alpha  occ. eigenvalues --   -0.18443  -0.13546  -0.11751  -0.11281
 Alpha virt. eigenvalues --   -0.05944  -0.05413  -0.04023  -0.03576  -0.03213
 Alpha virt. eigenvalues --   -0.02789  -0.01699  -0.00941  -0.00365  -0.00133
 Alpha virt. eigenvalues --   -0.00010   0.00383   0.00657   0.00679   0.00868

  Beta  occ. eigenvalues --  -38.44262 -38.44141 -38.44032 -38.43843 -38.43737
  Beta  occ. eigenvalues --  -38.43659 -38.42698  -2.20115  -2.20006  -2.19853
  Beta  occ. eigenvalues --   -2.19639  -2.19551  -2.19498  -2.18575  -1.13790
  Beta  occ. eigenvalues --   -1.13771  -1.13755  -1.13718  -1.13658  -1.13648
  Beta  occ. eigenvalues --   -1.13569  -1.13526  -1.13498  -1.13361  -1.13314
  Beta  occ. eigenvalues --   -1.13307  -1.13222  -1.13210  -1.13187  -1.13167
  Beta  occ. eigenvalues --   -1.13138  -1.13130  -1.12273  -1.12232  -1.12205
  Beta  occ. eigenvalues --   -0.17687  -0.13327  -0.11557
  Beta virt. eigenvalues --   -0.07377  -0.05791  -0.05399  -0.03795  -0.02944
  Beta virt. eigenvalues --   -0.02500  -0.01807  -0.01596  -0.00873  -0.00379
  Beta virt. eigenvalues --   -0.00054   0.00057   0.00411   0.00779   0.00860

 Mulliken charges and spin densities:
               1          2
     1  Na  -0.037129  -0.020861
     2  Na  -0.003423   0.159198
     3  Na   0.265546  -0.008846
     4  Na  -0.005688  -0.111748
     5  Na   0.259202   0.043024
     6  Na  -0.242509   0.469534
     7  Na  -0.236000   0.469699
 Sum of Mulliken charges =  -0.00000   1.00000

 Dipole moment (field-independent basis, Debye):
    X=             -0.1606    Y=              0.0104    Z=             -0.1936  Tot=              0.2518
 Quadrupole moment (field-independent basis, Debye-Ang):
   XX=            -56.5230   YY=            -69.3428   ZZ=            -70.3836
   XY=             -0.1276   XZ=             -0.0619   YZ=             -2.2902

 Normal termination of Gaussian 16 at Tue Dec  5 18:11:04 2023.
