 Gaussian 16, Revision B.01,
 Gaussian 16:  ES64L-G16RevB.01 20-Dec-2017

 -------------------------
 #P B3LYP/6-311+g(d) force
 -------------------------

 -----
 DPGEN
 -----
 Symbolic Z-matrix:
 Charge =  0 Multiplicity = 2

                         Standard orientation:
 ---------------------------------------------------------------------
 Center     Atomic      Atomic             Coordinates (Angstroms)
 Number     Number       Type             X           Y           Z
 ---------------------------------------------------------------------
      1         11           0       -0.760994    1.822059   -1.746867
      2         11           0        1.837629   -1.115106    1.684375
      3         11           0       -4.077086   -0.573772   -0.272536
      4         11           0       -1.141648    1.250191    1.945834
      5         11           0        2.241126   -1.164077   -1.704620
      6         11           0       -0.544366   -1.896098   -0.092501
      7         11           0        2.445340    1.676805    0.186315
 ---------------------------------------------------------------------

 SCF Done:  E(UB3LYP) =  -1136.12255436     A.U. after   24 cycles

 The electronic state is 2-A.
 Alpha  occ. eigenvalues --  -38.45049 -38.44573 -38.44120 -38.44116 -38.43813
 Alpha  occ. eigenvalues --  -38.43553 -38.42803  -2.20779  -2.20365  -2.19994
 Alpha  occ. eigenvalues --   -2.19892  -2.19744  -2.19398  -2.18692  -1.14458
 Alpha  occ. eigenvalues --   -1.14444  -1.14407  -1.14051  -1.14011  -1.13978
 Alpha  occ. eigenvalues --   -1.13672  -1.13649  -1.13607  -1.13574  -1.13544
 Alpha  occ. eigenvalues --   -1.13509  -1.13449  -1.13412  -1.13342  -1.13076
 Alpha  occ. eigenvalues --   -1.13064  -1.13023  -1.12407  -1.12380  -1.12281
 Alpha  occ. eigenvalues --   -0.18211  -0.13100  -0.11721  -0.11145
 Alpha virt. eigenvalues --   -0.06678  -0.05093  -0.04332  -0.03273  -0.02975
 Alpha virt. eigenvalues --   -0.02882  -0.02177  -0.00871  -0.00600  -0.00267
 Alpha virt. eigenvalues --    0.00001   0.00222   0.00326   0.00584   0.00754

  Beta  occ. eigenvalues --  -38.45053 -38.44524 -38.44081 -38.44073 -38.43768
  Beta  occ. eigenvalues --  -38.43549 -38.42791  -2.20787  -2.20277  -2.19907
  Beta  occ. eigenvalues --   -2.19826  -2.19663  -2.19394  -2.18674  -1.14460
  Beta  occ. eigenvalues --   -1.14450  -1.14412  -1.13989  -1.13945  -1.13913
  Beta  occ. eigenvalues --   -1.13609  -1.13595  -1.13540  -1.13526  -1.13496
  Beta  occ. eigenvalues --   -1.13462  -1.13394  -1.13363  -1.13264  -1.13072
  Beta  occ. eigenvalues --   -1.13032  -1.13026  -1.12383  -1.12350  -1.12274
  Beta  occ. eigenvalues --   -0.17391  -0.13002  -0.10950
  Beta virt. eigenvalues --   -0.07808  -0.06498  -0.04496  -0.04152  -0.03036
  Beta virt. eigenvalues --   -0.02392  -0.02128  -0.02033  -0.00678  -0.00363
  Beta virt. eigenvalues --   -0.00160   0.00192   0.00229   0.00340   0.00719

 Mulliken charges and spin densities:
               1          2
     1  Na  -0.219631   0.219815
     2  Na   0.519763   0.361346
     3  Na   0.162165  -0.053672
     4  Na  -0.091118   0.123893
     5  Na   0.174395   0.221913
     6  Na  -0.552532   0.140123
     7  Na   0.006958  -0.013418
 Sum of Mulliken charges =  -0.00000   1.00000

 Dipole moment (field-independent basis, Debye):
    X=             -0.6571    Y=              0.2471    Z=             -0.1012  Tot=              0.7093
 Quadrupole moment (field-independent basis, Debye-Ang):
   XX=            -52.1584   YY=            -78.5006   ZZ=            -63.5075
   XY=             -0.8241   XZ=              0.1213   YZ=              1.2046

 Normal termination of Gaussian 16 at Thu Dec  7 03:00:50 2023.
