 Gaussian 16, Revision B.01,
 Gaussian 16:  ES64L-G16RevB.01 20-Dec-2017

 -------------------------
 #P B3LYP/6-311+g(d) force
 -------------------------

 -----
 DPGEN
 -----
 Symbolic Z-matrix:
 Charge =  0 Multiplicity = 2

                         Standard orientation:
 ---------------------------------------------------------------------
 Center     Atomic      Atomic             Coordinates (Angstroms)
 Number     Number       Type             X           Y           Z
 ---------------------------------------------------------------------
      1         11           0       -1.926037    2.135738   -0.333470
      2         11           0       -3.266139   -1.432014    0.406379
      3         11           0        1.331548    2.789692   -0.259152
      4         11           0        0.124103   -0.010185    2.068481
      5         11           0        1.363523   -2.880469   -0.485733
      6         11           0       -0.423704   -0.414960   -1.658579
      7         11           0        2.796707   -0.187801    0.262074
 ---------------------------------------------------------------------

 SCF Done:  E(UB3LYP) =  -1136.13278958     A.U. after   19 cycles

 The electronic state is 2-A.
 Alpha  occ. eigenvalues --  -38.44350 -38.44020 -38.43851 -38.43713 -38.43555
 Alpha  occ. eigenvalues --  -38.43431 -38.43309  -2.20112  -2.19891  -2.19705
 Alpha  occ. eigenvalues --   -2.19567  -2.19467  -2.19356  -2.19153  -1.13781
 Alpha  occ. eigenvalues --   -1.13771  -1.13747  -1.13572  -1.13527  -1.13503
 Alpha  occ. eigenvalues --   -1.13419  -1.13371  -1.13319  -1.13285  -1.13246
 Alpha  occ. eigenvalues --   -1.13203  -1.13142  -1.13127  -1.13070  -1.13034
 Alpha  occ. eigenvalues --   -1.12995  -1.12969  -1.12824  -1.12806  -1.12800
 Alpha  occ. eigenvalues --   -0.18408  -0.13051  -0.12361  -0.10849
 Alpha virt. eigenvalues --   -0.05848  -0.05211  -0.04680  -0.03273  -0.02937
 Alpha virt. eigenvalues --   -0.02575  -0.01644  -0.01286  -0.00409  -0.00241
 Alpha virt. eigenvalues --   -0.00044   0.00331   0.00733   0.00807   0.00871

  Beta  occ. eigenvalues --  -38.44343 -38.43928 -38.43840 -38.43701 -38.43547
  Beta  occ. eigenvalues --  -38.43375 -38.43307  -2.20098  -2.19722  -2.19688
  Beta  occ. eigenvalues --   -2.19546  -2.19456  -2.19253  -2.19152  -1.13764
  Beta  occ. eigenvalues --   -1.13760  -1.13740  -1.13460  -1.13413  -1.13396
  Beta  occ. eigenvalues --   -1.13382  -1.13351  -1.13304  -1.13275  -1.13222
  Beta  occ. eigenvalues --   -1.13179  -1.13130  -1.13101  -1.13055  -1.12965
  Beta  occ. eigenvalues --   -1.12918  -1.12897  -1.12826  -1.12807  -1.12780
  Beta  occ. eigenvalues --   -0.17701  -0.12798  -0.12118
  Beta virt. eigenvalues --   -0.07033  -0.05745  -0.05093  -0.04604  -0.02569
  Beta virt. eigenvalues --   -0.02268  -0.01611  -0.01491  -0.01168  -0.00439
  Beta virt. eigenvalues --   -0.00261   0.00101   0.00371   0.00787   0.00856

 Mulliken charges and spin densities:
               1          2
     1  Na   0.172788   0.033780
     2  Na  -0.106788   0.025112
     3  Na  -0.141260  -0.019845
     4  Na  -0.349418   0.568873
     5  Na   0.173968  -0.015760
     6  Na  -0.026448   0.268777
     7  Na   0.277158   0.139063
 Sum of Mulliken charges =  -0.00000   1.00000

 Dipole moment (field-independent basis, Debye):
    X=             -0.4202    Y=             -0.2640    Z=              0.1651  Tot=              0.5229
 Quadrupole moment (field-independent basis, Debye-Ang):
   XX=            -58.9800   YY=            -61.5818   ZZ=            -73.7566
   XY=              0.8571   XZ=             -1.2106   YZ=             -0.8163

 Normal termination of Gaussian 16 at Tue Dec  5 12:48:47 2023.
