 Gaussian 16, Revision B.01,
 Gaussian 16:  ES64L-G16RevB.01 20-Dec-2017

 -------------------------
 #P B3LYP/6-311+g(d) force
 -------------------------

 -----
 DPGEN
 -----
 Symbolic Z-matrix:
 Charge =  0 Multiplicity = 2

                         Standard orientation:
 ---------------------------------------------------------------------
 Center     Atomic      Atomic             Coordinates (Angstroms)
 Number     Number       Type             X           Y           Z
 ---------------------------------------------------------------------
      1         11           0        3.537276   -0.879139   -0.534006
      2         11           0       -0.270712   -2.320083    0.724526
      3         11           0       -1.505994    1.684040   -1.053001
      4         11           0        1.578143    2.317209   -0.048291
      5         11           0       -3.133540   -0.181506    0.395265
      6         11           0        0.349434    0.495606    2.322845
      7         11           0       -0.554605   -1.116128   -1.807338
 ---------------------------------------------------------------------

 SCF Done:  E(UB3LYP) =  -1136.11598829     A.U. after   23 cycles

 The electronic state is 2-A.
 Alpha  occ. eigenvalues --  -38.45185 -38.44775 -38.44521 -38.44270 -38.43172
 Alpha  occ. eigenvalues --  -38.43169 -38.43063  -2.20914  -2.20657  -2.20393
 Alpha  occ. eigenvalues --   -2.20229  -2.19140  -2.19088  -2.18910  -1.14592
 Alpha  occ. eigenvalues --   -1.14564  -1.14542  -1.14412  -1.14297  -1.14273
 Alpha  occ. eigenvalues --   -1.14058  -1.14034  -1.14003  -1.13996  -1.13909
 Alpha  occ. eigenvalues --   -1.13792  -1.12830  -1.12814  -1.12799  -1.12755
 Alpha  occ. eigenvalues --   -1.12745  -1.12661  -1.12601  -1.12573  -1.12527
 Alpha  occ. eigenvalues --   -0.18721  -0.13068  -0.11918  -0.11675
 Alpha virt. eigenvalues --   -0.06549  -0.04572  -0.04011  -0.03638  -0.03253
 Alpha virt. eigenvalues --   -0.03101  -0.02093  -0.00583  -0.00290   0.00067
 Alpha virt. eigenvalues --    0.00143   0.00276   0.00415   0.00802   0.00909

  Beta  occ. eigenvalues --  -38.45169 -38.44772 -38.44429 -38.44219 -38.43152
  Beta  occ. eigenvalues --  -38.43149 -38.43061  -2.20886  -2.20655  -2.20223
  Beta  occ. eigenvalues --   -2.20135  -2.19101  -2.19061  -2.18908  -1.14568
  Beta  occ. eigenvalues --   -1.14546  -1.14525  -1.14412  -1.14276  -1.14270
  Beta  occ. eigenvalues --   -1.13945  -1.13932  -1.13907  -1.13887  -1.13842
  Beta  occ. eigenvalues --   -1.13725  -1.12796  -1.12791  -1.12777  -1.12713
  Beta  occ. eigenvalues --   -1.12707  -1.12642  -1.12591  -1.12562  -1.12527
  Beta  occ. eigenvalues --   -0.17942  -0.12846  -0.11597
  Beta virt. eigenvalues --   -0.07854  -0.06351  -0.04443  -0.03615  -0.03239
  Beta virt. eigenvalues --   -0.02588  -0.02155  -0.01966  -0.00532  -0.00101
  Beta virt. eigenvalues --    0.00057   0.00169   0.00339   0.00575   0.00844

 Mulliken charges and spin densities:
               1          2
     1  Na  -0.066494  -0.047162
     2  Na   0.089441   0.090635
     3  Na  -0.076968   0.023605
     4  Na  -0.034922   0.137984
     5  Na   0.335115   0.074034
     6  Na  -0.218317   0.348353
     7  Na  -0.027855   0.372550
 Sum of Mulliken charges =  -0.00000   1.00000

 Dipole moment (field-independent basis, Debye):
    X=              0.2476    Y=             -0.3033    Z=              0.2371  Tot=              0.4577
 Quadrupole moment (field-independent basis, Debye-Ang):
   XX=            -54.4006   YY=            -74.5644   ZZ=            -66.9666
   XY=             -0.2290   XZ=             -3.0972   YZ=             -0.4457

 Normal termination of Gaussian 16 at Thu Dec  7 08:05:46 2023.
