 Gaussian 16, Revision B.01,
 Gaussian 16:  ES64L-G16RevB.01 20-Dec-2017

 -------------------------
 #P B3LYP/6-311+g(d) force
 -------------------------

 -----
 DPGEN
 -----
 Symbolic Z-matrix:
 Charge =  0 Multiplicity = 2

                         Standard orientation:
 ---------------------------------------------------------------------
 Center     Atomic      Atomic             Coordinates (Angstroms)
 Number     Number       Type             X           Y           Z
 ---------------------------------------------------------------------
      1         11           0       -1.527916    2.289175   -0.379170
      2         11           0        1.732260    2.119825   -0.161260
      3         11           0        3.204701   -0.989349   -0.043449
      4         11           0       -0.630269   -2.705833   -0.021694
      5         11           0       -2.980692   -0.441652    0.079707
      6         11           0        0.103684    0.192986    2.108907
      7         11           0        0.098233   -0.465153   -1.583041
 ---------------------------------------------------------------------

 SCF Done:  E(UB3LYP) =  -1136.13271393     A.U. after   19 cycles

 The electronic state is 2-A.
 Alpha  occ. eigenvalues --  -38.44391 -38.43986 -38.43723 -38.43423 -38.43354
 Alpha  occ. eigenvalues --  -38.43264 -38.43010  -2.20190  -2.19878  -2.19618
 Alpha  occ. eigenvalues --   -2.19343  -2.19290  -2.19254  -2.18922  -1.13864
 Alpha  occ. eigenvalues --   -1.13846  -1.13833  -1.13569  -1.13539  -1.13528
 Alpha  occ. eigenvalues --   -1.13291  -1.13273  -1.13250  -1.13231  -1.13001
 Alpha  occ. eigenvalues --   -1.12961  -1.12942  -1.12921  -1.12913  -1.12890
 Alpha  occ. eigenvalues --   -1.12867  -1.12832  -1.12594  -1.12577  -1.12558
 Alpha  occ. eigenvalues --   -0.19082  -0.13263  -0.12423  -0.10949
 Alpha virt. eigenvalues --   -0.05943  -0.04910  -0.04343  -0.03310  -0.02902
 Alpha virt. eigenvalues --   -0.02639  -0.01751  -0.00911  -0.00198  -0.00054
 Alpha virt. eigenvalues --   -0.00003   0.00347   0.00827   0.00902   0.00944

  Beta  occ. eigenvalues --  -38.44391 -38.43981 -38.43624 -38.43416 -38.43346
  Beta  occ. eigenvalues --  -38.43203 -38.43000  -2.20192  -2.19873  -2.19435
  Beta  occ. eigenvalues --   -2.19329  -2.19244  -2.19186  -2.18908  -1.13857
  Beta  occ. eigenvalues --   -1.13842  -1.13836  -1.13568  -1.13539  -1.13498
  Beta  occ. eigenvalues --   -1.13237  -1.13167  -1.13120  -1.13101  -1.12964
  Beta  occ. eigenvalues --   -1.12941  -1.12932  -1.12889  -1.12881  -1.12858
  Beta  occ. eigenvalues --   -1.12799  -1.12775  -1.12586  -1.12565  -1.12525
  Beta  occ. eigenvalues --   -0.18329  -0.13040  -0.12170
  Beta virt. eigenvalues --   -0.06973  -0.05914  -0.04898  -0.04318  -0.02499
  Beta virt. eigenvalues --   -0.02108  -0.01691  -0.01522  -0.00845  -0.00250
  Beta virt. eigenvalues --   -0.00071   0.00125   0.00367   0.00858   0.00924

 Mulliken charges and spin densities:
               1          2
     1  Na   0.154997   0.046117
     2  Na   0.249927   0.024778
     3  Na   0.136526  -0.082391
     4  Na   0.396705  -0.028902
     5  Na   0.233462   0.075822
     6  Na  -0.673336   0.680355
     7  Na  -0.498281   0.284222
 Sum of Mulliken charges =  -0.00000   1.00000

 Dipole moment (field-independent basis, Debye):
    X=              0.3676    Y=             -0.2338    Z=              0.2933  Tot=              0.5252
 Quadrupole moment (field-independent basis, Debye-Ang):
   XX=            -54.6628   YY=            -65.8142   ZZ=            -73.4126
   XY=             -0.7086   XZ=             -0.0782   YZ=             -1.4299

 Normal termination of Gaussian 16 at Thu Dec  7 18:27:43 2023.
