 Gaussian 16, Revision B.01,
 Gaussian 16:  ES64L-G16RevB.01 20-Dec-2017

 -------------------------
 #P B3LYP/6-311+g(d) force
 -------------------------

 -----
 DPGEN
 -----
 Symbolic Z-matrix:
 Charge =  0 Multiplicity = 2

                         Standard orientation:
 ---------------------------------------------------------------------
 Center     Atomic      Atomic             Coordinates (Angstroms)
 Number     Number       Type             X           Y           Z
 ---------------------------------------------------------------------
      1         11           0       -2.620757   -1.816670   -0.156968
      2         11           0        3.488439   -0.063986   -0.426672
      3         11           0        0.100281   -0.005996   -1.632668
      4         11           0        0.749971    2.901463   -0.033345
      5         11           0        0.876267   -2.597536    0.180402
      6         11           0        0.503316    0.129249    2.087639
      7         11           0       -3.097516    1.453477   -0.018387
 ---------------------------------------------------------------------

 SCF Done:  E(UB3LYP) =  -1136.13294956     A.U. after   20 cycles

 The electronic state is 2-A.
 Alpha  occ. eigenvalues --  -38.44961 -38.44394 -38.43716 -38.43552 -38.43533
 Alpha  occ. eigenvalues --  -38.43413 -38.43054  -2.20743  -2.20174  -2.19540
 Alpha  occ. eigenvalues --   -2.19482  -2.19412  -2.19224  -2.18931  -1.14417
 Alpha  occ. eigenvalues --   -1.14388  -1.14380  -1.13852  -1.13843  -1.13808
 Alpha  occ. eigenvalues --   -1.13219  -1.13207  -1.13188  -1.13177  -1.13144
 Alpha  occ. eigenvalues --   -1.13090  -1.13077  -1.13044  -1.13032  -1.12903
 Alpha  occ. eigenvalues --   -1.12892  -1.12844  -1.12623  -1.12602  -1.12544
 Alpha  occ. eigenvalues --   -0.18211  -0.13104  -0.12069  -0.10598
 Alpha virt. eigenvalues --   -0.06430  -0.05157  -0.04456  -0.03122  -0.02758
 Alpha virt. eigenvalues --   -0.02523  -0.02158  -0.01111  -0.00619  -0.00375
 Alpha virt. eigenvalues --   -0.00076   0.00279   0.00720   0.00782   0.00821

  Beta  occ. eigenvalues --  -38.44946 -38.44397 -38.43715 -38.43499 -38.43432
  Beta  occ. eigenvalues --  -38.43408 -38.43044  -2.20717  -2.20180  -2.19541
  Beta  occ. eigenvalues --   -2.19386  -2.19226  -2.19219  -2.18917  -1.14379
  Beta  occ. eigenvalues --   -1.14373  -1.14366  -1.13857  -1.13839  -1.13813
  Beta  occ. eigenvalues --   -1.13210  -1.13204  -1.13180  -1.13118  -1.13080
  Beta  occ. eigenvalues --   -1.13015  -1.12955  -1.12922  -1.12905  -1.12890
  Beta  occ. eigenvalues --   -1.12859  -1.12843  -1.12616  -1.12556  -1.12538
  Beta  occ. eigenvalues --   -0.17508  -0.12896  -0.11846
  Beta virt. eigenvalues --   -0.06707  -0.06329  -0.05162  -0.04400  -0.02471
  Beta virt. eigenvalues --   -0.02045  -0.01974  -0.01467  -0.01066  -0.00652
  Beta virt. eigenvalues --   -0.00399   0.00086   0.00332   0.00790   0.00803

 Mulliken charges and spin densities:
               1          2
     1  Na   0.050109  -0.054795
     2  Na   0.203397   0.000132
     3  Na  -0.104485   0.536165
     4  Na  -0.070778  -0.131392
     5  Na   0.213127   0.028661
     6  Na  -0.309747   0.694871
     7  Na   0.018378  -0.073644
 Sum of Mulliken charges =  -0.00000   1.00000

 Dipole moment (field-independent basis, Debye):
    X=              0.3107    Y=              0.1892    Z=              0.0159  Tot=              0.3642
 Quadrupole moment (field-independent basis, Debye-Ang):
   XX=            -51.9637   YY=            -65.5881   ZZ=            -75.1956
   XY=             -0.4008   XZ=             -1.0065   YZ=             -0.1296

 Normal termination of Gaussian 16 at Thu Dec  7 05:13:17 2023.
