 Gaussian 16, Revision B.01,
 Gaussian 16:  ES64L-G16RevB.01 20-Dec-2017

 -------------------------
 #P B3LYP/6-311+g(d) force
 -------------------------

 -----
 DPGEN
 -----
 Symbolic Z-matrix:
 Charge =  0 Multiplicity = 2

                         Standard orientation:
 ---------------------------------------------------------------------
 Center     Atomic      Atomic             Coordinates (Angstroms)
 Number     Number       Type             X           Y           Z
 ---------------------------------------------------------------------
      1         11           0        0.014132   -0.802962   -1.737024
      2         11           0       -0.167572    0.572771    1.749672
      3         11           0       -1.798519    2.609710   -0.126268
      4         11           0        3.032929   -1.025949    0.021616
      5         11           0       -3.406882   -0.776285   -0.256901
      6         11           0       -0.155972   -2.540174    0.650561
      7         11           0        2.481884    1.962889   -0.301655
 ---------------------------------------------------------------------

 SCF Done:  E(UB3LYP) =  -1136.12896840     A.U. after   20 cycles

 The electronic state is 2-A.
 Alpha  occ. eigenvalues --  -38.44953 -38.44177 -38.43938 -38.43783 -38.43754
 Alpha  occ. eigenvalues --  -38.43105 -38.42979  -2.20726  -2.20044  -2.19770
 Alpha  occ. eigenvalues --   -2.19699  -2.19555  -2.19035  -2.18903  -1.14404
 Alpha  occ. eigenvalues --   -1.14367  -1.14366  -1.13772  -1.13702  -1.13683
 Alpha  occ. eigenvalues --   -1.13440  -1.13432  -1.13420  -1.13399  -1.13345
 Alpha  occ. eigenvalues --   -1.13292  -1.13257  -1.13217  -1.13182  -1.12725
 Alpha  occ. eigenvalues --   -1.12684  -1.12651  -1.12593  -1.12546  -1.12498
 Alpha  occ. eigenvalues --   -0.18438  -0.13391  -0.12100  -0.10476
 Alpha virt. eigenvalues --   -0.06355  -0.05448  -0.04221  -0.03273  -0.02853
 Alpha virt. eigenvalues --   -0.02195  -0.02142  -0.01122  -0.00578  -0.00298
 Alpha virt. eigenvalues --   -0.00032   0.00308   0.00700   0.00784   0.00807

  Beta  occ. eigenvalues --  -38.44942 -38.44173 -38.43931 -38.43753 -38.43732
  Beta  occ. eigenvalues --  -38.43027 -38.42954  -2.20708  -2.20039  -2.19759
  Beta  occ. eigenvalues --   -2.19604  -2.19555  -2.18892  -2.18860  -1.14376
  Beta  occ. eigenvalues --   -1.14358  -1.14357  -1.13770  -1.13692  -1.13664
  Beta  occ. eigenvalues --   -1.13424  -1.13408  -1.13384  -1.13374  -1.13281
  Beta  occ. eigenvalues --   -1.13249  -1.13219  -1.13210  -1.13181  -1.12637
  Beta  occ. eigenvalues --   -1.12583  -1.12556  -1.12551  -1.12483  -1.12465
  Beta  occ. eigenvalues --   -0.17739  -0.13130  -0.11906
  Beta virt. eigenvalues --   -0.06691  -0.06187  -0.05422  -0.04148  -0.02581
  Beta virt. eigenvalues --   -0.02171  -0.01993  -0.01246  -0.01079  -0.00586
  Beta virt. eigenvalues --   -0.00282   0.00118   0.00361   0.00763   0.00824

 Mulliken charges and spin densities:
               1          2
     1  Na  -0.321036   0.589244
     2  Na  -0.005595   0.435180
     3  Na  -0.132344  -0.120738
     4  Na   0.357336   0.065868
     5  Na   0.035198   0.022922
     6  Na   0.208223   0.071585
     7  Na  -0.141782  -0.064060
 Sum of Mulliken charges =  -0.00000   1.00000

 Dipole moment (field-independent basis, Debye):
    X=             -0.3866    Y=             -0.0430    Z=             -0.1573  Tot=              0.4196
 Quadrupole moment (field-independent basis, Debye-Ang):
   XX=            -52.4327   YY=            -66.0072   ZZ=            -74.8567
   XY=              0.2696   XZ=              0.6006   YZ=             -2.8600

 Normal termination of Gaussian 16 at Thu Dec  7 22:06:55 2023.
