 Gaussian 16, Revision B.01,
 Gaussian 16:  ES64L-G16RevB.01 20-Dec-2017

 -------------------------
 #P B3LYP/6-311+g(d) force
 -------------------------

 -----
 DPGEN
 -----
 Symbolic Z-matrix:
 Charge =  0 Multiplicity = 2

                         Standard orientation:
 ---------------------------------------------------------------------
 Center     Atomic      Atomic             Coordinates (Angstroms)
 Number     Number       Type             X           Y           Z
 ---------------------------------------------------------------------
      1         11           0       -2.224662   -1.465545    1.001081
      2         11           0        3.227660   -1.756152   -1.174537
      3         11           0       -3.950982    0.039956   -1.102026
      4         11           0       -0.086666    0.507997   -1.322149
      5         11           0        2.533687    1.815075    0.115278
      6         11           0       -0.528285    1.844456    0.833136
      7         11           0        1.029248   -0.985788    1.649217
 ---------------------------------------------------------------------

 SCF Done:  E(UB3LYP) =  -1136.11314154     A.U. after   24 cycles

 The electronic state is 2-A.
 Alpha  occ. eigenvalues --  -38.44923 -38.44800 -38.44213 -38.43773 -38.43434
 Alpha  occ. eigenvalues --  -38.43272 -38.43266  -2.20931  -2.20621  -2.20110
 Alpha  occ. eigenvalues --   -2.19659  -2.19364  -2.19303  -2.19063  -1.14882
 Alpha  occ. eigenvalues --   -1.14540  -1.14494  -1.14300  -1.14270  -1.14236
 Alpha  occ. eigenvalues --   -1.13799  -1.13789  -1.13712  -1.13346  -1.13315
 Alpha  occ. eigenvalues --   -1.13301  -1.13073  -1.13030  -1.13014  -1.12972
 Alpha  occ. eigenvalues --   -1.12896  -1.12839  -1.12731  -1.12718  -1.12688
 Alpha  occ. eigenvalues --   -0.18929  -0.14097  -0.11485  -0.11108
 Alpha virt. eigenvalues --   -0.06587  -0.04972  -0.04678  -0.03167  -0.02607
 Alpha virt. eigenvalues --   -0.02568  -0.02113  -0.01006  -0.00848  -0.00052
 Alpha virt. eigenvalues --    0.00107   0.00280   0.00388   0.00635   0.00727

  Beta  occ. eigenvalues --  -38.44901 -38.44762 -38.44207 -38.43747 -38.43374
  Beta  occ. eigenvalues --  -38.43247 -38.43242  -2.20891  -2.20549  -2.20101
  Beta  occ. eigenvalues --   -2.19618  -2.19273  -2.19259  -2.19007  -1.14846
  Beta  occ. eigenvalues --   -1.14510  -1.14463  -1.14255  -1.14218  -1.14186
  Beta  occ. eigenvalues --   -1.13788  -1.13776  -1.13705  -1.13307  -1.13285
  Beta  occ. eigenvalues --   -1.13251  -1.13023  -1.12987  -1.12947  -1.12879
  Beta  occ. eigenvalues --   -1.12841  -1.12816  -1.12692  -1.12674  -1.12655
  Beta  occ. eigenvalues --   -0.18210  -0.13726  -0.10955
  Beta virt. eigenvalues --   -0.07628  -0.06344  -0.04723  -0.04209  -0.02864
  Beta virt. eigenvalues --   -0.02367  -0.02126  -0.01480  -0.00854  -0.00534
  Beta virt. eigenvalues --    0.00064   0.00167   0.00337   0.00508   0.00704

 Mulliken charges and spin densities:
               1          2
     1  Na  -0.351695   0.118243
     2  Na  -0.155792   0.175506
     3  Na   0.550923   0.181964
     4  Na  -0.936527   0.181370
     5  Na   0.508860   0.089933
     6  Na   0.506763   0.259270
     7  Na  -0.122533  -0.006287
 Sum of Mulliken charges =  -0.00000   1.00000

 Dipole moment (field-independent basis, Debye):
    X=             -0.6556    Y=              0.6491    Z=             -0.0784  Tot=              0.9259
 Quadrupole moment (field-independent basis, Debye-Ang):
   XX=            -53.4593   YY=            -75.1730   ZZ=            -66.9806
   XY=              3.4328   XZ=              2.0274   YZ=              1.2266

 Normal termination of Gaussian 16 at Tue Dec  5 22:12:41 2023.
