 Gaussian 16, Revision B.01,
 Gaussian 16:  ES64L-G16RevB.01 20-Dec-2017

 -------------------------
 #P B3LYP/6-311+g(d) force
 -------------------------

 -----
 DPGEN
 -----
 Symbolic Z-matrix:
 Charge =  0 Multiplicity = 2

                         Standard orientation:
 ---------------------------------------------------------------------
 Center     Atomic      Atomic             Coordinates (Angstroms)
 Number     Number       Type             X           Y           Z
 ---------------------------------------------------------------------
      1         11           0       -3.896719    0.979464    0.399031
      2         11           0        4.077053   -0.592518    0.345748
      3         11           0       -1.138396    1.423579   -1.247144
      4         11           0        2.030620    2.638574   -0.274521
      5         11           0        0.104221   -0.067788    1.881423
      6         11           0       -2.242030   -2.167745   -0.079676
      7         11           0        1.065251   -2.213565   -1.024862
 ---------------------------------------------------------------------

 SCF Done:  E(UB3LYP) =  -1136.11787380     A.U. after   27 cycles

 The electronic state is 2-A.
 Alpha  occ. eigenvalues --  -38.47093 -38.44195 -38.43900 -38.43789 -38.43722
 Alpha  occ. eigenvalues --  -38.43473 -38.43411  -2.22837  -2.19983  -2.19729
 Alpha  occ. eigenvalues --   -2.19625  -2.19503  -2.19336  -2.19231  -1.16531
 Alpha  occ. eigenvalues --   -1.16486  -1.16467  -1.13648  -1.13624  -1.13598
 Alpha  occ. eigenvalues --   -1.13421  -1.13397  -1.13361  -1.13302  -1.13270
 Alpha  occ. eigenvalues --   -1.13247  -1.13185  -1.13163  -1.13142  -1.13013
 Alpha  occ. eigenvalues --   -1.13000  -1.12953  -1.12902  -1.12890  -1.12868
 Alpha  occ. eigenvalues --   -0.17593  -0.13682  -0.11867  -0.10011
 Alpha virt. eigenvalues --   -0.07569  -0.05755  -0.04189  -0.03325  -0.03128
 Alpha virt. eigenvalues --   -0.02530  -0.01915  -0.01674  -0.01040  -0.00702
 Alpha virt. eigenvalues --   -0.00152  -0.00045   0.00245   0.00544   0.00636

  Beta  occ. eigenvalues --  -38.47098 -38.44127 -38.43890 -38.43741 -38.43711
  Beta  occ. eigenvalues --  -38.43443 -38.43387  -2.22846  -2.19855  -2.19717
  Beta  occ. eigenvalues --   -2.19533  -2.19487  -2.19284  -2.19191  -1.16525
  Beta  occ. eigenvalues --   -1.16500  -1.16476  -1.13559  -1.13538  -1.13515
  Beta  occ. eigenvalues --   -1.13415  -1.13389  -1.13325  -1.13243  -1.13207
  Beta  occ. eigenvalues --   -1.13185  -1.13176  -1.13148  -1.13115  -1.12982
  Beta  occ. eigenvalues --   -1.12952  -1.12906  -1.12870  -1.12869  -1.12821
  Beta  occ. eigenvalues --   -0.17181  -0.13110  -0.11470
  Beta virt. eigenvalues --   -0.07348  -0.06682  -0.05756  -0.03690  -0.03020
  Beta virt. eigenvalues --   -0.02713  -0.02243  -0.01674  -0.01484  -0.00781
  Beta virt. eigenvalues --   -0.00288  -0.00039   0.00066   0.00458   0.00651

 Mulliken charges and spin densities:
               1          2
     1  Na   0.314660   0.385580
     2  Na   0.069772   0.518394
     3  Na  -0.262565   0.085120
     4  Na  -0.002379  -0.036199
     5  Na  -0.099332  -0.087871
     6  Na   0.107270   0.064366
     7  Na  -0.127426   0.070610
 Sum of Mulliken charges =  -0.00000   1.00000

 Dipole moment (field-independent basis, Debye):
    X=             -0.1776    Y=             -0.1239    Z=              0.4858  Tot=              0.5318
 Quadrupole moment (field-independent basis, Debye-Ang):
   XX=            -65.4177   YY=            -73.5080   ZZ=            -64.8639
   XY=              3.1678   XZ=             -1.3307   YZ=              1.3735

 Normal termination of Gaussian 16 at Thu Dec  7 17:17:43 2023.
