 Gaussian 16, Revision B.01,
 Gaussian 16:  ES64L-G16RevB.01 20-Dec-2017

 -------------------------
 #P B3LYP/6-311+g(d) force
 -------------------------

 -----
 DPGEN
 -----
 Symbolic Z-matrix:
 Charge =  0 Multiplicity = 2

                         Standard orientation:
 ---------------------------------------------------------------------
 Center     Atomic      Atomic             Coordinates (Angstroms)
 Number     Number       Type             X           Y           Z
 ---------------------------------------------------------------------
      1         11           0        2.116409    2.237356    0.508034
      2         11           0       -0.224651   -0.551515    2.021774
      3         11           0        2.778589   -1.080768   -0.214637
      4         11           0       -1.710620    2.518680   -0.379761
      5         11           0       -3.000237   -0.605906    0.120952
      6         11           0       -0.205595   -2.776733   -0.431068
      7         11           0        0.246105    0.258887   -1.625293
 ---------------------------------------------------------------------

 SCF Done:  E(UB3LYP) =  -1136.13835139     A.U. after   18 cycles

 The electronic state is 2-A.
 Alpha  occ. eigenvalues --  -38.43822 -38.43751 -38.43733 -38.43670 -38.43543
 Alpha  occ. eigenvalues --  -38.43212 -38.43124  -2.19671  -2.19609  -2.19572
 Alpha  occ. eigenvalues --   -2.19567  -2.19376  -2.19121  -2.19108  -1.13367
 Alpha  occ. eigenvalues --   -1.13334  -1.13322  -1.13313  -1.13275  -1.13258
 Alpha  occ. eigenvalues --   -1.13236  -1.13232  -1.13223  -1.13200  -1.13194
 Alpha  occ. eigenvalues --   -1.13179  -1.13082  -1.13027  -1.13003  -1.12842
 Alpha  occ. eigenvalues --   -1.12783  -1.12770  -1.12750  -1.12727  -1.12717
 Alpha  occ. eigenvalues --   -0.18736  -0.13051  -0.12499  -0.10856
 Alpha virt. eigenvalues --   -0.05382  -0.05244  -0.04695  -0.03277  -0.02984
 Alpha virt. eigenvalues --   -0.02546  -0.01379  -0.01102  -0.00373  -0.00200
 Alpha virt. eigenvalues --   -0.00002   0.00367   0.00828   0.00888   0.00903

  Beta  occ. eigenvalues --  -38.43818 -38.43740 -38.43726 -38.43584 -38.43536
  Beta  occ. eigenvalues --  -38.43199 -38.43062  -2.19667  -2.19600  -2.19551
  Beta  occ. eigenvalues --   -2.19411  -2.19366  -2.19090  -2.19008  -1.13352
  Beta  occ. eigenvalues --   -1.13324  -1.13311  -1.13305  -1.13254  -1.13244
  Beta  occ. eigenvalues --   -1.13213  -1.13207  -1.13182  -1.13133  -1.13094
  Beta  occ. eigenvalues --   -1.13065  -1.13064  -1.13013  -1.12998  -1.12805
  Beta  occ. eigenvalues --   -1.12744  -1.12713  -1.12705  -1.12668  -1.12645
  Beta  occ. eigenvalues --   -0.18015  -0.12801  -0.12248
  Beta virt. eigenvalues --   -0.06973  -0.05320  -0.05213  -0.04617  -0.02510
  Beta virt. eigenvalues --   -0.02260  -0.01519  -0.01288  -0.01012  -0.00380
  Beta virt. eigenvalues --   -0.00249   0.00133   0.00400   0.00882   0.00897

 Mulliken charges and spin densities:
               1          2
     1  Na  -0.097123   0.071522
     2  Na  -0.492094   0.709714
     3  Na   0.239798  -0.020242
     4  Na   0.044427  -0.059179
     5  Na   0.173135  -0.028007
     6  Na   0.233893  -0.045757
     7  Na  -0.102035   0.371948
 Sum of Mulliken charges =  -0.00000   1.00000

 Dipole moment (field-independent basis, Debye):
    X=              0.0219    Y=              0.0297    Z=              0.2194  Tot=              0.2225
 Quadrupole moment (field-independent basis, Debye-Ang):
   XX=            -57.9311   YY=            -62.4632   ZZ=            -73.4424
   XY=              0.2308   XZ=              0.9392   YZ=              1.8292

 Normal termination of Gaussian 16 at Thu Dec  7 08:10:13 2023.
