 Gaussian 16, Revision B.01,
 Gaussian 16:  ES64L-G16RevB.01 20-Dec-2017

 -------------------------
 #P B3LYP/6-311+g(d) force
 -------------------------

 -----
 DPGEN
 -----
 Symbolic Z-matrix:
 Charge =  0 Multiplicity = 2

                         Standard orientation:
 ---------------------------------------------------------------------
 Center     Atomic      Atomic             Coordinates (Angstroms)
 Number     Number       Type             X           Y           Z
 ---------------------------------------------------------------------
      1         11           0       -1.358651   -2.603604   -0.987216
      2         11           0        2.095821   -1.945650    0.690667
      3         11           0       -1.093780   -0.436532    2.103493
      4         11           0       -2.910072    0.959783   -0.328491
      5         11           0        3.119558    1.175225   -0.283585
      6         11           0        0.416569   -0.061432   -1.284614
      7         11           0       -0.269444    2.912210    0.089746
 ---------------------------------------------------------------------

 SCF Done:  E(UB3LYP) =  -1136.13435371     A.U. after   19 cycles

 The electronic state is 2-A.
 Alpha  occ. eigenvalues --  -38.44009 -38.43880 -38.43796 -38.43755 -38.43549
 Alpha  occ. eigenvalues --  -38.43539 -38.42814  -2.19863  -2.19728  -2.19634
 Alpha  occ. eigenvalues --   -2.19617  -2.19397  -2.19375  -2.18867  -1.13547
 Alpha  occ. eigenvalues --   -1.13535  -1.13497  -1.13431  -1.13390  -1.13360
 Alpha  occ. eigenvalues --   -1.13332  -1.13283  -1.13277  -1.13254  -1.13254
 Alpha  occ. eigenvalues --   -1.13225  -1.13116  -1.13067  -1.13041  -1.13026
 Alpha  occ. eigenvalues --   -1.13017  -1.12996  -1.12549  -1.12508  -1.12501
 Alpha  occ. eigenvalues --   -0.18461  -0.13144  -0.12422  -0.10734
 Alpha virt. eigenvalues --   -0.05535  -0.05282  -0.04730  -0.03286  -0.02907
 Alpha virt. eigenvalues --   -0.02397  -0.01448  -0.01157  -0.00503  -0.00269
 Alpha virt. eigenvalues --   -0.00005   0.00349   0.00791   0.00851   0.00868

  Beta  occ. eigenvalues --  -38.44005 -38.43864 -38.43796 -38.43670 -38.43538
  Beta  occ. eigenvalues --  -38.43515 -38.42770  -2.19857  -2.19701  -2.19637
  Beta  occ. eigenvalues --   -2.19459  -2.19375  -2.19337  -2.18789  -1.13539
  Beta  occ. eigenvalues --   -1.13521  -1.13484  -1.13416  -1.13352  -1.13348
  Beta  occ. eigenvalues --   -1.13324  -1.13282  -1.13254  -1.13171  -1.13146
  Beta  occ. eigenvalues --   -1.13113  -1.13069  -1.13062  -1.13032  -1.12995
  Beta  occ. eigenvalues --   -1.12985  -1.12970  -1.12484  -1.12450  -1.12443
  Beta  occ. eigenvalues --   -0.17802  -0.12948  -0.12162
  Beta virt. eigenvalues --   -0.06841  -0.05464  -0.05172  -0.04618  -0.02618
  Beta virt. eigenvalues --   -0.02260  -0.01468  -0.01361  -0.01017  -0.00412
  Beta virt. eigenvalues --   -0.00287   0.00153   0.00407   0.00829   0.00869

 Mulliken charges and spin densities:
               1          2
     1  Na   0.159027   0.056810
     2  Na  -0.165476   0.127149
     3  Na  -0.433715   0.569467
     4  Na   0.277769   0.032866
     5  Na   0.164417  -0.006932
     6  Na   0.216590   0.248322
     7  Na  -0.218612  -0.027682
 Sum of Mulliken charges =  -0.00000   1.00000

 Dipole moment (field-independent basis, Debye):
    X=             -0.0236    Y=              0.0323    Z=              0.2802  Tot=              0.2831
 Quadrupole moment (field-independent basis, Debye-Ang):
   XX=            -56.7100   YY=            -62.6969   ZZ=            -73.7056
   XY=              0.3436   XZ=              2.3830   YZ=              0.2603

 Normal termination of Gaussian 16 at Fri Dec  8 03:12:25 2023.
