 Gaussian 16, Revision B.01,
 Gaussian 16:  ES64L-G16RevB.01 20-Dec-2017

 -------------------------
 #P B3LYP/6-311+g(d) force
 -------------------------

 -----
 DPGEN
 -----
 Symbolic Z-matrix:
 Charge =  0 Multiplicity = 2

                         Standard orientation:
 ---------------------------------------------------------------------
 Center     Atomic      Atomic             Coordinates (Angstroms)
 Number     Number       Type             X           Y           Z
 ---------------------------------------------------------------------
      1         11           0       -1.792097   -0.842168   -1.361115
      2         11           0       -3.039239   -1.213060    1.251349
      3         11           0       -2.208131    2.550121   -0.054613
      4         11           0        0.431359   -0.433092    1.865995
      5         11           0        1.070947    1.371406   -1.272570
      6         11           0        1.467815   -1.916299   -1.363501
      7         11           0        4.069346    0.483091    0.934454
 ---------------------------------------------------------------------

 SCF Done:  E(UB3LYP) =  -1136.11940145     A.U. after   28 cycles

 The electronic state is 2-A.
 Alpha  occ. eigenvalues --  -38.45496 -38.44919 -38.44432 -38.44070 -38.43934
 Alpha  occ. eigenvalues --  -38.43038 -38.42763  -2.21255  -2.20727  -2.20289
 Alpha  occ. eigenvalues --   -2.19999  -2.19784  -2.18901  -2.18549  -1.14919
 Alpha  occ. eigenvalues --   -1.14912  -1.14864  -1.14419  -1.14394  -1.14329
 Alpha  occ. eigenvalues --   -1.13981  -1.13925  -1.13898  -1.13805  -1.13671
 Alpha  occ. eigenvalues --   -1.13594  -1.13435  -1.13404  -1.13388  -1.12615
 Alpha  occ. eigenvalues --   -1.12587  -1.12491  -1.12230  -1.12203  -1.12188
 Alpha  occ. eigenvalues --   -0.18178  -0.13667  -0.11859  -0.10706
 Alpha virt. eigenvalues --   -0.06793  -0.04981  -0.04896  -0.03246  -0.02688
 Alpha virt. eigenvalues --   -0.02606  -0.02357  -0.01167  -0.00889  -0.00146
 Alpha virt. eigenvalues --    0.00058   0.00144   0.00249   0.00608   0.00734

  Beta  occ. eigenvalues --  -38.45456 -38.44880 -38.44360 -38.44044 -38.43924
  Beta  occ. eigenvalues --  -38.43022 -38.42762  -2.21181  -2.20656  -2.20162
  Beta  occ. eigenvalues --   -2.19956  -2.19766  -2.18876  -2.18549  -1.14863
  Beta  occ. eigenvalues --   -1.14861  -1.14818  -1.14370  -1.14344  -1.14271
  Beta  occ. eigenvalues --   -1.13883  -1.13838  -1.13803  -1.13766  -1.13640
  Beta  occ. eigenvalues --   -1.13560  -1.13415  -1.13387  -1.13375  -1.12598
  Beta  occ. eigenvalues --   -1.12538  -1.12484  -1.12228  -1.12202  -1.12188
  Beta  occ. eigenvalues --   -0.17413  -0.13372  -0.10588
  Beta virt. eigenvalues --   -0.07977  -0.06498  -0.04810  -0.04342  -0.02888
  Beta virt. eigenvalues --   -0.02383  -0.02091  -0.01869  -0.00826  -0.00757
  Beta virt. eigenvalues --   -0.00013   0.00146   0.00191   0.00320   0.00660

 Mulliken charges and spin densities:
               1          2
     1  Na   0.377908  -0.091015
     2  Na   0.248802   0.187847
     3  Na  -0.239151  -0.011210
     4  Na  -0.429860   0.412362
     5  Na  -0.475139   0.231248
     6  Na   0.103950   0.170811
     7  Na   0.413490   0.099956
 Sum of Mulliken charges =  -0.00000   1.00000

 Dipole moment (field-independent basis, Debye):
    X=              1.4474    Y=             -0.5115    Z=              0.5634  Tot=              1.6352
 Quadrupole moment (field-independent basis, Debye-Ang):
   XX=            -49.6381   YY=            -77.0668   ZZ=            -67.6409
   XY=              0.7085   XZ=             -0.4340   YZ=              5.7440

 Normal termination of Gaussian 16 at Thu Dec  7 03:59:50 2023.
