 Gaussian 16, Revision B.01,
 Gaussian 16:  ES64L-G16RevB.01 20-Dec-2017

 -------------------------
 #P B3LYP/6-311+g(d) force
 -------------------------

 -----
 DPGEN
 -----
 Symbolic Z-matrix:
 Charge =  0 Multiplicity = 2

                         Standard orientation:
 ---------------------------------------------------------------------
 Center     Atomic      Atomic             Coordinates (Angstroms)
 Number     Number       Type             X           Y           Z
 ---------------------------------------------------------------------
      1         11           0        0.233970    1.878107   -0.216256
      2         11           0        3.450815    1.101552   -1.521807
      3         11           0       -2.862809    2.087142    0.583297
      4         11           0       -1.369001   -1.096146    1.633920
      5         11           0        0.741768   -2.107155   -0.835436
      6         11           0       -2.644721   -1.248817   -1.757827
      7         11           0        2.449977   -0.614683    2.114108
 ---------------------------------------------------------------------

 SCF Done:  E(UB3LYP) =  -1136.12661339     A.U. after   21 cycles

 The electronic state is 2-A.
 Alpha  occ. eigenvalues --  -38.44898 -38.44553 -38.44286 -38.44206 -38.43572
 Alpha  occ. eigenvalues --  -38.43200 -38.43142  -2.20678  -2.20346  -2.20063
 Alpha  occ. eigenvalues --   -2.20050  -2.19392  -2.19032  -2.18965  -1.14349
 Alpha  occ. eigenvalues --   -1.14319  -1.14296  -1.14019  -1.13979  -1.13968
 Alpha  occ. eigenvalues --   -1.13750  -1.13725  -1.13716  -1.13697  -1.13680
 Alpha  occ. eigenvalues --   -1.13675  -1.13092  -1.13066  -1.13003  -1.12734
 Alpha  occ. eigenvalues --   -1.12725  -1.12710  -1.12626  -1.12599  -1.12574
 Alpha  occ. eigenvalues --   -0.17528  -0.13232  -0.11555  -0.11289
 Alpha virt. eigenvalues --   -0.05867  -0.05598  -0.04976  -0.03270  -0.02789
 Alpha virt. eigenvalues --   -0.02550  -0.01928  -0.01312  -0.00940  -0.00073
 Alpha virt. eigenvalues --    0.00075   0.00214   0.00309   0.00339   0.00406

  Beta  occ. eigenvalues --  -38.44845 -38.44504 -38.44243 -38.44180 -38.43564
  Beta  occ. eigenvalues --  -38.43198 -38.43139  -2.20580  -2.20256  -2.20005
  Beta  occ. eigenvalues --   -2.19982  -2.19379  -2.19031  -2.18960  -1.14280
  Beta  occ. eigenvalues --   -1.14254  -1.14222  -1.13955  -1.13923  -1.13903
  Beta  occ. eigenvalues --   -1.13723  -1.13665  -1.13661  -1.13656  -1.13633
  Beta  occ. eigenvalues --   -1.13631  -1.13087  -1.13038  -1.12990  -1.12728
  Beta  occ. eigenvalues --   -1.12715  -1.12710  -1.12616  -1.12598  -1.12570
  Beta  occ. eigenvalues --   -0.16939  -0.12885  -0.11250
  Beta virt. eigenvalues --   -0.07740  -0.05615  -0.05093  -0.04728  -0.03106
  Beta virt. eigenvalues --   -0.02303  -0.01920  -0.01761  -0.00866  -0.00791
  Beta virt. eigenvalues --    0.00066   0.00234   0.00313   0.00365   0.00396

 Mulliken charges and spin densities:
               1          2
     1  Na  -1.104540   0.261587
     2  Na   0.521350   0.059991
     3  Na   0.466976  -0.210551
     4  Na  -0.006643   0.341349
     5  Na  -0.209413   0.275501
     6  Na   0.124764   0.134918
     7  Na   0.207507   0.137207
 Sum of Mulliken charges =  -0.00000   1.00000

 Dipole moment (field-independent basis, Debye):
    X=              0.2236    Y=             -0.5612    Z=              0.1006  Tot=              0.6124
 Quadrupole moment (field-independent basis, Debye-Ang):
   XX=            -53.1332   YY=            -77.5258   ZZ=            -64.0035
   XY=             -0.5810   XZ=              1.5418   YZ=             -0.3057

 Normal termination of Gaussian 16 at Sun Dec  3 23:39:49 2023.
