 Gaussian 16, Revision B.01,
 Gaussian 16:  ES64L-G16RevB.01 20-Dec-2017

 -------------------------
 #P B3LYP/6-311+g(d) force
 -------------------------

 -----
 DPGEN
 -----
 Symbolic Z-matrix:
 Charge =  0 Multiplicity = 2

                         Standard orientation:
 ---------------------------------------------------------------------
 Center     Atomic      Atomic             Coordinates (Angstroms)
 Number     Number       Type             X           Y           Z
 ---------------------------------------------------------------------
      1         11           0       -1.747831    0.635207    1.334177
      2         11           0       -0.506460   -0.533355   -0.997696
      3         11           0       -2.948906   -2.515773   -0.703274
      4         11           0       -0.962454    3.542806   -0.469738
      5         11           0        1.134834   -1.144143    1.834084
      6         11           0        1.869636    1.485587   -0.288563
      7         11           0        3.161180   -1.470329   -0.708989
 ---------------------------------------------------------------------

 SCF Done:  E(UB3LYP) =  -1136.12616418     A.U. after   19 cycles

 The electronic state is 2-A.
 Alpha  occ. eigenvalues --  -38.44088 -38.43787 -38.43715 -38.43677 -38.43675
 Alpha  occ. eigenvalues --  -38.43551 -38.43339  -2.19947  -2.19710  -2.19645
 Alpha  occ. eigenvalues --   -2.19594  -2.19485  -2.19366  -2.19349  -1.13619
 Alpha  occ. eigenvalues --   -1.13608  -1.13594  -1.13549  -1.13383  -1.13345
 Alpha  occ. eigenvalues --   -1.13316  -1.13294  -1.13276  -1.13264  -1.13230
 Alpha  occ. eigenvalues --   -1.13184  -1.13173  -1.13132  -1.13112  -1.13051
 Alpha  occ. eigenvalues --   -1.13018  -1.13014  -1.12977  -1.12973  -1.12946
 Alpha  occ. eigenvalues --   -0.18626  -0.13228  -0.12262  -0.10788
 Alpha virt. eigenvalues --   -0.05829  -0.05273  -0.04693  -0.03116  -0.02630
 Alpha virt. eigenvalues --   -0.02150  -0.01728  -0.01520  -0.00652  -0.00186
 Alpha virt. eigenvalues --    0.00203   0.00225   0.00667   0.00753   0.00831

  Beta  occ. eigenvalues --  -38.44075 -38.43750 -38.43660 -38.43649 -38.43639
  Beta  occ. eigenvalues --  -38.43551 -38.43315  -2.19924  -2.19645  -2.19570
  Beta  occ. eigenvalues --   -2.19506  -2.19434  -2.19350  -2.19325  -1.13597
  Beta  occ. eigenvalues --   -1.13592  -1.13572  -1.13508  -1.13330  -1.13292
  Beta  occ. eigenvalues --   -1.13246  -1.13244  -1.13213  -1.13185  -1.13160
  Beta  occ. eigenvalues --   -1.13145  -1.13127  -1.13098  -1.13079  -1.13017
  Beta  occ. eigenvalues --   -1.13011  -1.12993  -1.12977  -1.12948  -1.12917
  Beta  occ. eigenvalues --   -0.17926  -0.13045  -0.11980
  Beta virt. eigenvalues --   -0.06955  -0.05669  -0.05026  -0.04406  -0.02664
  Beta virt. eigenvalues --   -0.02235  -0.01741  -0.01347  -0.01292  -0.00266
  Beta virt. eigenvalues --   -0.00120   0.00254   0.00352   0.00715   0.00829

 Mulliken charges and spin densities:
               1          2
     1  Na   0.322530   0.178470
     2  Na  -0.849447   0.203004
     3  Na  -0.046122   0.088610
     4  Na   0.031272  -0.058892
     5  Na  -0.148795   0.178242
     6  Na   0.370585   0.257863
     7  Na   0.319977   0.152703
 Sum of Mulliken charges =  -0.00000   1.00000

 Dipole moment (field-independent basis, Debye):
    X=              0.4399    Y=             -0.2815    Z=              0.2262  Tot=              0.5691
 Quadrupole moment (field-independent basis, Debye-Ang):
   XX=            -58.5736   YY=            -61.0672   ZZ=            -71.7737
   XY=             -3.3930   XZ=             -2.0121   YZ=              0.0702

 Normal termination of Gaussian 16 at Tue Dec  5 22:21:53 2023.
