 Gaussian 16, Revision B.01,
 Gaussian 16:  ES64L-G16RevB.01 20-Dec-2017

 -------------------------
 #P B3LYP/6-311+g(d) force
 -------------------------

 -----
 DPGEN
 -----
 Symbolic Z-matrix:
 Charge =  0 Multiplicity = 2

                         Standard orientation:
 ---------------------------------------------------------------------
 Center     Atomic      Atomic             Coordinates (Angstroms)
 Number     Number       Type             X           Y           Z
 ---------------------------------------------------------------------
      1         11           0       -1.090880   -1.123359    1.541250
      2         11           0        1.116144    0.525007    1.916016
      3         11           0        3.082559   -1.635366   -0.405686
      4         11           0       -1.991610    1.847785   -0.037317
      5         11           0        0.198107   -0.616740   -1.470209
      6         11           0        2.524648    1.709902   -0.772723
      7         11           0       -3.838968   -0.707228   -0.771330
 ---------------------------------------------------------------------

 SCF Done:  E(UB3LYP) =  -1136.11626221     A.U. after   27 cycles

 The electronic state is 2-A.
 Alpha  occ. eigenvalues --  -38.44789 -38.44529 -38.44465 -38.44390 -38.44094
 Alpha  occ. eigenvalues --  -38.43092 -38.42067  -2.20649  -2.20406  -2.20311
 Alpha  occ. eigenvalues --   -2.20196  -2.20009  -2.19074  -2.18042  -1.14336
 Alpha  occ. eigenvalues --   -1.14309  -1.14258  -1.14082  -1.14077  -1.14022
 Alpha  occ. eigenvalues --   -1.13999  -1.13948  -1.13925  -1.13874  -1.13861
 Alpha  occ. eigenvalues --   -1.13827  -1.13722  -1.13691  -1.13596  -1.12852
 Alpha  occ. eigenvalues --   -1.12721  -1.12671  -1.11743  -1.11684  -1.11644
 Alpha  occ. eigenvalues --   -0.18865  -0.14282  -0.11425  -0.10725
 Alpha virt. eigenvalues --   -0.06735  -0.05773  -0.04217  -0.03088  -0.02606
 Alpha virt. eigenvalues --   -0.02423  -0.02295  -0.01435  -0.00545  -0.00263
 Alpha virt. eigenvalues --    0.00098   0.00208   0.00506   0.00566   0.00700

  Beta  occ. eigenvalues --  -38.44753 -38.44480 -38.44437 -38.44402 -38.44063
  Beta  occ. eigenvalues --  -38.43058 -38.42053  -2.20580  -2.20316  -2.20260
  Beta  occ. eigenvalues --   -2.20219  -2.19958  -2.19011  -2.18022  -1.14287
  Beta  occ. eigenvalues --   -1.14256  -1.14215  -1.14026  -1.14011  -1.13960
  Beta  occ. eigenvalues --   -1.13951  -1.13909  -1.13884  -1.13883  -1.13875
  Beta  occ. eigenvalues --   -1.13842  -1.13666  -1.13633  -1.13566  -1.12819
  Beta  occ. eigenvalues --   -1.12669  -1.12618  -1.11720  -1.11664  -1.11615
  Beta  occ. eigenvalues --   -0.18102  -0.14155  -0.10524
  Beta virt. eigenvalues --   -0.07605  -0.06543  -0.05064  -0.04084  -0.02726
  Beta virt. eigenvalues --   -0.02496  -0.01880  -0.01723  -0.00896  -0.00421
  Beta virt. eigenvalues --   -0.00135   0.00151   0.00303   0.00526   0.00640

 Mulliken charges and spin densities:
               1          2
     1  Na  -0.279972   0.091213
     2  Na   0.239995   0.174703
     3  Na   0.125056   0.034927
     4  Na  -0.214397   0.197957
     5  Na  -0.409993   0.353770
     6  Na   0.131165   0.220794
     7  Na   0.408146  -0.073364
 Sum of Mulliken charges =  -0.00000   1.00000

 Dipole moment (field-independent basis, Debye):
    X=             -0.1529    Y=              0.1700    Z=             -0.0445  Tot=              0.2329
 Quadrupole moment (field-independent basis, Debye-Ang):
   XX=            -51.5916   YY=            -63.0682   ZZ=            -80.8498
   XY=              0.7418   XZ=              1.3081   YZ=             -2.1353

 Normal termination of Gaussian 16 at Tue Dec  5 19:40:32 2023.
