 Gaussian 16, Revision B.01,
 Gaussian 16:  ES64L-G16RevB.01 20-Dec-2017

 -------------------------
 #P B3LYP/6-311+g(d) force
 -------------------------

 -----
 DPGEN
 -----
 Symbolic Z-matrix:
 Charge =  0 Multiplicity = 2

                         Standard orientation:
 ---------------------------------------------------------------------
 Center     Atomic      Atomic             Coordinates (Angstroms)
 Number     Number       Type             X           Y           Z
 ---------------------------------------------------------------------
      1         11           0       -0.090432   -0.569906    1.544281
      2         11           0        3.709798    0.152885    0.818026
      3         11           0        1.907829   -2.128425   -1.108166
      4         11           0        1.482794    2.116734   -0.492879
      5         11           0       -1.265752   -0.088178   -1.301985
      6         11           0       -2.485940    2.428734    0.082627
      7         11           0       -3.258296   -1.911845    0.458096
 ---------------------------------------------------------------------

 SCF Done:  E(UB3LYP) =  -1136.12141836     A.U. after   23 cycles

 The electronic state is 2-A.
 Alpha  occ. eigenvalues --  -38.44644 -38.44337 -38.44204 -38.44106 -38.43836
 Alpha  occ. eigenvalues --  -38.43753 -38.43111  -2.20508  -2.20174  -2.20003
 Alpha  occ. eigenvalues --   -2.19915  -2.19659  -2.19582  -2.19109  -1.14255
 Alpha  occ. eigenvalues --   -1.14154  -1.14102  -1.13852  -1.13826  -1.13801
 Alpha  occ. eigenvalues --   -1.13710  -1.13661  -1.13622  -1.13601  -1.13556
 Alpha  occ. eigenvalues --   -1.13550  -1.13312  -1.13309  -1.13287  -1.13270
 Alpha  occ. eigenvalues --   -1.13262  -1.13199  -1.12832  -1.12753  -1.12704
 Alpha  occ. eigenvalues --   -0.18166  -0.13922  -0.11556  -0.10217
 Alpha virt. eigenvalues --   -0.06622  -0.06058  -0.04332  -0.03172  -0.02542
 Alpha virt. eigenvalues --   -0.02317  -0.01787  -0.01690  -0.00981  -0.00183
 Alpha virt. eigenvalues --   -0.00083   0.00153   0.00386   0.00582   0.00627

  Beta  occ. eigenvalues --  -38.44617 -38.44307 -38.44207 -38.44092 -38.43779
  Beta  occ. eigenvalues --  -38.43744 -38.43073  -2.20458  -2.20119  -2.20011
  Beta  occ. eigenvalues --   -2.19889  -2.19569  -2.19555  -2.19041  -1.14210
  Beta  occ. eigenvalues --   -1.14119  -1.14063  -1.13816  -1.13776  -1.13766
  Beta  occ. eigenvalues --   -1.13712  -1.13664  -1.13625  -1.13583  -1.13536
  Beta  occ. eigenvalues --   -1.13530  -1.13267  -1.13243  -1.13233  -1.13228
  Beta  occ. eigenvalues --   -1.13214  -1.13183  -1.12790  -1.12680  -1.12658
  Beta  occ. eigenvalues --   -0.17579  -0.13632  -0.11273
  Beta virt. eigenvalues --   -0.06636  -0.06374  -0.05944  -0.03927  -0.02883
  Beta virt. eigenvalues --   -0.02303  -0.01809  -0.01592  -0.01144  -0.00682
  Beta virt. eigenvalues --   -0.00024   0.00002   0.00209   0.00521   0.00647

 Mulliken charges and spin densities:
               1          2
     1  Na  -0.387063   0.312186
     2  Na   0.533201   0.194370
     3  Na  -0.191667   0.260793
     4  Na  -0.277382   0.024017
     5  Na  -0.044936   0.073312
     6  Na   0.137433  -0.019286
     7  Na   0.230413   0.154609
 Sum of Mulliken charges =  -0.00000   1.00000

 Dipole moment (field-independent basis, Debye):
    X=             -0.1480    Y=             -0.0120    Z=              0.2453  Tot=              0.2867
 Quadrupole moment (field-independent basis, Debye-Ang):
   XX=            -50.6581   YY=            -70.0266   ZZ=            -72.9507
   XY=             -1.9681   XZ=             -0.4759   YZ=              1.0763

 Normal termination of Gaussian 16 at Fri Dec  8 06:10:57 2023.
