 Gaussian 16, Revision B.01,
 Gaussian 16:  ES64L-G16RevB.01 20-Dec-2017

 -------------------------
 #P B3LYP/6-311+g(d) force
 -------------------------

 -----
 DPGEN
 -----
 Symbolic Z-matrix:
 Charge =  0 Multiplicity = 2

                         Standard orientation:
 ---------------------------------------------------------------------
 Center     Atomic      Atomic             Coordinates (Angstroms)
 Number     Number       Type             X           Y           Z
 ---------------------------------------------------------------------
      1         11           0       -3.919681   -2.018475    0.028050
      2         11           0       -0.968742   -2.575383   -0.237543
      3         11           0        5.380821    0.591197   -0.244869
      4         11           0        3.033156   -1.760562    0.110069
      5         11           0        1.881264    1.124131    0.563999
      6         11           0       -1.113281    3.004663   -0.358707
      7         11           0       -4.293536    1.634429    0.139000
 ---------------------------------------------------------------------

 SCF Done:  E(UB3LYP) =  -1136.11377596     A.U. after   23 cycles

 The electronic state is 2-A.
 Alpha  occ. eigenvalues --  -38.45267 -38.44934 -38.44861 -38.44594 -38.43861
 Alpha  occ. eigenvalues --  -38.43636 -38.43374  -2.21106  -2.20765  -2.20693
 Alpha  occ. eigenvalues --   -2.20356  -2.19678  -2.19435  -2.19150  -1.14824
 Alpha  occ. eigenvalues --   -1.14779  -1.14724  -1.14418  -1.14407  -1.14378
 Alpha  occ. eigenvalues --   -1.14374  -1.14363  -1.14291  -1.14036  -1.14015
 Alpha  occ. eigenvalues --   -1.13986  -1.13419  -1.13339  -1.13311  -1.13105
 Alpha  occ. eigenvalues --   -1.13094  -1.13046  -1.12825  -1.12816  -1.12787
 Alpha  occ. eigenvalues --   -0.16629  -0.14296  -0.12012  -0.11167
 Alpha virt. eigenvalues --   -0.07081  -0.05776  -0.03981  -0.03882  -0.03031
 Alpha virt. eigenvalues --   -0.02767  -0.02111  -0.01471  -0.01052  -0.00518
 Alpha virt. eigenvalues --   -0.00492  -0.00256   0.00098   0.00415   0.00684

  Beta  occ. eigenvalues --  -38.45248 -38.44853 -38.44826 -38.44577 -38.43862
  Beta  occ. eigenvalues --  -38.43630 -38.43361  -2.21078  -2.20631  -2.20611
  Beta  occ. eigenvalues --   -2.20325  -2.19678  -2.19422  -2.19127  -1.14809
  Beta  occ. eigenvalues --   -1.14766  -1.14656  -1.14338  -1.14322  -1.14308
  Beta  occ. eigenvalues --   -1.14301  -1.14274  -1.14226  -1.14015  -1.13995
  Beta  occ. eigenvalues --   -1.13962  -1.13427  -1.13339  -1.13303  -1.13097
  Beta  occ. eigenvalues --   -1.13085  -1.13035  -1.12811  -1.12801  -1.12763
  Beta  occ. eigenvalues --   -0.15902  -0.14003  -0.11927
  Beta virt. eigenvalues --   -0.07657  -0.06674  -0.05143  -0.03742  -0.03377
  Beta virt. eigenvalues --   -0.02789  -0.02621  -0.01796  -0.01352  -0.00636
  Beta virt. eigenvalues --   -0.00398  -0.00171  -0.00030   0.00302   0.00488

 Mulliken charges and spin densities:
               1          2
     1  Na   0.534789   0.430536
     2  Na  -0.418569  -0.137357
     3  Na   0.749439   0.401455
     4  Na   0.419180   0.001595
     5  Na  -1.193177   0.212129
     6  Na   0.223520   0.025870
     7  Na  -0.315183   0.065773
 Sum of Mulliken charges =  -0.00000   1.00000

 Dipole moment (field-independent basis, Debye):
    X=              1.8236    Y=             -0.0353    Z=              0.0074  Tot=              1.8239
 Quadrupole moment (field-independent basis, Debye-Ang):
   XX=            -52.0811   YY=            -70.6608   ZZ=            -72.8911
   XY=             -0.9217   XZ=             -1.4390   YZ=             -0.3493

 Normal termination of Gaussian 16 at Sun Dec  3 23:02:37 2023.
