 Gaussian 16, Revision B.01,
 Gaussian 16:  ES64L-G16RevB.01 20-Dec-2017

 -------------------------
 #P B3LYP/6-311+g(d) force
 -------------------------

 -----
 DPGEN
 -----
 Symbolic Z-matrix:
 Charge =  0 Multiplicity = 2

                         Standard orientation:
 ---------------------------------------------------------------------
 Center     Atomic      Atomic             Coordinates (Angstroms)
 Number     Number       Type             X           Y           Z
 ---------------------------------------------------------------------
      1         11           0        2.027875    2.743227   -0.667472
      2         11           0       -3.845714   -1.819927    0.646444
      3         11           0        2.488513   -2.693159   -0.138135
      4         11           0        4.506823    0.241504    0.806561
      5         11           0       -3.866771    1.317061   -0.102966
      6         11           0       -0.395833   -3.202351   -0.670317
      7         11           0       -0.914894    3.413645    0.125884
 ---------------------------------------------------------------------

 SCF Done:  E(UB3LYP) =  -1136.10854577     A.U. after   20 cycles

 The electronic state is 2-A.
 Alpha  occ. eigenvalues --  -38.44941 -38.44890 -38.44824 -38.44415 -38.44389
 Alpha  occ. eigenvalues --  -38.44183 -38.43918  -2.20726  -2.20669  -2.20609
 Alpha  occ. eigenvalues --   -2.20231  -2.20182  -2.20009  -2.19735  -1.14416
 Alpha  occ. eigenvalues --   -1.14397  -1.14379  -1.14363  -1.14343  -1.14310
 Alpha  occ. eigenvalues --   -1.14269  -1.14251  -1.14234  -1.14001  -1.13893
 Alpha  occ. eigenvalues --   -1.13871  -1.13828  -1.13812  -1.13804  -1.13650
 Alpha  occ. eigenvalues --   -1.13645  -1.13613  -1.13397  -1.13384  -1.13370
 Alpha  occ. eigenvalues --   -0.15657  -0.13985  -0.13570  -0.11051
 Alpha virt. eigenvalues --   -0.07496  -0.04686  -0.04426  -0.03664  -0.03395
 Alpha virt. eigenvalues --   -0.02507  -0.02207  -0.01854  -0.01282  -0.00980
 Alpha virt. eigenvalues --   -0.00342  -0.00093   0.00011   0.00409   0.00665

  Beta  occ. eigenvalues --  -38.44928 -38.44885 -38.44797 -38.44399 -38.44298
  Beta  occ. eigenvalues --  -38.44131 -38.43880  -2.20706  -2.20666  -2.20563
  Beta  occ. eigenvalues --   -2.20210  -2.20013  -2.19917  -2.19666  -1.14393
  Beta  occ. eigenvalues --   -1.14385  -1.14355  -1.14354  -1.14344  -1.14281
  Beta  occ. eigenvalues --   -1.14240  -1.14224  -1.14191  -1.13947  -1.13886
  Beta  occ. eigenvalues --   -1.13844  -1.13713  -1.13699  -1.13693  -1.13589
  Beta  occ. eigenvalues --   -1.13585  -1.13542  -1.13350  -1.13337  -1.13324
  Beta  occ. eigenvalues --   -0.15147  -0.13159  -0.12841
  Beta virt. eigenvalues --   -0.07872  -0.07682  -0.04292  -0.03918  -0.03441
  Beta virt. eigenvalues --   -0.03011  -0.02248  -0.02028  -0.01706  -0.01141
  Beta virt. eigenvalues --   -0.00606  -0.00091   0.00154   0.00225   0.00368

 Mulliken charges and spin densities:
               1          2
     1  Na  -0.149680   0.017175
     2  Na   0.203663   0.130356
     3  Na  -0.058927   0.058798
     4  Na   0.177866   0.438021
     5  Na  -0.007469   0.075693
     6  Na  -0.011063   0.148883
     7  Na  -0.154390   0.131073
 Sum of Mulliken charges =  -0.00000   1.00000

 Dipole moment (field-independent basis, Debye):
    X=             -0.6314    Y=              0.0294    Z=              0.1132  Tot=              0.6421
 Quadrupole moment (field-independent basis, Debye-Ang):
   XX=            -61.1691   YY=            -67.6395   ZZ=            -71.7531
   XY=              0.8231   XZ=             -0.0551   YZ=             -1.5674

 Normal termination of Gaussian 16 at Mon Dec  4 03:41:29 2023.
