 Gaussian 16, Revision B.01,
 Gaussian 16:  ES64L-G16RevB.01 20-Dec-2017

 -------------------------
 #P B3LYP/6-311+g(d) force
 -------------------------

 -----
 DPGEN
 -----
 Symbolic Z-matrix:
 Charge =  0 Multiplicity = 2

                         Standard orientation:
 ---------------------------------------------------------------------
 Center     Atomic      Atomic             Coordinates (Angstroms)
 Number     Number       Type             X           Y           Z
 ---------------------------------------------------------------------
      1         11           0       -3.806959   -1.682185   -0.010244
      2         11           0        4.316102   -1.162501   -0.657216
      3         11           0        1.932227    0.324096    1.711608
      4         11           0       -1.345959    0.105927    1.598323
      5         11           0        0.717080    2.570636   -0.575074
      6         11           0       -2.265793    1.339724   -1.100073
      7         11           0        0.453302   -1.495696   -0.967324
 ---------------------------------------------------------------------

 SCF Done:  E(UB3LYP) =  -1136.12201146     A.U. after   24 cycles

 The electronic state is 2-A.
 Alpha  occ. eigenvalues --  -38.45507 -38.44327 -38.44064 -38.43830 -38.43805
 Alpha  occ. eigenvalues --  -38.43658 -38.42962  -2.21281  -2.20088  -2.19861
 Alpha  occ. eigenvalues --   -2.19739  -2.19697  -2.19621  -2.18810  -1.15001
 Alpha  occ. eigenvalues --   -1.14962  -1.14868  -1.13757  -1.13754  -1.13705
 Alpha  occ. eigenvalues --   -1.13538  -1.13530  -1.13506  -1.13480  -1.13419
 Alpha  occ. eigenvalues --   -1.13410  -1.13353  -1.13327  -1.13313  -1.13291
 Alpha  occ. eigenvalues --   -1.13253  -1.13183  -1.12485  -1.12467  -1.12446
 Alpha  occ. eigenvalues --   -0.18267  -0.13733  -0.11491  -0.10940
 Alpha virt. eigenvalues --   -0.06975  -0.05371  -0.04422  -0.03247  -0.02715
 Alpha virt. eigenvalues --   -0.02516  -0.02090  -0.01662  -0.00804  -0.00299
 Alpha virt. eigenvalues --   -0.00024   0.00230   0.00353   0.00532   0.00617

  Beta  occ. eigenvalues --  -38.45496 -38.44306 -38.44063 -38.43791 -38.43753
  Beta  occ. eigenvalues --  -38.43596 -38.42950  -2.21263  -2.20050  -2.19861
  Beta  occ. eigenvalues --   -2.19668  -2.19606  -2.19512  -2.18791  -1.14973
  Beta  occ. eigenvalues --   -1.14947  -1.14857  -1.13730  -1.13727  -1.13681
  Beta  occ. eigenvalues --   -1.13533  -1.13525  -1.13499  -1.13436  -1.13358
  Beta  occ. eigenvalues --   -1.13339  -1.13295  -1.13272  -1.13244  -1.13214
  Beta  occ. eigenvalues --   -1.13172  -1.13099  -1.12461  -1.12452  -1.12429
  Beta  occ. eigenvalues --   -0.17603  -0.13531  -0.11173
  Beta virt. eigenvalues --   -0.07127  -0.06794  -0.05288  -0.03902  -0.02945
  Beta virt. eigenvalues --   -0.02613  -0.01995  -0.01613  -0.01281  -0.00416
  Beta virt. eigenvalues --   -0.00226   0.00020   0.00299   0.00479   0.00609

 Mulliken charges and spin densities:
               1          2
     1  Na   0.791869   0.056507
     2  Na   0.211972   0.082384
     3  Na   0.260137   0.159928
     4  Na  -0.355096   0.201626
     5  Na  -0.261933   0.018902
     6  Na   0.058590   0.343463
     7  Na  -0.705540   0.137190
 Sum of Mulliken charges =  -0.00000   1.00000

 Dipole moment (field-independent basis, Debye):
    X=             -0.0424    Y=             -0.1558    Z=             -0.2371  Tot=              0.2869
 Quadrupole moment (field-independent basis, Debye-Ang):
   XX=            -52.3778   YY=            -72.4401   ZZ=            -70.9466
   XY=              4.1899   XZ=              1.1053   YZ=              1.3719

 Normal termination of Gaussian 16 at Tue Dec  5 14:51:40 2023.
