 Gaussian 16, Revision B.01,
 Gaussian 16:  ES64L-G16RevB.01 20-Dec-2017

 -------------------------
 #P B3LYP/6-311+g(d) force
 -------------------------

 -----
 DPGEN
 -----
 Symbolic Z-matrix:
 Charge =  0 Multiplicity = 2

                         Standard orientation:
 ---------------------------------------------------------------------
 Center     Atomic      Atomic             Coordinates (Angstroms)
 Number     Number       Type             X           Y           Z
 ---------------------------------------------------------------------
      1         11           0       -1.166110    3.150874   -0.029445
      2         11           0        2.182445    0.721384    1.640256
      3         11           0       -1.746251    0.046138    1.342956
      4         11           0        0.290384   -2.641505    0.982651
      5         11           0       -3.217026   -1.212095   -1.116469
      6         11           0        3.529421   -0.277342   -1.407144
      7         11           0        0.127136    0.212546   -1.412805
 ---------------------------------------------------------------------

 SCF Done:  E(UB3LYP) =  -1136.12573977     A.U. after   21 cycles

 The electronic state is 2-A.
 Alpha  occ. eigenvalues --  -38.44600 -38.44576 -38.44238 -38.43821 -38.43623
 Alpha  occ. eigenvalues --  -38.43405 -38.42723  -2.20398  -2.20392  -2.20047
 Alpha  occ. eigenvalues --   -2.19624  -2.19541  -2.19355  -2.18523  -1.14084
 Alpha  occ. eigenvalues --   -1.14069  -1.14056  -1.14042  -1.14029  -1.13999
 Alpha  occ. eigenvalues --   -1.13715  -1.13691  -1.13668  -1.13318  -1.13292
 Alpha  occ. eigenvalues --   -1.13259  -1.13232  -1.13179  -1.13170  -1.13049
 Alpha  occ. eigenvalues --   -1.13030  -1.12949  -1.12199  -1.12178  -1.12167
 Alpha  occ. eigenvalues --   -0.17986  -0.13290  -0.11355  -0.11106
 Alpha virt. eigenvalues --   -0.06199  -0.05262  -0.04525  -0.03276  -0.02632
 Alpha virt. eigenvalues --   -0.02433  -0.02019  -0.01152  -0.00955  -0.00037
 Alpha virt. eigenvalues --    0.00101   0.00213   0.00279   0.00660   0.00751

  Beta  occ. eigenvalues --  -38.44573 -38.44545 -38.44197 -38.43793 -38.43586
  Beta  occ. eigenvalues --  -38.43382 -38.42727  -2.20350  -2.20335  -2.19970
  Beta  occ. eigenvalues --   -2.19573  -2.19474  -2.19315  -2.18532  -1.14047
  Beta  occ. eigenvalues --   -1.14036  -1.14005  -1.13998  -1.13997  -1.13961
  Beta  occ. eigenvalues --   -1.13652  -1.13640  -1.13621  -1.13279  -1.13246
  Beta  occ. eigenvalues --   -1.13203  -1.13199  -1.13135  -1.13120  -1.13022
  Beta  occ. eigenvalues --   -1.12971  -1.12923  -1.12201  -1.12185  -1.12169
  Beta  occ. eigenvalues --   -0.17302  -0.12956  -0.11164
  Beta virt. eigenvalues --   -0.07450  -0.06001  -0.04753  -0.04282  -0.03111
  Beta virt. eigenvalues --   -0.02039  -0.01828  -0.01790  -0.00933  -0.00624
  Beta virt. eigenvalues --    0.00065   0.00190   0.00300   0.00325   0.00741

 Mulliken charges and spin densities:
               1          2
     1  Na  -0.001297   0.016953
     2  Na  -0.020795   0.159327
     3  Na   0.283898   0.250853
     4  Na  -0.179632   0.120891
     5  Na   0.204143   0.078697
     6  Na   0.284894   0.111362
     7  Na  -0.571211   0.261916
 Sum of Mulliken charges =  -0.00000   1.00000

 Dipole moment (field-independent basis, Debye):
    X=              0.3286    Y=             -0.4852    Z=             -0.0154  Tot=              0.5862
 Quadrupole moment (field-independent basis, Debye-Ang):
   XX=            -55.3404   YY=            -70.2788   ZZ=            -67.1358
   XY=              0.9109   XZ=              2.3185   YZ=              1.8982

 Normal termination of Gaussian 16 at Fri Dec  8 05:16:40 2023.
