 Gaussian 16, Revision B.01,
 Gaussian 16:  ES64L-G16RevB.01 20-Dec-2017

 -------------------------
 #P B3LYP/6-311+g(d) force
 -------------------------

 -----
 DPGEN
 -----
 Symbolic Z-matrix:
 Charge =  0 Multiplicity = 2

                         Standard orientation:
 ---------------------------------------------------------------------
 Center     Atomic      Atomic             Coordinates (Angstroms)
 Number     Number       Type             X           Y           Z
 ---------------------------------------------------------------------
      1         11           0        1.667209   -2.080247   -0.535030
      2         11           0       -1.377283   -1.368646   -1.410762
      3         11           0       -0.417556    2.628668   -0.975291
      4         11           0       -4.057084    0.218312   -0.259955
      5         11           0       -1.591439   -0.863195    2.244096
      6         11           0        1.463410    1.448002    1.046688
      7         11           0        4.312743    0.017107   -0.109745
 ---------------------------------------------------------------------

 SCF Done:  E(UB3LYP) =  -1136.11071111     A.U. after   30 cycles

 The electronic state is 2-A.
 Alpha  occ. eigenvalues --  -38.46115 -38.45969 -38.44113 -38.43827 -38.43476
 Alpha  occ. eigenvalues --  -38.43410 -38.43066  -2.21884  -2.21744  -2.19935
 Alpha  occ. eigenvalues --   -2.19677  -2.19295  -2.19224  -2.18937  -1.15559
 Alpha  occ. eigenvalues --   -1.15535  -1.15522  -1.15415  -1.15394  -1.15386
 Alpha  occ. eigenvalues --   -1.13582  -1.13564  -1.13551  -1.13378  -1.13327
 Alpha  occ. eigenvalues --   -1.13313  -1.12990  -1.12976  -1.12958  -1.12922
 Alpha  occ. eigenvalues --   -1.12879  -1.12838  -1.12614  -1.12582  -1.12559
 Alpha  occ. eigenvalues --   -0.17453  -0.13948  -0.11303  -0.10759
 Alpha virt. eigenvalues --   -0.08061  -0.04890  -0.04298  -0.03533  -0.03212
 Alpha virt. eigenvalues --   -0.02499  -0.02463  -0.01352  -0.01015  -0.00369
 Alpha virt. eigenvalues --   -0.00144   0.00044   0.00160   0.00645   0.00839

  Beta  occ. eigenvalues --  -38.46106 -38.45970 -38.44003 -38.43802 -38.43476
  Beta  occ. eigenvalues --  -38.43390 -38.43056  -2.21870  -2.21746  -2.19730
  Beta  occ. eigenvalues --   -2.19632  -2.19296  -2.19185  -2.18920  -1.15539
  Beta  occ. eigenvalues --   -1.15518  -1.15511  -1.15414  -1.15397  -1.15387
  Beta  occ. eigenvalues --   -1.13441  -1.13426  -1.13410  -1.13348  -1.13287
  Beta  occ. eigenvalues --   -1.13278  -1.12991  -1.12951  -1.12947  -1.12925
  Beta  occ. eigenvalues --   -1.12848  -1.12812  -1.12603  -1.12554  -1.12549
  Beta  occ. eigenvalues --   -0.16878  -0.13743  -0.11162
  Beta virt. eigenvalues --   -0.07955  -0.06846  -0.04714  -0.03884  -0.03285
  Beta virt. eigenvalues --   -0.02988  -0.02012  -0.01608  -0.01287  -0.00642
  Beta virt. eigenvalues --   -0.00283  -0.00079   0.00086   0.00328   0.00762

 Mulliken charges and spin densities:
               1          2
     1  Na  -0.233014   0.029073
     2  Na  -0.129243   0.343757
     3  Na  -0.098057  -0.137905
     4  Na   0.404202   0.113366
     5  Na  -0.127414   0.385602
     6  Na  -0.228296   0.346974
     7  Na   0.411822  -0.080867
 Sum of Mulliken charges =  -0.00000   1.00000

 Dipole moment (field-independent basis, Debye):
    X=             -0.0090    Y=              0.1283    Z=             -0.1530  Tot=              0.1999
 Quadrupole moment (field-independent basis, Debye-Ang):
   XX=            -38.0179   YY=            -79.7868   ZZ=            -73.8403
   XY=             -1.0874   XZ=             -0.0844   YZ=             -1.8791

 Normal termination of Gaussian 16 at Fri Dec  8 17:24:21 2023.
