 Gaussian 16, Revision B.01,
 Gaussian 16:  ES64L-G16RevB.01 20-Dec-2017

 -------------------------
 #P B3LYP/6-311+g(d) force
 -------------------------

 -----
 DPGEN
 -----
 Symbolic Z-matrix:
 Charge =  0 Multiplicity = 2

                         Standard orientation:
 ---------------------------------------------------------------------
 Center     Atomic      Atomic             Coordinates (Angstroms)
 Number     Number       Type             X           Y           Z
 ---------------------------------------------------------------------
      1         11           0        1.704661   -1.646527   -0.151079
      2         11           0       -1.932306   -1.240539    1.686977
      3         11           0        2.863312    2.647326    0.007435
      4         11           0       -1.963764   -1.659090   -1.411471
      5         11           0       -4.765801    1.094768    0.017523
      6         11           0       -0.783376    1.613366   -0.271402
      7         11           0        4.877273   -0.809304    0.122017
 ---------------------------------------------------------------------

 SCF Done:  E(UB3LYP) =  -1136.11066241     A.U. after   26 cycles

 The electronic state is 2-A.
 Alpha  occ. eigenvalues --  -38.46211 -38.45405 -38.44206 -38.43935 -38.43919
 Alpha  occ. eigenvalues --  -38.43677 -38.43562  -2.22022  -2.21234  -2.19949
 Alpha  occ. eigenvalues --   -2.19747  -2.19725  -2.19461  -2.19359  -1.15731
 Alpha  occ. eigenvalues --   -1.15695  -1.15611  -1.14931  -1.14894  -1.14826
 Alpha  occ. eigenvalues --   -1.13634  -1.13602  -1.13581  -1.13447  -1.13410
 Alpha  occ. eigenvalues --   -1.13395  -1.13393  -1.13356  -1.13312  -1.13126
 Alpha  occ. eigenvalues --   -1.13110  -1.13073  -1.13071  -1.13045  -1.12965
 Alpha  occ. eigenvalues --   -0.17272  -0.14007  -0.11251  -0.10733
 Alpha virt. eigenvalues --   -0.07045  -0.06160  -0.04819  -0.03035  -0.02921
 Alpha virt. eigenvalues --   -0.02367  -0.01875  -0.01737  -0.01381  -0.00856
 Alpha virt. eigenvalues --   -0.00736  -0.00016   0.00189   0.00297   0.00560

  Beta  occ. eigenvalues --  -38.46210 -38.45402 -38.44188 -38.43886 -38.43858
  Beta  occ. eigenvalues --  -38.43612 -38.43557  -2.22021  -2.21229  -2.19917
  Beta  occ. eigenvalues --   -2.19667  -2.19604  -2.19355  -2.19339  -1.15730
  Beta  occ. eigenvalues --   -1.15692  -1.15605  -1.14926  -1.14892  -1.14819
  Beta  occ. eigenvalues --   -1.13615  -1.13578  -1.13547  -1.13410  -1.13351
  Beta  occ. eigenvalues --   -1.13310  -1.13296  -1.13263  -1.13260  -1.13076
  Beta  occ. eigenvalues --   -1.13043  -1.13034  -1.13025  -1.12994  -1.12937
  Beta  occ. eigenvalues --   -0.16904  -0.13245  -0.10790
  Beta virt. eigenvalues --   -0.07360  -0.06981  -0.06109  -0.04175  -0.02724
  Beta virt. eigenvalues --   -0.02668  -0.01977  -0.01765  -0.01534  -0.00975
  Beta virt. eigenvalues --   -0.00702  -0.00385   0.00057   0.00340   0.00410

 Mulliken charges and spin densities:
               1          2
     1  Na  -0.489499   0.080592
     2  Na   0.434195   0.004573
     3  Na  -0.028355  -0.118586
     4  Na   0.667949   0.040244
     5  Na   0.229141   0.492726
     6  Na  -0.933491   0.178357
     7  Na   0.120060   0.322094
 Sum of Mulliken charges =  -0.00000   1.00000

 Dipole moment (field-independent basis, Debye):
    X=             -0.7246    Y=             -1.0504    Z=              0.3029  Tot=              1.3115
 Quadrupole moment (field-independent basis, Debye-Ang):
   XX=            -65.7362   YY=            -76.6186   ZZ=            -61.5312
   XY=              8.3470   XZ=              1.2619   YZ=              0.1114

 Normal termination of Gaussian 16 at Sat Dec  9 05:51:42 2023.
