 Gaussian 16, Revision B.01,
 Gaussian 16:  ES64L-G16RevB.01 20-Dec-2017

 -------------------------
 #P B3LYP/6-311+g(d) force
 -------------------------

 -----
 DPGEN
 -----
 Symbolic Z-matrix:
 Charge =  0 Multiplicity = 2

                         Standard orientation:
 ---------------------------------------------------------------------
 Center     Atomic      Atomic             Coordinates (Angstroms)
 Number     Number       Type             X           Y           Z
 ---------------------------------------------------------------------
      1         11           0       -0.187248    0.848125    1.851042
      2         11           0       -2.435659    1.033887    0.024367
      3         11           0        3.957852   -0.061393    0.008699
      4         11           0        1.232855   -0.857373   -0.052900
      5         11           0        0.142068    1.699827   -1.033481
      6         11           0       -1.172007   -0.983785   -1.758154
      7         11           0       -1.537861   -1.679289    0.960427
 ---------------------------------------------------------------------

 SCF Done:  E(UB3LYP) =  -1136.08371617     A.U. after   26 cycles

 The electronic state is 2-A.
 Alpha  occ. eigenvalues --  -38.45533 -38.44129 -38.44108 -38.43797 -38.43519
 Alpha  occ. eigenvalues --  -38.43386 -38.43100  -2.21338  -2.20262  -2.20215
 Alpha  occ. eigenvalues --   -2.19924  -2.19618  -2.19496  -2.19297  -1.15083
 Alpha  occ. eigenvalues --   -1.14976  -1.14955  -1.14147  -1.14027  -1.13957
 Alpha  occ. eigenvalues --   -1.13928  -1.13839  -1.13718  -1.13696  -1.13621
 Alpha  occ. eigenvalues --   -1.13515  -1.13353  -1.13217  -1.13201  -1.13187
 Alpha  occ. eigenvalues --   -1.13111  -1.13064  -1.12957  -1.12945  -1.12835
 Alpha  occ. eigenvalues --   -0.21072  -0.13725  -0.12830  -0.11461
 Alpha virt. eigenvalues --   -0.06958  -0.03778  -0.03738  -0.03354  -0.02848
 Alpha virt. eigenvalues --   -0.02752  -0.02180  -0.00531  -0.00365   0.00123
 Alpha virt. eigenvalues --    0.00369   0.00395   0.00562   0.00888   0.01073

  Beta  occ. eigenvalues --  -38.45548 -38.44105 -38.44035 -38.43731 -38.43472
  Beta  occ. eigenvalues --  -38.43341 -38.43075  -2.21366  -2.20222  -2.20088
  Beta  occ. eigenvalues --   -2.19806  -2.19537  -2.19420  -2.19260  -1.15101
  Beta  occ. eigenvalues --   -1.14992  -1.14974  -1.14111  -1.13939  -1.13902
  Beta  occ. eigenvalues --   -1.13875  -1.13724  -1.13648  -1.13631  -1.13529
  Beta  occ. eigenvalues --   -1.13424  -1.13301  -1.13153  -1.13131  -1.13117
  Beta  occ. eigenvalues --   -1.13063  -1.12977  -1.12940  -1.12858  -1.12808
  Beta  occ. eigenvalues --   -0.20083  -0.13602  -0.11312
  Beta virt. eigenvalues --   -0.08207  -0.06800  -0.03482  -0.03233  -0.03064
  Beta virt. eigenvalues --   -0.02222  -0.02164  -0.01730  -0.00399  -0.00184
  Beta virt. eigenvalues --    0.00140   0.00408   0.00560   0.00605   0.00927

 Mulliken charges and spin densities:
               1          2
     1  Na  -0.383341   0.323323
     2  Na   0.613040   0.075416
     3  Na   0.665345  -0.105663
     4  Na  -0.148866   0.334789
     5  Na  -0.162953   0.213101
     6  Na  -0.428796   0.116990
     7  Na  -0.154428   0.042043
 Sum of Mulliken charges =  -0.00000   1.00000

 Dipole moment (field-independent basis, Debye):
    X=              0.8622    Y=              0.3511    Z=              0.0701  Tot=              0.9336
 Quadrupole moment (field-independent basis, Debye-Ang):
   XX=            -50.0417   YY=            -78.2245   ZZ=            -64.9447
   XY=              1.2724   XZ=              0.1042   YZ=             -2.6033

 Normal termination of Gaussian 16 at Fri Dec  8 18:34:53 2023.
