 Gaussian 16, Revision B.01,
 Gaussian 16:  ES64L-G16RevB.01 20-Dec-2017

 -------------------------
 #P B3LYP/6-311+g(d) force
 -------------------------

 -----
 DPGEN
 -----
 Symbolic Z-matrix:
 Charge =  0 Multiplicity = 2

                         Standard orientation:
 ---------------------------------------------------------------------
 Center     Atomic      Atomic             Coordinates (Angstroms)
 Number     Number       Type             X           Y           Z
 ---------------------------------------------------------------------
      1         11           0        0.680647   -1.637507    1.029404
      2         11           0       -1.399423    1.338983    1.331906
      3         11           0        1.331747    0.377227   -0.862396
      4         11           0       -2.254025   -1.256997   -0.438603
      5         11           0        2.931728    3.883050   -0.232093
      6         11           0       -4.916697    0.225203   -0.586076
      7         11           0        3.626023   -2.929958   -0.242142
 ---------------------------------------------------------------------

 SCF Done:  E(UB3LYP) =  -1136.10675724     A.U. after   22 cycles

 The electronic state is 2-A.
 Alpha  occ. eigenvalues --  -38.45410 -38.44421 -38.44420 -38.44128 -38.44100
 Alpha  occ. eigenvalues --  -38.43944 -38.43891  -2.21226  -2.20341  -2.20291
 Alpha  occ. eigenvalues --   -2.19943  -2.19915  -2.19853  -2.19691  -1.14915
 Alpha  occ. eigenvalues --   -1.14905  -1.14835  -1.14128  -1.14054  -1.14013
 Alpha  occ. eigenvalues --   -1.13998  -1.13960  -1.13884  -1.13588  -1.13575
 Alpha  occ. eigenvalues --   -1.13573  -1.13566  -1.13553  -1.13537  -1.13524
 Alpha  occ. eigenvalues --   -1.13512  -1.13415  -1.13350  -1.13346  -1.13301
 Alpha  occ. eigenvalues --   -0.17971  -0.13894  -0.11675  -0.10914
 Alpha virt. eigenvalues --   -0.06753  -0.05912  -0.04735  -0.03183  -0.02889
 Alpha virt. eigenvalues --   -0.02304  -0.01864  -0.01777  -0.01293  -0.00662
 Alpha virt. eigenvalues --   -0.00461  -0.00157   0.00104   0.00439   0.00546

  Beta  occ. eigenvalues --  -38.45402 -38.44427 -38.44416 -38.44073 -38.44026
  Beta  occ. eigenvalues --  -38.43882 -38.43872  -2.21215  -2.20341  -2.20306
  Beta  occ. eigenvalues --   -2.19823  -2.19813  -2.19805  -2.19576  -1.14911
  Beta  occ. eigenvalues --   -1.14871  -1.14840  -1.14126  -1.14030  -1.14022
  Beta  occ. eigenvalues --   -1.13970  -1.13951  -1.13899  -1.13518  -1.13511
  Beta  occ. eigenvalues --   -1.13503  -1.13495  -1.13489  -1.13478  -1.13468
  Beta  occ. eigenvalues --   -1.13464  -1.13344  -1.13271  -1.13266  -1.13226
  Beta  occ. eigenvalues --   -0.17468  -0.13240  -0.11117
  Beta virt. eigenvalues --   -0.07670  -0.06645  -0.05583  -0.04240  -0.02947
  Beta virt. eigenvalues --   -0.02675  -0.02214  -0.01682  -0.01225  -0.00993
  Beta virt. eigenvalues --   -0.00379  -0.00274  -0.00015   0.00255   0.00515

 Mulliken charges and spin densities:
               1          2
     1  Na   0.586095   0.076346
     2  Na   0.107439  -0.135003
     3  Na  -0.772850   0.078138
     4  Na  -0.507098   0.064692
     5  Na   0.097699   0.331888
     6  Na   0.318928   0.320362
     7  Na   0.169786   0.263577
 Sum of Mulliken charges =  -0.00000   1.00000

 Dipole moment (field-independent basis, Debye):
    X=             -0.8673    Y=             -0.3396    Z=              0.8714  Tot=              1.2755
 Quadrupole moment (field-independent basis, Debye-Ang):
   XX=            -65.7259   YY=            -69.9941   ZZ=            -67.1485
   XY=             -5.6400   XZ=             -2.2798   YZ=              3.2456

 Normal termination of Gaussian 16 at Tue Dec  5 21:42:35 2023.
