 Gaussian 16, Revision B.01,
 Gaussian 16:  ES64L-G16RevB.01 20-Dec-2017

 -------------------------
 #P B3LYP/6-311+g(d) force
 -------------------------

 -----
 DPGEN
 -----
 Symbolic Z-matrix:
 Charge =  0 Multiplicity = 2

                         Standard orientation:
 ---------------------------------------------------------------------
 Center     Atomic      Atomic             Coordinates (Angstroms)
 Number     Number       Type             X           Y           Z
 ---------------------------------------------------------------------
      1         11           0        1.854122   -2.432897    0.534102
      2         11           0       -4.244986    1.075626    0.228216
      3         11           0        0.552730   -0.122438   -1.509035
      4         11           0        1.322229    2.942054   -0.233310
      5         11           0       -2.269619   -1.808314   -0.816436
      6         11           0        3.553397    0.327679    0.149844
      7         11           0       -0.767872    0.018290    1.646618
 ---------------------------------------------------------------------

 SCF Done:  E(UB3LYP) =  -1136.11984590     A.U. after   26 cycles

 The electronic state is 2-A.
 Alpha  occ. eigenvalues --  -38.45666 -38.44852 -38.44579 -38.44129 -38.43232
 Alpha  occ. eigenvalues --  -38.42837 -38.42810  -2.21474  -2.20613  -2.20433
 Alpha  occ. eigenvalues --   -2.19977  -2.19204  -2.18672  -2.18658  -1.15185
 Alpha  occ. eigenvalues --   -1.15134  -1.15079  -1.14279  -1.14273  -1.14227
 Alpha  occ. eigenvalues --   -1.14119  -1.14093  -1.14051  -1.13662  -1.13646
 Alpha  occ. eigenvalues --   -1.13581  -1.12906  -1.12860  -1.12804  -1.12352
 Alpha  occ. eigenvalues --   -1.12338  -1.12325  -1.12321  -1.12300  -1.12300
 Alpha  occ. eigenvalues --   -0.18046  -0.13870  -0.11547  -0.10292
 Alpha virt. eigenvalues --   -0.07377  -0.05301  -0.04166  -0.03405  -0.02934
 Alpha virt. eigenvalues --   -0.02387  -0.01929  -0.01587  -0.00555  -0.00459
 Alpha virt. eigenvalues --   -0.00305  -0.00027   0.00365   0.00575   0.00716

  Beta  occ. eigenvalues --  -38.45653 -38.44815 -38.44557 -38.44096 -38.43166
  Beta  occ. eigenvalues --  -38.42831 -38.42796  -2.21450  -2.20545  -2.20392
  Beta  occ. eigenvalues --   -2.19921  -2.19086  -2.18650  -2.18648  -1.15155
  Beta  occ. eigenvalues --   -1.15122  -1.15062  -1.14230  -1.14224  -1.14183
  Beta  occ. eigenvalues --   -1.14096  -1.14064  -1.14008  -1.13617  -1.13605
  Beta  occ. eigenvalues --   -1.13531  -1.12831  -1.12776  -1.12705  -1.12341
  Beta  occ. eigenvalues --   -1.12321  -1.12316  -1.12309  -1.12296  -1.12261
  Beta  occ. eigenvalues --   -0.17521  -0.13475  -0.11231
  Beta virt. eigenvalues --   -0.07098  -0.06760  -0.05080  -0.04107  -0.02955
  Beta virt. eigenvalues --   -0.02602  -0.01851  -0.01507  -0.01351  -0.00488
  Beta virt. eigenvalues --   -0.00252  -0.00118   0.00106   0.00556   0.00667

 Mulliken charges and spin densities:
               1          2
     1  Na  -0.228523   0.239713
     2  Na  -0.084993   0.196537
     3  Na   0.469254   0.052782
     4  Na  -0.172354  -0.000128
     5  Na   0.066242   0.078799
     6  Na   0.086605   0.179324
     7  Na  -0.136233   0.252972
 Sum of Mulliken charges =  -0.00000   1.00000

 Dipole moment (field-independent basis, Debye):
    X=             -0.6550    Y=             -0.0744    Z=             -0.0248  Tot=              0.6597
 Quadrupole moment (field-independent basis, Debye-Ang):
   XX=            -55.9759   YY=            -69.8938   ZZ=            -71.2831
   XY=              1.1334   XZ=              2.2948   YZ=              1.2934

 Normal termination of Gaussian 16 at Tue Dec  5 18:06:15 2023.
