 Gaussian 16, Revision B.01,
 Gaussian 16:  ES64L-G16RevB.01 20-Dec-2017

 -------------------------
 #P B3LYP/6-311+g(d) force
 -------------------------

 -----
 DPGEN
 -----
 Symbolic Z-matrix:
 Charge =  0 Multiplicity = 2

                         Standard orientation:
 ---------------------------------------------------------------------
 Center     Atomic      Atomic             Coordinates (Angstroms)
 Number     Number       Type             X           Y           Z
 ---------------------------------------------------------------------
      1         11           0       -1.161619   -2.585915   -0.195163
      2         11           0       -2.888290   -0.134733    0.028616
      3         11           0       -0.970663    2.675761    0.014913
      4         11           0        0.248359    0.080692   -1.587907
      5         11           0        2.248445    1.623455   -0.179729
      6         11           0        0.073170    0.168184    1.696985
      7         11           0        2.450598   -1.827444    0.222286
 ---------------------------------------------------------------------

 SCF Done:  E(UB3LYP) =  -1136.13370801     A.U. after   19 cycles

 The electronic state is 2-A.
 Alpha  occ. eigenvalues --  -38.43676 -38.43674 -38.43586 -38.43465 -38.43287
 Alpha  occ. eigenvalues --  -38.42968 -38.42958  -2.19635  -2.19531  -2.19504
 Alpha  occ. eigenvalues --   -2.19366  -2.19209  -2.19055  -2.19000  -1.13431
 Alpha  occ. eigenvalues --   -1.13303  -1.13274  -1.13243  -1.13202  -1.13192
 Alpha  occ. eigenvalues --   -1.13164  -1.13160  -1.13155  -1.13035  -1.13009
 Alpha  occ. eigenvalues --   -1.12967  -1.12922  -1.12881  -1.12832  -1.12754
 Alpha  occ. eigenvalues --   -1.12683  -1.12655  -1.12637  -1.12619  -1.12599
 Alpha  occ. eigenvalues --   -0.19581  -0.13309  -0.12848  -0.10663
 Alpha virt. eigenvalues --   -0.05251  -0.05162  -0.04754  -0.03098  -0.02835
 Alpha virt. eigenvalues --   -0.02155  -0.01349  -0.01149  -0.00129  -0.00064
 Alpha virt. eigenvalues --    0.00057   0.00360   0.00892   0.00918   0.00960

  Beta  occ. eigenvalues --  -38.43670 -38.43661 -38.43581 -38.43458 -38.43279
  Beta  occ. eigenvalues --  -38.42894 -38.42877  -2.19617  -2.19524  -2.19499
  Beta  occ. eigenvalues --   -2.19359  -2.19200  -2.18921  -2.18853  -1.13408
  Beta  occ. eigenvalues --   -1.13274  -1.13255  -1.13237  -1.13190  -1.13169
  Beta  occ. eigenvalues --   -1.13163  -1.13159  -1.13122  -1.13024  -1.12984
  Beta  occ. eigenvalues --   -1.12966  -1.12911  -1.12843  -1.12824  -1.12667
  Beta  occ. eigenvalues --   -1.12586  -1.12557  -1.12543  -1.12515  -1.12491
  Beta  occ. eigenvalues --   -0.18851  -0.13017  -0.12567
  Beta virt. eigenvalues --   -0.06705  -0.05239  -0.05145  -0.04753  -0.02256
  Beta virt. eigenvalues --   -0.02041  -0.01271  -0.01147  -0.01051  -0.00169
  Beta virt. eigenvalues --   -0.00119   0.00172   0.00389   0.00921   0.00932

 Mulliken charges and spin densities:
               1          2
     1  Na   0.082159  -0.065000
     2  Na   0.086630  -0.046254
     3  Na   0.328777  -0.055419
     4  Na  -0.493451   0.560964
     5  Na   0.461526  -0.044365
     6  Na  -0.510537   0.723762
     7  Na   0.044896  -0.073688
 Sum of Mulliken charges =  -0.00000   1.00000

 Dipole moment (field-independent basis, Debye):
    X=              0.1390    Y=             -0.0899    Z=              0.0962  Tot=              0.1915
 Quadrupole moment (field-independent basis, Debye-Ang):
   XX=            -57.6284   YY=            -59.9350   ZZ=            -75.2352
   XY=             -1.0924   XZ=              0.4092   YZ=             -0.2310

 Normal termination of Gaussian 16 at Tue Nov 28 19:14:00 2023.
