 Gaussian 16, Revision B.01,
 Gaussian 16:  ES64L-G16RevB.01 20-Dec-2017

 -------------------------
 #P B3LYP/6-311+g(d) force
 -------------------------

 -----
 DPGEN
 -----
 Symbolic Z-matrix:
 Charge =  0 Multiplicity = 2

                         Standard orientation:
 ---------------------------------------------------------------------
 Center     Atomic      Atomic             Coordinates (Angstroms)
 Number     Number       Type             X           Y           Z
 ---------------------------------------------------------------------
      1         11           0       -2.968560   -0.992301   -0.318515
      2         11           0        0.160298   -0.283598    2.021553
      3         11           0       -0.075959   -2.869185   -0.064316
      4         11           0        1.965840    2.225210   -0.325624
      5         11           0       -0.353288    0.232306   -1.598075
      6         11           0        3.147374   -0.845127   -0.132267
      7         11           0       -1.875705    2.532695    0.417244
 ---------------------------------------------------------------------

 SCF Done:  E(UB3LYP) =  -1136.13760987     A.U. after   19 cycles

 The electronic state is 2-A.
 Alpha  occ. eigenvalues --  -38.44056 -38.44052 -38.43682 -38.43624 -38.43540
 Alpha  occ. eigenvalues --  -38.43264 -38.43199  -2.19902  -2.19871  -2.19492
 Alpha  occ. eigenvalues --   -2.19470  -2.19427  -2.19174  -2.19124  -1.13611
 Alpha  occ. eigenvalues --   -1.13552  -1.13547  -1.13538  -1.13526  -1.13513
 Alpha  occ. eigenvalues --   -1.13171  -1.13161  -1.13156  -1.13133  -1.13128
 Alpha  occ. eigenvalues --   -1.13103  -1.13092  -1.13059  -1.13039  -1.12861
 Alpha  occ. eigenvalues --   -1.12823  -1.12809  -1.12798  -1.12770  -1.12746
 Alpha  occ. eigenvalues --   -0.18507  -0.13088  -0.12373  -0.10639
 Alpha virt. eigenvalues --   -0.05642  -0.05318  -0.04708  -0.03154  -0.02913
 Alpha virt. eigenvalues --   -0.02437  -0.01591  -0.01209  -0.00437  -0.00389
 Alpha virt. eigenvalues --   -0.00008   0.00345   0.00780   0.00852   0.00878

  Beta  occ. eigenvalues --  -38.44055 -38.44042 -38.43673 -38.43616 -38.43447
  Beta  occ. eigenvalues --  -38.43258 -38.43143  -2.19887  -2.19871  -2.19476
  Beta  occ. eigenvalues --   -2.19458  -2.19255  -2.19118  -2.19072  -1.13591
  Beta  occ. eigenvalues --   -1.13549  -1.13532  -1.13526  -1.13516  -1.13508
  Beta  occ. eigenvalues --   -1.13158  -1.13146  -1.13130  -1.13124  -1.13112
  Beta  occ. eigenvalues --   -1.13081  -1.12992  -1.12942  -1.12916  -1.12814
  Beta  occ. eigenvalues --   -1.12774  -1.12769  -1.12742  -1.12733  -1.12712
  Beta  occ. eigenvalues --   -0.17802  -0.12831  -0.12140
  Beta virt. eigenvalues --   -0.06779  -0.05582  -0.05291  -0.04643  -0.02421
  Beta virt. eigenvalues --   -0.02160  -0.01502  -0.01408  -0.01112  -0.00475
  Beta virt. eigenvalues --   -0.00430   0.00131   0.00380   0.00844   0.00865

 Mulliken charges and spin densities:
               1          2
     1  Na   0.299886  -0.018614
     2  Na  -0.421747   0.787028
     3  Na   0.122472  -0.087770
     4  Na   0.148245  -0.023122
     5  Na  -0.125040   0.405916
     6  Na   0.016291  -0.069928
     7  Na  -0.040107   0.006489
 Sum of Mulliken charges =  -0.00000   1.00000

 Dipole moment (field-independent basis, Debye):
    X=             -0.0525    Y=             -0.0176    Z=              0.1185  Tot=              0.1308
 Quadrupole moment (field-independent basis, Debye-Ang):
   XX=            -55.8170   YY=            -62.5236   ZZ=            -74.8163
   XY=             -0.7480   XZ=             -0.9703   YZ=              1.3213

 Normal termination of Gaussian 16 at Thu Dec  7 11:54:03 2023.
