 Gaussian 16, Revision B.01,
 Gaussian 16:  ES64L-G16RevB.01 20-Dec-2017

 -------------------------
 #P B3LYP/6-311+g(d) force
 -------------------------

 -----
 DPGEN
 -----
 Symbolic Z-matrix:
 Charge =  0 Multiplicity = 2

                         Standard orientation:
 ---------------------------------------------------------------------
 Center     Atomic      Atomic             Coordinates (Angstroms)
 Number     Number       Type             X           Y           Z
 ---------------------------------------------------------------------
      1         11           0        3.314390   -0.888644   -0.042247
      2         11           0       -0.035682    0.035502    2.295407
      3         11           0       -2.508226   -1.547392   -0.446763
      4         11           0       -3.482550    1.498211    0.053209
      5         11           0        1.988264    2.966778   -0.185018
      6         11           0        0.595729   -2.889670   -0.280152
      7         11           0        0.128075    0.825215   -1.394437
 ---------------------------------------------------------------------

 SCF Done:  E(UB3LYP) =  -1136.12461063     A.U. after   21 cycles

 The electronic state is 2-A.
 Alpha  occ. eigenvalues --  -38.45289 -38.45010 -38.43848 -38.43809 -38.43780
 Alpha  occ. eigenvalues --  -38.43608 -38.43001  -2.21056  -2.20784  -2.19667
 Alpha  occ. eigenvalues --   -2.19661  -2.19581  -2.19492  -2.18836  -1.14738
 Alpha  occ. eigenvalues --   -1.14718  -1.14686  -1.14459  -1.14444  -1.14423
 Alpha  occ. eigenvalues --   -1.13346  -1.13334  -1.13325  -1.13314  -1.13307
 Alpha  occ. eigenvalues --   -1.13288  -1.13278  -1.13230  -1.13216  -1.13176
 Alpha  occ. eigenvalues --   -1.13127  -1.13088  -1.12506  -1.12499  -1.12489
 Alpha  occ. eigenvalues --   -0.17726  -0.13240  -0.12023  -0.10399
 Alpha virt. eigenvalues --   -0.06886  -0.05429  -0.04494  -0.03172  -0.02592
 Alpha virt. eigenvalues --   -0.02561  -0.02319  -0.01380  -0.01041  -0.00400
 Alpha virt. eigenvalues --   -0.00102   0.00225   0.00586   0.00609   0.00700

  Beta  occ. eigenvalues --  -38.45289 -38.45013 -38.43797 -38.43779 -38.43728
  Beta  occ. eigenvalues --  -38.43576 -38.42995  -2.21057  -2.20790  -2.19643
  Beta  occ. eigenvalues --   -2.19582  -2.19443  -2.19434  -2.18827  -1.14729
  Beta  occ. eigenvalues --   -1.14715  -1.14689  -1.14465  -1.14437  -1.14427
  Beta  occ. eigenvalues --   -1.13332  -1.13321  -1.13297  -1.13291  -1.13221
  Beta  occ. eigenvalues --   -1.13218  -1.13169  -1.13136  -1.13127  -1.13122
  Beta  occ. eigenvalues --   -1.13087  -1.13052  -1.12500  -1.12492  -1.12466
  Beta  occ. eigenvalues --   -0.17067  -0.13111  -0.11849
  Beta virt. eigenvalues --   -0.06851  -0.06381  -0.05337  -0.04469  -0.02565
  Beta virt. eigenvalues --   -0.02228  -0.01918  -0.01519  -0.01229  -0.01048
  Beta virt. eigenvalues --   -0.00410   0.00099   0.00285   0.00643   0.00705

 Mulliken charges and spin densities:
               1          2
     1  Na   0.167485   0.002385
     2  Na  -0.458926   0.729062
     3  Na   0.245591   0.091897
     4  Na   0.277928   0.028763
     5  Na   0.079848  -0.029221
     6  Na  -0.085620   0.037682
     7  Na  -0.226306   0.139432
 Sum of Mulliken charges =  -0.00000   1.00000

 Dipole moment (field-independent basis, Debye):
    X=              0.0862    Y=              0.5182    Z=              0.0989  Tot=              0.5346
 Quadrupole moment (field-independent basis, Debye-Ang):
   XX=            -50.9093   YY=            -65.0601   ZZ=            -77.4111
   XY=             -2.4985   XZ=              0.6266   YZ=              1.7534

 Normal termination of Gaussian 16 at Thu Dec  7 12:06:20 2023.
