 Gaussian 16, Revision B.01,
 Gaussian 16:  ES64L-G16RevB.01 20-Dec-2017

 -------------------------
 #P B3LYP/6-311+g(d) force
 -------------------------

 -----
 DPGEN
 -----
 Symbolic Z-matrix:
 Charge =  0 Multiplicity = 2

                         Standard orientation:
 ---------------------------------------------------------------------
 Center     Atomic      Atomic             Coordinates (Angstroms)
 Number     Number       Type             X           Y           Z
 ---------------------------------------------------------------------
      1         11           0       -2.067681    2.086677    0.026584
      2         11           0       -2.758196   -1.165674    0.016438
      3         11           0        1.106847    2.476099    0.004062
      4         11           0       -0.133077    0.002343   -1.794012
      5         11           0        0.212719   -0.175993    1.989725
      6         11           0        0.036073   -2.806545   -0.086535
      7         11           0        3.603314   -0.416907   -0.156262
 ---------------------------------------------------------------------

 SCF Done:  E(UB3LYP) =  -1136.13474208     A.U. after   19 cycles

 The electronic state is 2-A.
 Alpha  occ. eigenvalues --  -38.44671 -38.43749 -38.43597 -38.43421 -38.43396
 Alpha  occ. eigenvalues --  -38.43367 -38.43237  -2.20412  -2.19637  -2.19500
 Alpha  occ. eigenvalues --   -2.19383  -2.19274  -2.19255  -2.19133  -1.14089
 Alpha  occ. eigenvalues --   -1.14074  -1.14046  -1.13323  -1.13302  -1.13294
 Alpha  occ. eigenvalues --   -1.13179  -1.13151  -1.13107  -1.13079  -1.13065
 Alpha  occ. eigenvalues --   -1.13003  -1.12949  -1.12938  -1.12932  -1.12914
 Alpha  occ. eigenvalues --   -1.12890  -1.12887  -1.12792  -1.12780  -1.12758
 Alpha  occ. eigenvalues --   -0.18805  -0.12852  -0.12520  -0.10838
 Alpha virt. eigenvalues --   -0.06115  -0.04745  -0.04615  -0.03141  -0.02988
 Alpha virt. eigenvalues --   -0.02601  -0.01857  -0.01002  -0.00287  -0.00150
 Alpha virt. eigenvalues --   -0.00049   0.00324   0.00780   0.00862   0.00890

  Beta  occ. eigenvalues --  -38.44675 -38.43743 -38.43508 -38.43389 -38.43360
  Beta  occ. eigenvalues --  -38.43345 -38.43232  -2.20420  -2.19630  -2.19335
  Beta  occ. eigenvalues --   -2.19265  -2.19246  -2.19245  -2.19127  -1.14084
  Beta  occ. eigenvalues --   -1.14081  -1.14052  -1.13318  -1.13302  -1.13259
  Beta  occ. eigenvalues --   -1.13079  -1.13043  -1.13004  -1.12994  -1.12989
  Beta  occ. eigenvalues --   -1.12929  -1.12914  -1.12906  -1.12889  -1.12887
  Beta  occ. eigenvalues --   -1.12877  -1.12861  -1.12787  -1.12758  -1.12745
  Beta  occ. eigenvalues --   -0.18032  -0.12634  -0.12282
  Beta virt. eigenvalues --   -0.06898  -0.06080  -0.04733  -0.04590  -0.02373
  Beta virt. eigenvalues --   -0.02171  -0.01809  -0.01517  -0.00936  -0.00342
  Beta virt. eigenvalues --   -0.00195   0.00095   0.00341   0.00808   0.00887

 Mulliken charges and spin densities:
               1          2
     1  Na   0.198012   0.009759
     2  Na   0.326947   0.032975
     3  Na   0.144981  -0.068535
     4  Na  -0.325046   0.634440
     5  Na  -0.469174   0.674770
     6  Na   0.158413  -0.143882
     7  Na  -0.034133  -0.139527
 Sum of Mulliken charges =  -0.00000   1.00000

 Dipole moment (field-independent basis, Debye):
    X=              0.3985    Y=             -0.2020    Z=              0.0628  Tot=              0.4511
 Quadrupole moment (field-independent basis, Debye-Ang):
   XX=            -54.7166   YY=            -64.8116   ZZ=            -73.8580
   XY=             -0.6620   XZ=             -0.8619   YZ=              0.4099

 Normal termination of Gaussian 16 at Wed Dec  6 00:17:36 2023.
