 Gaussian 16, Revision B.01,
 Gaussian 16:  ES64L-G16RevB.01 20-Dec-2017

 -------------------------
 #P B3LYP/6-311+g(d) force
 -------------------------

 -----
 DPGEN
 -----
 Symbolic Z-matrix:
 Charge =  0 Multiplicity = 2

                         Standard orientation:
 ---------------------------------------------------------------------
 Center     Atomic      Atomic             Coordinates (Angstroms)
 Number     Number       Type             X           Y           Z
 ---------------------------------------------------------------------
      1         11           0       -3.254155   -1.567598    0.449307
      2         11           0        2.835753   -2.067445   -0.549520
      3         11           0       -0.016016   -1.048921    1.856480
      4         11           0        0.263488    2.744119    0.297801
      5         11           0        2.963094    1.103549    0.290459
      6         11           0       -2.339571    1.520791   -0.556400
      7         11           0       -0.452593   -0.684494   -1.788127
 ---------------------------------------------------------------------

 SCF Done:  E(UB3LYP) =  -1136.12588940     A.U. after   20 cycles

 The electronic state is 2-A.
 Alpha  occ. eigenvalues --  -38.44476 -38.44466 -38.44342 -38.44148 -38.43975
 Alpha  occ. eigenvalues --  -38.43854 -38.42635  -2.20305  -2.20290  -2.20163
 Alpha  occ. eigenvalues --   -2.20021  -2.19787  -2.19776  -2.18517  -1.13988
 Alpha  occ. eigenvalues --   -1.13971  -1.13966  -1.13949  -1.13947  -1.13934
 Alpha  occ. eigenvalues --   -1.13841  -1.13812  -1.13767  -1.13723  -1.13672
 Alpha  occ. eigenvalues --   -1.13639  -1.13473  -1.13454  -1.13441  -1.13432
 Alpha  occ. eigenvalues --   -1.13423  -1.13389  -1.12212  -1.12172  -1.12150
 Alpha  occ. eigenvalues --   -0.18218  -0.13770  -0.12059  -0.10789
 Alpha virt. eigenvalues --   -0.06431  -0.05715  -0.04344  -0.03463  -0.02858
 Alpha virt. eigenvalues --   -0.02393  -0.02118  -0.01319  -0.00603  -0.00165
 Alpha virt. eigenvalues --   -0.00003   0.00263   0.00538   0.00611   0.00764

  Beta  occ. eigenvalues --  -38.44466 -38.44460 -38.44273 -38.44080 -38.43962
  Beta  occ. eigenvalues --  -38.43838 -38.42633  -2.20296  -2.20275  -2.20035
  Beta  occ. eigenvalues --   -2.19896  -2.19763  -2.19750  -2.18516  -1.13982
  Beta  occ. eigenvalues --   -1.13959  -1.13949  -1.13945  -1.13927  -1.13912
  Beta  occ. eigenvalues --   -1.13757  -1.13721  -1.13673  -1.13640  -1.13578
  Beta  occ. eigenvalues --   -1.13556  -1.13459  -1.13440  -1.13412  -1.13410
  Beta  occ. eigenvalues --   -1.13386  -1.13372  -1.12212  -1.12174  -1.12133
  Beta  occ. eigenvalues --   -0.17565  -0.13560  -0.11784
  Beta virt. eigenvalues --   -0.07057  -0.06281  -0.05591  -0.04018  -0.02973
  Beta virt. eigenvalues --   -0.02183  -0.01984  -0.01567  -0.01145  -0.00648
  Beta virt. eigenvalues --    0.00017   0.00046   0.00315   0.00687   0.00764

 Mulliken charges and spin densities:
               1          2
     1  Na   0.229162  -0.012253
     2  Na   0.321696   0.039598
     3  Na  -0.378495   0.484144
     4  Na  -0.152278  -0.167326
     5  Na  -0.092128   0.106711
     6  Na   0.416729   0.246213
     7  Na  -0.344686   0.302913
 Sum of Mulliken charges =  -0.00000   1.00000

 Dipole moment (field-independent basis, Debye):
    X=             -0.1607    Y=             -0.8048    Z=              0.0641  Tot=              0.8232
 Quadrupole moment (field-independent basis, Debye-Ang):
   XX=            -52.0310   YY=            -70.1932   ZZ=            -73.6282
   XY=              0.4291   XZ=             -0.0707   YZ=              0.5432

 Normal termination of Gaussian 16 at Thu Dec  7 20:28:04 2023.
