 Gaussian 16, Revision B.01,
 Gaussian 16:  ES64L-G16RevB.01 20-Dec-2017

 -------------------------
 #P B3LYP/6-311+g(d) force
 -------------------------

 -----
 DPGEN
 -----
 Symbolic Z-matrix:
 Charge =  0 Multiplicity = 2

                         Standard orientation:
 ---------------------------------------------------------------------
 Center     Atomic      Atomic             Coordinates (Angstroms)
 Number     Number       Type             X           Y           Z
 ---------------------------------------------------------------------
      1         11           0        0.233926    0.423123    2.092156
      2         11           0        2.196239    1.005082   -1.059379
      3         11           0       -0.112697   -2.837052   -0.521604
      4         11           0       -0.083922    3.536725    0.140825
      5         11           0       -1.556286    0.818372   -1.199382
      6         11           0        2.935249   -1.786724    0.290347
      7         11           0       -3.612511   -1.159526    0.257037
 ---------------------------------------------------------------------

 SCF Done:  E(UB3LYP) =  -1136.12985984     A.U. after   19 cycles

 The electronic state is 2-A.
 Alpha  occ. eigenvalues --  -38.44742 -38.44170 -38.44107 -38.43954 -38.43690
 Alpha  occ. eigenvalues --  -38.43568 -38.43406  -2.20517  -2.19954  -2.19918
 Alpha  occ. eigenvalues --   -2.19807  -2.19533  -2.19410  -2.19287  -1.14205
 Alpha  occ. eigenvalues --   -1.14194  -1.14137  -1.13647  -1.13610  -1.13598
 Alpha  occ. eigenvalues --   -1.13587  -1.13574  -1.13563  -1.13493  -1.13484
 Alpha  occ. eigenvalues --   -1.13432  -1.13200  -1.13182  -1.13173  -1.13070
 Alpha  occ. eigenvalues --   -1.13042  -1.13022  -1.12976  -1.12963  -1.12894
 Alpha  occ. eigenvalues --   -0.17786  -0.12975  -0.12700  -0.10273
 Alpha virt. eigenvalues --   -0.06238  -0.05428  -0.04962  -0.03137  -0.02965
 Alpha virt. eigenvalues --   -0.02415  -0.01716  -0.01583  -0.00676  -0.00553
 Alpha virt. eigenvalues --    0.00010   0.00290   0.00644   0.00691   0.00809

  Beta  occ. eigenvalues --  -38.44739 -38.44174 -38.44106 -38.43922 -38.43688
  Beta  occ. eigenvalues --  -38.43463 -38.43381  -2.20511  -2.19963  -2.19920
  Beta  occ. eigenvalues --   -2.19748  -2.19532  -2.19243  -2.19214  -1.14194
  Beta  occ. eigenvalues --   -1.14186  -1.14136  -1.13652  -1.13609  -1.13601
  Beta  occ. eigenvalues --   -1.13594  -1.13566  -1.13550  -1.13454  -1.13434
  Beta  occ. eigenvalues --   -1.13391  -1.13198  -1.13180  -1.13155  -1.12952
  Beta  occ. eigenvalues --   -1.12935  -1.12916  -1.12905  -1.12882  -1.12863
  Beta  occ. eigenvalues --   -0.17121  -0.12808  -0.12541
  Beta virt. eigenvalues --   -0.06401  -0.06196  -0.05282  -0.04893  -0.02473
  Beta virt. eigenvalues --   -0.02383  -0.01645  -0.01594  -0.01324  -0.00679
  Beta virt. eigenvalues --   -0.00446   0.00187   0.00371   0.00680   0.00763

 Mulliken charges and spin densities:
               1          2
     1  Na  -0.535538   0.728410
     2  Na  -0.177561   0.145456
     3  Na  -0.226489  -0.032979
     4  Na   0.519166  -0.029187
     5  Na  -0.288584   0.225186
     6  Na   0.430332   0.055589
     7  Na   0.278673  -0.092475
 Sum of Mulliken charges =  -0.00000   1.00000

 Dipole moment (field-independent basis, Debye):
    X=             -0.2276    Y=             -0.0868    Z=              0.0852  Tot=              0.2580
 Quadrupole moment (field-independent basis, Debye-Ang):
   XX=            -60.0664   YY=            -57.8285   ZZ=            -76.0276
   XY=              0.0443   XZ=             -1.4933   YZ=             -0.1220

 Normal termination of Gaussian 16 at Thu Dec  7 17:20:50 2023.
