 Gaussian 16, Revision B.01,
 Gaussian 16:  ES64L-G16RevB.01 20-Dec-2017

 -------------------------
 #P B3LYP/6-311+g(d) force
 -------------------------

 -----
 DPGEN
 -----
 Symbolic Z-matrix:
 Charge =  0 Multiplicity = 2

                         Standard orientation:
 ---------------------------------------------------------------------
 Center     Atomic      Atomic             Coordinates (Angstroms)
 Number     Number       Type             X           Y           Z
 ---------------------------------------------------------------------
      1         11           0        1.407399    0.409802    1.337155
      2         11           0        2.730066   -1.786142   -0.462811
      3         11           0       -1.716348    0.920631    1.675862
      4         11           0        0.211746    0.053431   -1.610656
      5         11           0       -0.862812   -2.767583    0.592796
      6         11           0        1.225467    3.074120   -0.350556
      7         11           0       -2.995518    0.095740   -1.181790
 ---------------------------------------------------------------------

 SCF Done:  E(UB3LYP) =  -1136.12913753     A.U. after   20 cycles

 The electronic state is 2-A.
 Alpha  occ. eigenvalues --  -38.44410 -38.43752 -38.43744 -38.43698 -38.43643
 Alpha  occ. eigenvalues --  -38.43273 -38.43086  -2.20184  -2.19636  -2.19595
 Alpha  occ. eigenvalues --   -2.19522  -2.19492  -2.19262  -2.19100  -1.13868
 Alpha  occ. eigenvalues --   -1.13850  -1.13802  -1.13357  -1.13328  -1.13288
 Alpha  occ. eigenvalues --   -1.13242  -1.13217  -1.13212  -1.13204  -1.13193
 Alpha  occ. eigenvalues --   -1.13191  -1.13173  -1.13152  -1.13101  -1.12977
 Alpha  occ. eigenvalues --   -1.12895  -1.12870  -1.12782  -1.12745  -1.12688
 Alpha  occ. eigenvalues --   -0.18590  -0.12816  -0.12154  -0.11279
 Alpha virt. eigenvalues --   -0.05745  -0.04998  -0.04228  -0.03414  -0.02961
 Alpha virt. eigenvalues --   -0.02671  -0.01478  -0.01308  -0.00448   0.00200
 Alpha virt. eigenvalues --    0.00263   0.00373   0.00519   0.00758   0.00929

  Beta  occ. eigenvalues --  -38.44399 -38.43716 -38.43700 -38.43697 -38.43640
  Beta  occ. eigenvalues --  -38.43208 -38.43047  -2.20166  -2.19547  -2.19541
  Beta  occ. eigenvalues --   -2.19522  -2.19488  -2.19144  -2.19032  -1.13841
  Beta  occ. eigenvalues --   -1.13837  -1.13793  -1.13285  -1.13277  -1.13235
  Beta  occ. eigenvalues --   -1.13213  -1.13199  -1.13184  -1.13180  -1.13174
  Beta  occ. eigenvalues --   -1.13157  -1.13151  -1.13143  -1.13098  -1.12900
  Beta  occ. eigenvalues --   -1.12810  -1.12788  -1.12732  -1.12668  -1.12643
  Beta  occ. eigenvalues --   -0.17840  -0.12611  -0.11967
  Beta virt. eigenvalues --   -0.07274  -0.05691  -0.04863  -0.03919  -0.02967
  Beta virt. eigenvalues --   -0.02317  -0.01743  -0.01356  -0.01228  -0.00136
  Beta virt. eigenvalues --    0.00197   0.00274   0.00409   0.00613   0.00766

 Mulliken charges and spin densities:
               1          2
     1  Na  -0.004963   0.412969
     2  Na   0.398492  -0.105692
     3  Na  -0.036862   0.173835
     4  Na  -0.382028   0.378558
     5  Na  -0.285243   0.082761
     6  Na   0.082864   0.004072
     7  Na   0.227740   0.053497
 Sum of Mulliken charges =  -0.00000   1.00000

 Dipole moment (field-independent basis, Debye):
    X=             -0.1685    Y=             -0.2536    Z=             -0.0480  Tot=              0.3083
 Quadrupole moment (field-independent basis, Debye-Ang):
   XX=            -61.1632   YY=            -61.6606   ZZ=            -69.9431
   XY=              0.0482   XZ=             -0.7182   YZ=             -1.4200

 Normal termination of Gaussian 16 at Thu Dec  7 21:21:19 2023.
