 Gaussian 16, Revision B.01,
 Gaussian 16:  ES64L-G16RevB.01 20-Dec-2017

 -------------------------
 #P B3LYP/6-311+g(d) force
 -------------------------

 -----
 DPGEN
 -----
 Symbolic Z-matrix:
 Charge =  0 Multiplicity = 2

                         Standard orientation:
 ---------------------------------------------------------------------
 Center     Atomic      Atomic             Coordinates (Angstroms)
 Number     Number       Type             X           Y           Z
 ---------------------------------------------------------------------
      1         11           0       -2.088195    2.128529   -0.040272
      2         11           0        0.063148   -2.565156    0.382511
      3         11           0       -2.775538   -1.308889   -0.537086
      4         11           0        1.577488    2.393911    0.117375
      5         11           0        0.479929    0.221418   -1.774133
      6         11           0        2.896452   -0.997484   -0.212750
      7         11           0       -0.153284    0.127671    2.064354
 ---------------------------------------------------------------------

 SCF Done:  E(UB3LYP) =  -1136.13682193     A.U. after   19 cycles

 The electronic state is 2-A.
 Alpha  occ. eigenvalues --  -38.43776 -38.43733 -38.43696 -38.43664 -38.43545
 Alpha  occ. eigenvalues --  -38.43522 -38.42968  -2.19699  -2.19609  -2.19533
 Alpha  occ. eigenvalues --   -2.19503  -2.19495  -2.19424  -2.18894  -1.13378
 Alpha  occ. eigenvalues --   -1.13354  -1.13341  -1.13317  -1.13264  -1.13260
 Alpha  occ. eigenvalues --   -1.13231  -1.13212  -1.13198  -1.13187  -1.13172
 Alpha  occ. eigenvalues --   -1.13154  -1.13145  -1.13120  -1.13095  -1.13087
 Alpha  occ. eigenvalues --   -1.13045  -1.13024  -1.12586  -1.12548  -1.12520
 Alpha  occ. eigenvalues --   -0.18947  -0.12954  -0.12579  -0.11182
 Alpha virt. eigenvalues --   -0.05372  -0.05142  -0.04410  -0.03334  -0.03161
 Alpha virt. eigenvalues --   -0.02808  -0.01342  -0.01034  -0.00131  -0.00111
 Alpha virt. eigenvalues --    0.00072   0.00368   0.00848   0.00912   0.00960

  Beta  occ. eigenvalues --  -38.43728 -38.43686 -38.43679 -38.43661 -38.43538
  Beta  occ. eigenvalues --  -38.43457 -38.42957  -2.19604  -2.19523  -2.19515
  Beta  occ. eigenvalues --   -2.19493  -2.19417  -2.19381  -2.18877  -1.13334
  Beta  occ. eigenvalues --   -1.13263  -1.13253  -1.13237  -1.13224  -1.13206
  Beta  occ. eigenvalues --   -1.13200  -1.13194  -1.13179  -1.13163  -1.13150
  Beta  occ. eigenvalues --   -1.13141  -1.13115  -1.13074  -1.13058  -1.13028
  Beta  occ. eigenvalues --   -1.13012  -1.12989  -1.12569  -1.12516  -1.12506
  Beta  occ. eigenvalues --   -0.18197  -0.12699  -0.12327
  Beta virt. eigenvalues --   -0.07252  -0.05377  -0.05042  -0.04378  -0.02560
  Beta virt. eigenvalues --   -0.02334  -0.01768  -0.01261  -0.00977  -0.00168
  Beta virt. eigenvalues --   -0.00048   0.00120   0.00395   0.00876   0.00947

 Mulliken charges and spin densities:
               1          2
     1  Na   0.066845  -0.058577
     2  Na   0.274951   0.085179
     3  Na  -0.080739  -0.003559
     4  Na   0.200985  -0.112867
     5  Na  -0.374591   0.575708
     6  Na   0.270181  -0.067059
     7  Na  -0.357632   0.581175
 Sum of Mulliken charges =  -0.00000   1.00000

 Dipole moment (field-independent basis, Debye):
    X=              0.0304    Y=              0.2837    Z=              0.0283  Tot=              0.2867
 Quadrupole moment (field-independent basis, Debye-Ang):
   XX=            -58.2454   YY=            -64.7304   ZZ=            -71.7851
   XY=             -0.3626   XZ=              1.4778   YZ=              0.5691

 Normal termination of Gaussian 16 at Tue Dec  5 20:27:03 2023.
