 Gaussian 16, Revision B.01,
 Gaussian 16:  ES64L-G16RevB.01 20-Dec-2017

 -------------------------
 #P B3LYP/6-311+g(d) force
 -------------------------

 -----
 DPGEN
 -----
 Symbolic Z-matrix:
 Charge =  0 Multiplicity = 2

                         Standard orientation:
 ---------------------------------------------------------------------
 Center     Atomic      Atomic             Coordinates (Angstroms)
 Number     Number       Type             X           Y           Z
 ---------------------------------------------------------------------
      1         11           0        3.103488   -0.539061   -0.257421
      2         11           0        0.580304   -2.665727   -0.063275
      3         11           0       -2.807408   -1.479109   -0.068293
      4         11           0       -2.466517    1.956405    0.058658
      5         11           0       -0.182793   -0.039499   -1.624709
      6         11           0        0.366683    0.005134    2.171757
      7         11           0        1.406243    2.761858   -0.216715
 ---------------------------------------------------------------------

 SCF Done:  E(UB3LYP) =  -1136.13776442     A.U. after   20 cycles

 The electronic state is 2-A.
 Alpha  occ. eigenvalues --  -38.44096 -38.43990 -38.43832 -38.43741 -38.43578
 Alpha  occ. eigenvalues --  -38.43227 -38.43066  -2.19934  -2.19796  -2.19664
 Alpha  occ. eigenvalues --   -2.19603  -2.19378  -2.19202  -2.18971  -1.13607
 Alpha  occ. eigenvalues --   -1.13598  -1.13575  -1.13477  -1.13466  -1.13433
 Alpha  occ. eigenvalues --   -1.13343  -1.13321  -1.13300  -1.13264  -1.13227
 Alpha  occ. eigenvalues --   -1.13222  -1.13061  -1.13041  -1.13014  -1.12917
 Alpha  occ. eigenvalues --   -1.12852  -1.12817  -1.12646  -1.12628  -1.12591
 Alpha  occ. eigenvalues --   -0.18509  -0.13049  -0.12291  -0.10753
 Alpha virt. eigenvalues --   -0.05700  -0.05364  -0.04571  -0.03193  -0.02850
 Alpha virt. eigenvalues --   -0.02643  -0.01578  -0.01162  -0.00516  -0.00308
 Alpha virt. eigenvalues --   -0.00034   0.00352   0.00756   0.00852   0.00896

  Beta  occ. eigenvalues --  -38.44091 -38.43989 -38.43830 -38.43639 -38.43574
  Beta  occ. eigenvalues --  -38.43168 -38.43057  -2.19927  -2.19796  -2.19664
  Beta  occ. eigenvalues --   -2.19414  -2.19375  -2.19095  -2.18959  -1.13602
  Beta  occ. eigenvalues --   -1.13573  -1.13570  -1.13474  -1.13455  -1.13436
  Beta  occ. eigenvalues --   -1.13336  -1.13310  -1.13303  -1.13139  -1.13093
  Beta  occ. eigenvalues --   -1.13089  -1.13049  -1.13028  -1.13014  -1.12851
  Beta  occ. eigenvalues --   -1.12775  -1.12738  -1.12633  -1.12589  -1.12582
  Beta  occ. eigenvalues --   -0.17777  -0.12848  -0.12067
  Beta virt. eigenvalues --   -0.06800  -0.05671  -0.05348  -0.04528  -0.02436
  Beta virt. eigenvalues --   -0.02065  -0.01575  -0.01478  -0.01100  -0.00570
  Beta virt. eigenvalues --   -0.00356   0.00128   0.00381   0.00822   0.00851

 Mulliken charges and spin densities:
               1          2
     1  Na   0.252054  -0.017116
     2  Na   0.340084   0.027214
     3  Na   0.176090  -0.025365
     4  Na   0.041359  -0.069249
     5  Na  -0.200570   0.393014
     6  Na  -0.619973   0.780682
     7  Na   0.010954  -0.089181
 Sum of Mulliken charges =  -0.00000   1.00000

 Dipole moment (field-independent basis, Debye):
    X=             -0.0476    Y=              0.1581    Z=              0.1386  Tot=              0.2156
 Quadrupole moment (field-independent basis, Debye-Ang):
   XX=            -55.5383   YY=            -63.4895   ZZ=            -74.4206
   XY=              0.0787   XZ=             -1.2556   YZ=              0.0176

 Normal termination of Gaussian 16 at Thu Dec  7 20:01:32 2023.
