 Gaussian 16, Revision B.01,
 Gaussian 16:  ES64L-G16RevB.01 20-Dec-2017

 -------------------------
 #P B3LYP/6-311+g(d) force
 -------------------------

 -----
 DPGEN
 -----
 Symbolic Z-matrix:
 Charge =  0 Multiplicity = 2

                         Standard orientation:
 ---------------------------------------------------------------------
 Center     Atomic      Atomic             Coordinates (Angstroms)
 Number     Number       Type             X           Y           Z
 ---------------------------------------------------------------------
      1         11           0       -6.166130   -0.395884   -0.090207
      2         11           0        2.268851   -0.440515   -0.467681
      3         11           0       -8.072362    1.970595    0.437229
      4         11           0       -0.130057   -1.869503    1.141363
      5         11           0       -2.950221   -0.871066   -1.115679
      6         11           0        6.050161    0.950704   -0.012385
      7         11           0        8.999758    0.655668    0.107360
 ---------------------------------------------------------------------

 SCF Done:  E(UB3LYP) =  -1136.10674123     A.U. after   18 cycles

 The electronic state is 2-A.
 Alpha  occ. eigenvalues --  -38.45062 -38.44876 -38.44761 -38.44595 -38.44518
 Alpha  occ. eigenvalues --  -38.43966 -38.43678  -2.20835  -2.20677  -2.20557
 Alpha  occ. eigenvalues --   -2.20412  -2.20331  -2.19771  -2.19497  -1.14519
 Alpha  occ. eigenvalues --   -1.14510  -1.14489  -1.14330  -1.14328  -1.14282
 Alpha  occ. eigenvalues --   -1.14213  -1.14212  -1.14163  -1.14072  -1.14042
 Alpha  occ. eigenvalues --   -1.14040  -1.14039  -1.13967  -1.13967  -1.13430
 Alpha  occ. eigenvalues --   -1.13427  -1.13417  -1.13173  -1.13164  -1.13162
 Alpha  occ. eigenvalues --   -0.15346  -0.14205  -0.13158  -0.11280
 Alpha virt. eigenvalues --   -0.07260  -0.04844  -0.04458  -0.03483  -0.03075
 Alpha virt. eigenvalues --   -0.02747  -0.02444  -0.01988  -0.01853  -0.01240
 Alpha virt. eigenvalues --   -0.00837  -0.00361  -0.00310   0.00267   0.00500

  Beta  occ. eigenvalues --  -38.45080 -38.44790 -38.44706 -38.44517 -38.44490
  Beta  occ. eigenvalues --  -38.43971 -38.43683  -2.20873  -2.20517  -2.20453
  Beta  occ. eigenvalues --   -2.20279  -2.20266  -2.19783  -2.19515  -1.14540
  Beta  occ. eigenvalues --   -1.14536  -1.14498  -1.14220  -1.14216  -1.14182
  Beta  occ. eigenvalues --   -1.14142  -1.14139  -1.14104  -1.14007  -1.13977
  Beta  occ. eigenvalues --   -1.13942  -1.13940  -1.13932  -1.13931  -1.13439
  Beta  occ. eigenvalues --   -1.13439  -1.13403  -1.13185  -1.13184  -1.13122
  Beta  occ. eigenvalues --   -0.14716  -0.13577  -0.12762
  Beta virt. eigenvalues --   -0.08158  -0.06643  -0.04612  -0.04100  -0.03281
  Beta virt. eigenvalues --   -0.02853  -0.02598  -0.02328  -0.01794  -0.01512
  Beta virt. eigenvalues --   -0.00806  -0.00613  -0.00155   0.00018   0.00329

 Mulliken charges and spin densities:
               1          2
     1  Na  -0.440004   0.027734
     2  Na  -0.499699   0.216882
     3  Na   0.460125   0.370595
     4  Na   0.549296  -0.014548
     5  Na  -0.019728   0.339160
     6  Na  -0.756808  -0.073412
     7  Na   0.706819   0.133589
 Sum of Mulliken charges =  -0.00000   1.00000

 Dipole moment (field-independent basis, Debye):
    X=              0.3840    Y=             -0.0536    Z=              0.1963  Tot=              0.4346
 Quadrupole moment (field-independent basis, Debye-Ang):
   XX=            -57.7312   YY=            -68.4778   ZZ=            -70.0037
   XY=             -5.1098   XZ=             -1.7761   YZ=             -2.2418

 Normal termination of Gaussian 16 at Sun Dec  3 18:04:24 2023.
