 Gaussian 16, Revision B.01,
 Gaussian 16:  ES64L-G16RevB.01 20-Dec-2017

 -------------------------
 #P B3LYP/6-311+g(d) force
 -------------------------

 -----
 DPGEN
 -----
 Symbolic Z-matrix:
 Charge =  0 Multiplicity = 2

                         Standard orientation:
 ---------------------------------------------------------------------
 Center     Atomic      Atomic             Coordinates (Angstroms)
 Number     Number       Type             X           Y           Z
 ---------------------------------------------------------------------
      1         11           0        1.163368    0.572379   -1.525327
      2         11           0        1.931173   -1.989692    1.169477
      3         11           0       -1.892136    2.654224   -0.085482
      4         11           0       -3.860562   -0.536916   -0.217823
      5         11           0       -0.945858   -2.270896   -1.117674
      6         11           0        4.100467    1.035006   -0.361473
      7         11           0       -0.496451    0.535895    2.138303
 ---------------------------------------------------------------------

 SCF Done:  E(UB3LYP) =  -1136.11776908     A.U. after   23 cycles

 The electronic state is 2-A.
 Alpha  occ. eigenvalues --  -38.45415 -38.44780 -38.44374 -38.44351 -38.44133
 Alpha  occ. eigenvalues --  -38.43408 -38.42867  -2.21177  -2.20561  -2.20206
 Alpha  occ. eigenvalues --   -2.20196  -2.19942  -2.19205  -2.18679  -1.14857
 Alpha  occ. eigenvalues --   -1.14826  -1.14802  -1.14246  -1.14213  -1.14201
 Alpha  occ. eigenvalues --   -1.13877  -1.13860  -1.13848  -1.13845  -1.13827
 Alpha  occ. eigenvalues --   -1.13821  -1.13615  -1.13583  -1.13569  -1.12877
 Alpha  occ. eigenvalues --   -1.12875  -1.12842  -1.12379  -1.12339  -1.12308
 Alpha  occ. eigenvalues --   -0.17425  -0.13443  -0.11397  -0.11174
 Alpha virt. eigenvalues --   -0.07267  -0.05326  -0.03928  -0.03569  -0.03032
 Alpha virt. eigenvalues --   -0.02678  -0.02460  -0.01337  -0.00615  -0.00446
 Alpha virt. eigenvalues --   -0.00262   0.00015   0.00342   0.00611   0.00655

  Beta  occ. eigenvalues --  -38.45393 -38.44767 -38.44320 -38.44287 -38.44090
  Beta  occ. eigenvalues --  -38.43408 -38.42861  -2.21137  -2.20540  -2.20139
  Beta  occ. eigenvalues --   -2.20046  -2.19864  -2.19207  -2.18669  -1.14827
  Beta  occ. eigenvalues --   -1.14797  -1.14773  -1.14222  -1.14199  -1.14188
  Beta  occ. eigenvalues --   -1.13820  -1.13806  -1.13790  -1.13767  -1.13743
  Beta  occ. eigenvalues --   -1.13692  -1.13550  -1.13532  -1.13516  -1.12878
  Beta  occ. eigenvalues --   -1.12864  -1.12846  -1.12371  -1.12333  -1.12290
  Beta  occ. eigenvalues --   -0.16806  -0.13140  -0.11102
  Beta virt. eigenvalues --   -0.07551  -0.06993  -0.05013  -0.03743  -0.03132
  Beta virt. eigenvalues --   -0.02682  -0.02235  -0.01854  -0.01121  -0.00500
  Beta virt. eigenvalues --   -0.00295  -0.00152   0.00089   0.00430   0.00682

 Mulliken charges and spin densities:
               1          2
     1  Na  -0.541487   0.248622
     2  Na   0.088801   0.206073
     3  Na   0.421128   0.024596
     4  Na  -0.170110   0.098718
     5  Na   0.142986   0.034197
     6  Na   0.193371   0.001003
     7  Na  -0.134689   0.386791
 Sum of Mulliken charges =  -0.00000   1.00000

 Dipole moment (field-independent basis, Debye):
    X=              0.1152    Y=              0.0878    Z=              0.4777  Tot=              0.4992
 Quadrupole moment (field-independent basis, Debye-Ang):
   XX=            -49.7519   YY=            -74.3825   ZZ=            -71.0044
   XY=             -1.1381   XZ=              2.7357   YZ=             -2.6016

 Normal termination of Gaussian 16 at Sun Dec  3 18:05:10 2023.
