 Gaussian 16, Revision B.01,
 Gaussian 16:  ES64L-G16RevB.01 20-Dec-2017

 -------------------------
 #P B3LYP/6-311+g(d) force
 -------------------------

 -----
 DPGEN
 -----
 Symbolic Z-matrix:
 Charge =  0 Multiplicity = 2

                         Standard orientation:
 ---------------------------------------------------------------------
 Center     Atomic      Atomic             Coordinates (Angstroms)
 Number     Number       Type             X           Y           Z
 ---------------------------------------------------------------------
      1         11           0       -0.436652    2.863371   -0.394958
      2         11           0       -0.495155    0.081576    2.113698
      3         11           0       -2.985007    0.237000   -0.268548
      4         11           0       -1.072141   -2.716185    0.056044
      5         11           0        2.557717    1.341848    0.387833
      6         11           0        0.005030   -0.016345   -1.543075
      7         11           0        2.426209   -1.791266   -0.350994
 ---------------------------------------------------------------------

 SCF Done:  E(UB3LYP) =  -1136.13870190     A.U. after   19 cycles

 The electronic state is 2-A.
 Alpha  occ. eigenvalues --  -38.43849 -38.43718 -38.43534 -38.43487 -38.43476
 Alpha  occ. eigenvalues --  -38.43354 -38.42987  -2.19717  -2.19610  -2.19406
 Alpha  occ. eigenvalues --   -2.19345  -2.19339  -2.19227  -2.19036  -1.13412
 Alpha  occ. eigenvalues --   -1.13392  -1.13339  -1.13271  -1.13236  -1.13227
 Alpha  occ. eigenvalues --   -1.13122  -1.13070  -1.13065  -1.13047  -1.13023
 Alpha  occ. eigenvalues --   -1.13015  -1.12983  -1.12968  -1.12958  -1.12945
 Alpha  occ. eigenvalues --   -1.12874  -1.12847  -1.12704  -1.12660  -1.12653
 Alpha  occ. eigenvalues --   -0.18931  -0.13036  -0.12582  -0.10955
 Alpha virt. eigenvalues --   -0.05403  -0.04962  -0.04742  -0.03254  -0.02934
 Alpha virt. eigenvalues --   -0.02681  -0.01320  -0.01092  -0.00249  -0.00144
 Alpha virt. eigenvalues --    0.00017   0.00368   0.00866   0.00910   0.00929

  Beta  occ. eigenvalues --  -38.43841 -38.43621 -38.43527 -38.43482 -38.43472
  Beta  occ. eigenvalues --  -38.43345 -38.42926  -2.19706  -2.19430  -2.19396
  Beta  occ. eigenvalues --   -2.19340  -2.19333  -2.19214  -2.18926  -1.13402
  Beta  occ. eigenvalues --   -1.13361  -1.13331  -1.13155  -1.13120  -1.13113
  Beta  occ. eigenvalues --   -1.13099  -1.13064  -1.13037  -1.13035  -1.13010
  Beta  occ. eigenvalues --   -1.12992  -1.12973  -1.12962  -1.12944  -1.12936
  Beta  occ. eigenvalues --   -1.12852  -1.12837  -1.12629  -1.12581  -1.12575
  Beta  occ. eigenvalues --   -0.18203  -0.12803  -0.12323
  Beta virt. eigenvalues --   -0.06999  -0.05392  -0.04916  -0.04701  -0.02459
  Beta virt. eigenvalues --   -0.02177  -0.01585  -0.01246  -0.01023  -0.00253
  Beta virt. eigenvalues --   -0.00192   0.00142   0.00395   0.00879   0.00922

 Mulliken charges and spin densities:
               1          2
     1  Na   0.213058   0.005132
     2  Na  -0.553660   0.708300
     3  Na   0.264274  -0.044697
     4  Na   0.150638  -0.014027
     5  Na   0.105897   0.087373
     6  Na  -0.302574   0.277019
     7  Na   0.122368  -0.019101
 Sum of Mulliken charges =  -0.00000   1.00000

 Dipole moment (field-independent basis, Debye):
    X=             -0.2417    Y=             -0.0292    Z=              0.2466  Tot=              0.3465
 Quadrupole moment (field-independent basis, Debye-Ang):
   XX=            -58.7171   YY=            -61.7607   ZZ=            -73.3096
   XY=             -0.0459   XZ=              1.0765   YZ=             -0.0210

 Normal termination of Gaussian 16 at Thu Dec  7 04:46:56 2023.
