 Gaussian 16, Revision B.01,
 Gaussian 16:  ES64L-G16RevB.01 20-Dec-2017

 -------------------------
 #P B3LYP/6-311+g(d) force
 -------------------------

 -----
 DPGEN
 -----
 Symbolic Z-matrix:
 Charge =  0 Multiplicity = 2

                         Standard orientation:
 ---------------------------------------------------------------------
 Center     Atomic      Atomic             Coordinates (Angstroms)
 Number     Number       Type             X           Y           Z
 ---------------------------------------------------------------------
      1         11           0       -1.382987   -1.805135   -0.432453
      2         11           0        0.628944   -0.330485    1.551094
      3         11           0        1.088074    3.449947   -0.203754
      4         11           0       -1.726142    1.865009   -0.512335
      5         11           0       -4.206742   -0.542534    0.231626
      6         11           0        3.726406   -0.090713   -0.040149
      7         11           0        1.872446   -2.546090   -0.594029
 ---------------------------------------------------------------------

 SCF Done:  E(UB3LYP) =  -1136.12231433     A.U. after   21 cycles

 The electronic state is 2-A.
 Alpha  occ. eigenvalues --  -38.45161 -38.44218 -38.43874 -38.43711 -38.43555
 Alpha  occ. eigenvalues --  -38.43413 -38.43363  -2.21044  -2.20111  -2.19716
 Alpha  occ. eigenvalues --   -2.19496  -2.19422  -2.19302  -2.19271  -1.14747
 Alpha  occ. eigenvalues --   -1.14704  -1.14652  -1.13796  -1.13783  -1.13757
 Alpha  occ. eigenvalues --   -1.13420  -1.13401  -1.13350  -1.13167  -1.13147
 Alpha  occ. eigenvalues --   -1.13129  -1.13078  -1.13060  -1.13033  -1.13021
 Alpha  occ. eigenvalues --   -1.12995  -1.12959  -1.12907  -1.12903  -1.12839
 Alpha  occ. eigenvalues --   -0.17875  -0.14105  -0.12614  -0.10038
 Alpha virt. eigenvalues --   -0.06805  -0.05439  -0.04755  -0.03122  -0.02932
 Alpha virt. eigenvalues --   -0.02356  -0.01726  -0.01201  -0.00964  -0.00764
 Alpha virt. eigenvalues --   -0.00118  -0.00035   0.00479   0.00518   0.00761

  Beta  occ. eigenvalues --  -38.45133 -38.44204 -38.43870 -38.43714 -38.43473
  Beta  occ. eigenvalues --  -38.43348 -38.43339  -2.20996  -2.20093  -2.19711
  Beta  occ. eigenvalues --   -2.19502  -2.19270  -2.19265  -2.19148  -1.14701
  Beta  occ. eigenvalues --   -1.14674  -1.14615  -1.13782  -1.13773  -1.13695
  Beta  occ. eigenvalues --   -1.13418  -1.13394  -1.13336  -1.13172  -1.13147
  Beta  occ. eigenvalues --   -1.13131  -1.12985  -1.12974  -1.12964  -1.12957
  Beta  occ. eigenvalues --   -1.12924  -1.12915  -1.12823  -1.12818  -1.12771
  Beta  occ. eigenvalues --   -0.17347  -0.13381  -0.12350
  Beta virt. eigenvalues --   -0.06663  -0.06500  -0.05322  -0.04515  -0.02735
  Beta virt. eigenvalues --   -0.02362  -0.02233  -0.01310  -0.00999  -0.00768
  Beta virt. eigenvalues --   -0.00631   0.00171   0.00235   0.00612   0.00702

 Mulliken charges and spin densities:
               1          2
     1  Na  -0.809127  -0.025548
     2  Na   0.183339   0.036282
     3  Na   0.083834  -0.050963
     4  Na  -0.423048   0.043636
     5  Na   0.956228   0.391804
     6  Na  -0.115866   0.567559
     7  Na   0.124639   0.037230
 Sum of Mulliken charges =  -0.00000   1.00000

 Dipole moment (field-independent basis, Debye):
    X=              0.1894    Y=             -0.3383    Z=              0.2943  Tot=              0.4868
 Quadrupole moment (field-independent basis, Debye-Ang):
   XX=            -75.2417   YY=            -64.9082   ZZ=            -65.2345
   XY=              1.6235   XZ=             -1.1739   YZ=              1.2755

 Normal termination of Gaussian 16 at Wed Nov 29 04:04:54 2023.
