 Gaussian 16, Revision B.01,
 Gaussian 16:  ES64L-G16RevB.01 20-Dec-2017

 -------------------------
 #P B3LYP/6-311+g(d) force
 -------------------------

 -----
 DPGEN
 -----
 Symbolic Z-matrix:
 Charge =  0 Multiplicity = 2

                         Standard orientation:
 ---------------------------------------------------------------------
 Center     Atomic      Atomic             Coordinates (Angstroms)
 Number     Number       Type             X           Y           Z
 ---------------------------------------------------------------------
      1         11           0       -2.138090    2.400075    0.536015
      2         11           0        1.263705    1.128275    1.996155
      3         11           0       -3.891229   -1.037405   -0.337198
      4         11           0        1.636622   -2.724488    1.256793
      5         11           0        2.580691   -0.129155   -1.594273
      6         11           0        1.167279    2.623226   -0.997021
      7         11           0       -0.618979   -2.260529   -0.860471
 ---------------------------------------------------------------------

 SCF Done:  E(UB3LYP) =  -1136.12248823     A.U. after   20 cycles

 The electronic state is 2-A.
 Alpha  occ. eigenvalues --  -38.44632 -38.44583 -38.44301 -38.44203 -38.43932
 Alpha  occ. eigenvalues --  -38.43883 -38.43833  -2.20441  -2.20330  -2.20141
 Alpha  occ. eigenvalues --   -2.20022  -2.19745  -2.19685  -2.19648  -1.14110
 Alpha  occ. eigenvalues --   -1.14099  -1.14057  -1.14024  -1.13998  -1.13947
 Alpha  occ. eigenvalues --   -1.13837  -1.13793  -1.13749  -1.13725  -1.13666
 Alpha  occ. eigenvalues --   -1.13649  -1.13416  -1.13406  -1.13370  -1.13359
 Alpha  occ. eigenvalues --   -1.13354  -1.13338  -1.13326  -1.13315  -1.13252
 Alpha  occ. eigenvalues --   -0.17221  -0.13009  -0.12556  -0.11092
 Alpha virt. eigenvalues --   -0.06333  -0.05520  -0.04861  -0.03677  -0.02989
 Alpha virt. eigenvalues --   -0.02610  -0.01448  -0.01320  -0.00860  -0.00611
 Alpha virt. eigenvalues --   -0.00260   0.00146   0.00364   0.00429   0.00675

  Beta  occ. eigenvalues --  -38.44577 -38.44572 -38.44234 -38.44173 -38.43928
  Beta  occ. eigenvalues --  -38.43860 -38.43828  -2.20331  -2.20319  -2.20022
  Beta  occ. eigenvalues --   -2.19967  -2.19708  -2.19679  -2.19640  -1.14033
  Beta  occ. eigenvalues --   -1.14025  -1.14015  -1.13992  -1.13971  -1.13938
  Beta  occ. eigenvalues --   -1.13751  -1.13713  -1.13692  -1.13658  -1.13618
  Beta  occ. eigenvalues --   -1.13612  -1.13392  -1.13383  -1.13354  -1.13348
  Beta  occ. eigenvalues --   -1.13323  -1.13321  -1.13312  -1.13311  -1.13249
  Beta  occ. eigenvalues --   -0.16588  -0.12812  -0.12273
  Beta virt. eigenvalues --   -0.07408  -0.06070  -0.05415  -0.04410  -0.03255
  Beta virt. eigenvalues --   -0.02487  -0.01944  -0.01269  -0.01179  -0.00761
  Beta virt. eigenvalues --   -0.00544  -0.00018   0.00304   0.00499   0.00531

 Mulliken charges and spin densities:
               1          2
     1  Na  -0.172995   0.011283
     2  Na  -0.086306   0.367513
     3  Na   0.185110  -0.048183
     4  Na   0.369209   0.102444
     5  Na  -0.069251   0.253235
     6  Na   0.253138   0.137854
     7  Na  -0.478904   0.175855
 Sum of Mulliken charges =  -0.00000   1.00000

 Dipole moment (field-independent basis, Debye):
    X=              0.4102    Y=              0.2110    Z=              0.3804  Tot=              0.5979
 Quadrupole moment (field-independent basis, Debye-Ang):
   XX=            -63.7638   YY=            -64.5262   ZZ=            -70.1368
   XY=             -3.2488   XZ=              0.3713   YZ=             -1.0407

 Normal termination of Gaussian 16 at Sun Dec  3 22:35:23 2023.
