 Gaussian 16, Revision B.01,
 Gaussian 16:  ES64L-G16RevB.01 20-Dec-2017

 -------------------------
 #P B3LYP/6-311+g(d) force
 -------------------------

 -----
 DPGEN
 -----
 Symbolic Z-matrix:
 Charge =  0 Multiplicity = 2

                         Standard orientation:
 ---------------------------------------------------------------------
 Center     Atomic      Atomic             Coordinates (Angstroms)
 Number     Number       Type             X           Y           Z
 ---------------------------------------------------------------------
      1         11           0        2.251287   -1.801376    0.948343
      2         11           0        1.241382    1.930043    0.859700
      3         11           0       -4.007085   -1.008035   -0.390486
      4         11           0       -0.076231   -0.915646   -1.571287
      5         11           0       -1.805946    2.084694   -0.272450
      6         11           0       -0.861661   -0.548337    1.642590
      7         11           0        3.258254    0.258657   -1.216410
 ---------------------------------------------------------------------

 SCF Done:  E(UB3LYP) =  -1136.12500759     A.U. after   24 cycles

 The electronic state is 2-A.
 Alpha  occ. eigenvalues --  -38.44746 -38.44730 -38.44464 -38.43774 -38.43687
 Alpha  occ. eigenvalues --  -38.43347 -38.42296  -2.20578  -2.20501  -2.20342
 Alpha  occ. eigenvalues --   -2.19662  -2.19636  -2.19212  -2.18207  -1.14301
 Alpha  occ. eigenvalues --   -1.14244  -1.14181  -1.14175  -1.14170  -1.14123
 Alpha  occ. eigenvalues --   -1.14013  -1.13984  -1.13972  -1.13368  -1.13324
 Alpha  occ. eigenvalues --   -1.13310  -1.13298  -1.13252  -1.13244  -1.12902
 Alpha  occ. eigenvalues --   -1.12886  -1.12824  -1.11891  -1.11873  -1.11840
 Alpha  occ. eigenvalues --   -0.18708  -0.13927  -0.11311  -0.11061
 Alpha virt. eigenvalues --   -0.06962  -0.05111  -0.04392  -0.03105  -0.02806
 Alpha virt. eigenvalues --   -0.02440  -0.02352  -0.01050  -0.00822  -0.00180
 Alpha virt. eigenvalues --    0.00098   0.00239   0.00355   0.00646   0.00773

  Beta  occ. eigenvalues --  -38.44750 -38.44699 -38.44421 -38.43741 -38.43612
  Beta  occ. eigenvalues --  -38.43344 -38.42284  -2.20523  -2.20508  -2.20262
  Beta  occ. eigenvalues --   -2.19605  -2.19503  -2.19207  -2.18187  -1.14254
  Beta  occ. eigenvalues --   -1.14197  -1.14183  -1.14175  -1.14138  -1.14125
  Beta  occ. eigenvalues --   -1.13962  -1.13926  -1.13914  -1.13299  -1.13277
  Beta  occ. eigenvalues --   -1.13256  -1.13233  -1.13157  -1.13133  -1.12899
  Beta  occ. eigenvalues --   -1.12873  -1.12820  -1.11875  -1.11837  -1.11827
  Beta  occ. eigenvalues --   -0.17941  -0.13734  -0.10924
  Beta virt. eigenvalues --   -0.07336  -0.06739  -0.04975  -0.03883  -0.02947
  Beta virt. eigenvalues --   -0.02564  -0.01814  -0.01556  -0.00953  -0.00492
  Beta virt. eigenvalues --   -0.00152   0.00145   0.00292   0.00463   0.00718

 Mulliken charges and spin densities:
               1          2
     1  Na   0.059838   0.066051
     2  Na  -0.338912   0.282446
     3  Na   0.300497   0.000998
     4  Na  -0.565845   0.406868
     5  Na   0.004109  -0.106493
     6  Na  -0.072428   0.280074
     7  Na   0.612741   0.070056
 Sum of Mulliken charges =  -0.00000   1.00000

 Dipole moment (field-independent basis, Debye):
    X=             -0.3620    Y=             -0.1989    Z=             -0.3037  Tot=              0.5127
 Quadrupole moment (field-independent basis, Debye-Ang):
   XX=            -49.4109   YY=            -75.5809   ZZ=            -69.2943
   XY=             -0.0879   XZ=              0.4956   YZ=             -3.1978

 Normal termination of Gaussian 16 at Thu Dec  7 19:46:10 2023.
