 Gaussian 16, Revision B.01,
 Gaussian 16:  ES64L-G16RevB.01 20-Dec-2017

 -------------------------
 #P B3LYP/6-311+g(d) force
 -------------------------

 -----
 DPGEN
 -----
 Symbolic Z-matrix:
 Charge =  0 Multiplicity = 2

                         Standard orientation:
 ---------------------------------------------------------------------
 Center     Atomic      Atomic             Coordinates (Angstroms)
 Number     Number       Type             X           Y           Z
 ---------------------------------------------------------------------
      1         11           0       -0.643839   -0.058134    1.977699
      2         11           0        1.228895    2.762511    0.154794
      3         11           0       -2.332604   -1.691625   -0.648260
      4         11           0        0.595551   -2.673570    0.222756
      5         11           0        0.480864    0.396396   -1.527140
      6         11           0       -2.471214    1.772453   -0.131430
      7         11           0        3.142347   -0.508031   -0.048419
 ---------------------------------------------------------------------

 SCF Done:  E(UB3LYP) =  -1136.13628642     A.U. after   19 cycles

 The electronic state is 2-A.
 Alpha  occ. eigenvalues --  -38.44001 -38.43916 -38.43869 -38.43553 -38.43362
 Alpha  occ. eigenvalues --  -38.43150 -38.43055  -2.19843  -2.19762  -2.19713
 Alpha  occ. eigenvalues --   -2.19433  -2.19281  -2.19067  -2.19052  -1.13545
 Alpha  occ. eigenvalues --   -1.13509  -1.13498  -1.13476  -1.13417  -1.13399
 Alpha  occ. eigenvalues --   -1.13384  -1.13369  -1.13340  -1.13122  -1.13088
 Alpha  occ. eigenvalues --   -1.13075  -1.12950  -1.12914  -1.12895  -1.12750
 Alpha  occ. eigenvalues --   -1.12733  -1.12714  -1.12695  -1.12687  -1.12677
 Alpha  occ. eigenvalues --   -0.18842  -0.13042  -0.12707  -0.10645
 Alpha virt. eigenvalues --   -0.05696  -0.05074  -0.04718  -0.03180  -0.02983
 Alpha virt. eigenvalues --   -0.02356  -0.01446  -0.01157  -0.00362  -0.00209
 Alpha virt. eigenvalues --    0.00019   0.00360   0.00837   0.00894   0.00929

  Beta  occ. eigenvalues --  -38.44001 -38.43913 -38.43862 -38.43533 -38.43273
  Beta  occ. eigenvalues --  -38.43142 -38.43002  -2.19844  -2.19759  -2.19706
  Beta  occ. eigenvalues --   -2.19400  -2.19116  -2.19041  -2.18971  -1.13541
  Beta  occ. eigenvalues --   -1.13503  -1.13486  -1.13479  -1.13400  -1.13392
  Beta  occ. eigenvalues --   -1.13369  -1.13355  -1.13336  -1.13103  -1.13055
  Beta  occ. eigenvalues --   -1.13039  -1.12844  -1.12798  -1.12782  -1.12720
  Beta  occ. eigenvalues --   -1.12687  -1.12672  -1.12667  -1.12632  -1.12613
  Beta  occ. eigenvalues --   -0.18128  -0.12815  -0.12468
  Beta virt. eigenvalues --   -0.06739  -0.05685  -0.04978  -0.04691  -0.02449
  Beta virt. eigenvalues --   -0.02196  -0.01397  -0.01321  -0.01066  -0.00393
  Beta virt. eigenvalues --   -0.00217   0.00154   0.00401   0.00841   0.00919

 Mulliken charges and spin densities:
               1          2
     1  Na  -0.444434   0.681747
     2  Na   0.053621  -0.104337
     3  Na   0.067570   0.099732
     4  Na   0.220447   0.045743
     5  Na  -0.191794   0.363783
     6  Na   0.194114  -0.025203
     7  Na   0.100476  -0.061465
 Sum of Mulliken charges =  -0.00000   1.00000

 Dipole moment (field-independent basis, Debye):
    X=              0.1018    Y=              0.3601    Z=              0.1397  Tot=              0.3994
 Quadrupole moment (field-independent basis, Debye-Ang):
   XX=            -57.0958   YY=            -61.7422   ZZ=            -74.4592
   XY=             -0.3385   XZ=              2.3057   YZ=              1.0508

 Normal termination of Gaussian 16 at Thu Dec  7 22:11:14 2023.
