 Gaussian 16, Revision B.01,
 Gaussian 16:  ES64L-G16RevB.01 20-Dec-2017

 -------------------------
 #P B3LYP/6-311+g(d) force
 -------------------------

 -----
 DPGEN
 -----
 Symbolic Z-matrix:
 Charge =  0 Multiplicity = 2

                         Standard orientation:
 ---------------------------------------------------------------------
 Center     Atomic      Atomic             Coordinates (Angstroms)
 Number     Number       Type             X           Y           Z
 ---------------------------------------------------------------------
      1         11           0       -0.494237   -1.198092    1.944542
      2         11           0        0.384333   -2.862863   -1.022072
      3         11           0       -3.140910    2.594391    0.024034
      4         11           0        0.189932    0.715376   -0.748405
      5         11           0       -3.086714   -0.993085   -0.355427
      6         11           0        3.100336    2.645208   -0.094329
      7         11           0        3.047260   -0.900933    0.251658
 ---------------------------------------------------------------------

 SCF Done:  E(UB3LYP) =  -1136.12324610     A.U. after   22 cycles

 The electronic state is 2-A.
 Alpha  occ. eigenvalues --  -38.44879 -38.44711 -38.44671 -38.44257 -38.43878
 Alpha  occ. eigenvalues --  -38.43044 -38.42920  -2.20680  -2.20531  -2.20418
 Alpha  occ. eigenvalues --   -2.20030  -2.19770  -2.18898  -2.18816  -1.14365
 Alpha  occ. eigenvalues --   -1.14350  -1.14300  -1.14217  -1.14208  -1.14148
 Alpha  occ. eigenvalues --   -1.14088  -1.14085  -1.14047  -1.13701  -1.13694
 Alpha  occ. eigenvalues --   -1.13665  -1.13505  -1.13430  -1.13382  -1.12564
 Alpha  occ. eigenvalues --   -1.12549  -1.12540  -1.12486  -1.12443  -1.12413
 Alpha  occ. eigenvalues --   -0.17810  -0.13477  -0.12052  -0.09727
 Alpha virt. eigenvalues --   -0.06789  -0.06050  -0.04815  -0.02959  -0.02359
 Alpha virt. eigenvalues --   -0.02182  -0.02003  -0.01622  -0.01491  -0.00662
 Alpha virt. eigenvalues --   -0.00080   0.00195   0.00337   0.00489   0.00670

  Beta  occ. eigenvalues --  -38.44873 -38.44705 -38.44671 -38.44261 -38.43863
  Beta  occ. eigenvalues --  -38.43000 -38.42824  -2.20671  -2.20522  -2.20418
  Beta  occ. eigenvalues --   -2.20037  -2.19745  -2.18819  -2.18638  -1.14348
  Beta  occ. eigenvalues --   -1.14331  -1.14298  -1.14212  -1.14180  -1.14143
  Beta  occ. eigenvalues --   -1.14086  -1.14084  -1.14048  -1.13705  -1.13698
  Beta  occ. eigenvalues --   -1.13670  -1.13464  -1.13407  -1.13368  -1.12507
  Beta  occ. eigenvalues --   -1.12494  -1.12472  -1.12365  -1.12318  -1.12294
  Beta  occ. eigenvalues --   -0.17198  -0.13313  -0.11858
  Beta virt. eigenvalues --   -0.06710  -0.05941  -0.05867  -0.04652  -0.02407
  Beta virt. eigenvalues --   -0.02137  -0.01943  -0.01805  -0.01442  -0.00780
  Beta virt. eigenvalues --   -0.00601   0.00188   0.00305   0.00491   0.00547

 Mulliken charges and spin densities:
               1          2
     1  Na  -0.292123   0.346260
     2  Na   0.153228   0.305108
     3  Na   0.002406  -0.052894
     4  Na  -1.286979   0.227262
     5  Na   0.733813   0.186048
     6  Na   0.228078  -0.132574
     7  Na   0.461578   0.120792
 Sum of Mulliken charges =  -0.00000   1.00000

 Dipole moment (field-independent basis, Debye):
    X=             -0.0272    Y=              0.5372    Z=              0.1680  Tot=              0.5635
 Quadrupole moment (field-independent basis, Debye-Ang):
   XX=            -52.6018   YY=            -60.3459   ZZ=            -78.9885
   XY=              0.6528   XZ=              1.9908   YZ=              1.5728

 Normal termination of Gaussian 16 at Tue Dec  5 23:18:08 2023.
