 Gaussian 16, Revision B.01,
 Gaussian 16:  ES64L-G16RevB.01 20-Dec-2017

 -------------------------
 #P B3LYP/6-311+g(d) force
 -------------------------

 -----
 DPGEN
 -----
 Symbolic Z-matrix:
 Charge =  0 Multiplicity = 2

                         Standard orientation:
 ---------------------------------------------------------------------
 Center     Atomic      Atomic             Coordinates (Angstroms)
 Number     Number       Type             X           Y           Z
 ---------------------------------------------------------------------
      1         11           0        3.246692    0.293851    0.667334
      2         11           0        3.630093   -3.064429   -0.171423
      3         11           0       -3.384702   -1.486970   -0.276575
      4         11           0        2.023777    3.892950   -0.032577
      5         11           0       -5.992356    0.218417    0.428874
      6         11           0        0.696695   -1.527196    0.021664
      7         11           0       -0.220199    1.673377   -0.637296
 ---------------------------------------------------------------------

 SCF Done:  E(UB3LYP) =  -1136.12136560     A.U. after   20 cycles

 The electronic state is 2-A.
 Alpha  occ. eigenvalues --  -38.44987 -38.44437 -38.44267 -38.43992 -38.43792
 Alpha  occ. eigenvalues --  -38.43753 -38.43479  -2.20822  -2.20251  -2.20103
 Alpha  occ. eigenvalues --   -2.19799  -2.19659  -2.19601  -2.19258  -1.14547
 Alpha  occ. eigenvalues --   -1.14513  -1.14388  -1.13921  -1.13910  -1.13875
 Alpha  occ. eigenvalues --   -1.13799  -1.13784  -1.13725  -1.13457  -1.13456
 Alpha  occ. eigenvalues --   -1.13420  -1.13364  -1.13333  -1.13252  -1.13240
 Alpha  occ. eigenvalues --   -1.13238  -1.13236  -1.12944  -1.12932  -1.12896
 Alpha  occ. eigenvalues --   -0.17017  -0.13416  -0.12905  -0.10759
 Alpha virt. eigenvalues --   -0.06273  -0.05443  -0.04468  -0.04000  -0.02475
 Alpha virt. eigenvalues --   -0.02444  -0.02064  -0.01662  -0.01182  -0.00939
 Alpha virt. eigenvalues --   -0.00329  -0.00060   0.00339   0.00382   0.00601

  Beta  occ. eigenvalues --  -38.44964 -38.44421 -38.44242 -38.43974 -38.43716
  Beta  occ. eigenvalues --  -38.43702 -38.43489  -2.20779  -2.20223  -2.20059
  Beta  occ. eigenvalues --   -2.19765  -2.19570  -2.19459  -2.19283  -1.14511
  Beta  occ. eigenvalues --   -1.14486  -1.14353  -1.13898  -1.13891  -1.13855
  Beta  occ. eigenvalues --   -1.13760  -1.13757  -1.13685  -1.13433  -1.13432
  Beta  occ. eigenvalues --   -1.13398  -1.13309  -1.13276  -1.13165  -1.13149
  Beta  occ. eigenvalues --   -1.13141  -1.13139  -1.12967  -1.12951  -1.12863
  Beta  occ. eigenvalues --   -0.16427  -0.12890  -0.12542
  Beta virt. eigenvalues --   -0.07374  -0.06125  -0.04978  -0.04045  -0.03753
  Beta virt. eigenvalues --   -0.02327  -0.02119  -0.01885  -0.01512  -0.00914
  Beta virt. eigenvalues --   -0.00550  -0.00006   0.00075   0.00439   0.00515

 Mulliken charges and spin densities:
               1          2
     1  Na  -0.216965   0.286702
     2  Na   1.296980   0.155622
     3  Na  -0.712257  -0.136522
     4  Na   0.859185   0.134358
     5  Na   0.335107   0.370986
     6  Na  -0.766716   0.174751
     7  Na  -0.795332   0.014104
 Sum of Mulliken charges =  -0.00000   1.00000

 Dipole moment (field-independent basis, Debye):
    X=              2.1038    Y=              0.1235    Z=             -0.0618  Tot=              2.1083
 Quadrupole moment (field-independent basis, Debye-Ang):
   XX=            -66.4351   YY=            -57.1884   ZZ=            -72.3961
   XY=             -6.6353   XZ=             -0.3667   YZ=              1.8040

 Normal termination of Gaussian 16 at Wed Nov 29 02:31:00 2023.
