 Gaussian 16, Revision B.01,
 Gaussian 16:  ES64L-G16RevB.01 20-Dec-2017

 -------------------------
 #P B3LYP/6-311+g(d) force
 -------------------------

 -----
 DPGEN
 -----
 Symbolic Z-matrix:
 Charge =  0 Multiplicity = 2

                         Standard orientation:
 ---------------------------------------------------------------------
 Center     Atomic      Atomic             Coordinates (Angstroms)
 Number     Number       Type             X           Y           Z
 ---------------------------------------------------------------------
      1         11           0        0.079201   -0.587610    1.868191
      2         11           0       -2.186039    0.643956   -1.657639
      3         11           0       -0.924186    2.758298    0.539361
      4         11           0        3.506332   -0.612514   -0.168692
      5         11           0       -2.908311   -1.537284    0.536214
      6         11           0        0.680408   -2.653839   -0.779924
      7         11           0        1.752596    1.988994   -0.337512
 ---------------------------------------------------------------------

 SCF Done:  E(UB3LYP) =  -1136.12650783     A.U. after   19 cycles

 The electronic state is 2-A.
 Alpha  occ. eigenvalues --  -38.44574 -38.44356 -38.44100 -38.43819 -38.43778
 Alpha  occ. eigenvalues --  -38.43596 -38.43512  -2.20361  -2.20184  -2.19927
 Alpha  occ. eigenvalues --   -2.19679  -2.19669  -2.19483  -2.19403  -1.14048
 Alpha  occ. eigenvalues --   -1.14040  -1.13977  -1.13879  -1.13851  -1.13817
 Alpha  occ. eigenvalues --   -1.13646  -1.13581  -1.13552  -1.13462  -1.13340
 Alpha  occ. eigenvalues --   -1.13326  -1.13313  -1.13308  -1.13306  -1.13114
 Alpha  occ. eigenvalues --   -1.13113  -1.13095  -1.13069  -1.13035  -1.13024
 Alpha  occ. eigenvalues --   -0.18027  -0.13437  -0.12693  -0.10499
 Alpha virt. eigenvalues --   -0.06325  -0.05257  -0.04712  -0.03482  -0.03228
 Alpha virt. eigenvalues --   -0.02279  -0.01735  -0.01006  -0.00678  -0.00419
 Alpha virt. eigenvalues --   -0.00051   0.00339   0.00565   0.00714   0.00797

  Beta  occ. eigenvalues --  -38.44567 -38.44349 -38.44090 -38.43776 -38.43759
  Beta  occ. eigenvalues --  -38.43589 -38.43426  -2.20349  -2.20176  -2.19910
  Beta  occ. eigenvalues --   -2.19668  -2.19566  -2.19473  -2.19245  -1.14038
  Beta  occ. eigenvalues --   -1.14021  -1.13968  -1.13868  -1.13821  -1.13811
  Beta  occ. eigenvalues --   -1.13637  -1.13561  -1.13543  -1.13455  -1.13311
  Beta  occ. eigenvalues --   -1.13296  -1.13267  -1.13247  -1.13235  -1.13105
  Beta  occ. eigenvalues --   -1.13092  -1.13074  -1.12966  -1.12923  -1.12909
  Beta  occ. eigenvalues --   -0.17404  -0.13095  -0.12496
  Beta virt. eigenvalues --   -0.06845  -0.06222  -0.05131  -0.04513  -0.02879
  Beta virt. eigenvalues --   -0.02493  -0.01693  -0.01437  -0.00958  -0.00584
  Beta virt. eigenvalues --   -0.00398   0.00159   0.00424   0.00700   0.00755

 Mulliken charges and spin densities:
               1          2
     1  Na  -0.067702   0.405636
     2  Na  -0.062399   0.313065
     3  Na   0.226425   0.174309
     4  Na   0.304892  -0.015714
     5  Na   0.190729  -0.008961
     6  Na  -0.273564   0.128433
     7  Na  -0.318380   0.003231
 Sum of Mulliken charges =  -0.00000   1.00000

 Dipole moment (field-independent basis, Debye):
    X=              0.0518    Y=             -0.6279    Z=              0.0029  Tot=              0.6301
 Quadrupole moment (field-independent basis, Debye-Ang):
   XX=            -59.0417   YY=            -65.5874   ZZ=            -72.5902
   XY=              0.7049   XZ=             -1.8343   YZ=              1.5400

 Normal termination of Gaussian 16 at Wed Nov 29 16:05:09 2023.
