 Gaussian 16, Revision B.01,
 Gaussian 16:  ES64L-G16RevB.01 20-Dec-2017

 -------------------------
 #P B3LYP/6-311+g(d) force
 -------------------------

 -----
 DPGEN
 -----
 Symbolic Z-matrix:
 Charge =  0 Multiplicity = 2

                         Standard orientation:
 ---------------------------------------------------------------------
 Center     Atomic      Atomic             Coordinates (Angstroms)
 Number     Number       Type             X           Y           Z
 ---------------------------------------------------------------------
      1         11           0       -0.013582    2.913718    0.040023
      2         11           0        5.286372   -0.823613   -1.000100
      3         11           0        2.703918    1.254641    0.042026
      4         11           0        3.302911   -1.840959    1.364094
      5         11           0       -0.523700    0.082242    0.015222
      6         11           0       -4.328635   -1.462469   -1.090408
      7         11           0       -6.427283   -0.123559    0.629142
 ---------------------------------------------------------------------

 SCF Done:  E(UB3LYP) =  -1136.11034853     A.U. after   19 cycles

 The electronic state is 2-A.
 Alpha  occ. eigenvalues --  -38.44336 -38.44292 -38.44223 -38.44089 -38.43969
 Alpha  occ. eigenvalues --  -38.43859 -38.43849  -2.20135  -2.20112  -2.20056
 Alpha  occ. eigenvalues --   -2.19886  -2.19852  -2.19773  -2.19747  -1.13850
 Alpha  occ. eigenvalues --   -1.13793  -1.13782  -1.13779  -1.13777  -1.13766
 Alpha  occ. eigenvalues --   -1.13736  -1.13702  -1.13688  -1.13642  -1.13544
 Alpha  occ. eigenvalues --   -1.13533  -1.13518  -1.13514  -1.13500  -1.13474
 Alpha  occ. eigenvalues --   -1.13460  -1.13424  -1.13369  -1.13317  -1.13288
 Alpha  occ. eigenvalues --   -0.16795  -0.13858  -0.12781  -0.09864
 Alpha virt. eigenvalues --   -0.06715  -0.05438  -0.04794  -0.03620  -0.02851
 Alpha virt. eigenvalues --   -0.02391  -0.01812  -0.01794  -0.01241  -0.01026
 Alpha virt. eigenvalues --   -0.00348  -0.00025   0.00358   0.00467   0.00554

  Beta  occ. eigenvalues --  -38.44319 -38.44272 -38.44183 -38.44093 -38.43933
  Beta  occ. eigenvalues --  -38.43831 -38.43828  -2.20102  -2.20075  -2.19981
  Beta  occ. eigenvalues --   -2.19894  -2.19786  -2.19720  -2.19713  -1.13832
  Beta  occ. eigenvalues --   -1.13759  -1.13759  -1.13756  -1.13750  -1.13735
  Beta  occ. eigenvalues --   -1.13686  -1.13650  -1.13648  -1.13588  -1.13551
  Beta  occ. eigenvalues --   -1.13536  -1.13506  -1.13476  -1.13454  -1.13439
  Beta  occ. eigenvalues --   -1.13403  -1.13373  -1.13347  -1.13277  -1.13257
  Beta  occ. eigenvalues --   -0.16221  -0.13682  -0.12595
  Beta virt. eigenvalues --   -0.06629  -0.06013  -0.05215  -0.04409  -0.03336
  Beta virt. eigenvalues --   -0.02717  -0.02094  -0.01730  -0.01422  -0.01092
  Beta virt. eigenvalues --   -0.00664  -0.00036   0.00217   0.00446   0.00606

 Mulliken charges and spin densities:
               1          2
     1  Na   0.565626   0.181595
     2  Na   0.692022   0.072237
     3  Na  -0.035478   0.225447
     4  Na   0.163109   0.193337
     5  Na  -1.307479   0.272670
     6  Na  -0.104948  -0.022661
     7  Na   0.027148   0.077376
 Sum of Mulliken charges =  -0.00000   1.00000

 Dipole moment (field-independent basis, Debye):
    X=              0.2284    Y=              0.1030    Z=              0.0343  Tot=              0.2529
 Quadrupole moment (field-independent basis, Debye-Ang):
   XX=            -59.8682   YY=            -67.9720   ZZ=            -67.2527
   XY=             -9.3581   XZ=             -5.4260   YZ=              3.7045

 Normal termination of Gaussian 16 at Wed Nov 29 02:07:20 2023.
