 Gaussian 16, Revision B.01,
 Gaussian 16:  ES64L-G16RevB.01 20-Dec-2017

 -------------------------
 #P B3LYP/6-311+g(d) force
 -------------------------

 -----
 DPGEN
 -----
 Symbolic Z-matrix:
 Charge =  0 Multiplicity = 2

                         Standard orientation:
 ---------------------------------------------------------------------
 Center     Atomic      Atomic             Coordinates (Angstroms)
 Number     Number       Type             X           Y           Z
 ---------------------------------------------------------------------
      1         11           0        2.009023    1.532216   -1.223896
      2         11           0       -0.099018   -1.912658   -1.804621
      3         11           0       -5.140156   -0.767559    0.458769
      4         11           0       -1.439039   -0.050181    0.158572
      5         11           0        3.136836   -2.235959    0.427385
      6         11           0        1.657179    0.088252    2.117543
      7         11           0       -0.124824    3.345889   -0.133752
 ---------------------------------------------------------------------

 SCF Done:  E(UB3LYP) =  -1136.11057105     A.U. after   23 cycles

 The electronic state is 2-A.
 Alpha  occ. eigenvalues --  -38.44869 -38.44744 -38.44617 -38.44364 -38.44143
 Alpha  occ. eigenvalues --  -38.43758 -38.43556  -2.20611  -2.20593  -2.20466
 Alpha  occ. eigenvalues --   -2.20202  -2.19933  -2.19594  -2.19410  -1.14286
 Alpha  occ. eigenvalues --   -1.14268  -1.14265  -1.14257  -1.14233  -1.14219
 Alpha  occ. eigenvalues --   -1.14134  -1.14110  -1.14077  -1.13925  -1.13830
 Alpha  occ. eigenvalues --   -1.13788  -1.13608  -1.13597  -1.13569  -1.13272
 Alpha  occ. eigenvalues --   -1.13241  -1.13230  -1.13142  -1.13090  -1.13002
 Alpha  occ. eigenvalues --   -0.17668  -0.12602  -0.12321  -0.11086
 Alpha virt. eigenvalues --   -0.07267  -0.05363  -0.04110  -0.03395  -0.02926
 Alpha virt. eigenvalues --   -0.02629  -0.02416  -0.01467  -0.00854  -0.00565
 Alpha virt. eigenvalues --   -0.00263  -0.00039   0.00255   0.00568   0.00626

  Beta  occ. eigenvalues --  -38.44813 -38.44739 -38.44548 -38.44285 -38.44146
  Beta  occ. eigenvalues --  -38.43760 -38.43565  -2.20585  -2.20504  -2.20336
  Beta  occ. eigenvalues --   -2.20056  -2.19942  -2.19599  -2.19432  -1.14283
  Beta  occ. eigenvalues --   -1.14237  -1.14226  -1.14195  -1.14191  -1.14150
  Beta  occ. eigenvalues --   -1.14047  -1.14028  -1.13981  -1.13832  -1.13724
  Beta  occ. eigenvalues --   -1.13692  -1.13614  -1.13594  -1.13566  -1.13274
  Beta  occ. eigenvalues --   -1.13247  -1.13230  -1.13120  -1.13110  -1.13016
  Beta  occ. eigenvalues --   -0.17128  -0.12292  -0.11912
  Beta virt. eigenvalues --   -0.07578  -0.06813  -0.05339  -0.03700  -0.02920
  Beta virt. eigenvalues --   -0.02605  -0.02372  -0.01888  -0.01417  -0.00569
  Beta virt. eigenvalues --   -0.00326  -0.00101   0.00169   0.00334   0.00646

 Mulliken charges and spin densities:
               1          2
     1  Na   0.555283   0.064138
     2  Na   0.487314   0.230129
     3  Na  -0.333404   0.325511
     4  Na  -1.455502   0.175628
     5  Na  -0.140206  -0.088253
     6  Na   0.711159   0.419525
     7  Na   0.175356  -0.126678
 Sum of Mulliken charges =  -0.00000   1.00000

 Dipole moment (field-independent basis, Debye):
    X=              0.6198    Y=              0.2038    Z=             -0.3304  Tot=              0.7314
 Quadrupole moment (field-independent basis, Debye-Ang):
   XX=            -59.2853   YY=            -66.4105   ZZ=            -69.6780
   XY=             -2.6794   XZ=             -4.0417   YZ=              2.0505

 Normal termination of Gaussian 16 at Sat Dec  9 06:50:49 2023.
