 Gaussian 16, Revision B.01,
 Gaussian 16:  ES64L-G16RevB.01 20-Dec-2017

 -------------------------
 #P B3LYP/6-311+g(d) force
 -------------------------

 -----
 DPGEN
 -----
 Symbolic Z-matrix:
 Charge =  0 Multiplicity = 2

                         Standard orientation:
 ---------------------------------------------------------------------
 Center     Atomic      Atomic             Coordinates (Angstroms)
 Number     Number       Type             X           Y           Z
 ---------------------------------------------------------------------
      1         11           0       -3.814440    0.038346   -0.371072
      2         11           0        2.452483    2.484499   -0.746826
      3         11           0       -0.679022   -0.827707   -1.369911
      4         11           0       -1.008095    2.510872    0.357439
      5         11           0        2.636957   -0.419711    0.752124
      6         11           0        1.163102   -2.985470   -0.575730
      7         11           0       -0.750984   -0.800829    1.953978
 ---------------------------------------------------------------------

 SCF Done:  E(UB3LYP) =  -1136.12738462     A.U. after   20 cycles

 The electronic state is 2-A.
 Alpha  occ. eigenvalues --  -38.44797 -38.44368 -38.44077 -38.43681 -38.43623
 Alpha  occ. eigenvalues --  -38.43537 -38.43305  -2.20581  -2.20154  -2.19938
 Alpha  occ. eigenvalues --   -2.19563  -2.19517  -2.19482  -2.19108  -1.14256
 Alpha  occ. eigenvalues --   -1.14244  -1.14206  -1.13846  -1.13846  -1.13758
 Alpha  occ. eigenvalues --   -1.13616  -1.13609  -1.13591  -1.13354  -1.13262
 Alpha  occ. eigenvalues --   -1.13213  -1.13160  -1.13154  -1.13144  -1.13117
 Alpha  occ. eigenvalues --   -1.13104  -1.13031  -1.12781  -1.12764  -1.12743
 Alpha  occ. eigenvalues --   -0.18132  -0.13268  -0.12366  -0.10521
 Alpha virt. eigenvalues --   -0.06343  -0.05333  -0.04696  -0.03358  -0.02786
 Alpha virt. eigenvalues --   -0.02283  -0.02090  -0.01153  -0.00677  -0.00354
 Alpha virt. eigenvalues --    0.00019   0.00270   0.00577   0.00706   0.00739

  Beta  occ. eigenvalues --  -38.44791 -38.44364 -38.44068 -38.43610 -38.43589
  Beta  occ. eigenvalues --  -38.43491 -38.43295  -2.20572  -2.20149  -2.19924
  Beta  occ. eigenvalues --   -2.19492  -2.19403  -2.19393  -2.19089  -1.14243
  Beta  occ. eigenvalues --   -1.14234  -1.14200  -1.13845  -1.13821  -1.13758
  Beta  occ. eigenvalues --   -1.13604  -1.13594  -1.13569  -1.13316  -1.13162
  Beta  occ. eigenvalues --   -1.13143  -1.13103  -1.13084  -1.13060  -1.13046
  Beta  occ. eigenvalues --   -1.13029  -1.12985  -1.12769  -1.12748  -1.12731
  Beta  occ. eigenvalues --   -0.17458  -0.13081  -0.12144
  Beta virt. eigenvalues --   -0.06707  -0.06218  -0.05270  -0.04456  -0.02715
  Beta virt. eigenvalues --   -0.02265  -0.02009  -0.01346  -0.01098  -0.00564
  Beta virt. eigenvalues --   -0.00242   0.00150   0.00331   0.00721   0.00745

 Mulliken charges and spin densities:
               1          2
     1  Na   0.359090   0.012701
     2  Na   0.135322  -0.091280
     3  Na  -0.552724   0.459332
     4  Na  -0.137370   0.036767
     5  Na  -0.085403   0.172511
     6  Na   0.462475  -0.033405
     7  Na  -0.181390   0.443375
 Sum of Mulliken charges =  -0.00000   1.00000

 Dipole moment (field-independent basis, Debye):
    X=             -0.9914    Y=             -0.1600    Z=              0.1828  Tot=              1.0208
 Quadrupole moment (field-independent basis, Debye-Ang):
   XX=            -54.1686   YY=            -65.2178   ZZ=            -74.3866
   XY=             -3.0858   XZ=             -0.1010   YZ=             -0.7597

 Normal termination of Gaussian 16 at Sun Dec  3 13:11:28 2023.
