 Gaussian 16, Revision B.01,
 Gaussian 16:  ES64L-G16RevB.01 20-Dec-2017

 -------------------------
 #P B3LYP/6-311+g(d) force
 -------------------------

 -----
 DPGEN
 -----
 Symbolic Z-matrix:
 Charge =  0 Multiplicity = 2

                         Standard orientation:
 ---------------------------------------------------------------------
 Center     Atomic      Atomic             Coordinates (Angstroms)
 Number     Number       Type             X           Y           Z
 ---------------------------------------------------------------------
      1         11           0        0.106100    0.933370   -1.186718
      2         11           0        1.852940   -2.278612    0.372806
      3         11           0       -3.412632    0.533381   -0.364018
      4         11           0       -1.672247   -2.287948   -0.695744
      5         11           0        0.470656    3.333307    0.323331
      6         11           0        3.895296    0.050418   -0.233705
      7         11           0       -1.240113   -0.283915    1.784048
 ---------------------------------------------------------------------

 SCF Done:  E(UB3LYP) =  -1136.11810342     A.U. after   26 cycles

 The electronic state is 2-A.
 Alpha  occ. eigenvalues --  -38.44965 -38.44897 -38.44021 -38.43803 -38.43607
 Alpha  occ. eigenvalues --  -38.43496 -38.43315  -2.20757  -2.20745  -2.19899
 Alpha  occ. eigenvalues --   -2.19628  -2.19539  -2.19323  -2.19251  -1.14445
 Alpha  occ. eigenvalues --   -1.14424  -1.14405  -1.14405  -1.14381  -1.14371
 Alpha  occ. eigenvalues --   -1.13585  -1.13571  -1.13526  -1.13514  -1.13270
 Alpha  occ. eigenvalues --   -1.13246  -1.13210  -1.13134  -1.13113  -1.12999
 Alpha  occ. eigenvalues --   -1.12992  -1.12966  -1.12912  -1.12904  -1.12850
 Alpha  occ. eigenvalues --   -0.18204  -0.13516  -0.12260  -0.09925
 Alpha virt. eigenvalues --   -0.07115  -0.05161  -0.04809  -0.03023  -0.02742
 Alpha virt. eigenvalues --   -0.02380  -0.01849  -0.01214  -0.01085  -0.00368
 Alpha virt. eigenvalues --   -0.00160   0.00218   0.00380   0.00632   0.00821

  Beta  occ. eigenvalues --  -38.44954 -38.44868 -38.44002 -38.43803 -38.43592
  Beta  occ. eigenvalues --  -38.43490 -38.43237  -2.20724  -2.20707  -2.19868
  Beta  occ. eigenvalues --   -2.19628  -2.19512  -2.19315  -2.19107  -1.14412
  Beta  occ. eigenvalues --   -1.14405  -1.14387  -1.14359  -1.14357  -1.14340
  Beta  occ. eigenvalues --   -1.13569  -1.13545  -1.13506  -1.13471  -1.13260
  Beta  occ. eigenvalues --   -1.13243  -1.13187  -1.13115  -1.13094  -1.12997
  Beta  occ. eigenvalues --   -1.12988  -1.12938  -1.12817  -1.12802  -1.12743
  Beta  occ. eigenvalues --   -0.17563  -0.13264  -0.12093
  Beta virt. eigenvalues --   -0.06958  -0.06168  -0.05026  -0.04679  -0.02538
  Beta virt. eigenvalues --   -0.02418  -0.02011  -0.01224  -0.01068  -0.00812
  Beta virt. eigenvalues --   -0.00363   0.00105   0.00295   0.00541   0.00659

 Mulliken charges and spin densities:
               1          2
     1  Na   0.508480   0.033375
     2  Na  -0.291924  -0.001452
     3  Na   0.235505   0.193244
     4  Na   0.158945   0.253886
     5  Na  -0.488038  -0.133398
     6  Na   0.087137   0.069663
     7  Na  -0.210105   0.584681
 Sum of Mulliken charges =  -0.00000   1.00000

 Dipole moment (field-independent basis, Debye):
    X=             -0.0012    Y=              0.2929    Z=              0.2627  Tot=              0.3934
 Quadrupole moment (field-independent basis, Debye-Ang):
   XX=            -53.4210   YY=            -64.5856   ZZ=            -75.8916
   XY=              0.7256   XZ=             -0.0567   YZ=              2.8882

 Normal termination of Gaussian 16 at Tue Dec  5 11:45:26 2023.
