 Gaussian 16, Revision B.01,
 Gaussian 16:  ES64L-G16RevB.01 20-Dec-2017

 -------------------------
 #P B3LYP/6-311+g(d) force
 -------------------------

 -----
 DPGEN
 -----
 Symbolic Z-matrix:
 Charge =  0 Multiplicity = 2

                         Standard orientation:
 ---------------------------------------------------------------------
 Center     Atomic      Atomic             Coordinates (Angstroms)
 Number     Number       Type             X           Y           Z
 ---------------------------------------------------------------------
      1         11           0        2.115545   -1.052134    1.454225
      2         11           0        3.783565   -0.404387   -1.087890
      3         11           0        1.197292    2.251335    0.297750
      4         11           0       -0.837306    0.123688    1.635590
      5         11           0       -3.159696   -1.863112   -0.161763
      6         11           0       -3.315539    1.395120   -0.567317
      7         11           0        0.216139   -0.450509   -1.570595
 ---------------------------------------------------------------------

 SCF Done:  E(UB3LYP) =  -1136.11750688     A.U. after   31 cycles

 The electronic state is 2-A.
 Alpha  occ. eigenvalues --  -38.45454 -38.44992 -38.44133 -38.43921 -38.43734
 Alpha  occ. eigenvalues --  -38.43029 -38.42594  -2.21259  -2.20850  -2.20061
 Alpha  occ. eigenvalues --   -2.19744  -2.19564  -2.18902  -2.18580  -1.14940
 Alpha  occ. eigenvalues --   -1.14904  -1.14879  -1.14561  -1.14517  -1.14444
 Alpha  occ. eigenvalues --   -1.13756  -1.13721  -1.13678  -1.13413  -1.13402
 Alpha  occ. eigenvalues --   -1.13389  -1.13247  -1.13217  -1.13202  -1.12592
 Alpha  occ. eigenvalues --   -1.12563  -1.12531  -1.12293  -1.12228  -1.12183
 Alpha  occ. eigenvalues --   -0.18560  -0.14330  -0.11161  -0.10666
 Alpha virt. eigenvalues --   -0.07021  -0.05656  -0.04574  -0.02985  -0.02851
 Alpha virt. eigenvalues --   -0.02418  -0.02087  -0.01295  -0.00952  -0.00339
 Alpha virt. eigenvalues --    0.00094   0.00181   0.00362   0.00485   0.00627

  Beta  occ. eigenvalues --  -38.45432 -38.44946 -38.44084 -38.43915 -38.43750
  Beta  occ. eigenvalues --  -38.43012 -38.42551  -2.21216  -2.20768  -2.19972
  Beta  occ. eigenvalues --   -2.19735  -2.19594  -2.18872  -2.18507  -1.14906
  Beta  occ. eigenvalues --   -1.14874  -1.14853  -1.14497  -1.14444  -1.14384
  Beta  occ. eigenvalues --   -1.13690  -1.13661  -1.13619  -1.13404  -1.13391
  Beta  occ. eigenvalues --   -1.13382  -1.13265  -1.13236  -1.13213  -1.12579
  Beta  occ. eigenvalues --   -1.12522  -1.12508  -1.12246  -1.12147  -1.12125
  Beta  occ. eigenvalues --   -0.17824  -0.14299  -0.10506
  Beta virt. eigenvalues --   -0.07291  -0.06825  -0.05151  -0.04268  -0.02796
  Beta virt. eigenvalues --   -0.02613  -0.01825  -0.01435  -0.00855  -0.00798
  Beta virt. eigenvalues --   -0.00275   0.00088   0.00242   0.00419   0.00597

 Mulliken charges and spin densities:
               1          2
     1  Na  -0.137805  -0.088554
     2  Na   0.409479  -0.083666
     3  Na  -0.414117   0.205967
     4  Na   0.229573   0.597210
     5  Na   0.190743  -0.205861
     6  Na   0.265377   0.069615
     7  Na  -0.543251   0.505287
 Sum of Mulliken charges =  -0.00000   1.00000

 Dipole moment (field-independent basis, Debye):
    X=             -0.8002    Y=              0.7414    Z=             -0.2022  Tot=              1.1095
 Quadrupole moment (field-independent basis, Debye-Ang):
   XX=            -54.5881   YY=            -70.0775   ZZ=            -72.3585
   XY=             -0.1015   XZ=              1.6623   YZ=             -4.6719

 Normal termination of Gaussian 16 at Thu Dec  7 21:38:35 2023.
