 Gaussian 16, Revision B.01,
 Gaussian 16:  ES64L-G16RevB.01 20-Dec-2017

 -------------------------
 #P B3LYP/6-311+g(d) force
 -------------------------

 -----
 DPGEN
 -----
 Symbolic Z-matrix:
 Charge =  0 Multiplicity = 2

                         Standard orientation:
 ---------------------------------------------------------------------
 Center     Atomic      Atomic             Coordinates (Angstroms)
 Number     Number       Type             X           Y           Z
 ---------------------------------------------------------------------
      1         11           0        1.638099   -3.213223   -0.538727
      2         11           0       -3.822393   -1.149417    1.177979
      3         11           0       -2.812047    2.076630   -0.201398
      4         11           0        3.215029    1.763842   -0.412761
      5         11           0        0.259440    3.774531   -0.087207
      6         11           0       -1.782158   -2.124473   -1.172445
      7         11           0        3.304029   -1.127889    1.234561
 ---------------------------------------------------------------------

 SCF Done:  E(UB3LYP) =  -1136.11292960     A.U. after   22 cycles

 The electronic state is 2-A.
 Alpha  occ. eigenvalues --  -38.45240 -38.45106 -38.44483 -38.44438 -38.43984
 Alpha  occ. eigenvalues --  -38.43683 -38.43556  -2.21007  -2.20891  -2.20271
 Alpha  occ. eigenvalues --   -2.20254  -2.19812  -2.19499  -2.19340  -1.14701
 Alpha  occ. eigenvalues --   -1.14681  -1.14614  -1.14588  -1.14564  -1.14510
 Alpha  occ. eigenvalues --   -1.13972  -1.13942  -1.13923  -1.13920  -1.13910
 Alpha  occ. eigenvalues --   -1.13861  -1.13471  -1.13456  -1.13429  -1.13159
 Alpha  occ. eigenvalues --   -1.13150  -1.13136  -1.13012  -1.13003  -1.12977
 Alpha  occ. eigenvalues --   -0.15916  -0.14032  -0.13149  -0.10388
 Alpha virt. eigenvalues --   -0.07308  -0.05286  -0.04328  -0.03624  -0.02991
 Alpha virt. eigenvalues --   -0.02331  -0.02000  -0.01666  -0.01295  -0.01159
 Alpha virt. eigenvalues --   -0.00264   0.00075   0.00153   0.00457   0.00609

  Beta  occ. eigenvalues --  -38.45207 -38.45085 -38.44454 -38.44430 -38.43928
  Beta  occ. eigenvalues --  -38.43644 -38.43536  -2.20952  -2.20856  -2.20240
  Beta  occ. eigenvalues --   -2.20221  -2.19706  -2.19427  -2.19306  -1.14668
  Beta  occ. eigenvalues --   -1.14648  -1.14565  -1.14546  -1.14541  -1.14450
  Beta  occ. eigenvalues --   -1.13938  -1.13921  -1.13905  -1.13902  -1.13885
  Beta  occ. eigenvalues --   -1.13826  -1.13398  -1.13383  -1.13361  -1.13115
  Beta  occ. eigenvalues --   -1.13102  -1.13079  -1.12990  -1.12981  -1.12942
  Beta  occ. eigenvalues --   -0.15418  -0.13502  -0.12511
  Beta virt. eigenvalues --   -0.07385  -0.07047  -0.04905  -0.03980  -0.03458
  Beta virt. eigenvalues --   -0.02540  -0.02032  -0.01704  -0.01553  -0.01139
  Beta virt. eigenvalues --   -0.00864  -0.00026   0.00259   0.00312   0.00473

 Mulliken charges and spin densities:
               1          2
     1  Na   0.055001   0.178451
     2  Na   0.388162   0.281459
     3  Na  -0.103189   0.195240
     4  Na  -0.155346   0.127648
     5  Na   0.024407   0.050860
     6  Na  -0.160902   0.098162
     7  Na  -0.048132   0.068179
 Sum of Mulliken charges =  -0.00000   1.00000

 Dipole moment (field-independent basis, Debye):
    X=             -0.5214    Y=             -0.2487    Z=              0.2065  Tot=              0.6134
 Quadrupole moment (field-independent basis, Debye-Ang):
   XX=            -64.6037   YY=            -70.7493   ZZ=            -66.6415
   XY=             -0.5865   XZ=             -0.2022   YZ=             -1.4669

 Normal termination of Gaussian 16 at Sun Dec  3 19:13:17 2023.
