 Gaussian 16, Revision B.01,
 Gaussian 16:  ES64L-G16RevB.01 20-Dec-2017

 -------------------------
 #P B3LYP/6-311+g(d) force
 -------------------------

 -----
 DPGEN
 -----
 Symbolic Z-matrix:
 Charge =  0 Multiplicity = 2

                         Standard orientation:
 ---------------------------------------------------------------------
 Center     Atomic      Atomic             Coordinates (Angstroms)
 Number     Number       Type             X           Y           Z
 ---------------------------------------------------------------------
      1         11           0       -1.389508   -2.170379    0.277787
      2         11           0        2.109535   -2.094268   -0.113652
      3         11           0       -0.223199    2.781906    0.342788
      4         11           0       -0.281112   -0.367043   -1.729290
      5         11           0        2.855949    1.383763   -0.357366
      6         11           0       -0.053412   -0.210964    2.025329
      7         11           0       -3.018254    0.676985   -0.445596
 ---------------------------------------------------------------------

 SCF Done:  E(UB3LYP) =  -1136.13333244     A.U. after   20 cycles

 The electronic state is 2-A.
 Alpha  occ. eigenvalues --  -38.43850 -38.43846 -38.43780 -38.43595 -38.43504
 Alpha  occ. eigenvalues --  -38.43387 -38.43199  -2.19798  -2.19655  -2.19649
 Alpha  occ. eigenvalues --   -2.19602  -2.19382  -2.19361  -2.19043  -1.13553
 Alpha  occ. eigenvalues --   -1.13438  -1.13413  -1.13395  -1.13354  -1.13331
 Alpha  occ. eigenvalues --   -1.13311  -1.13305  -1.13300  -1.13284  -1.13227
 Alpha  occ. eigenvalues --   -1.13194  -1.13045  -1.13034  -1.13024  -1.13006
 Alpha  occ. eigenvalues --   -1.12995  -1.12938  -1.12728  -1.12707  -1.12670
 Alpha  occ. eigenvalues --   -0.19050  -0.13025  -0.12519  -0.11219
 Alpha virt. eigenvalues --   -0.05397  -0.05139  -0.04456  -0.03264  -0.03070
 Alpha virt. eigenvalues --   -0.02817  -0.01438  -0.00960  -0.00197  -0.00051
 Alpha virt. eigenvalues --    0.00030   0.00352   0.00839   0.00912   0.00942

  Beta  occ. eigenvalues --  -38.43848 -38.43770 -38.43747 -38.43528 -38.43499
  Beta  occ. eigenvalues --  -38.43370 -38.43193  -2.19654  -2.19634  -2.19616
  Beta  occ. eigenvalues --   -2.19480  -2.19357  -2.19356  -2.19034  -1.13445
  Beta  occ. eigenvalues --   -1.13367  -1.13323  -1.13315  -1.13308  -1.13300
  Beta  occ. eigenvalues --   -1.13293  -1.13286  -1.13269  -1.13260  -1.13142
  Beta  occ. eigenvalues --   -1.13118  -1.13019  -1.13010  -1.13002  -1.12988
  Beta  occ. eigenvalues --   -1.12946  -1.12922  -1.12715  -1.12688  -1.12669
  Beta  occ. eigenvalues --   -0.18296  -0.12754  -0.12273
  Beta virt. eigenvalues --   -0.07247  -0.05321  -0.05137  -0.04410  -0.02506
  Beta virt. eigenvalues --   -0.02271  -0.01745  -0.01338  -0.00925  -0.00168
  Beta virt. eigenvalues --   -0.00080   0.00118   0.00387   0.00902   0.00913

 Mulliken charges and spin densities:
               1          2
     1  Na   0.756166   0.023317
     2  Na   0.087265  -0.085682
     3  Na  -0.015292  -0.038629
     4  Na  -0.425564   0.583626
     5  Na  -0.149893  -0.060847
     6  Na  -0.400051   0.595026
     7  Na   0.147368  -0.016810
 Sum of Mulliken charges =  -0.00000   1.00000

 Dipole moment (field-independent basis, Debye):
    X=              0.0927    Y=              0.0357    Z=             -0.0020  Tot=              0.0994
 Quadrupole moment (field-independent basis, Debye-Ang):
   XX=            -57.3865   YY=            -65.2931   ZZ=            -72.0590
   XY=             -1.1763   XZ=             -0.3468   YZ=             -0.4126

 Normal termination of Gaussian 16 at Thu Dec  7 23:58:27 2023.
