 Gaussian 16, Revision B.01,
 Gaussian 16:  ES64L-G16RevB.01 20-Dec-2017

 -------------------------
 #P B3LYP/6-311+g(d) force
 -------------------------

 -----
 DPGEN
 -----
 Symbolic Z-matrix:
 Charge =  0 Multiplicity = 2

                         Standard orientation:
 ---------------------------------------------------------------------
 Center     Atomic      Atomic             Coordinates (Angstroms)
 Number     Number       Type             X           Y           Z
 ---------------------------------------------------------------------
      1         11           0       -3.283168   -0.054118    0.362125
      2         11           0       -1.113800    2.727881   -0.328973
      3         11           0        2.636204    1.598056    0.408791
      4         11           0        0.458425    0.349082   -1.549837
      5         11           0        2.525079   -1.726894    0.018366
      6         11           0       -0.121094   -0.346565    1.641152
      7         11           0       -1.101646   -2.547443   -0.551623
 ---------------------------------------------------------------------

 SCF Done:  E(UB3LYP) =  -1136.13525554     A.U. after   21 cycles

 The electronic state is 2-A.
 Alpha  occ. eigenvalues --  -38.44255 -38.44008 -38.43829 -38.43338 -38.43237
 Alpha  occ. eigenvalues --  -38.43219 -38.42799  -2.20082  -2.19875  -2.19706
 Alpha  occ. eigenvalues --   -2.19197  -2.19185  -2.19114  -2.18837  -1.13758
 Alpha  occ. eigenvalues --   -1.13737  -1.13721  -1.13573  -1.13537  -1.13507
 Alpha  occ. eigenvalues --   -1.13382  -1.13377  -1.13328  -1.12930  -1.12914
 Alpha  occ. eigenvalues --   -1.12857  -1.12833  -1.12810  -1.12804  -1.12789
 Alpha  occ. eigenvalues --   -1.12752  -1.12733  -1.12516  -1.12464  -1.12445
 Alpha  occ. eigenvalues --   -0.18935  -0.13426  -0.12348  -0.10397
 Alpha virt. eigenvalues --   -0.05869  -0.05327  -0.04466  -0.03209  -0.02671
 Alpha virt. eigenvalues --   -0.02005  -0.01784  -0.01178  -0.00474  -0.00185
 Alpha virt. eigenvalues --    0.00040   0.00341   0.00762   0.00851   0.00886

  Beta  occ. eigenvalues --  -38.44248 -38.43996 -38.43823 -38.43330 -38.43221
  Beta  occ. eigenvalues --  -38.43157 -38.42729  -2.20070  -2.19856  -2.19698
  Beta  occ. eigenvalues --   -2.19174  -2.19089  -2.19083  -2.18711  -1.13735
  Beta  occ. eigenvalues --   -1.13730  -1.13713  -1.13562  -1.13510  -1.13487
  Beta  occ. eigenvalues --   -1.13378  -1.13356  -1.13310  -1.12899  -1.12858
  Beta  occ. eigenvalues --   -1.12819  -1.12800  -1.12790  -1.12755  -1.12726
  Beta  occ. eigenvalues --   -1.12717  -1.12695  -1.12428  -1.12378  -1.12347
  Beta  occ. eigenvalues --   -0.18246  -0.13158  -0.12072
  Beta virt. eigenvalues --   -0.06566  -0.05763  -0.05336  -0.04397  -0.02476
  Beta virt. eigenvalues --   -0.01951  -0.01667  -0.01121  -0.01042  -0.00467
  Beta virt. eigenvalues --   -0.00214   0.00166   0.00387   0.00818   0.00855

 Mulliken charges and spin densities:
               1          2
     1  Na   0.072061   0.022532
     2  Na  -0.020233  -0.083546
     3  Na   0.031485   0.029192
     4  Na  -0.055383   0.457581
     5  Na   0.242943   0.019719
     6  Na  -0.245477   0.512976
     7  Na  -0.025395   0.041546
 Sum of Mulliken charges =  -0.00000   1.00000

 Dipole moment (field-independent basis, Debye):
    X=              0.0369    Y=             -0.0165    Z=              0.1430  Tot=              0.1486
 Quadrupole moment (field-independent basis, Debye-Ang):
   XX=            -52.5401   YY=            -63.2785   ZZ=            -75.7871
   XY=             -0.1903   XZ=              0.8689   YZ=              1.7482

 Normal termination of Gaussian 16 at Wed Nov 29 03:49:00 2023.
