 Gaussian 16, Revision B.01,
 Gaussian 16:  ES64L-G16RevB.01 20-Dec-2017

 -------------------------
 #P B3LYP/6-311+g(d) force
 -------------------------

 -----
 DPGEN
 -----
 Symbolic Z-matrix:
 Charge =  0 Multiplicity = 2

                         Standard orientation:
 ---------------------------------------------------------------------
 Center     Atomic      Atomic             Coordinates (Angstroms)
 Number     Number       Type             X           Y           Z
 ---------------------------------------------------------------------
      1         11           0        1.305075   -0.078231    2.181931
      2         11           0       -1.561998    2.071308    0.232753
      3         11           0        0.330176   -0.745846   -1.399680
      4         11           0       -3.537010   -0.255315   -1.050652
      5         11           0       -1.396440   -1.965470    1.313775
      6         11           0        3.212983   -1.065054   -1.148379
      7         11           0        1.647214    2.038608   -0.129747
 ---------------------------------------------------------------------

 SCF Done:  E(UB3LYP) =  -1136.12532102     A.U. after   24 cycles

 The electronic state is 2-A.
 Alpha  occ. eigenvalues --  -38.44624 -38.44551 -38.44172 -38.43932 -38.43713
 Alpha  occ. eigenvalues --  -38.42856 -38.42828  -2.20513  -2.20362  -2.20039
 Alpha  occ. eigenvalues --   -2.19775  -2.19674  -2.18759  -2.18717  -1.14184
 Alpha  occ. eigenvalues --   -1.14164  -1.14115  -1.14031  -1.14025  -1.13985
 Alpha  occ. eigenvalues --   -1.13817  -1.13663  -1.13654  -1.13467  -1.13431
 Alpha  occ. eigenvalues --   -1.13385  -1.13343  -1.13319  -1.13277  -1.12482
 Alpha  occ. eigenvalues --   -1.12446  -1.12404  -1.12385  -1.12376  -1.12309
 Alpha  occ. eigenvalues --   -0.18623  -0.13736  -0.11974  -0.11316
 Alpha virt. eigenvalues --   -0.06157  -0.04853  -0.04624  -0.03351  -0.02858
 Alpha virt. eigenvalues --   -0.02811  -0.01998  -0.00969  -0.00604   0.00104
 Alpha virt. eigenvalues --    0.00194   0.00295   0.00450   0.00759   0.00859

  Beta  occ. eigenvalues --  -38.44535 -38.44534 -38.44144 -38.43883 -38.43683
  Beta  occ. eigenvalues --  -38.42856 -38.42822  -2.20352  -2.20331  -2.19988
  Beta  occ. eigenvalues --   -2.19688  -2.19621  -2.18750  -2.18719  -1.14072
  Beta  occ. eigenvalues --   -1.14040  -1.14010  -1.14007  -1.13996  -1.13967
  Beta  occ. eigenvalues --   -1.13773  -1.13625  -1.13621  -1.13408  -1.13367
  Beta  occ. eigenvalues --   -1.13313  -1.13306  -1.13274  -1.13235  -1.12482
  Beta  occ. eigenvalues --   -1.12429  -1.12394  -1.12379  -1.12370  -1.12306
  Beta  occ. eigenvalues --   -0.17919  -0.13441  -0.11109
  Beta virt. eigenvalues --   -0.07949  -0.05925  -0.04711  -0.04166  -0.03019
  Beta virt. eigenvalues --   -0.02248  -0.02030  -0.01834  -0.00778  -0.00330
  Beta virt. eigenvalues --    0.00160   0.00246   0.00359   0.00571   0.00861

 Mulliken charges and spin densities:
               1          2
     1  Na   0.041419   0.293028
     2  Na  -0.587142   0.035201
     3  Na  -1.213654   0.409093
     4  Na   1.017827   0.015234
     5  Na  -0.137957   0.170471
     6  Na   0.614843  -0.060788
     7  Na   0.264664   0.137760
 Sum of Mulliken charges =  -0.00000   1.00000

 Dipole moment (field-independent basis, Debye):
    X=             -0.0818    Y=             -0.3719    Z=              0.1174  Tot=              0.3984
 Quadrupole moment (field-independent basis, Debye-Ang):
   XX=            -51.4833   YY=            -76.2733   ZZ=            -67.0300
   XY=              0.6316   XZ=              2.4932   YZ=             -2.0999

 Normal termination of Gaussian 16 at Thu Dec  7 01:54:32 2023.
