 Gaussian 16, Revision B.01,
 Gaussian 16:  ES64L-G16RevB.01 20-Dec-2017

 -------------------------
 #P B3LYP/6-311+g(d) force
 -------------------------

 -----
 DPGEN
 -----
 Symbolic Z-matrix:
 Charge =  0 Multiplicity = 2

                         Standard orientation:
 ---------------------------------------------------------------------
 Center     Atomic      Atomic             Coordinates (Angstroms)
 Number     Number       Type             X           Y           Z
 ---------------------------------------------------------------------
      1         11           0        2.511148    2.133561   -0.469072
      2         11           0        3.285273   -1.370579    0.606899
      3         11           0        0.182032    0.471022   -1.236100
      4         11           0       -2.016088    2.689260    0.278066
      5         11           0       -3.237575   -0.861013    0.231332
      6         11           0       -0.675902   -2.462124   -1.192062
      7         11           0       -0.048888   -0.600127    1.780937
 ---------------------------------------------------------------------

 SCF Done:  E(UB3LYP) =  -1136.12355021     A.U. after   20 cycles

 The electronic state is 2-A.
 Alpha  occ. eigenvalues --  -38.44604 -38.44495 -38.44340 -38.44039 -38.43667
 Alpha  occ. eigenvalues --  -38.43157 -38.43027  -2.20425  -2.20271  -2.20164
 Alpha  occ. eigenvalues --   -2.19923  -2.19442  -2.19066  -2.19051  -1.14108
 Alpha  occ. eigenvalues --   -1.14082  -1.14059  -1.13942  -1.13923  -1.13911
 Alpha  occ. eigenvalues --   -1.13900  -1.13804  -1.13764  -1.13647  -1.13552
 Alpha  occ. eigenvalues --   -1.13520  -1.13127  -1.13104  -1.13081  -1.12868
 Alpha  occ. eigenvalues --   -1.12753  -1.12683  -1.12671  -1.12661  -1.12623
 Alpha  occ. eigenvalues --   -0.18246  -0.13332  -0.11877  -0.10565
 Alpha virt. eigenvalues --   -0.06190  -0.05828  -0.04137  -0.03224  -0.02691
 Alpha virt. eigenvalues --   -0.02175  -0.02107  -0.01462  -0.00578  -0.00353
 Alpha virt. eigenvalues --    0.00007   0.00237   0.00636   0.00674   0.00776

  Beta  occ. eigenvalues --  -38.44600 -38.44471 -38.44324 -38.43981 -38.43671
  Beta  occ. eigenvalues --  -38.43111 -38.42975  -2.20420  -2.20229  -2.20137
  Beta  occ. eigenvalues --   -2.19814  -2.19451  -2.18978  -2.18964  -1.14095
  Beta  occ. eigenvalues --   -1.14077  -1.14050  -1.13902  -1.13893  -1.13885
  Beta  occ. eigenvalues --   -1.13873  -1.13782  -1.13746  -1.13572  -1.13482
  Beta  occ. eigenvalues --   -1.13433  -1.13131  -1.13110  -1.13080  -1.12796
  Beta  occ. eigenvalues --   -1.12675  -1.12628  -1.12610  -1.12597  -1.12560
  Beta  occ. eigenvalues --   -0.17624  -0.13038  -0.11592
  Beta virt. eigenvalues --   -0.06888  -0.06080  -0.05573  -0.04025  -0.02638
  Beta virt. eigenvalues --   -0.02161  -0.01956  -0.01381  -0.01236  -0.00529
  Beta virt. eigenvalues --   -0.00231   0.00108   0.00303   0.00704   0.00736

 Mulliken charges and spin densities:
               1          2
     1  Na  -0.226498   0.068362
     2  Na  -0.017646   0.144227
     3  Na   0.508324  -0.109812
     4  Na  -0.396660   0.057421
     5  Na   0.299896   0.043685
     6  Na   0.137246   0.149169
     7  Na  -0.304663   0.646948
 Sum of Mulliken charges =  -0.00000   1.00000

 Dipole moment (field-independent basis, Debye):
    X=              0.1161    Y=             -0.1754    Z=              0.3640  Tot=              0.4204
 Quadrupole moment (field-independent basis, Debye-Ang):
   XX=            -50.8575   YY=            -65.5223   ZZ=            -75.1603
   XY=              0.9160   XZ=             -0.5070   YZ=              1.4306

 Normal termination of Gaussian 16 at Fri Dec  8 03:46:22 2023.
