 Gaussian 16, Revision B.01,
 Gaussian 16:  ES64L-G16RevB.01 20-Dec-2017

 -------------------------
 #P B3LYP/6-311+g(d) force
 -------------------------

 -----
 DPGEN
 -----
 Symbolic Z-matrix:
 Charge =  0 Multiplicity = 2

                         Standard orientation:
 ---------------------------------------------------------------------
 Center     Atomic      Atomic             Coordinates (Angstroms)
 Number     Number       Type             X           Y           Z
 ---------------------------------------------------------------------
      1         11           0       -3.029806    2.645070    0.002323
      2         11           0       -3.241800   -1.307469   -1.157373
      3         11           0       -1.670514   -0.951517    2.221051
      4         11           0       -0.063415   -1.977795   -1.026598
      5         11           0        0.005932    1.477116   -0.564585
      6         11           0        2.336296   -0.421641    0.922947
      7         11           0        5.663307    0.536236   -0.397765
 ---------------------------------------------------------------------

 SCF Done:  E(UB3LYP) =  -1136.10805739     A.U. after   28 cycles

 The electronic state is 2-A.
 Alpha  occ. eigenvalues --  -38.46547 -38.44816 -38.44319 -38.44212 -38.44129
 Alpha  occ. eigenvalues --  -38.43371 -38.43071  -2.22272  -2.20600  -2.20205
 Alpha  occ. eigenvalues --   -2.20049  -2.19970  -2.19212  -2.18861  -1.15950
 Alpha  occ. eigenvalues --   -1.15938  -1.15932  -1.14235  -1.14234  -1.14201
 Alpha  occ. eigenvalues --   -1.13915  -1.13848  -1.13832  -1.13713  -1.13689
 Alpha  occ. eigenvalues --   -1.13675  -1.13652  -1.13645  -1.13597  -1.12903
 Alpha  occ. eigenvalues --   -1.12895  -1.12836  -1.12526  -1.12525  -1.12505
 Alpha  occ. eigenvalues --   -0.17674  -0.13555  -0.11520  -0.11039
 Alpha virt. eigenvalues --   -0.07893  -0.04836  -0.04710  -0.03298  -0.03025
 Alpha virt. eigenvalues --   -0.02382  -0.02258  -0.01843  -0.01570  -0.00757
 Alpha virt. eigenvalues --   -0.00462  -0.00002   0.00165   0.00453   0.00631

  Beta  occ. eigenvalues --  -38.46581 -38.44693 -38.44263 -38.44155 -38.44141
  Beta  occ. eigenvalues --  -38.43365 -38.43070  -2.22337  -2.20370  -2.20106
  Beta  occ. eigenvalues --   -2.20020  -2.19917  -2.19207  -2.18858  -1.15986
  Beta  occ. eigenvalues --   -1.15982  -1.15973  -1.14079  -1.14078  -1.14050
  Beta  occ. eigenvalues --   -1.13848  -1.13790  -1.13738  -1.13706  -1.13671
  Beta  occ. eigenvalues --   -1.13640  -1.13620  -1.13601  -1.13550  -1.12907
  Beta  occ. eigenvalues --   -1.12894  -1.12789  -1.12535  -1.12516  -1.12500
  Beta  occ. eigenvalues --   -0.17257  -0.12680  -0.11482
  Beta virt. eigenvalues --   -0.07792  -0.07319  -0.04718  -0.03997  -0.03130
  Beta virt. eigenvalues --   -0.02941  -0.02328  -0.01989  -0.01373  -0.00940
  Beta virt. eigenvalues --   -0.00372  -0.00125   0.00128   0.00232   0.00529

 Mulliken charges and spin densities:
               1          2
     1  Na   0.553171   0.076250
     2  Na   0.235544   0.332064
     3  Na   0.167362  -0.160338
     4  Na   0.012128   0.148874
     5  Na  -1.178644  -0.172439
     6  Na   0.186215   0.217260
     7  Na   0.024224   0.558329
 Sum of Mulliken charges =  -0.00000   1.00000

 Dipole moment (field-independent basis, Debye):
    X=             -0.7239    Y=             -0.8391    Z=              1.1393  Tot=              1.5894
 Quadrupole moment (field-independent basis, Debye-Ang):
   XX=            -65.9027   YY=            -75.9295   ZZ=            -62.2703
   XY=              0.7678   XZ=             -5.0003   YZ=             -1.5534

 Normal termination of Gaussian 16 at Thu Dec  7 21:04:26 2023.
