 Gaussian 16, Revision B.01,
 Gaussian 16:  ES64L-G16RevB.01 20-Dec-2017

 -------------------------
 #P B3LYP/6-311+g(d) force
 -------------------------

 -----
 DPGEN
 -----
 Symbolic Z-matrix:
 Charge =  0 Multiplicity = 2

                         Standard orientation:
 ---------------------------------------------------------------------
 Center     Atomic      Atomic             Coordinates (Angstroms)
 Number     Number       Type             X           Y           Z
 ---------------------------------------------------------------------
      1         11           0       -0.758025   -1.960677   -0.157252
      2         11           0        1.781732    0.207774    1.545761
      3         11           0        2.601977   -2.121376   -0.278741
      4         11           0        1.388108    0.632789   -1.285432
      5         11           0        0.535566    2.963134    0.416966
      6         11           0       -1.897622    1.262447   -0.837015
      7         11           0       -3.651737   -0.984092    0.595713
 ---------------------------------------------------------------------

 SCF Done:  E(UB3LYP) =  -1136.12390191     A.U. after   21 cycles

 The electronic state is 2-A.
 Alpha  occ. eigenvalues --  -38.43933 -38.43920 -38.43689 -38.43606 -38.43594
 Alpha  occ. eigenvalues --  -38.43378 -38.43271  -2.19837  -2.19791  -2.19603
 Alpha  occ. eigenvalues --   -2.19594  -2.19531  -2.19459  -2.19203  -1.13580
 Alpha  occ. eigenvalues --   -1.13499  -1.13495  -1.13471  -1.13469  -1.13430
 Alpha  occ. eigenvalues --   -1.13426  -1.13310  -1.13276  -1.13238  -1.13226
 Alpha  occ. eigenvalues --   -1.13206  -1.13187  -1.13183  -1.13152  -1.13106
 Alpha  occ. eigenvalues --   -1.13097  -1.13042  -1.12847  -1.12843  -1.12818
 Alpha  occ. eigenvalues --   -0.19076  -0.13897  -0.12982  -0.10313
 Alpha virt. eigenvalues --   -0.05913  -0.05294  -0.04780  -0.03293  -0.02907
 Alpha virt. eigenvalues --   -0.01787  -0.01754  -0.01166  -0.00371  -0.00248
 Alpha virt. eigenvalues --    0.00145   0.00309   0.00733   0.00773   0.00856

  Beta  occ. eigenvalues --  -38.43918 -38.43912 -38.43678 -38.43586 -38.43526
  Beta  occ. eigenvalues --  -38.43330 -38.43261  -2.19826  -2.19762  -2.19580
  Beta  occ. eigenvalues --   -2.19497  -2.19476  -2.19376  -2.19188  -1.13563
  Beta  occ. eigenvalues --   -1.13487  -1.13465  -1.13453  -1.13447  -1.13403
  Beta  occ. eigenvalues --   -1.13361  -1.13297  -1.13242  -1.13206  -1.13176
  Beta  occ. eigenvalues --   -1.13169  -1.13144  -1.13119  -1.13103  -1.13050
  Beta  occ. eigenvalues --   -1.13035  -1.12961  -1.12841  -1.12820  -1.12771
  Beta  occ. eigenvalues --   -0.18398  -0.13661  -0.12674
  Beta virt. eigenvalues --   -0.06520  -0.05728  -0.05175  -0.04663  -0.02781
  Beta virt. eigenvalues --   -0.02207  -0.01691  -0.01079  -0.00957  -0.00352
  Beta virt. eigenvalues --   -0.00036   0.00259   0.00416   0.00780   0.00860

 Mulliken charges and spin densities:
               1          2
     1  Na  -0.944518  -0.001214
     2  Na  -0.474365   0.430317
     3  Na   1.085495   0.020256
     4  Na  -0.549272   0.466379
     5  Na   0.538278  -0.007022
     6  Na  -0.280211  -0.010233
     7  Na   0.624593   0.101516
 Sum of Mulliken charges =  -0.00000   1.00000

 Dipole moment (field-independent basis, Debye):
    X=             -0.2185    Y=             -0.3179    Z=             -0.0095  Tot=              0.3859
 Quadrupole moment (field-independent basis, Debye-Ang):
   XX=            -57.4793   YY=            -62.9100   ZZ=            -74.0198
   XY=             -3.8715   XZ=             -2.8213   YZ=              0.0386

 Normal termination of Gaussian 16 at Tue Dec  5 20:53:08 2023.
