 Gaussian 16, Revision B.01,
 Gaussian 16:  ES64L-G16RevB.01 20-Dec-2017

 -------------------------
 #P B3LYP/6-311+g(d) force
 -------------------------

 -----
 DPGEN
 -----
 Symbolic Z-matrix:
 Charge =  0 Multiplicity = 2

                         Standard orientation:
 ---------------------------------------------------------------------
 Center     Atomic      Atomic             Coordinates (Angstroms)
 Number     Number       Type             X           Y           Z
 ---------------------------------------------------------------------
      1         11           0        2.319060   -1.260384   -0.978970
      2         11           0       -0.375223   -0.093589   -2.194628
      3         11           0       -3.930548    0.367105    0.221925
      4         11           0       -1.146261   -2.207600    0.134399
      5         11           0        1.933426   -0.747663    2.293396
      6         11           0       -0.760398    1.647064    1.098290
      7         11           0        1.959944    2.295066   -0.574411
 ---------------------------------------------------------------------

 SCF Done:  E(UB3LYP) =  -1136.12813486     A.U. after   21 cycles

 The electronic state is 2-A.
 Alpha  occ. eigenvalues --  -38.44959 -38.44527 -38.44457 -38.43597 -38.43456
 Alpha  occ. eigenvalues --  -38.43186 -38.42871  -2.20783  -2.20360  -2.20291
 Alpha  occ. eigenvalues --   -2.19477  -2.19284  -2.19027  -2.18726  -1.14443
 Alpha  occ. eigenvalues --   -1.14420  -1.14384  -1.14051  -1.13994  -1.13976
 Alpha  occ. eigenvalues --   -1.13967  -1.13953  -1.13920  -1.13177  -1.13142
 Alpha  occ. eigenvalues --   -1.13094  -1.12990  -1.12967  -1.12878  -1.12712
 Alpha  occ. eigenvalues --   -1.12681  -1.12667  -1.12417  -1.12410  -1.12333
 Alpha  occ. eigenvalues --   -0.18277  -0.13030  -0.12046  -0.11383
 Alpha virt. eigenvalues --   -0.06179  -0.04763  -0.04476  -0.03367  -0.03120
 Alpha virt. eigenvalues --   -0.03076  -0.01931  -0.00784  -0.00646  -0.00007
 Alpha virt. eigenvalues --    0.00153   0.00273   0.00351   0.00661   0.00848

  Beta  occ. eigenvalues --  -38.44862 -38.44531 -38.44387 -38.43585 -38.43451
  Beta  occ. eigenvalues --  -38.43170 -38.42862  -2.20605  -2.20298  -2.20232
  Beta  occ. eigenvalues --   -2.19462  -2.19278  -2.19000  -2.18710  -1.14318
  Beta  occ. eigenvalues --   -1.14302  -1.14259  -1.13971  -1.13969  -1.13959
  Beta  occ. eigenvalues --   -1.13926  -1.13892  -1.13881  -1.13146  -1.13115
  Beta  occ. eigenvalues --   -1.13085  -1.12986  -1.12945  -1.12877  -1.12696
  Beta  occ. eigenvalues --   -1.12657  -1.12639  -1.12409  -1.12379  -1.12326
  Beta  occ. eigenvalues --   -0.17477  -0.12820  -0.11207
  Beta virt. eigenvalues --   -0.08044  -0.06045  -0.04560  -0.03835  -0.03136
  Beta virt. eigenvalues --   -0.02421  -0.02338  -0.01868  -0.00716  -0.00303
  Beta virt. eigenvalues --    0.00078   0.00263   0.00306   0.00439   0.00798

 Mulliken charges and spin densities:
               1          2
     1  Na   0.344735   0.003934
     2  Na   0.169321   0.361877
     3  Na   0.290470  -0.132453
     4  Na  -0.254709   0.186864
     5  Na   0.025123   0.348375
     6  Na  -0.599148   0.212855
     7  Na   0.024209   0.018549
 Sum of Mulliken charges =  -0.00000   1.00000

 Dipole moment (field-independent basis, Debye):
    X=             -0.3341    Y=             -0.3083    Z=              0.0405  Tot=              0.4564
 Quadrupole moment (field-independent basis, Debye-Ang):
   XX=            -54.4456   YY=            -75.4835   ZZ=            -64.9663
   XY=              0.0421   XZ=              0.6777   YZ=             -4.4005

 Normal termination of Gaussian 16 at Sun Dec  3 22:16:23 2023.
