 Gaussian 16, Revision B.01,
 Gaussian 16:  ES64L-G16RevB.01 20-Dec-2017

 -------------------------
 #P B3LYP/6-311+g(d) force
 -------------------------

 -----
 DPGEN
 -----
 Symbolic Z-matrix:
 Charge =  0 Multiplicity = 2

                         Standard orientation:
 ---------------------------------------------------------------------
 Center     Atomic      Atomic             Coordinates (Angstroms)
 Number     Number       Type             X           Y           Z
 ---------------------------------------------------------------------
      1         11           0        0.197740    0.933992    0.317997
      2         11           0       -3.788290    2.324773    0.170056
      3         11           0       -0.782158   -2.183263    1.892522
      4         11           0        3.198624    2.503622   -0.164276
      5         11           0        0.531321   -2.196525   -1.474023
      6         11           0       -2.736098   -0.775981   -0.961295
      7         11           0        3.378862   -0.606618    0.219019
 ---------------------------------------------------------------------

 SCF Done:  E(UB3LYP) =  -1136.12169916     A.U. after   21 cycles

 The electronic state is 2-A.
 Alpha  occ. eigenvalues --  -38.45194 -38.44460 -38.44337 -38.44090 -38.44077
 Alpha  occ. eigenvalues --  -38.43436 -38.42980  -2.21025  -2.20287  -2.20200
 Alpha  occ. eigenvalues --   -2.19921  -2.19829  -2.19276  -2.18836  -1.14695
 Alpha  occ. eigenvalues --   -1.14692  -1.14670  -1.13960  -1.13939  -1.13935
 Alpha  occ. eigenvalues --   -1.13917  -1.13866  -1.13807  -1.13617  -1.13591
 Alpha  occ. eigenvalues --   -1.13543  -1.13500  -1.13493  -1.13453  -1.12929
 Alpha  occ. eigenvalues --   -1.12921  -1.12884  -1.12513  -1.12486  -1.12456
 Alpha  occ. eigenvalues --   -0.17643  -0.13933  -0.11838  -0.10059
 Alpha virt. eigenvalues --   -0.06779  -0.06135  -0.04582  -0.03206  -0.02571
 Alpha virt. eigenvalues --   -0.02270  -0.02064  -0.01633  -0.01394  -0.00450
 Alpha virt. eigenvalues --   -0.00220   0.00114   0.00228   0.00495   0.00678

  Beta  occ. eigenvalues --  -38.45185 -38.44462 -38.44318 -38.44086 -38.44073
  Beta  occ. eigenvalues --  -38.43349 -38.42931  -2.21012  -2.20290  -2.20169
  Beta  occ. eigenvalues --   -2.19890  -2.19845  -2.19114  -2.18746  -1.14687
  Beta  occ. eigenvalues --   -1.14676  -1.14654  -1.13960  -1.13940  -1.13934
  Beta  occ. eigenvalues --   -1.13870  -1.13847  -1.13790  -1.13592  -1.13558
  Beta  occ. eigenvalues --   -1.13535  -1.13510  -1.13500  -1.13458  -1.12815
  Beta  occ. eigenvalues --   -1.12807  -1.12777  -1.12451  -1.12419  -1.12390
  Beta  occ. eigenvalues --   -0.17099  -0.13756  -0.11646
  Beta virt. eigenvalues --   -0.06695  -0.06195  -0.05889  -0.04379  -0.02764
  Beta virt. eigenvalues --   -0.02397  -0.02032  -0.01768  -0.01303  -0.00846
  Beta virt. eigenvalues --   -0.00398   0.00094   0.00210   0.00412   0.00539

 Mulliken charges and spin densities:
               1          2
     1  Na  -1.776044   0.226265
     2  Na   0.302960  -0.097098
     3  Na  -0.064166   0.282197
     4  Na   0.257618  -0.074269
     5  Na   0.132093   0.343181
     6  Na   0.283698   0.132394
     7  Na   0.863842   0.187329
 Sum of Mulliken charges =  -0.00000   1.00000

 Dipole moment (field-independent basis, Debye):
    X=              1.2474    Y=              0.5157    Z=              0.1893  Tot=              1.3631
 Quadrupole moment (field-independent basis, Debye-Ang):
   XX=            -54.5527   YY=            -63.0899   ZZ=            -76.6175
   XY=              1.0949   XZ=              0.0981   YZ=             -0.5843

 Normal termination of Gaussian 16 at Tue Dec  5 16:11:39 2023.
