 Gaussian 16, Revision B.01,
 Gaussian 16:  ES64L-G16RevB.01 20-Dec-2017

 -------------------------
 #P B3LYP/6-311+g(d) force
 -------------------------

 -----
 DPGEN
 -----
 Symbolic Z-matrix:
 Charge =  0 Multiplicity = 2

                         Standard orientation:
 ---------------------------------------------------------------------
 Center     Atomic      Atomic             Coordinates (Angstroms)
 Number     Number       Type             X           Y           Z
 ---------------------------------------------------------------------
      1         11           0        2.196733    2.155205   -0.232017
      2         11           0       -1.790717    2.443630    0.042948
      3         11           0        0.093201    0.134773    1.671839
      4         11           0        0.071313   -2.614742   -0.055486
      5         11           0        3.012151   -1.054960    0.043835
      6         11           0       -0.456476   -0.124711   -1.609275
      7         11           0       -3.126205   -0.939195    0.138156
 ---------------------------------------------------------------------

 SCF Done:  E(UB3LYP) =  -1136.13415996     A.U. after   19 cycles

 The electronic state is 2-A.
 Alpha  occ. eigenvalues --  -38.44497 -38.44084 -38.43805 -38.43675 -38.42975
 Alpha  occ. eigenvalues --  -38.42969 -38.42926  -2.20332  -2.19936  -2.19631
 Alpha  occ. eigenvalues --   -2.19517  -2.18999  -2.18916  -2.18909  -1.14012
 Alpha  occ. eigenvalues --   -1.13987  -1.13969  -1.13604  -1.13600  -1.13592
 Alpha  occ. eigenvalues --   -1.13302  -1.13296  -1.13267  -1.13204  -1.13193
 Alpha  occ. eigenvalues --   -1.13139  -1.12818  -1.12680  -1.12621  -1.12599
 Alpha  occ. eigenvalues --   -1.12577  -1.12526  -1.12517  -1.12508  -1.12498
 Alpha  occ. eigenvalues --   -0.18989  -0.13422  -0.12360  -0.10258
 Alpha virt. eigenvalues --   -0.06006  -0.05485  -0.04347  -0.03127  -0.02590
 Alpha virt. eigenvalues --   -0.01977  -0.01905  -0.01227  -0.00476  -0.00225
 Alpha virt. eigenvalues --    0.00025   0.00330   0.00749   0.00838   0.00898

  Beta  occ. eigenvalues --  -38.44492 -38.44082 -38.43800 -38.43669 -38.42958
  Beta  occ. eigenvalues --  -38.42904 -38.42849  -2.20327  -2.19935  -2.19625
  Beta  occ. eigenvalues --   -2.19510  -2.18898  -2.18864  -2.18776  -1.13999
  Beta  occ. eigenvalues --   -1.13974  -1.13964  -1.13608  -1.13598  -1.13573
  Beta  occ. eigenvalues --   -1.13296  -1.13275  -1.13266  -1.13201  -1.13161
  Beta  occ. eigenvalues --   -1.13137  -1.12761  -1.12592  -1.12557  -1.12522
  Beta  occ. eigenvalues --   -1.12491  -1.12485  -1.12450  -1.12422  -1.12416
  Beta  occ. eigenvalues --   -0.18272  -0.13190  -0.12087
  Beta virt. eigenvalues --   -0.06369  -0.05958  -0.05486  -0.04344  -0.02355
  Beta virt. eigenvalues --   -0.01818  -0.01811  -0.01178  -0.00971  -0.00528
  Beta virt. eigenvalues --   -0.00267   0.00167   0.00363   0.00792   0.00832

 Mulliken charges and spin densities:
               1          2
     1  Na   0.055451  -0.085624
     2  Na   0.013917  -0.136365
     3  Na  -0.403840   0.689000
     4  Na   0.377016  -0.068333
     5  Na   0.109484  -0.023303
     6  Na  -0.422476   0.692502
     7  Na   0.270448  -0.067876
 Sum of Mulliken charges =  -0.00000   1.00000

 Dipole moment (field-independent basis, Debye):
    X=             -0.2303    Y=              0.1420    Z=              0.0808  Tot=              0.2824
 Quadrupole moment (field-independent basis, Debye-Ang):
   XX=            -50.6662   YY=            -63.2935   ZZ=            -77.0083
   XY=              0.1535   XZ=             -1.2128   YZ=             -0.7773

 Normal termination of Gaussian 16 at Tue Nov 28 21:51:25 2023.
