 Gaussian 16, Revision B.01,
 Gaussian 16:  ES64L-G16RevB.01 20-Dec-2017

 -------------------------
 #P B3LYP/6-311+g(d) force
 -------------------------

 -----
 DPGEN
 -----
 Symbolic Z-matrix:
 Charge =  0 Multiplicity = 2

                         Standard orientation:
 ---------------------------------------------------------------------
 Center     Atomic      Atomic             Coordinates (Angstroms)
 Number     Number       Type             X           Y           Z
 ---------------------------------------------------------------------
      1         11           0       -5.288841   -0.508462    0.239636
      2         11           0        3.397158    2.204490   -0.056180
      3         11           0        0.603460    3.641474   -0.428832
      4         11           0       -2.247143    1.719803    0.455346
      5         11           0        4.347209   -1.893130    0.611272
      6         11           0       -2.617504   -2.044592   -0.354004
      7         11           0        1.805661   -3.119583   -0.467238
 ---------------------------------------------------------------------

 SCF Done:  E(UB3LYP) =  -1136.10784841     A.U. after   23 cycles

 The electronic state is 2-A.
 Alpha  occ. eigenvalues --  -38.45982 -38.44849 -38.44835 -38.44707 -38.43846
 Alpha  occ. eigenvalues --  -38.43790 -38.43248  -2.21765  -2.20668  -2.20641
 Alpha  occ. eigenvalues --   -2.20489  -2.19652  -2.19587  -2.19053  -1.15443
 Alpha  occ. eigenvalues --   -1.15435  -1.15406  -1.14330  -1.14323  -1.14319
 Alpha  occ. eigenvalues --   -1.14313  -1.14287  -1.14225  -1.14197  -1.14155
 Alpha  occ. eigenvalues --   -1.14130  -1.13309  -1.13301  -1.13291  -1.13250
 Alpha  occ. eigenvalues --   -1.13244  -1.13218  -1.12726  -1.12724  -1.12704
 Alpha  occ. eigenvalues --   -0.15986  -0.14034  -0.12903  -0.10266
 Alpha virt. eigenvalues --   -0.07639  -0.05656  -0.04376  -0.03829  -0.02821
 Alpha virt. eigenvalues --   -0.02692  -0.02421  -0.01804  -0.01112  -0.00994
 Alpha virt. eigenvalues --   -0.00286  -0.00244   0.00065   0.00355   0.00454

  Beta  occ. eigenvalues --  -38.45974 -38.44789 -38.44787 -38.44722 -38.43820
  Beta  occ. eigenvalues --  -38.43733 -38.43256  -2.21755  -2.20579  -2.20532
  Beta  occ. eigenvalues --   -2.20517  -2.19600  -2.19479  -2.19073  -1.15440
  Beta  occ. eigenvalues --   -1.15416  -1.15381  -1.14261  -1.14253  -1.14249
  Beta  occ. eigenvalues --   -1.14245  -1.14230  -1.14214  -1.14176  -1.14142
  Beta  occ. eigenvalues --   -1.14138  -1.13280  -1.13265  -1.13255  -1.13184
  Beta  occ. eigenvalues --   -1.13171  -1.13147  -1.12743  -1.12741  -1.12682
  Beta  occ. eigenvalues --   -0.15485  -0.13704  -0.12569
  Beta virt. eigenvalues --   -0.07330  -0.07015  -0.05014  -0.04013  -0.03679
  Beta virt. eigenvalues --   -0.02570  -0.02374  -0.02193  -0.01650  -0.01060
  Beta virt. eigenvalues --   -0.00656  -0.00048   0.00071   0.00133   0.00536

 Mulliken charges and spin densities:
               1          2
     1  Na   1.318480   0.229370
     2  Na  -0.315160   0.318296
     3  Na   0.385763  -0.059466
     4  Na  -0.771351   0.284900
     5  Na   0.413245  -0.022541
     6  Na  -0.396937   0.138869
     7  Na  -0.634040   0.110570
 Sum of Mulliken charges =  -0.00000   1.00000

 Dipole moment (field-independent basis, Debye):
    X=             -2.1639    Y=             -0.9700    Z=              0.2012  Tot=              2.3799
 Quadrupole moment (field-independent basis, Debye-Ang):
   XX=            -55.1465   YY=            -71.7439   ZZ=            -72.6485
   XY=             -3.6879   XZ=              1.1566   YZ=              0.8215

 Normal termination of Gaussian 16 at Mon Dec  4 00:12:48 2023.
