 Gaussian 16, Revision B.01,
 Gaussian 16:  ES64L-G16RevB.01 20-Dec-2017

 -------------------------
 #P B3LYP/6-311+g(d) force
 -------------------------

 -----
 DPGEN
 -----
 Symbolic Z-matrix:
 Charge =  0 Multiplicity = 2

                         Standard orientation:
 ---------------------------------------------------------------------
 Center     Atomic      Atomic             Coordinates (Angstroms)
 Number     Number       Type             X           Y           Z
 ---------------------------------------------------------------------
      1         11           0        4.140849   -0.699026   -0.194685
      2         11           0        2.716127    1.740980    1.514149
      3         11           0        0.100581    3.395742   -0.668325
      4         11           0       -2.957278    2.504263   -0.625889
      5         11           0       -3.553379   -1.107392    0.542497
      6         11           0       -1.469307   -2.913823    1.036234
      7         11           0        1.022407   -2.920744   -1.603980
 ---------------------------------------------------------------------

 SCF Done:  E(UB3LYP) =  -1136.10433244     A.U. after   20 cycles

 The electronic state is 2-A.
 Alpha  occ. eigenvalues --  -38.45165 -38.44571 -38.44417 -38.44417 -38.44348
 Alpha  occ. eigenvalues --  -38.44329 -38.44278  -2.20913  -2.20354  -2.20270
 Alpha  occ. eigenvalues --   -2.20201  -2.20196  -2.20125  -2.20068  -1.14596
 Alpha  occ. eigenvalues --   -1.14582  -1.14561  -1.14202  -1.14034  -1.14024
 Alpha  occ. eigenvalues --   -1.14002  -1.13913  -1.13902  -1.13849  -1.13831
 Alpha  occ. eigenvalues --   -1.13820  -1.13812  -1.13799  -1.13780  -1.13768
 Alpha  occ. eigenvalues --   -1.13759  -1.13730  -1.13728  -1.13717  -1.13704
 Alpha  occ. eigenvalues --   -0.15701  -0.13778  -0.13294  -0.10729
 Alpha virt. eigenvalues --   -0.07351  -0.04944  -0.04574  -0.03711  -0.03502
 Alpha virt. eigenvalues --   -0.01962  -0.01844  -0.01725  -0.01285  -0.01197
 Alpha virt. eigenvalues --   -0.00756  -0.00078  -0.00004   0.00448   0.00744

  Beta  occ. eigenvalues --  -38.45172 -38.44559 -38.44411 -38.44317 -38.44302
  Beta  occ. eigenvalues --  -38.44281 -38.44260  -2.20930  -2.20335  -2.20261
  Beta  occ. eigenvalues --   -2.20117  -2.20038  -2.20037  -2.20015  -1.14610
  Beta  occ. eigenvalues --   -1.14596  -1.14544  -1.14158  -1.14018  -1.14013
  Beta  occ. eigenvalues --   -1.13976  -1.13910  -1.13882  -1.13764  -1.13749
  Beta  occ. eigenvalues --   -1.13723  -1.13719  -1.13711  -1.13711  -1.13709
  Beta  occ. eigenvalues --   -1.13700  -1.13698  -1.13693  -1.13680  -1.13668
  Beta  occ. eigenvalues --   -0.15212  -0.13218  -0.12591
  Beta virt. eigenvalues --   -0.07480  -0.07456  -0.04444  -0.04253  -0.03430
  Beta virt. eigenvalues --   -0.03099  -0.01955  -0.01676  -0.01224  -0.01128
  Beta virt. eigenvalues --   -0.01082  -0.00475   0.00147   0.00214   0.00482

 Mulliken charges and spin densities:
               1          2
     1  Na   0.109519  -0.050123
     2  Na  -0.103531   0.249582
     3  Na  -0.226181   0.045920
     4  Na   0.297256   0.055068
     5  Na   0.060494   0.188606
     6  Na  -0.099207  -0.001926
     7  Na  -0.038351   0.512872
 Sum of Mulliken charges =  -0.00000   1.00000

 Dipole moment (field-independent basis, Debye):
    X=              0.3648    Y=              0.2097    Z=              0.0107  Tot=              0.4209
 Quadrupole moment (field-independent basis, Debye-Ang):
   XX=            -61.5382   YY=            -71.3115   ZZ=            -69.8987
   XY=             -2.2188   XZ=             -0.2334   YZ=             -0.3289

 Normal termination of Gaussian 16 at Mon Dec  4 02:10:06 2023.
