 Gaussian 16, Revision B.01,
 Gaussian 16:  ES64L-G16RevB.01 20-Dec-2017

 -------------------------
 #P B3LYP/6-311+g(d) force
 -------------------------

 -----
 DPGEN
 -----
 Symbolic Z-matrix:
 Charge =  0 Multiplicity = 2

                         Standard orientation:
 ---------------------------------------------------------------------
 Center     Atomic      Atomic             Coordinates (Angstroms)
 Number     Number       Type             X           Y           Z
 ---------------------------------------------------------------------
      1         11           0       -0.333638   -0.695747    2.151800
      2         11           0       -3.097923    0.116591   -0.138088
      3         11           0        2.830611    1.874799    0.222125
      4         11           0        0.365961    0.281766   -1.356854
      5         11           0       -1.184667   -2.444096   -0.536123
      6         11           0       -1.089877    2.875833   -0.106471
      7         11           0        2.509533   -2.009146   -0.236389
 ---------------------------------------------------------------------

 SCF Done:  E(UB3LYP) =  -1136.13348457     A.U. after   19 cycles

 The electronic state is 2-A.
 Alpha  occ. eigenvalues --  -38.44446 -38.44161 -38.43869 -38.43693 -38.43533
 Alpha  occ. eigenvalues --  -38.43320 -38.42868  -2.20221  -2.19966  -2.19732
 Alpha  occ. eigenvalues --   -2.19515  -2.19403  -2.19232  -2.18876  -1.13902
 Alpha  occ. eigenvalues --   -1.13881  -1.13853  -1.13652  -1.13624  -1.13596
 Alpha  occ. eigenvalues --   -1.13417  -1.13394  -1.13383  -1.13215  -1.13172
 Alpha  occ. eigenvalues --   -1.13137  -1.13073  -1.13039  -1.13014  -1.12932
 Alpha  occ. eigenvalues --   -1.12878  -1.12853  -1.12564  -1.12522  -1.12504
 Alpha  occ. eigenvalues --   -0.18451  -0.12997  -0.12468  -0.10449
 Alpha virt. eigenvalues --   -0.05915  -0.05498  -0.04613  -0.03057  -0.02772
 Alpha virt. eigenvalues --   -0.02354  -0.01611  -0.01384  -0.00609  -0.00419
 Alpha virt. eigenvalues --   -0.00010   0.00325   0.00745   0.00783   0.00877

  Beta  occ. eigenvalues --  -38.44445 -38.44156 -38.43864 -38.43691 -38.43431
  Beta  occ. eigenvalues --  -38.43303 -38.42823  -2.20221  -2.19960  -2.19725
  Beta  occ. eigenvalues --   -2.19514  -2.19215  -2.19206  -2.18796  -1.13897
  Beta  occ. eigenvalues --   -1.13878  -1.13855  -1.13639  -1.13610  -1.13595
  Beta  occ. eigenvalues --   -1.13414  -1.13390  -1.13354  -1.13211  -1.13162
  Beta  occ. eigenvalues --   -1.13139  -1.12966  -1.12912  -1.12897  -1.12881
  Beta  occ. eigenvalues --   -1.12838  -1.12818  -1.12507  -1.12458  -1.12444
  Beta  occ. eigenvalues --   -0.17745  -0.12809  -0.12255
  Beta virt. eigenvalues --   -0.06512  -0.05877  -0.05445  -0.04547  -0.02361
  Beta virt. eigenvalues --   -0.02071  -0.01524  -0.01318  -0.01274  -0.00641
  Beta virt. eigenvalues --   -0.00441   0.00176   0.00380   0.00787   0.00822

 Mulliken charges and spin densities:
               1          2
     1  Na  -0.738667   0.765809
     2  Na   0.254814   0.056883
     3  Na  -0.079737  -0.026510
     4  Na  -0.033512   0.221297
     5  Na   0.415011   0.063996
     6  Na   0.058842  -0.045271
     7  Na   0.123250  -0.036204
 Sum of Mulliken charges =  -0.00000   1.00000

 Dipole moment (field-independent basis, Debye):
    X=              0.4786    Y=              0.1327    Z=              0.2144  Tot=              0.5410
 Quadrupole moment (field-independent basis, Debye-Ang):
   XX=            -54.7398   YY=            -61.6851   ZZ=            -75.9586
   XY=             -0.4071   XZ=              1.5537   YZ=              2.1323

 Normal termination of Gaussian 16 at Thu Dec  7 15:50:10 2023.
