 Gaussian 16, Revision B.01,
 Gaussian 16:  ES64L-G16RevB.01 20-Dec-2017

 -------------------------
 #P B3LYP/6-311+g(d) force
 -------------------------

 -----
 DPGEN
 -----
 Symbolic Z-matrix:
 Charge =  0 Multiplicity = 2

                         Standard orientation:
 ---------------------------------------------------------------------
 Center     Atomic      Atomic             Coordinates (Angstroms)
 Number     Number       Type             X           Y           Z
 ---------------------------------------------------------------------
      1         11           0       -1.092835   -2.719661    0.569700
      2         11           0       -3.611848   -0.065564   -0.475789
      3         11           0        2.790828    1.537021    0.201617
      4         11           0       -0.047044    0.124941    1.735820
      5         11           0        2.884604   -1.739640   -0.552567
      6         11           0       -0.884581    2.794288    0.048292
      7         11           0       -0.039125    0.068614   -1.527074
 ---------------------------------------------------------------------

 SCF Done:  E(UB3LYP) =  -1136.13165574     A.U. after   20 cycles

 The electronic state is 2-A.
 Alpha  occ. eigenvalues --  -38.44874 -38.44197 -38.43846 -38.43662 -38.43299
 Alpha  occ. eigenvalues --  -38.43181 -38.43093  -2.20641  -2.20028  -2.19654
 Alpha  occ. eigenvalues --   -2.19603  -2.19128  -2.19061  -2.19036  -1.14318
 Alpha  occ. eigenvalues --   -1.14284  -1.14272  -1.13713  -1.13696  -1.13658
 Alpha  occ. eigenvalues --   -1.13339  -1.13328  -1.13308  -1.13290  -1.13251
 Alpha  occ. eigenvalues --   -1.13201  -1.12852  -1.12787  -1.12777  -1.12747
 Alpha  occ. eigenvalues --   -1.12724  -1.12718  -1.12668  -1.12648  -1.12630
 Alpha  occ. eigenvalues --   -0.18360  -0.13201  -0.12079  -0.10381
 Alpha virt. eigenvalues --   -0.06354  -0.05197  -0.04497  -0.03113  -0.02670
 Alpha virt. eigenvalues --   -0.02230  -0.02071  -0.01257  -0.00531  -0.00429
 Alpha virt. eigenvalues --   -0.00045   0.00245   0.00694   0.00762   0.00817

  Beta  occ. eigenvalues --  -38.44854 -38.44194 -38.43831 -38.43621 -38.43279
  Beta  occ. eigenvalues --  -38.43178 -38.43008  -2.20604  -2.20025  -2.19628
  Beta  occ. eigenvalues --   -2.19528  -2.19095  -2.19035  -2.18905  -1.14284
  Beta  occ. eigenvalues --   -1.14256  -1.14249  -1.13708  -1.13690  -1.13645
  Beta  occ. eigenvalues --   -1.13303  -1.13294  -1.13276  -1.13266  -1.13205
  Beta  occ. eigenvalues --   -1.13143  -1.12808  -1.12752  -1.12745  -1.12728
  Beta  occ. eigenvalues --   -1.12705  -1.12640  -1.12631  -1.12570  -1.12530
  Beta  occ. eigenvalues --   -0.17724  -0.12871  -0.11791
  Beta virt. eigenvalues --   -0.06743  -0.06133  -0.05130  -0.04438  -0.02509
  Beta virt. eigenvalues --   -0.02056  -0.01964  -0.01202  -0.01169  -0.00500
  Beta virt. eigenvalues --   -0.00416   0.00087   0.00313   0.00764   0.00805

 Mulliken charges and spin densities:
               1          2
     1  Na  -0.018173   0.030149
     2  Na  -0.027909   0.070915
     3  Na   0.185662  -0.010551
     4  Na   0.202805   0.387260
     5  Na  -0.000765   0.081308
     6  Na  -0.056094  -0.054743
     7  Na  -0.285527   0.495662
 Sum of Mulliken charges =  -0.00000   1.00000

 Dipole moment (field-independent basis, Debye):
    X=             -0.1941    Y=              0.1557    Z=              0.0128  Tot=              0.2492
 Quadrupole moment (field-independent basis, Debye-Ang):
   XX=            -52.2090   YY=            -64.0268   ZZ=            -75.4601
   XY=              0.5193   XZ=              0.6571   YZ=              0.5582

 Normal termination of Gaussian 16 at Fri Dec  8 01:28:29 2023.
