 Gaussian 16, Revision B.01,
 Gaussian 16:  ES64L-G16RevB.01 20-Dec-2017

 -------------------------
 #P B3LYP/6-311+g(d) force
 -------------------------

 -----
 DPGEN
 -----
 Symbolic Z-matrix:
 Charge =  0 Multiplicity = 2

                         Standard orientation:
 ---------------------------------------------------------------------
 Center     Atomic      Atomic             Coordinates (Angstroms)
 Number     Number       Type             X           Y           Z
 ---------------------------------------------------------------------
      1         11           0       -2.957048    1.211524   -0.211410
      2         11           0        0.664888   -2.492491   -0.763700
      3         11           0        0.141597    3.162857    0.109584
      4         11           0       -0.017837   -0.276853    1.638898
      5         11           0        4.047275   -0.160037    0.468965
      6         11           0       -2.592922   -1.955412    0.337046
      7         11           0        0.714047    0.510412   -1.579384
 ---------------------------------------------------------------------

 SCF Done:  E(UB3LYP) =  -1136.12434496     A.U. after   23 cycles

 The electronic state is 2-A.
 Alpha  occ. eigenvalues --  -38.45081 -38.44424 -38.44331 -38.43604 -38.43502
 Alpha  occ. eigenvalues --  -38.43353 -38.43057  -2.20822  -2.20237  -2.20227
 Alpha  occ. eigenvalues --   -2.19427  -2.19365  -2.19246  -2.19005  -1.14487
 Alpha  occ. eigenvalues --   -1.14479  -1.14430  -1.13946  -1.13925  -1.13909
 Alpha  occ. eigenvalues --   -1.13880  -1.13866  -1.13834  -1.13126  -1.13090
 Alpha  occ. eigenvalues --   -1.13051  -1.13035  -1.13034  -1.13010  -1.12979
 Alpha  occ. eigenvalues --   -1.12899  -1.12842  -1.12687  -1.12639  -1.12598
 Alpha  occ. eigenvalues --   -0.18242  -0.12962  -0.12443  -0.10235
 Alpha virt. eigenvalues --   -0.06945  -0.05003  -0.04623  -0.03182  -0.02693
 Alpha virt. eigenvalues --   -0.02528  -0.01997  -0.01196  -0.00723  -0.00381
 Alpha virt. eigenvalues --   -0.00120   0.00152   0.00546   0.00696   0.00734

  Beta  occ. eigenvalues --  -38.45031 -38.44430 -38.44295 -38.43602 -38.43499
  Beta  occ. eigenvalues --  -38.43318 -38.42994  -2.20730  -2.20248  -2.20160
  Beta  occ. eigenvalues --   -2.19426  -2.19363  -2.19185  -2.18892  -1.14420
  Beta  occ. eigenvalues --   -1.14413  -1.14371  -1.13937  -1.13907  -1.13887
  Beta  occ. eigenvalues --   -1.13872  -1.13834  -1.13783  -1.13119  -1.13081
  Beta  occ. eigenvalues --   -1.13052  -1.13039  -1.13028  -1.12990  -1.12927
  Beta  occ. eigenvalues --   -1.12842  -1.12803  -1.12616  -1.12545  -1.12523
  Beta  occ. eigenvalues --   -0.17690  -0.12586  -0.12242
  Beta virt. eigenvalues --   -0.06750  -0.06480  -0.04957  -0.04559  -0.02625
  Beta virt. eigenvalues --   -0.02229  -0.02144  -0.01229  -0.01118  -0.00616
  Beta virt. eigenvalues --   -0.00316   0.00037   0.00260   0.00691   0.00730

 Mulliken charges and spin densities:
               1          2
     1  Na  -0.150995  -0.054382
     2  Na  -0.033901   0.006058
     3  Na   0.040135  -0.038598
     4  Na  -0.301841   0.655768
     5  Na  -0.175819   0.243256
     6  Na   0.291499   0.000351
     7  Na   0.330921   0.187547
 Sum of Mulliken charges =  -0.00000   1.00000

 Dipole moment (field-independent basis, Debye):
    X=              0.0112    Y=              0.2324    Z=             -0.0568  Tot=              0.2395
 Quadrupole moment (field-independent basis, Debye-Ang):
   XX=            -55.9533   YY=            -63.7702   ZZ=            -74.4989
   XY=              0.3422   XZ=              1.0722   YZ=              1.1037

 Normal termination of Gaussian 16 at Tue Dec  5 21:55:05 2023.
