 Gaussian 16, Revision B.01,
 Gaussian 16:  ES64L-G16RevB.01 20-Dec-2017

 -------------------------
 #P B3LYP/6-311+g(d) force
 -------------------------

 -----
 DPGEN
 -----
 Symbolic Z-matrix:
 Charge =  0 Multiplicity = 2

                         Standard orientation:
 ---------------------------------------------------------------------
 Center     Atomic      Atomic             Coordinates (Angstroms)
 Number     Number       Type             X           Y           Z
 ---------------------------------------------------------------------
      1         11           0        0.661101    1.787960   -0.356046
      2         11           0       -2.541975    3.314401    0.258226
      3         11           0       -2.614510    0.424856   -0.511212
      4         11           0       -3.271729   -2.861711    0.806755
      5         11           0       -0.302552   -2.227122   -1.146799
      6         11           0        2.563250   -0.248457    1.147836
      7         11           0        5.506416   -0.189927   -0.198760
 ---------------------------------------------------------------------

 SCF Done:  E(UB3LYP) =  -1136.11951103     A.U. after   19 cycles

 The electronic state is 2-A.
 Alpha  occ. eigenvalues --  -38.44633 -38.44319 -38.44158 -38.44124 -38.43765
 Alpha  occ. eigenvalues --  -38.43635 -38.43499  -2.20418  -2.20101  -2.19974
 Alpha  occ. eigenvalues --   -2.19971  -2.19605  -2.19538  -2.19348  -1.14116
 Alpha  occ. eigenvalues --   -1.14082  -1.14021  -1.13768  -1.13763  -1.13713
 Alpha  occ. eigenvalues --   -1.13684  -1.13646  -1.13616  -1.13605  -1.13596
 Alpha  occ. eigenvalues --   -1.13582  -1.13291  -1.13280  -1.13259  -1.13242
 Alpha  occ. eigenvalues --   -1.13218  -1.13206  -1.12990  -1.12982  -1.12942
 Alpha  occ. eigenvalues --   -0.16893  -0.13790  -0.12551  -0.10468
 Alpha virt. eigenvalues --   -0.06422  -0.05192  -0.04908  -0.03414  -0.03047
 Alpha virt. eigenvalues --   -0.02513  -0.01520  -0.01188  -0.01043  -0.00720
 Alpha virt. eigenvalues --   -0.00694  -0.00011   0.00331   0.00449   0.00517

  Beta  occ. eigenvalues --  -38.44613 -38.44291 -38.44095 -38.44060 -38.43769
  Beta  occ. eigenvalues --  -38.43620 -38.43481  -2.20382  -2.20048  -2.19922
  Beta  occ. eigenvalues --   -2.19788  -2.19619  -2.19515  -2.19315  -1.14093
  Beta  occ. eigenvalues --   -1.14057  -1.13986  -1.13732  -1.13722  -1.13681
  Beta  occ. eigenvalues --   -1.13650  -1.13601  -1.13553  -1.13498  -1.13480
  Beta  occ. eigenvalues --   -1.13474  -1.13298  -1.13272  -1.13255  -1.13204
  Beta  occ. eigenvalues --   -1.13195  -1.13178  -1.12968  -1.12953  -1.12926
  Beta  occ. eigenvalues --   -0.16378  -0.13087  -0.12398
  Beta virt. eigenvalues --   -0.07148  -0.05895  -0.04919  -0.04689  -0.03029
  Beta virt. eigenvalues --   -0.02776  -0.02357  -0.01355  -0.00969  -0.00776
  Beta virt. eigenvalues --   -0.00423  -0.00272   0.00200   0.00464   0.00560

 Mulliken charges and spin densities:
               1          2
     1  Na  -0.669804  -0.073144
     2  Na   0.740840   0.092580
     3  Na  -0.573098   0.332140
     4  Na   0.313658   0.140567
     5  Na  -0.019938   0.068742
     6  Na   0.130447  -0.052258
     7  Na   0.077895   0.491374
 Sum of Mulliken charges =  -0.00000   1.00000

 Dipole moment (field-independent basis, Debye):
    X=             -0.5060    Y=             -0.4249    Z=             -0.0290  Tot=              0.6614
 Quadrupole moment (field-independent basis, Debye-Ang):
   XX=            -72.2057   YY=            -63.1005   ZZ=            -66.3219
   XY=              1.3046   XZ=             -6.1904   YZ=             -0.2360

 Normal termination of Gaussian 16 at Wed Nov 29 04:14:24 2023.
