 Gaussian 16, Revision B.01,
 Gaussian 16:  ES64L-G16RevB.01 20-Dec-2017

 -------------------------
 #P B3LYP/6-311+g(d) force
 -------------------------

 -----
 DPGEN
 -----
 Symbolic Z-matrix:
 Charge =  0 Multiplicity = 2

                         Standard orientation:
 ---------------------------------------------------------------------
 Center     Atomic      Atomic             Coordinates (Angstroms)
 Number     Number       Type             X           Y           Z
 ---------------------------------------------------------------------
      1         11           0       -2.481376   -1.450066   -0.081745
      2         11           0        3.024597   -0.901498    0.088153
      3         11           0       -0.625143    0.390067    2.065506
      4         11           0        1.909063    2.475443    0.073530
      5         11           0        0.351286   -2.569636    0.091889
      6         11           0        0.055413    0.061741   -1.899626
      7         11           0       -2.233840    1.993949   -0.337705
 ---------------------------------------------------------------------

 SCF Done:  E(UB3LYP) =  -1136.13508199     A.U. after   19 cycles

 The electronic state is 2-A.
 Alpha  occ. eigenvalues --  -38.43951 -38.43877 -38.43837 -38.43802 -38.43616
 Alpha  occ. eigenvalues --  -38.43615 -38.42873  -2.19784  -2.19730  -2.19666
 Alpha  occ. eigenvalues --   -2.19657  -2.19552  -2.19534  -2.18810  -1.13476
 Alpha  occ. eigenvalues --   -1.13446  -1.13427  -1.13423  -1.13381  -1.13359
 Alpha  occ. eigenvalues --   -1.13348  -1.13343  -1.13324  -1.13301  -1.13297
 Alpha  occ. eigenvalues --   -1.13287  -1.13259  -1.13218  -1.13190  -1.13178
 Alpha  occ. eigenvalues --   -1.13165  -1.13148  -1.12484  -1.12468  -1.12448
 Alpha  occ. eigenvalues --   -0.18804  -0.13100  -0.12383  -0.11112
 Alpha virt. eigenvalues --   -0.05675  -0.05253  -0.04338  -0.03375  -0.03060
 Alpha virt. eigenvalues --   -0.02842  -0.01348  -0.01100  -0.00336  -0.00064
 Alpha virt. eigenvalues --   -0.00026   0.00376   0.00802   0.00884   0.00949

  Beta  occ. eigenvalues --  -38.43951 -38.43877 -38.43793 -38.43751 -38.43607
  Beta  occ. eigenvalues --  -38.43535 -38.42866  -2.19786  -2.19668  -2.19644
  Beta  occ. eigenvalues --   -2.19571  -2.19524  -2.19406  -2.18802  -1.13479
  Beta  occ. eigenvalues --   -1.13433  -1.13430  -1.13366  -1.13332  -1.13329
  Beta  occ. eigenvalues --   -1.13307  -1.13306  -1.13288  -1.13285  -1.13248
  Beta  occ. eigenvalues --   -1.13231  -1.13223  -1.13164  -1.13141  -1.13122
  Beta  occ. eigenvalues --   -1.13078  -1.13053  -1.12480  -1.12466  -1.12412
  Beta  occ. eigenvalues --   -0.18032  -0.12895  -0.12143
  Beta virt. eigenvalues --   -0.07162  -0.05681  -0.05141  -0.04312  -0.02610
  Beta virt. eigenvalues --   -0.02255  -0.01793  -0.01270  -0.01029  -0.00391
  Beta virt. eigenvalues --   -0.00068   0.00097   0.00407   0.00846   0.00929

 Mulliken charges and spin densities:
               1          2
     1  Na   0.535410   0.098694
     2  Na  -0.040981  -0.050853
     3  Na  -0.527668   0.641881
     4  Na  -0.008123  -0.122436
     5  Na   0.013273  -0.004094
     6  Na  -0.265655   0.549271
     7  Na   0.293743  -0.112463
 Sum of Mulliken charges =  -0.00000   1.00000

 Dipole moment (field-independent basis, Debye):
    X=              0.0316    Y=              0.4545    Z=              0.0746  Tot=              0.4617
 Quadrupole moment (field-independent basis, Debye-Ang):
   XX=            -58.1046   YY=            -65.2487   ZZ=            -71.8973
   XY=             -0.0639   XZ=              1.2851   YZ=             -0.5371

 Normal termination of Gaussian 16 at Mon Dec  4 05:38:40 2023.
