 Gaussian 16, Revision B.01,
 Gaussian 16:  ES64L-G16RevB.01 20-Dec-2017

 -------------------------
 #P B3LYP/6-311+g(d) force
 -------------------------

 -----
 DPGEN
 -----
 Symbolic Z-matrix:
 Charge =  0 Multiplicity = 2

                         Standard orientation:
 ---------------------------------------------------------------------
 Center     Atomic      Atomic             Coordinates (Angstroms)
 Number     Number       Type             X           Y           Z
 ---------------------------------------------------------------------
      1         11           0        0.678129    0.247817    1.612466
      2         11           0       -3.148358   -0.518578   -0.287750
      3         11           0       -0.519006   -2.681168    0.515758
      4         11           0        2.796072   -1.396970   -0.289354
      5         11           0       -0.011963   -0.461151   -1.463737
      6         11           0        1.792272    2.468620   -0.319245
      7         11           0       -1.587146    2.341430    0.231863
 ---------------------------------------------------------------------

 SCF Done:  E(UB3LYP) =  -1136.13407603     A.U. after   19 cycles

 The electronic state is 2-A.
 Alpha  occ. eigenvalues --  -38.44031 -38.43789 -38.43716 -38.43582 -38.43530
 Alpha  occ. eigenvalues --  -38.42861 -38.42804  -2.19900  -2.19651  -2.19567
 Alpha  occ. eigenvalues --   -2.19492  -2.19404  -2.18919  -2.18833  -1.13592
 Alpha  occ. eigenvalues --   -1.13570  -1.13518  -1.13351  -1.13315  -1.13278
 Alpha  occ. eigenvalues --   -1.13257  -1.13245  -1.13229  -1.13206  -1.13156
 Alpha  occ. eigenvalues --   -1.13087  -1.13085  -1.13066  -1.13026  -1.12649
 Alpha  occ. eigenvalues --   -1.12550  -1.12528  -1.12492  -1.12463  -1.12438
 Alpha  occ. eigenvalues --   -0.19119  -0.13105  -0.12909  -0.10277
 Alpha virt. eigenvalues --   -0.05634  -0.05245  -0.04798  -0.02913  -0.02879
 Alpha virt. eigenvalues --   -0.01875  -0.01577  -0.01264  -0.00387  -0.00218
 Alpha virt. eigenvalues --    0.00070   0.00348   0.00828   0.00854   0.00897

  Beta  occ. eigenvalues --  -38.44019 -38.43783 -38.43712 -38.43564 -38.43525
  Beta  occ. eigenvalues --  -38.42801 -38.42732  -2.19882  -2.19642  -2.19563
  Beta  occ. eigenvalues --   -2.19463  -2.19398  -2.18812  -2.18702  -1.13580
  Beta  occ. eigenvalues --   -1.13539  -1.13501  -1.13342  -1.13300  -1.13263
  Beta  occ. eigenvalues --   -1.13250  -1.13239  -1.13209  -1.13196  -1.13105
  Beta  occ. eigenvalues --   -1.13079  -1.13069  -1.13045  -1.13021  -1.12569
  Beta  occ. eigenvalues --   -1.12475  -1.12444  -1.12406  -1.12367  -1.12340
  Beta  occ. eigenvalues --   -0.18419  -0.12852  -0.12657
  Beta virt. eigenvalues --   -0.06381  -0.05605  -0.05194  -0.04763  -0.02190
  Beta virt. eigenvalues --   -0.02122  -0.01497  -0.01205  -0.00911  -0.00367
  Beta virt. eigenvalues --   -0.00254   0.00196   0.00395   0.00843   0.00871

 Mulliken charges and spin densities:
               1          2
     1  Na  -0.130351   0.426160
     2  Na   0.123687  -0.012571
     3  Na   0.209786   0.043523
     4  Na   0.213784   0.011471
     5  Na  -0.494062   0.553139
     6  Na   0.043770   0.008499
     7  Na   0.033386  -0.030221
 Sum of Mulliken charges =  -0.00000   1.00000

 Dipole moment (field-independent basis, Debye):
    X=              0.2332    Y=             -0.0068    Z=              0.0118  Tot=              0.2336
 Quadrupole moment (field-independent basis, Debye-Ang):
   XX=            -54.8895   YY=            -60.0797   ZZ=            -76.4399
   XY=              0.0447   XZ=             -1.2866   YZ=             -1.4444

 Normal termination of Gaussian 16 at Thu Dec  7 22:59:40 2023.
