 Gaussian 16, Revision B.01,
 Gaussian 16:  ES64L-G16RevB.01 20-Dec-2017

 -------------------------
 #P B3LYP/6-311+g(d) force
 -------------------------

 -----
 DPGEN
 -----
 Symbolic Z-matrix:
 Charge =  0 Multiplicity = 2

                         Standard orientation:
 ---------------------------------------------------------------------
 Center     Atomic      Atomic             Coordinates (Angstroms)
 Number     Number       Type             X           Y           Z
 ---------------------------------------------------------------------
      1         11           0        3.203476   -0.437263    0.082157
      2         11           0       -0.263312   -0.281581   -1.184658
      3         11           0        1.162228    2.976984   -0.488481
      4         11           0        0.246859    0.462766    1.665342
      5         11           0       -2.920582   -1.683654    0.086258
      6         11           0        0.861481   -3.027089   -0.169569
      7         11           0       -2.290150    1.989838    0.008951
 ---------------------------------------------------------------------

 SCF Done:  E(UB3LYP) =  -1136.13135328     A.U. after   19 cycles

 The electronic state is 2-A.
 Alpha  occ. eigenvalues --  -38.44167 -38.44136 -38.44003 -38.43987 -38.43749
 Alpha  occ. eigenvalues --  -38.42773 -38.42770  -2.19968  -2.19951  -2.19861
 Alpha  occ. eigenvalues --   -2.19820  -2.19576  -2.18836  -2.18750  -1.13653
 Alpha  occ. eigenvalues --   -1.13625  -1.13624  -1.13614  -1.13607  -1.13597
 Alpha  occ. eigenvalues --   -1.13556  -1.13534  -1.13528  -1.13474  -1.13473
 Alpha  occ. eigenvalues --   -1.13434  -1.13243  -1.13234  -1.13212  -1.12676
 Alpha  occ. eigenvalues --   -1.12470  -1.12441  -1.12390  -1.12349  -1.12343
 Alpha  occ. eigenvalues --   -0.18586  -0.13057  -0.12724  -0.09625
 Alpha virt. eigenvalues --   -0.05704  -0.05560  -0.05282  -0.02692  -0.02611
 Alpha virt. eigenvalues --   -0.01736  -0.01618  -0.01443  -0.00816  -0.00711
 Alpha virt. eigenvalues --    0.00050   0.00318   0.00759   0.00782   0.00794

  Beta  occ. eigenvalues --  -38.44168 -38.44131 -38.43995 -38.43980 -38.43729
  Beta  occ. eigenvalues --  -38.42728 -38.42692  -2.19971  -2.19945  -2.19850
  Beta  occ. eigenvalues --   -2.19811  -2.19541  -2.18762  -2.18603  -1.13651
  Beta  occ. eigenvalues --   -1.13624  -1.13613  -1.13603  -1.13597  -1.13594
  Beta  occ. eigenvalues --   -1.13551  -1.13517  -1.13503  -1.13462  -1.13454
  Beta  occ. eigenvalues --   -1.13429  -1.13213  -1.13201  -1.13187  -1.12594
  Beta  occ. eigenvalues --   -1.12418  -1.12384  -1.12299  -1.12248  -1.12233
  Beta  occ. eigenvalues --   -0.17926  -0.12803  -0.12474
  Beta virt. eigenvalues --   -0.05910  -0.05662  -0.05519  -0.05150  -0.01982
  Beta virt. eigenvalues --   -0.01952  -0.01644  -0.01485  -0.00840  -0.00746
  Beta virt. eigenvalues --   -0.00610   0.00212   0.00393   0.00779   0.00798

 Mulliken charges and spin densities:
               1          2
     1  Na   0.167594  -0.010072
     2  Na  -0.489340   0.350065
     3  Na  -0.064658   0.110021
     4  Na  -0.131525   0.603299
     5  Na   0.083012  -0.062678
     6  Na   0.111465  -0.066365
     7  Na   0.323452   0.075730
 Sum of Mulliken charges =  -0.00000   1.00000

 Dipole moment (field-independent basis, Debye):
    X=             -0.0505    Y=             -0.1633    Z=              0.1727  Tot=              0.2430
 Quadrupole moment (field-independent basis, Debye-Ang):
   XX=            -52.9348   YY=            -56.5282   ZZ=            -79.5455
   XY=              0.3244   XZ=             -1.1902   YZ=             -1.4542

 Normal termination of Gaussian 16 at Tue Dec  5 13:29:09 2023.
