 Gaussian 16, Revision B.01,
 Gaussian 16:  ES64L-G16RevB.01 20-Dec-2017

 -------------------------
 #P B3LYP/6-311+g(d) force
 -------------------------

 -----
 DPGEN
 -----
 Symbolic Z-matrix:
 Charge =  0 Multiplicity = 2

                         Standard orientation:
 ---------------------------------------------------------------------
 Center     Atomic      Atomic             Coordinates (Angstroms)
 Number     Number       Type             X           Y           Z
 ---------------------------------------------------------------------
      1         11           0       -3.123316   -0.757581   -0.354460
      2         11           0        2.757803   -1.438267   -0.390529
      3         11           0       -0.212250   -2.576670    0.400057
      4         11           0       -0.107331    0.056502   -1.695506
      5         11           0        2.070842    2.209703   -0.044751
      6         11           0        0.059407    0.070139    1.979936
      7         11           0       -1.445156    2.436175    0.105253
 ---------------------------------------------------------------------

 SCF Done:  E(UB3LYP) =  -1136.13901384     A.U. after   19 cycles

 The electronic state is 2-A.
 Alpha  occ. eigenvalues --  -38.43783 -38.43684 -38.43602 -38.43572 -38.43473
 Alpha  occ. eigenvalues --  -38.43262 -38.43082  -2.19613  -2.19528  -2.19517
 Alpha  occ. eigenvalues --   -2.19439  -2.19348  -2.19248  -2.19011  -1.13293
 Alpha  occ. eigenvalues --   -1.13264  -1.13261  -1.13220  -1.13204  -1.13186
 Alpha  occ. eigenvalues --   -1.13180  -1.13172  -1.13132  -1.13121  -1.13094
 Alpha  occ. eigenvalues --   -1.13075  -1.13050  -1.13017  -1.12952  -1.12931
 Alpha  occ. eigenvalues --   -1.12879  -1.12855  -1.12704  -1.12665  -1.12616
 Alpha  occ. eigenvalues --   -0.18939  -0.12858  -0.12637  -0.10982
 Alpha virt. eigenvalues --   -0.05361  -0.05197  -0.04496  -0.03133  -0.03051
 Alpha virt. eigenvalues --   -0.02641  -0.01505  -0.01107  -0.00165  -0.00140
 Alpha virt. eigenvalues --    0.00048   0.00352   0.00816   0.00895   0.00940

  Beta  occ. eigenvalues --  -38.43777 -38.43677 -38.43600 -38.43476 -38.43466
  Beta  occ. eigenvalues --  -38.43196 -38.43068  -2.19605  -2.19517  -2.19437
  Beta  occ. eigenvalues --   -2.19342  -2.19340  -2.19128  -2.18990  -1.13277
  Beta  occ. eigenvalues --   -1.13259  -1.13249  -1.13201  -1.13170  -1.13163
  Beta  occ. eigenvalues --   -1.13124  -1.13100  -1.13095  -1.13076  -1.13058
  Beta  occ. eigenvalues --   -1.13024  -1.13000  -1.12975  -1.12947  -1.12853
  Beta  occ. eigenvalues --   -1.12801  -1.12765  -1.12679  -1.12619  -1.12608
  Beta  occ. eigenvalues --   -0.18198  -0.12594  -0.12379
  Beta virt. eigenvalues --   -0.07045  -0.05330  -0.05172  -0.04468  -0.02364
  Beta virt. eigenvalues --   -0.02250  -0.01578  -0.01403  -0.01056  -0.00209
  Beta virt. eigenvalues --   -0.00116   0.00125   0.00373   0.00861   0.00898

 Mulliken charges and spin densities:
               1          2
     1  Na   0.093103  -0.052026
     2  Na   0.008454  -0.053048
     3  Na   0.359769   0.065286
     4  Na  -0.394581   0.626414
     5  Na   0.041492  -0.094538
     6  Na  -0.270993   0.584657
     7  Na   0.162757  -0.076744
 Sum of Mulliken charges =  -0.00000   1.00000

 Dipole moment (field-independent basis, Debye):
    X=              0.0143    Y=              0.1918    Z=              0.0017  Tot=              0.1923
 Quadrupole moment (field-independent basis, Debye-Ang):
   XX=            -56.3559   YY=            -63.7745   ZZ=            -73.2468
   XY=              0.2662   XZ=             -0.3858   YZ=              0.3133

 Normal termination of Gaussian 16 at Thu Dec  7 14:35:39 2023.
