 Gaussian 16, Revision B.01,
 Gaussian 16:  ES64L-G16RevB.01 20-Dec-2017

 -------------------------
 #P B3LYP/6-311+g(d) force
 -------------------------

 -----
 DPGEN
 -----
 Symbolic Z-matrix:
 Charge =  0 Multiplicity = 2

                         Standard orientation:
 ---------------------------------------------------------------------
 Center     Atomic      Atomic             Coordinates (Angstroms)
 Number     Number       Type             X           Y           Z
 ---------------------------------------------------------------------
      1         11           0        1.505455   -0.494950    1.829677
      2         11           0       -3.715862    0.331798   -0.586291
      3         11           0       -1.466580   -1.754031    0.997282
      4         11           0        2.539102    2.001320   -0.555835
      5         11           0       -0.593674    2.199933    0.744270
      6         11           0        2.002532   -2.194330   -1.000889
      7         11           0       -0.270974   -0.089740   -1.428215
 ---------------------------------------------------------------------

 SCF Done:  E(UB3LYP) =  -1136.13361685     A.U. after   19 cycles

 The electronic state is 2-A.
 Alpha  occ. eigenvalues --  -38.44275 -38.43688 -38.43570 -38.43477 -38.43417
 Alpha  occ. eigenvalues --  -38.43304 -38.43273  -2.20077  -2.19512  -2.19460
 Alpha  occ. eigenvalues --   -2.19401  -2.19322  -2.19278  -2.19148  -1.13750
 Alpha  occ. eigenvalues --   -1.13736  -1.13709  -1.13211  -1.13187  -1.13171
 Alpha  occ. eigenvalues --   -1.13155  -1.13150  -1.13084  -1.13073  -1.13057
 Alpha  occ. eigenvalues --   -1.13047  -1.13023  -1.12999  -1.12943  -1.12917
 Alpha  occ. eigenvalues --   -1.12886  -1.12874  -1.12834  -1.12813  -1.12734
 Alpha  occ. eigenvalues --   -0.18718  -0.13217  -0.11888  -0.11129
 Alpha virt. eigenvalues --   -0.05937  -0.05035  -0.04093  -0.03265  -0.02871
 Alpha virt. eigenvalues --   -0.02516  -0.01911  -0.01055  -0.00577   0.00150
 Alpha virt. eigenvalues --    0.00215   0.00293   0.00617   0.00795   0.00817

  Beta  occ. eigenvalues --  -38.44270 -38.43682 -38.43542 -38.43412 -38.43389
  Beta  occ. eigenvalues --  -38.43259 -38.43253  -2.20068  -2.19503  -2.19412
  Beta  occ. eigenvalues --   -2.19283  -2.19236  -2.19227  -2.19127  -1.13738
  Beta  occ. eigenvalues --   -1.13731  -1.13704  -1.13176  -1.13173  -1.13166
  Beta  occ. eigenvalues --   -1.13142  -1.13079  -1.13037  -1.13011  -1.12997
  Beta  occ. eigenvalues --   -1.12977  -1.12961  -1.12919  -1.12886  -1.12877
  Beta  occ. eigenvalues --   -1.12843  -1.12828  -1.12802  -1.12771  -1.12722
  Beta  occ. eigenvalues --   -0.17975  -0.13025  -0.11672
  Beta virt. eigenvalues --   -0.07118  -0.05812  -0.04963  -0.03874  -0.02844
  Beta virt. eigenvalues --   -0.02226  -0.01834  -0.01500  -0.00978  -0.00239
  Beta virt. eigenvalues --    0.00179   0.00231   0.00322   0.00780   0.00814

 Mulliken charges and spin densities:
               1          2
     1  Na   0.200087   0.372994
     2  Na   0.381953  -0.004540
     3  Na  -0.100259   0.138675
     4  Na   0.072348  -0.026816
     5  Na  -0.103695   0.096927
     6  Na  -0.016675   0.016079
     7  Na  -0.433758   0.406681
 Sum of Mulliken charges =  -0.00000   1.00000

 Dipole moment (field-independent basis, Debye):
    X=             -0.2956    Y=              0.0964    Z=              0.0262  Tot=              0.3121
 Quadrupole moment (field-independent basis, Debye-Ang):
   XX=            -51.5355   YY=            -69.9009   ZZ=            -70.3238
   XY=             -0.5129   XZ=             -0.6249   YZ=             -0.1873

 Normal termination of Gaussian 16 at Tue Dec  5 15:25:28 2023.
