 Gaussian 16, Revision B.01,
 Gaussian 16:  ES64L-G16RevB.01 20-Dec-2017

 -------------------------
 #P B3LYP/6-311+g(d) force
 -------------------------

 -----
 DPGEN
 -----
 Symbolic Z-matrix:
 Charge =  0 Multiplicity = 2

                         Standard orientation:
 ---------------------------------------------------------------------
 Center     Atomic      Atomic             Coordinates (Angstroms)
 Number     Number       Type             X           Y           Z
 ---------------------------------------------------------------------
      1         11           0       -0.621664    2.640108    0.104825
      2         11           0        0.317934    0.051205    1.839746
      3         11           0       -1.427112   -2.474980    0.388640
      4         11           0       -3.044190    0.392124   -0.287451
      5         11           0        2.445390   -1.703636   -0.047365
      6         11           0        0.156683   -0.532113   -1.794440
      7         11           0        2.172958    1.627291   -0.203957
 ---------------------------------------------------------------------

 SCF Done:  E(UB3LYP) =  -1136.13494402     A.U. after   19 cycles

 The electronic state is 2-A.
 Alpha  occ. eigenvalues --  -38.43863 -38.43688 -38.43599 -38.43453 -38.43371
 Alpha  occ. eigenvalues --  -38.43356 -38.43057  -2.19705  -2.19586  -2.19465
 Alpha  occ. eigenvalues --   -2.19421  -2.19355  -2.19351  -2.18984  -1.13377
 Alpha  occ. eigenvalues --   -1.13366  -1.13364  -1.13319  -1.13264  -1.13217
 Alpha  occ. eigenvalues --   -1.13185  -1.13157  -1.13147  -1.13099  -1.13083
 Alpha  occ. eigenvalues --   -1.13064  -1.13011  -1.13000  -1.12974  -1.12968
 Alpha  occ. eigenvalues --   -1.12956  -1.12951  -1.12649  -1.12632  -1.12612
 Alpha  occ. eigenvalues --   -0.19330  -0.13195  -0.12702  -0.11038
 Alpha virt. eigenvalues --   -0.05465  -0.05037  -0.04515  -0.03283  -0.03051
 Alpha virt. eigenvalues --   -0.02589  -0.01342  -0.00989  -0.00160  -0.00008
 Alpha virt. eigenvalues --    0.00078   0.00364   0.00886   0.00917   0.00957

  Beta  occ. eigenvalues --  -38.43860 -38.43681 -38.43589 -38.43443 -38.43297
  Beta  occ. eigenvalues --  -38.43271 -38.43052  -2.19702  -2.19577  -2.19451
  Beta  occ. eigenvalues --   -2.19407  -2.19218  -2.19197  -2.18979  -1.13374
  Beta  occ. eigenvalues --   -1.13366  -1.13348  -1.13304  -1.13235  -1.13203
  Beta  occ. eigenvalues --   -1.13168  -1.13145  -1.13108  -1.13076  -1.13067
  Beta  occ. eigenvalues --   -1.13030  -1.12931  -1.12906  -1.12877  -1.12867
  Beta  occ. eigenvalues --   -1.12860  -1.12848  -1.12644  -1.12624  -1.12587
  Beta  occ. eigenvalues --   -0.18573  -0.12939  -0.12433
  Beta virt. eigenvalues --   -0.07076  -0.05433  -0.05012  -0.04494  -0.02474
  Beta virt. eigenvalues --   -0.02245  -0.01519  -0.01270  -0.00918  -0.00185
  Beta virt. eigenvalues --    0.00010   0.00136   0.00390   0.00911   0.00928

 Mulliken charges and spin densities:
               1          2
     1  Na   0.056777  -0.020109
     2  Na  -0.413526   0.606461
     3  Na   0.113510  -0.072012
     4  Na  -0.037350  -0.035880
     5  Na   0.429484  -0.072634
     6  Na  -0.487634   0.558146
     7  Na   0.338739   0.036029
 Sum of Mulliken charges =  -0.00000   1.00000

 Dipole moment (field-independent basis, Debye):
    X=             -0.0832    Y=             -0.3662    Z=             -0.0221  Tot=              0.3762
 Quadrupole moment (field-independent basis, Debye-Ang):
   XX=            -58.0102   YY=            -63.7794   ZZ=            -72.8338
   XY=             -0.6502   XZ=             -0.0334   YZ=             -1.3106

 Normal termination of Gaussian 16 at Thu Dec  7 18:22:21 2023.
