 Gaussian 16, Revision B.01,
 Gaussian 16:  ES64L-G16RevB.01 20-Dec-2017

 -------------------------
 #P B3LYP/6-311+g(d) force
 -------------------------

 -----
 DPGEN
 -----
 Symbolic Z-matrix:
 Charge =  0 Multiplicity = 2

                         Standard orientation:
 ---------------------------------------------------------------------
 Center     Atomic      Atomic             Coordinates (Angstroms)
 Number     Number       Type             X           Y           Z
 ---------------------------------------------------------------------
      1         11           0        1.645865   -2.285484    0.394848
      2         11           0        1.869847    1.524742   -0.365868
      3         11           0       -1.503068    0.770181   -1.120031
      4         11           0       -1.548004   -1.799195    0.865210
      5         11           0       -4.497348   -0.557574   -0.464923
      6         11           0       -0.301465    2.890283    1.163743
      7         11           0        4.334174   -0.542952   -0.472979
 ---------------------------------------------------------------------

 SCF Done:  E(UB3LYP) =  -1136.12562490     A.U. after   20 cycles

 The electronic state is 2-A.
 Alpha  occ. eigenvalues --  -38.44450 -38.43891 -38.43883 -38.43660 -38.43531
 Alpha  occ. eigenvalues --  -38.43468 -38.43427  -2.20348  -2.19744  -2.19731
 Alpha  occ. eigenvalues --   -2.19547  -2.19454  -2.19319  -2.19287  -1.14057
 Alpha  occ. eigenvalues --   -1.14047  -1.13949  -1.13485  -1.13386  -1.13382
 Alpha  occ. eigenvalues --   -1.13377  -1.13374  -1.13349  -1.13246  -1.13206
 Alpha  occ. eigenvalues --   -1.13170  -1.13152  -1.13118  -1.13081  -1.12992
 Alpha  occ. eigenvalues --   -1.12988  -1.12976  -1.12924  -1.12919  -1.12872
 Alpha  occ. eigenvalues --   -0.17604  -0.14132  -0.12644  -0.10759
 Alpha virt. eigenvalues --   -0.06167  -0.05167  -0.04346  -0.03702  -0.02713
 Alpha virt. eigenvalues --   -0.02560  -0.01759  -0.01156  -0.00736  -0.00460
 Alpha virt. eigenvalues --   -0.00217  -0.00017   0.00489   0.00665   0.00844

  Beta  occ. eigenvalues --  -38.44444 -38.43881 -38.43827 -38.43616 -38.43519
  Beta  occ. eigenvalues --  -38.43433 -38.43374  -2.20339  -2.19740  -2.19611
  Beta  occ. eigenvalues --   -2.19473  -2.19436  -2.19262  -2.19188  -1.14047
  Beta  occ. eigenvalues --   -1.14037  -1.13933  -1.13480  -1.13379  -1.13374
  Beta  occ. eigenvalues --   -1.13299  -1.13292  -1.13277  -1.13194  -1.13161
  Beta  occ. eigenvalues --   -1.13144  -1.13100  -1.13082  -1.13045  -1.12960
  Beta  occ. eigenvalues --   -1.12946  -1.12909  -1.12857  -1.12852  -1.12808
  Beta  occ. eigenvalues --   -0.17117  -0.13535  -0.12236
  Beta virt. eigenvalues --   -0.07142  -0.06042  -0.05056  -0.03820  -0.03332
  Beta virt. eigenvalues --   -0.02518  -0.02240  -0.01337  -0.00848  -0.00512
  Beta virt. eigenvalues --   -0.00275  -0.00037   0.00215   0.00645   0.00790

 Mulliken charges and spin densities:
               1          2
     1  Na  -0.324795   0.084534
     2  Na  -0.500146   0.111593
     3  Na  -0.126963  -0.017857
     4  Na  -0.147542   0.119770
     5  Na   0.464390   0.311486
     6  Na   0.285342   0.139787
     7  Na   0.349714   0.250687
 Sum of Mulliken charges =  -0.00000   1.00000

 Dipole moment (field-independent basis, Debye):
    X=             -0.7525    Y=              0.5217    Z=              0.5202  Tot=              1.0531
 Quadrupole moment (field-independent basis, Debye-Ang):
   XX=            -62.9912   YY=            -69.9428   ZZ=            -66.3032
   XY=             -1.2407   XZ=             -1.9606   YZ=              1.7406

 Normal termination of Gaussian 16 at Tue Nov 28 22:00:39 2023.
