 Gaussian 16, Revision B.01,
 Gaussian 16:  ES64L-G16RevB.01 20-Dec-2017

 -------------------------
 #P B3LYP/6-311+g(d) force
 -------------------------

 -----
 DPGEN
 -----
 Symbolic Z-matrix:
 Charge =  0 Multiplicity = 2

                         Standard orientation:
 ---------------------------------------------------------------------
 Center     Atomic      Atomic             Coordinates (Angstroms)
 Number     Number       Type             X           Y           Z
 ---------------------------------------------------------------------
      1         11           0       -1.549743    1.371791    1.411605
      2         11           0       -3.380168   -0.581530   -0.766189
      3         11           0        1.439017    3.169239   -0.377011
      4         11           0        1.535992   -0.302694    1.720872
      5         11           0        2.547093   -2.099771   -0.816623
      6         11           0        0.037490    0.648226   -1.740671
      7         11           0       -0.629682   -2.205262    0.568016
 ---------------------------------------------------------------------

 SCF Done:  E(UB3LYP) =  -1136.13489085     A.U. after   19 cycles

 The electronic state is 2-A.
 Alpha  occ. eigenvalues --  -38.43955 -38.43875 -38.43657 -38.43562 -38.43501
 Alpha  occ. eigenvalues --  -38.43494 -38.43373  -2.19814  -2.19708  -2.19581
 Alpha  occ. eigenvalues --   -2.19460  -2.19405  -2.19319  -2.19177  -1.13512
 Alpha  occ. eigenvalues --   -1.13476  -1.13416  -1.13392  -1.13370  -1.13352
 Alpha  occ. eigenvalues --   -1.13324  -1.13208  -1.13182  -1.13141  -1.13123
 Alpha  occ. eigenvalues --   -1.13092  -1.13089  -1.13080  -1.13008  -1.12979
 Alpha  occ. eigenvalues --   -1.12972  -1.12940  -1.12849  -1.12829  -1.12806
 Alpha  occ. eigenvalues --   -0.18414  -0.12787  -0.12231  -0.11284
 Alpha virt. eigenvalues --   -0.05390  -0.05147  -0.04510  -0.03373  -0.03069
 Alpha virt. eigenvalues --   -0.02805  -0.01428  -0.01180  -0.00617   0.00119
 Alpha virt. eigenvalues --    0.00285   0.00329   0.00732   0.00784   0.00845

  Beta  occ. eigenvalues --  -38.43915 -38.43861 -38.43602 -38.43503 -38.43488
  Beta  occ. eigenvalues --  -38.43485 -38.43373  -2.19742  -2.19683  -2.19482
  Beta  occ. eigenvalues --   -2.19386  -2.19352  -2.19303  -2.19179  -1.13459
  Beta  occ. eigenvalues --   -1.13407  -1.13373  -1.13371  -1.13346  -1.13327
  Beta  occ. eigenvalues --   -1.13264  -1.13137  -1.13108  -1.13081  -1.13064
  Beta  occ. eigenvalues --   -1.13043  -1.13028  -1.13014  -1.12999  -1.12964
  Beta  occ. eigenvalues --   -1.12954  -1.12932  -1.12834  -1.12831  -1.12805
  Beta  occ. eigenvalues --   -0.17625  -0.12642  -0.12045
  Beta virt. eigenvalues --   -0.07329  -0.05226  -0.05000  -0.04260  -0.02953
  Beta virt. eigenvalues --   -0.02472  -0.01862  -0.01341  -0.01099  -0.00247
  Beta virt. eigenvalues --    0.00098   0.00355   0.00378   0.00786   0.00857

 Mulliken charges and spin densities:
               1          2
     1  Na  -0.181348   0.176280
     2  Na   0.429217  -0.076327
     3  Na  -0.081930  -0.099279
     4  Na   0.399352   0.246079
     5  Na   0.047625  -0.075774
     6  Na  -0.342728   0.622335
     7  Na  -0.270188   0.206687
 Sum of Mulliken charges =  -0.00000   1.00000

 Dipole moment (field-independent basis, Debye):
    X=              0.1411    Y=             -0.0991    Z=             -0.0502  Tot=              0.1796
 Quadrupole moment (field-independent basis, Debye-Ang):
   XX=            -59.4779   YY=            -65.3742   ZZ=            -68.9825
   XY=             -0.5740   XZ=             -0.4570   YZ=              3.0850

 Normal termination of Gaussian 16 at Tue Dec  5 22:45:04 2023.
