 Gaussian 16, Revision B.01,
 Gaussian 16:  ES64L-G16RevB.01 20-Dec-2017

 -------------------------
 #P B3LYP/6-311+g(d) force
 -------------------------

 -----
 DPGEN
 -----
 Symbolic Z-matrix:
 Charge =  0 Multiplicity = 2

                         Standard orientation:
 ---------------------------------------------------------------------
 Center     Atomic      Atomic             Coordinates (Angstroms)
 Number     Number       Type             X           Y           Z
 ---------------------------------------------------------------------
      1         11           0       -3.109033   -0.831319   -0.133098
      2         11           0       -0.213559   -2.756068   -0.067374
      3         11           0       -1.660751    2.447586   -0.044948
      4         11           0        0.102771    0.080242   -1.720823
      5         11           0        2.747196   -1.309401    0.011692
      6         11           0        2.074818    2.153424   -0.234380
      7         11           0        0.058559    0.215535    2.188931
 ---------------------------------------------------------------------

 SCF Done:  E(UB3LYP) =  -1136.13996094     A.U. after   19 cycles

 The electronic state is 2-A.
 Alpha  occ. eigenvalues --  -38.43895 -38.43883 -38.43668 -38.43606 -38.43595
 Alpha  occ. eigenvalues --  -38.43320 -38.43105  -2.19747  -2.19704  -2.19526
 Alpha  occ. eigenvalues --   -2.19447  -2.19441  -2.19296  -2.18984  -1.13405
 Alpha  occ. eigenvalues --   -1.13376  -1.13373  -1.13371  -1.13362  -1.13353
 Alpha  occ. eigenvalues --   -1.13210  -1.13188  -1.13184  -1.13158  -1.13129
 Alpha  occ. eigenvalues --   -1.13112  -1.13100  -1.13076  -1.13055  -1.12974
 Alpha  occ. eigenvalues --   -1.12932  -1.12907  -1.12665  -1.12643  -1.12612
 Alpha  occ. eigenvalues --   -0.18656  -0.12870  -0.12504  -0.10979
 Alpha virt. eigenvalues --   -0.05454  -0.05270  -0.04571  -0.03171  -0.03007
 Alpha virt. eigenvalues --   -0.02845  -0.01419  -0.01112  -0.00334  -0.00202
 Alpha virt. eigenvalues --   -0.00046   0.00366   0.00796   0.00889   0.00925

  Beta  occ. eigenvalues --  -38.43895 -38.43781 -38.43665 -38.43602 -38.43588
  Beta  occ. eigenvalues --  -38.43254 -38.43100  -2.19706  -2.19558  -2.19523
  Beta  occ. eigenvalues --   -2.19440  -2.19435  -2.19176  -2.18978  -1.13367
  Beta  occ. eigenvalues --   -1.13362  -1.13356  -1.13281  -1.13240  -1.13237
  Beta  occ. eigenvalues --   -1.13205  -1.13185  -1.13160  -1.13142  -1.13118
  Beta  occ. eigenvalues --   -1.13087  -1.13079  -1.13076  -1.13055  -1.12895
  Beta  occ. eigenvalues --   -1.12851  -1.12821  -1.12658  -1.12617  -1.12611
  Beta  occ. eigenvalues --   -0.17909  -0.12662  -0.12266
  Beta virt. eigenvalues --   -0.07015  -0.05448  -0.05246  -0.04527  -0.02383
  Beta virt. eigenvalues --   -0.02202  -0.01752  -0.01338  -0.01047  -0.00400
  Beta virt. eigenvalues --   -0.00255   0.00106   0.00385   0.00859   0.00881

 Mulliken charges and spin densities:
               1          2
     1  Na   0.042349  -0.065659
     2  Na   0.128097  -0.032028
     3  Na   0.171593  -0.078903
     4  Na  -0.234952   0.460686
     5  Na   0.219751  -0.003888
     6  Na   0.294431  -0.056383
     7  Na  -0.621268   0.776175
 Sum of Mulliken charges =  -0.00000   1.00000

 Dipole moment (field-independent basis, Debye):
    X=             -0.0463    Y=              0.1835    Z=              0.1718  Tot=              0.2556
 Quadrupole moment (field-independent basis, Debye-Ang):
   XX=            -57.3236   YY=            -63.7548   ZZ=            -73.1203
   XY=              0.0458   XZ=              0.1540   YZ=             -0.2918

 Normal termination of Gaussian 16 at Fri Dec  8 06:15:43 2023.
