 Gaussian 16, Revision B.01,
 Gaussian 16:  ES64L-G16RevB.01 20-Dec-2017

 -------------------------
 #P B3LYP/6-311+g(d) force
 -------------------------

 -----
 DPGEN
 -----
 Symbolic Z-matrix:
 Charge =  0 Multiplicity = 2

                         Standard orientation:
 ---------------------------------------------------------------------
 Center     Atomic      Atomic             Coordinates (Angstroms)
 Number     Number       Type             X           Y           Z
 ---------------------------------------------------------------------
      1         11           0       -1.351997   -0.098193    2.081129
      2         11           0       -1.902005    2.929831    0.062565
      3         11           0        4.603279   -0.485541   -0.283218
      4         11           0        1.215986   -1.298809    0.438662
      5         11           0        1.629620    1.419382   -0.066244
      6         11           0       -2.688536   -2.728411   -0.378487
      7         11           0       -1.506347    0.261740   -1.854408
 ---------------------------------------------------------------------

 SCF Done:  E(UB3LYP) =  -1136.12199156     A.U. after   22 cycles

 The electronic state is 2-A.
 Alpha  occ. eigenvalues --  -38.44948 -38.44350 -38.44208 -38.43895 -38.43781
 Alpha  occ. eigenvalues --  -38.43424 -38.43351  -2.20728  -2.20250  -2.20129
 Alpha  occ. eigenvalues --   -2.19765  -2.19653  -2.19203  -2.19167  -1.14400
 Alpha  occ. eigenvalues --   -1.14393  -1.14345  -1.14226  -1.13924  -1.13804
 Alpha  occ. eigenvalues --   -1.13796  -1.13770  -1.13643  -1.13450  -1.13396
 Alpha  occ. eigenvalues --   -1.13356  -1.13345  -1.13304  -1.13251  -1.12878
 Alpha  occ. eigenvalues --   -1.12869  -1.12844  -1.12831  -1.12828  -1.12794
 Alpha  occ. eigenvalues --   -0.18065  -0.13589  -0.11655  -0.10888
 Alpha virt. eigenvalues --   -0.06862  -0.04948  -0.04111  -0.03308  -0.02825
 Alpha virt. eigenvalues --   -0.02553  -0.02458  -0.01557  -0.00639  -0.00226
 Alpha virt. eigenvalues --   -0.00073   0.00179   0.00446   0.00727   0.00736

  Beta  occ. eigenvalues --  -38.44942 -38.44344 -38.44188 -38.43811 -38.43713
  Beta  occ. eigenvalues --  -38.43413 -38.43349  -2.20715  -2.20241  -2.20097
  Beta  occ. eigenvalues --   -2.19611  -2.19527  -2.19185  -2.19166  -1.14391
  Beta  occ. eigenvalues --   -1.14383  -1.14338  -1.14216  -1.13897  -1.13792
  Beta  occ. eigenvalues --   -1.13759  -1.13735  -1.13628  -1.13338  -1.13292
  Beta  occ. eigenvalues --   -1.13259  -1.13250  -1.13222  -1.13155  -1.12868
  Beta  occ. eigenvalues --   -1.12845  -1.12841  -1.12819  -1.12811  -1.12796
  Beta  occ. eigenvalues --   -0.17365  -0.13348  -0.11448
  Beta virt. eigenvalues --   -0.07054  -0.06589  -0.04854  -0.03994  -0.02824
  Beta virt. eigenvalues --   -0.02430  -0.02127  -0.01691  -0.01477  -0.00262
  Beta virt. eigenvalues --   -0.00157  -0.00022   0.00251   0.00657   0.00751

 Mulliken charges and spin densities:
               1          2
     1  Na   0.185285   0.351301
     2  Na   0.524758   0.184200
     3  Na   0.596212  -0.025597
     4  Na  -0.348412   0.089500
     5  Na  -0.659516   0.050635
     6  Na  -0.109081  -0.021968
     7  Na  -0.189247   0.371929
 Sum of Mulliken charges =  -0.00000   1.00000

 Dipole moment (field-independent basis, Debye):
    X=              1.2988    Y=              0.0552    Z=              0.2559  Tot=              1.3250
 Quadrupole moment (field-independent basis, Debye-Ang):
   XX=            -50.2597   YY=            -68.6093   ZZ=            -72.2978
   XY=             -2.1420   XZ=             -3.5692   YZ=              1.3293

 Normal termination of Gaussian 16 at Thu Dec  7 14:26:41 2023.
