 Gaussian 16, Revision B.01,
 Gaussian 16:  ES64L-G16RevB.01 20-Dec-2017

 -------------------------
 #P B3LYP/6-311+g(d) force
 -------------------------

 -----
 DPGEN
 -----
 Symbolic Z-matrix:
 Charge =  0 Multiplicity = 2

                         Standard orientation:
 ---------------------------------------------------------------------
 Center     Atomic      Atomic             Coordinates (Angstroms)
 Number     Number       Type             X           Y           Z
 ---------------------------------------------------------------------
      1         11           0        0.716125   -0.784552    1.597128
      2         11           0        3.649229   -1.879751   -0.073442
      3         11           0       -2.577802    0.955775   -0.083098
      4         11           0       -4.589762   -1.155561    0.221986
      5         11           0        0.022551    3.248326   -0.153552
      6         11           0       -0.366005   -1.627988   -1.332487
      7         11           0        3.145664    1.243751   -0.176535
 ---------------------------------------------------------------------

 SCF Done:  E(UB3LYP) =  -1136.11632821     A.U. after   24 cycles

 The electronic state is 2-A.
 Alpha  occ. eigenvalues --  -38.45570 -38.44923 -38.44224 -38.44027 -38.44004
 Alpha  occ. eigenvalues --  -38.43459 -38.42556  -2.21406  -2.20735  -2.20064
 Alpha  occ. eigenvalues --   -2.19878  -2.19846  -2.19352  -2.18346  -1.15100
 Alpha  occ. eigenvalues --   -1.15050  -1.15025  -1.14407  -1.14394  -1.14330
 Alpha  occ. eigenvalues --   -1.13767  -1.13728  -1.13678  -1.13613  -1.13531
 Alpha  occ. eigenvalues --   -1.13501  -1.13501  -1.13474  -1.13447  -1.13038
 Alpha  occ. eigenvalues --   -1.13005  -1.12982  -1.12021  -1.12010  -1.11988
 Alpha  occ. eigenvalues --   -0.17484  -0.14291  -0.11598  -0.10653
 Alpha virt. eigenvalues --   -0.06791  -0.05723  -0.04393  -0.03323  -0.03123
 Alpha virt. eigenvalues --   -0.02078  -0.01943  -0.01274  -0.01123  -0.00650
 Alpha virt. eigenvalues --   -0.00282  -0.00244   0.00337   0.00504   0.00640

  Beta  occ. eigenvalues --  -38.45543 -38.44876 -38.44192 -38.43967 -38.43944
  Beta  occ. eigenvalues --  -38.43447 -38.42557  -2.21359  -2.20651  -2.20009
  Beta  occ. eigenvalues --   -2.19781  -2.19726  -2.19338  -2.18349  -1.15055
  Beta  occ. eigenvalues --   -1.15013  -1.14997  -1.14339  -1.14336  -1.14284
  Beta  occ. eigenvalues --   -1.13720  -1.13694  -1.13627  -1.13512  -1.13489
  Beta  occ. eigenvalues --   -1.13462  -1.13398  -1.13384  -1.13370  -1.13033
  Beta  occ. eigenvalues --   -1.12989  -1.12934  -1.12023  -1.12011  -1.11990
  Beta  occ. eigenvalues --   -0.16930  -0.13498  -0.11435
  Beta virt. eigenvalues --   -0.07100  -0.06583  -0.05562  -0.04049  -0.03001
  Beta virt. eigenvalues --   -0.02813  -0.01860  -0.01564  -0.01157  -0.00818
  Beta virt. eigenvalues --   -0.00276  -0.00146   0.00083   0.00433   0.00636

 Mulliken charges and spin densities:
               1          2
     1  Na  -0.197733   0.012929
     2  Na   0.734796   0.145972
     3  Na  -1.546024   0.488107
     4  Na   0.976508   0.204226
     5  Na   0.372535  -0.161333
     6  Na   0.071181  -0.043242
     7  Na  -0.411265   0.353341
 Sum of Mulliken charges =  -0.00000   1.00000

 Dipole moment (field-independent basis, Debye):
    X=              0.7925    Y=             -1.8989    Z=              0.1018  Tot=              2.0601
 Quadrupole moment (field-independent basis, Debye-Ang):
   XX=            -71.8963   YY=            -70.9432   ZZ=            -62.5758
   XY=             -1.5531   XZ=             -1.1785   YZ=              0.2281

 Normal termination of Gaussian 16 at Sun Dec  3 16:46:05 2023.
