 Gaussian 16, Revision B.01,
 Gaussian 16:  ES64L-G16RevB.01 20-Dec-2017

 -------------------------
 #P B3LYP/6-311+g(d) force
 -------------------------

 -----
 DPGEN
 -----
 Symbolic Z-matrix:
 Charge =  0 Multiplicity = 2

                         Standard orientation:
 ---------------------------------------------------------------------
 Center     Atomic      Atomic             Coordinates (Angstroms)
 Number     Number       Type             X           Y           Z
 ---------------------------------------------------------------------
      1         11           0       -2.279475   -1.644135    1.482024
      2         11           0       -1.107066    1.060583   -0.517552
      3         11           0        2.311084    0.785970    1.172245
      4         11           0        0.726092   -1.935057   -0.702206
      5         11           0        3.993899   -1.621586   -0.576191
      6         11           0        0.485935    3.757454   -0.138210
      7         11           0       -4.130470   -0.403230   -0.720110
 ---------------------------------------------------------------------

 SCF Done:  E(UB3LYP) =  -1136.12181946     A.U. after   23 cycles

 The electronic state is 2-A.
 Alpha  occ. eigenvalues --  -38.45025 -38.44648 -38.43979 -38.43648 -38.43393
 Alpha  occ. eigenvalues --  -38.43368 -38.43243  -2.20828  -2.20493  -2.19839
 Alpha  occ. eigenvalues --   -2.19564  -2.19247  -2.19205  -2.19089  -1.14531
 Alpha  occ. eigenvalues --   -1.14510  -1.14428  -1.14174  -1.14159  -1.14127
 Alpha  occ. eigenvalues --   -1.13544  -1.13504  -1.13450  -1.13278  -1.13250
 Alpha  occ. eigenvalues --   -1.13198  -1.12900  -1.12882  -1.12872  -1.12862
 Alpha  occ. eigenvalues --   -1.12861  -1.12829  -1.12745  -1.12734  -1.12716
 Alpha  occ. eigenvalues --   -0.17544  -0.14098  -0.12393  -0.09869
 Alpha virt. eigenvalues --   -0.06876  -0.05481  -0.04530  -0.03431  -0.02963
 Alpha virt. eigenvalues --   -0.02393  -0.01574  -0.01295  -0.00948  -0.00439
 Alpha virt. eigenvalues --   -0.00280  -0.00127   0.00228   0.00568   0.00642

  Beta  occ. eigenvalues --  -38.45017 -38.44630 -38.43951 -38.43635 -38.43397
  Beta  occ. eigenvalues --  -38.43291 -38.43196  -2.20817  -2.20466  -2.19793
  Beta  occ. eigenvalues --   -2.19546  -2.19213  -2.19102  -2.19000  -1.14515
  Beta  occ. eigenvalues --   -1.14499  -1.14413  -1.14156  -1.14138  -1.14075
  Beta  occ. eigenvalues --   -1.13515  -1.13470  -1.13397  -1.13270  -1.13208
  Beta  occ. eigenvalues --   -1.13183  -1.12880  -1.12867  -1.12835  -1.12800
  Beta  occ. eigenvalues --   -1.12781  -1.12768  -1.12681  -1.12672  -1.12662
  Beta  occ. eigenvalues --   -0.16970  -0.13562  -0.12238
  Beta virt. eigenvalues --   -0.06747  -0.06280  -0.05273  -0.04177  -0.03126
  Beta virt. eigenvalues --   -0.02493  -0.02289  -0.01467  -0.01104  -0.00370
  Beta virt. eigenvalues --   -0.00336   0.00083   0.00197   0.00334   0.00631

 Mulliken charges and spin densities:
               1          2
     1  Na   0.468395   0.177617
     2  Na  -1.536166   0.099597
     3  Na  -0.092734   0.128733
     4  Na  -0.410855  -0.140653
     5  Na   0.448281   0.369103
     6  Na   0.802966  -0.021002
     7  Na   0.320114   0.386606
 Sum of Mulliken charges =  -0.00000   1.00000

 Dipole moment (field-independent basis, Debye):
    X=              0.3715    Y=             -0.3773    Z=              0.8949  Tot=              1.0398
 Quadrupole moment (field-independent basis, Debye-Ang):
   XX=            -73.7543   YY=            -66.4099   ZZ=            -62.8585
   XY=              4.8634   XZ=             -0.8456   YZ=              0.3129

 Normal termination of Gaussian 16 at Wed Nov 29 02:50:11 2023.
