 Gaussian 16, Revision B.01,
 Gaussian 16:  ES64L-G16RevB.01 20-Dec-2017

 -------------------------
 #P B3LYP/6-311+g(d) force
 -------------------------

 -----
 DPGEN
 -----
 Symbolic Z-matrix:
 Charge =  0 Multiplicity = 2

                         Standard orientation:
 ---------------------------------------------------------------------
 Center     Atomic      Atomic             Coordinates (Angstroms)
 Number     Number       Type             X           Y           Z
 ---------------------------------------------------------------------
      1         11           0        3.263892    0.215396   -0.215284
      2         11           0        0.664222    3.397156   -0.132245
      3         11           0       -0.075162   -0.490913   -1.202905
      4         11           0        1.903429   -2.461308    0.239724
      5         11           0       -0.593299    0.586139    1.767484
      6         11           0       -2.296849   -2.698333   -0.029474
      7         11           0       -2.866233    1.451863   -0.427300
 ---------------------------------------------------------------------

 SCF Done:  E(UB3LYP) =  -1136.12398335     A.U. after   23 cycles

 The electronic state is 2-A.
 Alpha  occ. eigenvalues --  -38.44675 -38.44522 -38.44511 -38.44061 -38.44020
 Alpha  occ. eigenvalues --  -38.43032 -38.42783  -2.20486  -2.20281  -2.20277
 Alpha  occ. eigenvalues --   -2.19931  -2.19854  -2.19022  -2.18701  -1.14172
 Alpha  occ. eigenvalues --   -1.14158  -1.14096  -1.13960  -1.13955  -1.13935
 Alpha  occ. eigenvalues --   -1.13933  -1.13922  -1.13917  -1.13702  -1.13612
 Alpha  occ. eigenvalues --   -1.13567  -1.13511  -1.13489  -1.13447  -1.12761
 Alpha  occ. eigenvalues --   -1.12673  -1.12632  -1.12388  -1.12336  -1.12288
 Alpha  occ. eigenvalues --   -0.18088  -0.13241  -0.12403  -0.09480
 Alpha virt. eigenvalues --   -0.06382  -0.05531  -0.05256  -0.02968  -0.02477
 Alpha virt. eigenvalues --   -0.01962  -0.01753  -0.01555  -0.01001  -0.00793
 Alpha virt. eigenvalues --    0.00013   0.00281   0.00626   0.00716   0.00760

  Beta  occ. eigenvalues --  -38.44659 -38.44519 -38.44510 -38.44057 -38.44016
  Beta  occ. eigenvalues --  -38.42994 -38.42697  -2.20459  -2.20282  -2.20274
  Beta  occ. eigenvalues --   -2.19926  -2.19849  -2.18957  -2.18542  -1.14150
  Beta  occ. eigenvalues --   -1.14120  -1.14080  -1.13955  -1.13937  -1.13933
  Beta  occ. eigenvalues --   -1.13926  -1.13924  -1.13917  -1.13700  -1.13609
  Beta  occ. eigenvalues --   -1.13546  -1.13498  -1.13480  -1.13446  -1.12692
  Beta  occ. eigenvalues --   -1.12623  -1.12585  -1.12280  -1.12223  -1.12173
  Beta  occ. eigenvalues --   -0.17442  -0.13016  -0.12221
  Beta virt. eigenvalues --   -0.06347  -0.05770  -0.05413  -0.05194  -0.02252
  Beta virt. eigenvalues --   -0.01907  -0.01853  -0.01639  -0.01057  -0.00829
  Beta virt. eigenvalues --   -0.00634   0.00193   0.00360   0.00653   0.00778

 Mulliken charges and spin densities:
               1          2
     1  Na   0.059253  -0.013374
     2  Na   0.010275  -0.018514
     3  Na  -0.236931   0.467293
     4  Na   0.154178  -0.001367
     5  Na  -0.239533   0.622926
     6  Na   0.209077  -0.050219
     7  Na   0.043681  -0.006745
 Sum of Mulliken charges =  -0.00000   1.00000

 Dipole moment (field-independent basis, Debye):
    X=             -0.2630    Y=              0.0161    Z=              0.0799  Tot=              0.2753
 Quadrupole moment (field-independent basis, Debye-Ang):
   XX=            -54.8839   YY=            -54.4357   ZZ=            -80.5313
   XY=              1.4766   XZ=              0.6955   YZ=             -2.4318

 Normal termination of Gaussian 16 at Thu Dec  7 05:38:44 2023.
