 Gaussian 16, Revision B.01,
 Gaussian 16:  ES64L-G16RevB.01 20-Dec-2017

 -------------------------
 #P B3LYP/6-311+g(d) force
 -------------------------

 -----
 DPGEN
 -----
 Symbolic Z-matrix:
 Charge =  0 Multiplicity = 2

                         Standard orientation:
 ---------------------------------------------------------------------
 Center     Atomic      Atomic             Coordinates (Angstroms)
 Number     Number       Type             X           Y           Z
 ---------------------------------------------------------------------
      1         11           0       -3.125566    1.419317   -0.176321
      2         11           0        0.397389    0.116296   -1.707890
      3         11           0       -3.101850   -2.023674    0.204746
      4         11           0        0.337266    2.899096   -0.174492
      5         11           0        2.069203   -2.590715   -0.735343
      6         11           0        3.436289    0.724279    0.688914
      7         11           0       -0.012733   -0.544598    1.900385
 ---------------------------------------------------------------------

 SCF Done:  E(UB3LYP) =  -1136.12544157     A.U. after   21 cycles

 The electronic state is 2-A.
 Alpha  occ. eigenvalues --  -38.45030 -38.44567 -38.44547 -38.44214 -38.43704
 Alpha  occ. eigenvalues --  -38.43553 -38.42822  -2.20804  -2.20367  -2.20323
 Alpha  occ. eigenvalues --   -2.19978  -2.19512  -2.19457  -2.18654  -1.14474
 Alpha  occ. eigenvalues --   -1.14446  -1.14437  -1.14058  -1.14018  -1.14014
 Alpha  occ. eigenvalues --   -1.13983  -1.13970  -1.13953  -1.13650  -1.13633
 Alpha  occ. eigenvalues --   -1.13623  -1.13211  -1.13160  -1.13149  -1.13137
 Alpha  occ. eigenvalues --   -1.13105  -1.13056  -1.12354  -1.12319  -1.12274
 Alpha  occ. eigenvalues --   -0.17616  -0.13234  -0.11742  -0.10555
 Alpha virt. eigenvalues --   -0.06540  -0.05748  -0.04385  -0.03244  -0.02671
 Alpha virt. eigenvalues --   -0.02436  -0.02254  -0.01460  -0.00923  -0.00455
 Alpha virt. eigenvalues --   -0.00164   0.00227   0.00556   0.00636   0.00681

  Beta  occ. eigenvalues --  -38.44999 -38.44548 -38.44510 -38.44217 -38.43673
  Beta  occ. eigenvalues --  -38.43486 -38.42821  -2.20747  -2.20326  -2.20262
  Beta  occ. eigenvalues --   -2.19985  -2.19456  -2.19335  -2.18656  -1.14421
  Beta  occ. eigenvalues --   -1.14407  -1.14400  -1.14012  -1.13988  -1.13982
  Beta  occ. eigenvalues --   -1.13953  -1.13948  -1.13889  -1.13649  -1.13640
  Beta  occ. eigenvalues --   -1.13626  -1.13154  -1.13122  -1.13103  -1.13056
  Beta  occ. eigenvalues --   -1.13023  -1.12969  -1.12351  -1.12317  -1.12264
  Beta  occ. eigenvalues --   -0.16978  -0.13029  -0.11457
  Beta virt. eigenvalues --   -0.06865  -0.06277  -0.05685  -0.04277  -0.02715
  Beta virt. eigenvalues --   -0.02112  -0.02068  -0.01543  -0.01258  -0.00902
  Beta virt. eigenvalues --   -0.00440   0.00001   0.00296   0.00667   0.00720

 Mulliken charges and spin densities:
               1          2
     1  Na  -0.070213  -0.048266
     2  Na   0.328909   0.372450
     3  Na   0.052529  -0.048407
     4  Na  -0.118010  -0.016543
     5  Na  -0.095557   0.039556
     6  Na   0.077416   0.225162
     7  Na  -0.175074   0.476048
 Sum of Mulliken charges =  -0.00000   1.00000

 Dipole moment (field-independent basis, Debye):
    X=              0.0667    Y=             -0.1371    Z=              0.2654  Tot=              0.3061
 Quadrupole moment (field-independent basis, Debye-Ang):
   XX=            -52.5115   YY=            -66.2431   ZZ=            -75.1396
   XY=              0.0239   XZ=              1.7147   YZ=              1.5534

 Normal termination of Gaussian 16 at Thu Dec  7 14:15:44 2023.
