 Gaussian 16, Revision B.01,
 Gaussian 16:  ES64L-G16RevB.01 20-Dec-2017

 -------------------------
 #P B3LYP/6-311+g(d) force
 -------------------------

 -----
 DPGEN
 -----
 Symbolic Z-matrix:
 Charge =  0 Multiplicity = 2

                         Standard orientation:
 ---------------------------------------------------------------------
 Center     Atomic      Atomic             Coordinates (Angstroms)
 Number     Number       Type             X           Y           Z
 ---------------------------------------------------------------------
      1         11           0       -3.182332    0.119677   -0.341873
      2         11           0        0.184610   -0.384175    1.893251
      3         11           0       -1.834534   -2.687497    0.104639
      4         11           0        3.148666   -1.770938   -0.354710
      5         11           0       -1.130617    2.964635    0.264232
      6         11           0        2.927190    1.528888   -0.002229
      7         11           0       -0.112983    0.229411   -1.563311
 ---------------------------------------------------------------------

 SCF Done:  E(UB3LYP) =  -1136.12950288     A.U. after   21 cycles

 The electronic state is 2-A.
 Alpha  occ. eigenvalues --  -38.44713 -38.44566 -38.44220 -38.43817 -38.43384
 Alpha  occ. eigenvalues --  -38.43344 -38.43094  -2.20514  -2.20350  -2.20096
 Alpha  occ. eigenvalues --   -2.19721  -2.19223  -2.19213  -2.18904  -1.14193
 Alpha  occ. eigenvalues --   -1.14181  -1.14158  -1.14015  -1.14000  -1.13983
 Alpha  occ. eigenvalues --   -1.13789  -1.13756  -1.13732  -1.13427  -1.13354
 Alpha  occ. eigenvalues --   -1.13346  -1.12905  -1.12893  -1.12877  -1.12872
 Alpha  occ. eigenvalues --   -1.12832  -1.12817  -1.12572  -1.12567  -1.12551
 Alpha  occ. eigenvalues --   -0.18077  -0.13666  -0.11784  -0.10211
 Alpha virt. eigenvalues --   -0.06145  -0.05863  -0.04553  -0.03324  -0.02552
 Alpha virt. eigenvalues --   -0.02120  -0.02064  -0.01471  -0.00795  -0.00552
 Alpha virt. eigenvalues --   -0.00040   0.00284   0.00628   0.00708   0.00831

  Beta  occ. eigenvalues --  -38.44710 -38.44557 -38.44207 -38.43774 -38.43382
  Beta  occ. eigenvalues --  -38.43248 -38.43091  -2.20510  -2.20334  -2.20075
  Beta  occ. eigenvalues --   -2.19642  -2.19222  -2.19036  -2.18901  -1.14183
  Beta  occ. eigenvalues --   -1.14179  -1.14145  -1.14001  -1.13981  -1.13975
  Beta  occ. eigenvalues --   -1.13770  -1.13730  -1.13717  -1.13363  -1.13298
  Beta  occ. eigenvalues --   -1.13287  -1.12899  -1.12877  -1.12850  -1.12773
  Beta  occ. eigenvalues --   -1.12711  -1.12694  -1.12569  -1.12565  -1.12537
  Beta  occ. eigenvalues --   -0.17406  -0.13409  -0.11590
  Beta virt. eigenvalues --   -0.06465  -0.05970  -0.05849  -0.04472  -0.02641
  Beta virt. eigenvalues --   -0.01941  -0.01849  -0.01410  -0.01228  -0.00760
  Beta virt. eigenvalues --   -0.00570   0.00129   0.00347   0.00714   0.00721

 Mulliken charges and spin densities:
               1          2
     1  Na   0.325981   0.108134
     2  Na  -0.256285   0.692950
     3  Na   0.030238  -0.057843
     4  Na  -0.022512   0.007805
     5  Na  -0.193108  -0.023335
     6  Na   0.110881   0.023835
     7  Na   0.004805   0.248453
 Sum of Mulliken charges =  -0.00000   1.00000

 Dipole moment (field-independent basis, Debye):
    X=              0.6529    Y=             -0.0441    Z=             -0.0189  Tot=              0.6547
 Quadrupole moment (field-independent basis, Debye-Ang):
   XX=            -53.9702   YY=            -62.7083   ZZ=            -76.7287
   XY=             -0.2450   XZ=             -0.4047   YZ=              1.8368

 Normal termination of Gaussian 16 at Tue Dec  5 14:28:20 2023.
