 Gaussian 16, Revision B.01,
 Gaussian 16:  ES64L-G16RevB.01 20-Dec-2017

 -------------------------
 #P B3LYP/6-311+g(d) force
 -------------------------

 -----
 DPGEN
 -----
 Symbolic Z-matrix:
 Charge =  0 Multiplicity = 2

                         Standard orientation:
 ---------------------------------------------------------------------
 Center     Atomic      Atomic             Coordinates (Angstroms)
 Number     Number       Type             X           Y           Z
 ---------------------------------------------------------------------
      1         11           0       -0.649105   -2.554936   -0.812399
      2         11           0       -0.425670   -0.481537    2.598091
      3         11           0       -1.944758    2.628598    0.067510
      4         11           0       -3.024476   -0.584947   -0.514742
      5         11           0        0.313476    0.450237   -1.161890
      6         11           0        2.806702    2.118439   -0.286449
      7         11           0        2.923831   -1.575854    0.109878
 ---------------------------------------------------------------------

 SCF Done:  E(UB3LYP) =  -1136.12647344     A.U. after   20 cycles

 The electronic state is 2-A.
 Alpha  occ. eigenvalues --  -38.44596 -38.44400 -38.44266 -38.44049 -38.43794
 Alpha  occ. eigenvalues --  -38.43065 -38.42992  -2.20374  -2.20203  -2.20064
 Alpha  occ. eigenvalues --   -2.19920  -2.19594  -2.19061  -2.18882  -1.14052
 Alpha  occ. eigenvalues --   -1.14036  -1.14007  -1.13841  -1.13824  -1.13814
 Alpha  occ. eigenvalues --   -1.13768  -1.13719  -1.13683  -1.13614  -1.13576
 Alpha  occ. eigenvalues --   -1.13560  -1.13271  -1.13251  -1.13235  -1.12774
 Alpha  occ. eigenvalues --   -1.12752  -1.12681  -1.12557  -1.12528  -1.12501
 Alpha  occ. eigenvalues --   -0.18030  -0.13196  -0.11903  -0.10997
 Alpha virt. eigenvalues --   -0.06055  -0.05703  -0.04215  -0.03175  -0.03059
 Alpha virt. eigenvalues --   -0.02566  -0.01773  -0.01405  -0.00703  -0.00312
 Alpha virt. eigenvalues --   -0.00110   0.00280   0.00621   0.00736   0.00852

  Beta  occ. eigenvalues --  -38.44597 -38.44273 -38.44266 -38.44038 -38.43793
  Beta  occ. eigenvalues --  -38.43039 -38.42974  -2.20376  -2.20064  -2.19965
  Beta  occ. eigenvalues --   -2.19902  -2.19593  -2.19016  -2.18853  -1.14043
  Beta  occ. eigenvalues --   -1.14038  -1.14011  -1.13764  -1.13716  -1.13684
  Beta  occ. eigenvalues --   -1.13680  -1.13665  -1.13647  -1.13599  -1.13557
  Beta  occ. eigenvalues --   -1.13539  -1.13269  -1.13241  -1.13237  -1.12745
  Beta  occ. eigenvalues --   -1.12705  -1.12651  -1.12534  -1.12508  -1.12466
  Beta  occ. eigenvalues --   -0.17397  -0.13041  -0.11739
  Beta virt. eigenvalues --   -0.06858  -0.05952  -0.05615  -0.04181  -0.02539
  Beta virt. eigenvalues --   -0.02074  -0.01783  -0.01638  -0.01322  -0.00712
  Beta virt. eigenvalues --   -0.00315   0.00139   0.00341   0.00730   0.00765

 Mulliken charges and spin densities:
               1          2
     1  Na   0.349499   0.110532
     2  Na  -0.714124   0.772187
     3  Na  -0.038304   0.087941
     4  Na   0.442835   0.036371
     5  Na  -0.152106  -0.135493
     6  Na   0.008106   0.071049
     7  Na   0.104095   0.057413
 Sum of Mulliken charges =  -0.00000   1.00000

 Dipole moment (field-independent basis, Debye):
    X=              0.5002    Y=              0.1101    Z=              0.3194  Tot=              0.6036
 Quadrupole moment (field-independent basis, Debye-Ang):
   XX=            -54.3751   YY=            -64.8419   ZZ=            -74.6508
   XY=             -1.0036   XZ=              1.3599   YZ=              1.1495

 Normal termination of Gaussian 16 at Sat Dec  9 06:18:13 2023.
