 Gaussian 16, Revision B.01,
 Gaussian 16:  ES64L-G16RevB.01 20-Dec-2017

 -------------------------
 #P B3LYP/6-311+g(d) force
 -------------------------

 -----
 DPGEN
 -----
 Symbolic Z-matrix:
 Charge =  0 Multiplicity = 2

                         Standard orientation:
 ---------------------------------------------------------------------
 Center     Atomic      Atomic             Coordinates (Angstroms)
 Number     Number       Type             X           Y           Z
 ---------------------------------------------------------------------
      1         11           0       -2.917686   -0.771336   -0.288220
      2         11           0       -1.797283    2.351077    0.059357
      3         11           0        0.101282    0.113319   -1.669595
      4         11           0       -0.556557   -2.713832    0.162851
      5         11           0        1.888492    2.349145    0.003904
      6         11           0        0.183134   -0.045595    2.005766
      7         11           0        3.098617   -1.282777   -0.274063
 ---------------------------------------------------------------------

 SCF Done:  E(UB3LYP) =  -1136.13768160     A.U. after   19 cycles

 The electronic state is 2-A.
 Alpha  occ. eigenvalues --  -38.44257 -38.43840 -38.43647 -38.43484 -38.43424
 Alpha  occ. eigenvalues --  -38.43258 -38.43219  -2.20038  -2.19674  -2.19539
 Alpha  occ. eigenvalues --   -2.19390  -2.19279  -2.19191  -2.19151  -1.13716
 Alpha  occ. eigenvalues --   -1.13684  -1.13684  -1.13367  -1.13348  -1.13291
 Alpha  occ. eigenvalues --   -1.13246  -1.13206  -1.13189  -1.13069  -1.13025
 Alpha  occ. eigenvalues --   -1.13005  -1.12963  -1.12941  -1.12911  -1.12881
 Alpha  occ. eigenvalues --   -1.12844  -1.12815  -1.12804  -1.12792  -1.12768
 Alpha  occ. eigenvalues --   -0.18747  -0.13036  -0.12436  -0.10753
 Alpha virt. eigenvalues --   -0.05731  -0.05261  -0.04497  -0.03171  -0.02894
 Alpha virt. eigenvalues --   -0.02532  -0.01624  -0.01181  -0.00327  -0.00245
 Alpha virt. eigenvalues --   -0.00008   0.00348   0.00785   0.00846   0.00924

  Beta  occ. eigenvalues --  -38.44253 -38.43836 -38.43641 -38.43420 -38.43388
  Beta  occ. eigenvalues --  -38.43250 -38.43156  -2.20033  -2.19669  -2.19531
  Beta  occ. eigenvalues --   -2.19275  -2.19215  -2.19141  -2.19074  -1.13698
  Beta  occ. eigenvalues --   -1.13683  -1.13681  -1.13360  -1.13325  -1.13290
  Beta  occ. eigenvalues --   -1.13243  -1.13202  -1.13159  -1.12965  -1.12950
  Beta  occ. eigenvalues --   -1.12927  -1.12910  -1.12894  -1.12878  -1.12829
  Beta  occ. eigenvalues --   -1.12788  -1.12771  -1.12768  -1.12733  -1.12713
  Beta  occ. eigenvalues --   -0.18010  -0.12790  -0.12193
  Beta virt. eigenvalues --   -0.06839  -0.05716  -0.05221  -0.04476  -0.02394
  Beta virt. eigenvalues --   -0.02106  -0.01545  -0.01459  -0.01117  -0.00382
  Beta virt. eigenvalues --   -0.00281   0.00123   0.00373   0.00829   0.00855

 Mulliken charges and spin densities:
               1          2
     1  Na   0.152136   0.006797
     2  Na   0.177608  -0.032235
     3  Na  -0.305858   0.544638
     4  Na   0.275445  -0.015747
     5  Na   0.095628  -0.114470
     6  Na  -0.423586   0.710947
     7  Na   0.028628  -0.099930
 Sum of Mulliken charges =  -0.00000   1.00000

 Dipole moment (field-independent basis, Debye):
    X=              0.4402    Y=              0.1080    Z=              0.0679  Tot=              0.4583
 Quadrupole moment (field-independent basis, Debye-Ang):
   XX=            -55.9031   YY=            -62.8620   ZZ=            -74.4191
   XY=             -0.4831   XZ=             -0.0664   YZ=              0.5386

 Normal termination of Gaussian 16 at Fri Dec  8 03:36:03 2023.
