 Gaussian 16, Revision B.01,
 Gaussian 16:  ES64L-G16RevB.01 20-Dec-2017

 -------------------------
 #P B3LYP/6-311+g(d) force
 -------------------------

 -----
 DPGEN
 -----
 Symbolic Z-matrix:
 Charge =  0 Multiplicity = 2

                         Standard orientation:
 ---------------------------------------------------------------------
 Center     Atomic      Atomic             Coordinates (Angstroms)
 Number     Number       Type             X           Y           Z
 ---------------------------------------------------------------------
      1         11           0        0.841425   -2.304355   -0.801760
      2         11           0        0.737060    2.934847   -0.571658
      3         11           0        3.183262   -0.238601   -0.027579
      4         11           0       -0.542462   -0.058641   -1.605226
      5         11           0        0.915761   -0.139627    2.304899
      6         11           0       -2.527041    1.561117    0.386610
      7         11           0       -2.608005   -1.754741    0.314713
 ---------------------------------------------------------------------

 SCF Done:  E(UB3LYP) =  -1136.12750573     A.U. after   20 cycles

 The electronic state is 2-A.
 Alpha  occ. eigenvalues --  -38.44500 -38.44197 -38.43844 -38.43666 -38.43544
 Alpha  occ. eigenvalues --  -38.43400 -38.43317  -2.20335  -2.20042  -2.19692
 Alpha  occ. eigenvalues --   -2.19584  -2.19516  -2.19346  -2.19120  -1.13994
 Alpha  occ. eigenvalues --   -1.13972  -1.13958  -1.13717  -1.13710  -1.13675
 Alpha  occ. eigenvalues --   -1.13518  -1.13406  -1.13360  -1.13324  -1.13233
 Alpha  occ. eigenvalues --   -1.13204  -1.13171  -1.13156  -1.13127  -1.12957
 Alpha  occ. eigenvalues --   -1.12953  -1.12915  -1.12802  -1.12771  -1.12750
 Alpha  occ. eigenvalues --   -0.18519  -0.13302  -0.12108  -0.11244
 Alpha virt. eigenvalues --   -0.05722  -0.05028  -0.04347  -0.03750  -0.03075
 Alpha virt. eigenvalues --   -0.02782  -0.01478  -0.00958  -0.00303  -0.00075
 Alpha virt. eigenvalues --    0.00009   0.00372   0.00708   0.00801   0.00878

  Beta  occ. eigenvalues --  -38.44409 -38.44197 -38.43838 -38.43660 -38.43485
  Beta  occ. eigenvalues --  -38.43373 -38.43305  -2.20165  -2.20046  -2.19684
  Beta  occ. eigenvalues --   -2.19506  -2.19479  -2.19300  -2.19100  -1.13887
  Beta  occ. eigenvalues --   -1.13853  -1.13841  -1.13720  -1.13686  -1.13671
  Beta  occ. eigenvalues --   -1.13451  -1.13394  -1.13342  -1.13314  -1.13200
  Beta  occ. eigenvalues --   -1.13160  -1.13142  -1.13135  -1.13074  -1.12923
  Beta  occ. eigenvalues --   -1.12902  -1.12875  -1.12777  -1.12757  -1.12739
  Beta  occ. eigenvalues --   -0.17822  -0.13050  -0.11868
  Beta virt. eigenvalues --   -0.07378  -0.05511  -0.04999  -0.04263  -0.03005
  Beta virt. eigenvalues --   -0.02288  -0.01910  -0.01361  -0.00908  -0.00277
  Beta virt. eigenvalues --   -0.00025   0.00110   0.00408   0.00846   0.00882

 Mulliken charges and spin densities:
               1          2
     1  Na   0.431543   0.046848
     2  Na   0.013953  -0.041463
     3  Na   0.205815   0.035986
     4  Na   0.138393   0.158318
     5  Na  -0.620693   0.606829
     6  Na  -0.075933   0.078761
     7  Na  -0.093078   0.114721
 Sum of Mulliken charges =  -0.00000   1.00000

 Dipole moment (field-independent basis, Debye):
    X=              0.1237    Y=              0.0198    Z=              0.5752  Tot=              0.5887
 Quadrupole moment (field-independent basis, Debye-Ang):
   XX=            -57.4040   YY=            -67.1922   ZZ=            -70.9846
   XY=              1.1521   XZ=             -3.0793   YZ=             -0.2945

 Normal termination of Gaussian 16 at Tue Dec  5 23:40:27 2023.
