 Gaussian 16, Revision B.01,
 Gaussian 16:  ES64L-G16RevB.01 20-Dec-2017

 -------------------------
 #P B3LYP/6-311+g(d) force
 -------------------------

 -----
 DPGEN
 -----
 Symbolic Z-matrix:
 Charge =  0 Multiplicity = 2

                         Standard orientation:
 ---------------------------------------------------------------------
 Center     Atomic      Atomic             Coordinates (Angstroms)
 Number     Number       Type             X           Y           Z
 ---------------------------------------------------------------------
      1         11           0       -2.801547   -1.426216   -0.361883
      2         11           0       -2.716657    2.023314    0.074173
      3         11           0        0.897076   -2.993313   -0.154601
      4         11           0        3.329436    0.118834   -0.280972
      5         11           0       -0.035883   -0.851370    2.025477
      6         11           0        0.048579    0.196346   -1.625481
      7         11           0        1.278995    2.932405    0.323287
 ---------------------------------------------------------------------

 SCF Done:  E(UB3LYP) =  -1136.13369285     A.U. after   20 cycles

 The electronic state is 2-A.
 Alpha  occ. eigenvalues --  -38.44375 -38.44164 -38.44121 -38.43828 -38.43666
 Alpha  occ. eigenvalues --  -38.43470 -38.43357  -2.20166  -2.19980  -2.19897
 Alpha  occ. eigenvalues --   -2.19615  -2.19494  -2.19338  -2.19261  -1.13844
 Alpha  occ. eigenvalues --   -1.13823  -1.13801  -1.13659  -1.13652  -1.13614
 Alpha  occ. eigenvalues --   -1.13571  -1.13550  -1.13536  -1.13289  -1.13280
 Alpha  occ. eigenvalues --   -1.13250  -1.13210  -1.13157  -1.13126  -1.12992
 Alpha  occ. eigenvalues --   -1.12959  -1.12954  -1.12950  -1.12898  -1.12883
 Alpha  occ. eigenvalues --   -0.17909  -0.12918  -0.12373  -0.10271
 Alpha virt. eigenvalues --   -0.05819  -0.05609  -0.05014  -0.03047  -0.02931
 Alpha virt. eigenvalues --   -0.02270  -0.01699  -0.01338  -0.00777  -0.00767
 Alpha virt. eigenvalues --   -0.00023   0.00336   0.00733   0.00779   0.00807

  Beta  occ. eigenvalues --  -38.44369 -38.44154 -38.44122 -38.43822 -38.43661
  Beta  occ. eigenvalues --  -38.43383 -38.43299  -2.20157  -2.19965  -2.19901
  Beta  occ. eigenvalues --   -2.19605  -2.19491  -2.19177  -2.19155  -1.13823
  Beta  occ. eigenvalues --   -1.13816  -1.13799  -1.13647  -1.13627  -1.13605
  Beta  occ. eigenvalues --   -1.13565  -1.13552  -1.13535  -1.13277  -1.13269
  Beta  occ. eigenvalues --   -1.13243  -1.13193  -1.13134  -1.13125  -1.12894
  Beta  occ. eigenvalues --   -1.12870  -1.12848  -1.12842  -1.12820  -1.12804
  Beta  occ. eigenvalues --   -0.17230  -0.12723  -0.12154
  Beta virt. eigenvalues --   -0.06499  -0.05758  -0.05598  -0.04836  -0.02370
  Beta virt. eigenvalues --   -0.02225  -0.01602  -0.01313  -0.01269  -0.00797
  Beta virt. eigenvalues --   -0.00777   0.00145   0.00383   0.00782   0.00795

 Mulliken charges and spin densities:
               1          2
     1  Na   0.196805  -0.061369
     2  Na  -0.111274  -0.042803
     3  Na   0.248239  -0.127148
     4  Na   0.096991  -0.047190
     5  Na  -0.413355   0.791004
     6  Na   0.143531   0.498639
     7  Na  -0.160938  -0.011133
 Sum of Mulliken charges =  -0.00000   1.00000

 Dipole moment (field-independent basis, Debye):
    X=              0.0379    Y=             -0.0289    Z=             -0.0393  Tot=              0.0618
 Quadrupole moment (field-independent basis, Debye-Ang):
   XX=            -55.7096   YY=            -60.8913   ZZ=            -76.4847
   XY=             -0.7173   XZ=             -0.1284   YZ=              2.7243

 Normal termination of Gaussian 16 at Thu Dec  7 02:52:48 2023.
