 Gaussian 16, Revision B.01,
 Gaussian 16:  ES64L-G16RevB.01 20-Dec-2017

 -------------------------
 #P B3LYP/6-311+g(d) force
 -------------------------

 -----
 DPGEN
 -----
 Symbolic Z-matrix:
 Charge =  0 Multiplicity = 2

                         Standard orientation:
 ---------------------------------------------------------------------
 Center     Atomic      Atomic             Coordinates (Angstroms)
 Number     Number       Type             X           Y           Z
 ---------------------------------------------------------------------
      1         11           0        0.964925   -2.092150   -0.214945
      2         11           0        2.342963    1.719514    0.152397
      3         11           0       -1.463567    0.861108   -1.194918
      4         11           0       -2.131236   -2.867523   -0.506968
      5         11           0       -3.245540   -0.394251    1.401702
      6         11           0       -0.595177    4.147487   -0.015475
      7         11           0        4.127633   -1.374186    0.378208
 ---------------------------------------------------------------------

 SCF Done:  E(UB3LYP) =  -1136.12417995     A.U. after   20 cycles

 The electronic state is 2-A.
 Alpha  occ. eigenvalues --  -38.44887 -38.44877 -38.44231 -38.44052 -38.43504
 Alpha  occ. eigenvalues --  -38.43499 -38.43484  -2.20681  -2.20649  -2.19996
 Alpha  occ. eigenvalues --   -2.19916  -2.19361  -2.19354  -2.19324  -1.14392
 Alpha  occ. eigenvalues --   -1.14383  -1.14360  -1.14345  -1.14267  -1.14232
 Alpha  occ. eigenvalues --   -1.13668  -1.13661  -1.13622  -1.13605  -1.13582
 Alpha  occ. eigenvalues --   -1.13547  -1.13042  -1.13035  -1.13020  -1.13005
 Alpha  occ. eigenvalues --   -1.12994  -1.12978  -1.12973  -1.12962  -1.12916
 Alpha  occ. eigenvalues --   -0.17018  -0.13727  -0.12943  -0.09917
 Alpha virt. eigenvalues --   -0.06324  -0.05906  -0.05022  -0.03175  -0.02559
 Alpha virt. eigenvalues --   -0.02163  -0.01944  -0.01621  -0.01401  -0.01025
 Alpha virt. eigenvalues --    0.00009   0.00171   0.00353   0.00528   0.00644

  Beta  occ. eigenvalues --  -38.44881 -38.44872 -38.44228 -38.44026 -38.43480
  Beta  occ. eigenvalues --  -38.43448 -38.43403  -2.20675  -2.20639  -2.19991
  Beta  occ. eigenvalues --   -2.19876  -2.19291  -2.19278  -2.19181  -1.14386
  Beta  occ. eigenvalues --   -1.14356  -1.14355  -1.14340  -1.14270  -1.14212
  Beta  occ. eigenvalues --   -1.13664  -1.13657  -1.13618  -1.13576  -1.13538
  Beta  occ. eigenvalues --   -1.13496  -1.13007  -1.12995  -1.12976  -1.12946
  Beta  occ. eigenvalues --   -1.12923  -1.12880  -1.12870  -1.12863  -1.12858
  Beta  occ. eigenvalues --   -0.16531  -0.13229  -0.12615
  Beta virt. eigenvalues --   -0.06297  -0.06154  -0.05859  -0.04759  -0.02727
  Beta virt. eigenvalues --   -0.02295  -0.01911  -0.01806  -0.01385  -0.01150
  Beta virt. eigenvalues --   -0.00576   0.00313   0.00359   0.00448   0.00620

 Mulliken charges and spin densities:
               1          2
     1  Na  -1.667004   0.154498
     2  Na  -0.449407   0.038119
     3  Na  -0.426808   0.216676
     4  Na   0.761270  -0.227183
     5  Na   0.125874   0.417598
     6  Na   0.325963  -0.040521
     7  Na   1.330112   0.440813
 Sum of Mulliken charges =  -0.00000   1.00000

 Dipole moment (field-independent basis, Debye):
    X=              0.1702    Y=              0.5719    Z=             -0.1066  Tot=              0.6061
 Quadrupole moment (field-independent basis, Debye-Ang):
   XX=            -68.4692   YY=            -58.7326   ZZ=            -71.1387
   XY=              1.1642   XZ=              3.3697   YZ=              1.0822

 Normal termination of Gaussian 16 at Tue Nov 28 19:54:41 2023.
