 Gaussian 16, Revision B.01,
 Gaussian 16:  ES64L-G16RevB.01 20-Dec-2017

 -------------------------
 #P B3LYP/6-311+g(d) force
 -------------------------

 -----
 DPGEN
 -----
 Symbolic Z-matrix:
 Charge =  0 Multiplicity = 2

                         Standard orientation:
 ---------------------------------------------------------------------
 Center     Atomic      Atomic             Coordinates (Angstroms)
 Number     Number       Type             X           Y           Z
 ---------------------------------------------------------------------
      1         11           0        2.262049    1.614393    0.159773
      2         11           0        5.804111    0.317287    0.020016
      3         11           0        3.191410   -2.184448   -0.074742
      4         11           0        0.027841   -1.290706   -0.284820
      5         11           0       -0.988033    2.327064   -0.231857
      6         11           0       -3.753995   -0.471113    0.800621
      7         11           0       -6.543383   -0.312477   -0.388992
 ---------------------------------------------------------------------

 SCF Done:  E(UB3LYP) =  -1136.11936217     A.U. after   21 cycles

 The electronic state is 2-A.
 Alpha  occ. eigenvalues --  -38.44620 -38.44560 -38.44436 -38.44229 -38.44184
 Alpha  occ. eigenvalues --  -38.43915 -38.43716  -2.20447  -2.20407  -2.20261
 Alpha  occ. eigenvalues --   -2.20011  -2.19992  -2.19706  -2.19534  -1.14147
 Alpha  occ. eigenvalues --   -1.14130  -1.14090  -1.14082  -1.14046  -1.14009
 Alpha  occ. eigenvalues --   -1.13934  -1.13920  -1.13865  -1.13674  -1.13668
 Alpha  occ. eigenvalues --   -1.13660  -1.13642  -1.13627  -1.13616  -1.13436
 Alpha  occ. eigenvalues --   -1.13360  -1.13359  -1.13204  -1.13190  -1.13129
 Alpha  occ. eigenvalues --   -0.16864  -0.13862  -0.12006  -0.11690
 Alpha virt. eigenvalues --   -0.06609  -0.05531  -0.04409  -0.03406  -0.03287
 Alpha virt. eigenvalues --   -0.02499  -0.02383  -0.01322  -0.01034  -0.00796
 Alpha virt. eigenvalues --   -0.00622  -0.00138   0.00041   0.00260   0.00684

  Beta  occ. eigenvalues --  -38.44581 -38.44490 -38.44393 -38.44191 -38.44158
  Beta  occ. eigenvalues --  -38.43922 -38.43714  -2.20376  -2.20282  -2.20186
  Beta  occ. eigenvalues --   -2.19945  -2.19940  -2.19720  -2.19530  -1.14101
  Beta  occ. eigenvalues --   -1.14073  -1.14002  -1.14001  -1.13985  -1.13912
  Beta  occ. eigenvalues --   -1.13889  -1.13862  -1.13783  -1.13629  -1.13626
  Beta  occ. eigenvalues --   -1.13614  -1.13597  -1.13590  -1.13585  -1.13443
  Beta  occ. eigenvalues --   -1.13368  -1.13368  -1.13199  -1.13187  -1.13133
  Beta  occ. eigenvalues --   -0.16107  -0.13721  -0.11666
  Beta virt. eigenvalues --   -0.07889  -0.06334  -0.05084  -0.04189  -0.03140
  Beta virt. eigenvalues --   -0.02740  -0.02298  -0.02044  -0.01236  -0.00866
  Beta virt. eigenvalues --   -0.00411  -0.00320   0.00033   0.00155   0.00396

 Mulliken charges and spin densities:
               1          2
     1  Na  -0.539913   0.265202
     2  Na   0.137441   0.229285
     3  Na   0.722631  -0.159701
     4  Na  -1.027992   0.700568
     5  Na   0.611408   0.034404
     6  Na  -0.368098  -0.017063
     7  Na   0.464523  -0.052694
 Sum of Mulliken charges =  -0.00000   1.00000

 Dipole moment (field-independent basis, Debye):
    X=              0.7915    Y=              0.3814    Z=             -0.3227  Tot=              0.9360
 Quadrupole moment (field-independent basis, Debye-Ang):
   XX=            -59.0338   YY=            -67.0147   ZZ=            -72.2561
   XY=             -3.0414   XZ=              3.8297   YZ=             -0.4612

 Normal termination of Gaussian 16 at Wed Nov 29 02:17:32 2023.
