 Gaussian 16, Revision B.01,
 Gaussian 16:  ES64L-G16RevB.01 20-Dec-2017

 -------------------------
 #P B3LYP/6-311+g(d) force
 -------------------------

 -----
 DPGEN
 -----
 Symbolic Z-matrix:
 Charge =  0 Multiplicity = 2

                         Standard orientation:
 ---------------------------------------------------------------------
 Center     Atomic      Atomic             Coordinates (Angstroms)
 Number     Number       Type             X           Y           Z
 ---------------------------------------------------------------------
      1         11           0        1.084976    1.583182   -0.976800
      2         11           0       -2.024148    2.235259   -0.098812
      3         11           0       -0.181188    0.042374    2.216160
      4         11           0        3.927280    0.327682    0.365472
      5         11           0       -1.162635   -0.927160   -1.804754
      6         11           0       -3.302778   -1.180849    0.557860
      7         11           0        1.658493   -2.080488   -0.259126
 ---------------------------------------------------------------------

 SCF Done:  E(UB3LYP) =  -1136.12398558     A.U. after   25 cycles

 The electronic state is 2-A.
 Alpha  occ. eigenvalues --  -38.45393 -38.44967 -38.44739 -38.43528 -38.43437
 Alpha  occ. eigenvalues --  -38.43000 -38.42819  -2.21186  -2.20785  -2.20546
 Alpha  occ. eigenvalues --   -2.19368  -2.19345  -2.18846  -2.18719  -1.14856
 Alpha  occ. eigenvalues --   -1.14842  -1.14824  -1.14454  -1.14414  -1.14405
 Alpha  occ. eigenvalues --   -1.14236  -1.14195  -1.14187  -1.13081  -1.13044
 Alpha  occ. eigenvalues --   -1.13013  -1.12993  -1.12988  -1.12948  -1.12537
 Alpha  occ. eigenvalues --   -1.12510  -1.12492  -1.12412  -1.12383  -1.12324
 Alpha  occ. eigenvalues --   -0.18349  -0.13801  -0.11379  -0.11044
 Alpha virt. eigenvalues --   -0.07159  -0.05075  -0.04180  -0.03252  -0.03034
 Alpha virt. eigenvalues --   -0.02619  -0.02415  -0.01025  -0.00715  -0.00182
 Alpha virt. eigenvalues --    0.00093   0.00169   0.00233   0.00699   0.00760

  Beta  occ. eigenvalues --  -38.45391 -38.44882 -38.44740 -38.43516 -38.43373
  Beta  occ. eigenvalues --  -38.42998 -38.42794  -2.21183  -2.20628  -2.20549
  Beta  occ. eigenvalues --   -2.19348  -2.19228  -2.18846  -2.18675  -1.14850
  Beta  occ. eigenvalues --   -1.14840  -1.14820  -1.14349  -1.14304  -1.14290
  Beta  occ. eigenvalues --   -1.14233  -1.14196  -1.14180  -1.13054  -1.13011
  Beta  occ. eigenvalues --   -1.12982  -1.12933  -1.12914  -1.12862  -1.12534
  Beta  occ. eigenvalues --   -1.12500  -1.12485  -1.12382  -1.12331  -1.12300
  Beta  occ. eigenvalues --   -0.17568  -0.13681  -0.10836
  Beta virt. eigenvalues --   -0.07442  -0.06921  -0.05064  -0.03604  -0.02967
  Beta virt. eigenvalues --   -0.02548  -0.01990  -0.01817  -0.00965  -0.00423
  Beta virt. eigenvalues --   -0.00195   0.00134   0.00187   0.00418   0.00757

 Mulliken charges and spin densities:
               1          2
     1  Na  -0.416328   0.102240
     2  Na  -0.086183   0.031361
     3  Na  -0.140982   0.568848
     4  Na   0.371700   0.033699
     5  Na   0.457285   0.280408
     6  Na   0.039318  -0.055036
     7  Na  -0.224810   0.038480
 Sum of Mulliken charges =  -0.00000   1.00000

 Dipole moment (field-independent basis, Debye):
    X=              0.6206    Y=             -0.0522    Z=              0.7619  Tot=              0.9840
 Quadrupole moment (field-independent basis, Debye-Ang):
   XX=            -46.1319   YY=            -77.5168   ZZ=            -69.8111
   XY=              0.6077   XZ=              0.5319   YZ=             -0.5682

 Normal termination of Gaussian 16 at Fri Dec  8 02:30:00 2023.
