 Gaussian 16, Revision B.01,
 Gaussian 16:  ES64L-G16RevB.01 20-Dec-2017

 -------------------------
 #P B3LYP/6-311+g(d) force
 -------------------------

 -----
 DPGEN
 -----
 Symbolic Z-matrix:
 Charge =  0 Multiplicity = 2

                         Standard orientation:
 ---------------------------------------------------------------------
 Center     Atomic      Atomic             Coordinates (Angstroms)
 Number     Number       Type             X           Y           Z
 ---------------------------------------------------------------------
      1         11           0       -2.065583   -2.350223   -1.281223
      2         11           0        1.583915   -1.536600   -1.372789
      3         11           0       -2.091334    2.468449   -0.996525
      4         11           0       -2.673604    0.070018    1.592536
      5         11           0        3.860936    0.790354   -0.023635
      6         11           0        0.529184    1.835043   -0.030593
      7         11           0        0.856486   -1.277041    2.112229
 ---------------------------------------------------------------------

 SCF Done:  E(UB3LYP) =  -1136.12197300     A.U. after   21 cycles

 The electronic state is 2-A.
 Alpha  occ. eigenvalues --  -38.44827 -38.44676 -38.44487 -38.44130 -38.43950
 Alpha  occ. eigenvalues --  -38.43417 -38.43261  -2.20614  -2.20462  -2.20294
 Alpha  occ. eigenvalues --   -2.19951  -2.19713  -2.19277  -2.19159  -1.14286
 Alpha  occ. eigenvalues --   -1.14276  -1.14243  -1.14139  -1.14118  -1.14091
 Alpha  occ. eigenvalues --   -1.13968  -1.13940  -1.13898  -1.13641  -1.13625
 Alpha  occ. eigenvalues --   -1.13551  -1.13380  -1.13361  -1.13346  -1.13141
 Alpha  occ. eigenvalues --   -1.12909  -1.12893  -1.12827  -1.12812  -1.12707
 Alpha  occ. eigenvalues --   -0.17523  -0.13322  -0.11802  -0.11057
 Alpha virt. eigenvalues --   -0.06462  -0.05290  -0.04781  -0.03456  -0.03021
 Alpha virt. eigenvalues --   -0.02412  -0.02168  -0.01143  -0.00749  -0.00201
 Alpha virt. eigenvalues --   -0.00028   0.00110   0.00227   0.00503   0.00762

  Beta  occ. eigenvalues --  -38.44827 -38.44653 -38.44412 -38.44099 -38.43915
  Beta  occ. eigenvalues --  -38.43407 -38.43255  -2.20615  -2.20420  -2.20155
  Beta  occ. eigenvalues --   -2.19895  -2.19648  -2.19258  -2.19150  -1.14285
  Beta  occ. eigenvalues --   -1.14273  -1.14245  -1.14097  -1.14092  -1.14059
  Beta  occ. eigenvalues --   -1.13873  -1.13842  -1.13799  -1.13603  -1.13584
  Beta  occ. eigenvalues --   -1.13503  -1.13331  -1.13311  -1.13306  -1.13128
  Beta  occ. eigenvalues --   -1.12893  -1.12882  -1.12818  -1.12790  -1.12702
  Beta  occ. eigenvalues --   -0.16916  -0.13216  -0.11437
  Beta virt. eigenvalues --   -0.07314  -0.06362  -0.05123  -0.04258  -0.03082
  Beta virt. eigenvalues --   -0.02525  -0.02088  -0.01673  -0.01014  -0.00426
  Beta virt. eigenvalues --   -0.00083   0.00054   0.00221   0.00265   0.00615

 Mulliken charges and spin densities:
               1          2
     1  Na  -0.248804   0.199457
     2  Na  -0.059502   0.202750
     3  Na   1.055981  -0.124304
     4  Na   0.100766   0.207984
     5  Na   0.785306  -0.028944
     6  Na  -1.585495   0.235327
     7  Na  -0.048253   0.307730
 Sum of Mulliken charges =  -0.00000   1.00000

 Dipole moment (field-independent basis, Debye):
    X=              0.6982    Y=             -0.1846    Z=              0.2741  Tot=              0.7724
 Quadrupole moment (field-independent basis, Debye-Ang):
   XX=            -49.8867   YY=            -75.6275   ZZ=            -69.2840
   XY=              0.6265   XZ=              0.3107   YZ=             -0.2762

 Normal termination of Gaussian 16 at Mon Dec  4 05:27:35 2023.
