 Gaussian 16, Revision B.01,
 Gaussian 16:  ES64L-G16RevB.01 20-Dec-2017

 -------------------------
 #P B3LYP/6-311+g(d) force
 -------------------------

 -----
 DPGEN
 -----
 Symbolic Z-matrix:
 Charge =  0 Multiplicity = 2

                         Standard orientation:
 ---------------------------------------------------------------------
 Center     Atomic      Atomic             Coordinates (Angstroms)
 Number     Number       Type             X           Y           Z
 ---------------------------------------------------------------------
      1         11           0       -3.117318    0.880361    0.010175
      2         11           0        0.529471    0.099150   -1.744750
      3         11           0       -0.011457    2.920677   -0.092831
      4         11           0        1.315370   -2.420933    0.328146
      5         11           0       -0.153693    0.156216    1.914170
      6         11           0        3.308182    0.555063    0.007898
      7         11           0       -1.870555   -2.190534   -0.422808
 ---------------------------------------------------------------------

 SCF Done:  E(UB3LYP) =  -1136.13748880     A.U. after   19 cycles

 The electronic state is 2-A.
 Alpha  occ. eigenvalues --  -38.44488 -38.44180 -38.43505 -38.43400 -38.43284
 Alpha  occ. eigenvalues --  -38.43223 -38.43213  -2.20293  -2.19992  -2.19340
 Alpha  occ. eigenvalues --   -2.19319  -2.19235  -2.19109  -2.19095  -1.13976
 Alpha  occ. eigenvalues --   -1.13945  -1.13932  -1.13666  -1.13661  -1.13629
 Alpha  occ. eigenvalues --   -1.13056  -1.13033  -1.13000  -1.12956  -1.12940
 Alpha  occ. eigenvalues --   -1.12934  -1.12920  -1.12873  -1.12860  -1.12810
 Alpha  occ. eigenvalues --   -1.12773  -1.12758  -1.12752  -1.12744  -1.12694
 Alpha  occ. eigenvalues --   -0.18658  -0.13020  -0.12444  -0.10695
 Alpha virt. eigenvalues --   -0.06076  -0.04818  -0.04668  -0.03186  -0.02937
 Alpha virt. eigenvalues --   -0.02474  -0.01807  -0.01001  -0.00433  -0.00208
 Alpha virt. eigenvalues --   -0.00006   0.00344   0.00819   0.00844   0.00895

  Beta  occ. eigenvalues --  -38.44487 -38.44179 -38.43500 -38.43313 -38.43215
  Beta  occ. eigenvalues --  -38.43213 -38.43201  -2.20293  -2.19993  -2.19334
  Beta  occ. eigenvalues --   -2.19160  -2.19109  -2.19092  -2.19080  -1.13966
  Beta  occ. eigenvalues --   -1.13936  -1.13935  -1.13668  -1.13644  -1.13632
  Beta  occ. eigenvalues --   -1.13042  -1.12997  -1.12953  -1.12907  -1.12848
  Beta  occ. eigenvalues --   -1.12835  -1.12823  -1.12804  -1.12787  -1.12767
  Beta  occ. eigenvalues --   -1.12743  -1.12737  -1.12718  -1.12711  -1.12686
  Beta  occ. eigenvalues --   -0.17925  -0.12808  -0.12185
  Beta virt. eigenvalues --   -0.06798  -0.06040  -0.04814  -0.04612  -0.02439
  Beta virt. eigenvalues --   -0.02134  -0.01733  -0.01433  -0.00925  -0.00486
  Beta virt. eigenvalues --   -0.00223   0.00119   0.00368   0.00831   0.00875

 Mulliken charges and spin densities:
               1          2
     1  Na   0.050000  -0.058732
     2  Na  -0.179966   0.651400
     3  Na   0.000194  -0.192661
     4  Na   0.194981   0.050565
     5  Na  -0.265351   0.680814
     6  Na   0.160651  -0.128621
     7  Na   0.039490  -0.002765
 Sum of Mulliken charges =  -0.00000   1.00000

 Dipole moment (field-independent basis, Debye):
    X=              0.2550    Y=              0.3601    Z=              0.0721  Tot=              0.4471
 Quadrupole moment (field-independent basis, Debye-Ang):
   XX=            -53.9669   YY=            -64.4400   ZZ=            -74.5219
   XY=              0.0068   XZ=              1.4231   YZ=             -0.0073

 Normal termination of Gaussian 16 at Thu Dec  7 11:12:10 2023.
