 Gaussian 16, Revision B.01,
 Gaussian 16:  ES64L-G16RevB.01 20-Dec-2017

 -------------------------
 #P B3LYP/6-311+g(d) force
 -------------------------

 -----
 DPGEN
 -----
 Symbolic Z-matrix:
 Charge =  0 Multiplicity = 2

                         Standard orientation:
 ---------------------------------------------------------------------
 Center     Atomic      Atomic             Coordinates (Angstroms)
 Number     Number       Type             X           Y           Z
 ---------------------------------------------------------------------
      1         11           0       -4.156390   -0.421060   -1.001816
      2         11           0        0.106368   -0.840116   -1.260294
      3         11           0        3.503804   -1.776585   -0.939221
      4         11           0        1.546960   -0.291424    1.938100
      5         11           0       -1.296670    2.010751   -0.304363
      6         11           0       -2.173953   -0.940128    1.723495
      7         11           0        2.469882    2.258563   -0.155902
 ---------------------------------------------------------------------

 SCF Done:  E(UB3LYP) =  -1136.12026703     A.U. after   29 cycles

 The electronic state is 2-A.
 Alpha  occ. eigenvalues --  -38.45217 -38.44854 -38.44400 -38.44340 -38.43877
 Alpha  occ. eigenvalues --  -38.43350 -38.43222  -2.21000  -2.20695  -2.20244
 Alpha  occ. eigenvalues --   -2.20185  -2.19667  -2.19182  -2.19014  -1.14670
 Alpha  occ. eigenvalues --   -1.14660  -1.14622  -1.14410  -1.14367  -1.14298
 Alpha  occ. eigenvalues --   -1.13935  -1.13894  -1.13857  -1.13851  -1.13844
 Alpha  occ. eigenvalues --   -1.13796  -1.13358  -1.13316  -1.13289  -1.12913
 Alpha  occ. eigenvalues --   -1.12864  -1.12759  -1.12683  -1.12675  -1.12643
 Alpha  occ. eigenvalues --   -0.17957  -0.13982  -0.11230  -0.10678
 Alpha virt. eigenvalues --   -0.07094  -0.05276  -0.05168  -0.03121  -0.02821
 Alpha virt. eigenvalues --   -0.02281  -0.02129  -0.01488  -0.01275  -0.00231
 Alpha virt. eigenvalues --   -0.00030   0.00104   0.00220   0.00483   0.00529

  Beta  occ. eigenvalues --  -38.45199 -38.44832 -38.44346 -38.44282 -38.43873
  Beta  occ. eigenvalues --  -38.43343 -38.43206  -2.20967  -2.20656  -2.20147
  Beta  occ. eigenvalues --   -2.20079  -2.19660  -2.19170  -2.18984  -1.14645
  Beta  occ. eigenvalues --   -1.14636  -1.14600  -1.14369  -1.14336  -1.14270
  Beta  occ. eigenvalues --   -1.13866  -1.13819  -1.13785  -1.13779  -1.13772
  Beta  occ. eigenvalues --   -1.13701  -1.13348  -1.13311  -1.13287  -1.12904
  Beta  occ. eigenvalues --   -1.12842  -1.12751  -1.12657  -1.12654  -1.12627
  Beta  occ. eigenvalues --   -0.17284  -0.13813  -0.10522
  Beta virt. eigenvalues --   -0.07333  -0.06897  -0.05085  -0.04636  -0.02746
  Beta virt. eigenvalues --   -0.02674  -0.01783  -0.01627  -0.01302  -0.00811
  Beta virt. eigenvalues --   -0.00130   0.00014   0.00210   0.00333   0.00584

 Mulliken charges and spin densities:
               1          2
     1  Na   0.900140   0.140107
     2  Na  -0.874239   0.310933
     3  Na   0.281700   0.013351
     4  Na   0.123058   0.246719
     5  Na  -0.199526   0.146702
     6  Na  -0.180134   0.163685
     7  Na  -0.051000  -0.021497
 Sum of Mulliken charges =  -0.00000   1.00000

 Dipole moment (field-independent basis, Debye):
    X=             -1.1394    Y=              0.2243    Z=             -0.0084  Tot=              1.1613
 Quadrupole moment (field-independent basis, Debye-Ang):
   XX=            -47.7824   YY=            -78.7767   ZZ=            -68.4057
   XY=              3.7234   XZ=              3.4377   YZ=             -0.4576

 Normal termination of Gaussian 16 at Thu Dec  7 13:51:34 2023.
