 Gaussian 16, Revision B.01,
 Gaussian 16:  ES64L-G16RevB.01 20-Dec-2017

 -------------------------
 #P B3LYP/6-311+g(d) force
 -------------------------

 -----
 DPGEN
 -----
 Symbolic Z-matrix:
 Charge =  0 Multiplicity = 2

                         Standard orientation:
 ---------------------------------------------------------------------
 Center     Atomic      Atomic             Coordinates (Angstroms)
 Number     Number       Type             X           Y           Z
 ---------------------------------------------------------------------
      1         11           0       -0.279585   -2.468583    0.008671
      2         11           0       -3.075357   -0.933525   -0.199507
      3         11           0       -0.027046   -0.032690    1.951780
      4         11           0       -1.323699    2.519559    0.179481
      5         11           0        1.927002    2.206780   -0.052917
      6         11           0        2.785501   -1.607311   -0.082962
      7         11           0       -0.006816    0.315769   -1.804546
 ---------------------------------------------------------------------

 SCF Done:  E(UB3LYP) =  -1136.13660878     A.U. after   19 cycles

 The electronic state is 2-A.
 Alpha  occ. eigenvalues --  -38.43702 -38.43650 -38.43613 -38.43594 -38.43587
 Alpha  occ. eigenvalues --  -38.43413 -38.43075  -2.19576  -2.19530  -2.19487
 Alpha  occ. eigenvalues --   -2.19482  -2.19442  -2.19384  -2.19041  -1.13305
 Alpha  occ. eigenvalues --   -1.13256  -1.13231  -1.13217  -1.13199  -1.13178
 Alpha  occ. eigenvalues --   -1.13177  -1.13146  -1.13138  -1.13134  -1.13121
 Alpha  occ. eigenvalues --   -1.13114  -1.13098  -1.13084  -1.13080  -1.13052
 Alpha  occ. eigenvalues --   -1.13010  -1.12985  -1.12726  -1.12701  -1.12644
 Alpha  occ. eigenvalues --   -0.19019  -0.12991  -0.12605  -0.10968
 Alpha virt. eigenvalues --   -0.05304  -0.05190  -0.04584  -0.03256  -0.02933
 Alpha virt. eigenvalues --   -0.02664  -0.01424  -0.01172  -0.00183  -0.00035
 Alpha virt. eigenvalues --    0.00048   0.00357   0.00806   0.00911   0.00958

  Beta  occ. eigenvalues --  -38.43697 -38.43649 -38.43614 -38.43585 -38.43496
  Beta  occ. eigenvalues --  -38.43337 -38.43065  -2.19569  -2.19485  -2.19472
  Beta  occ. eigenvalues --   -2.19445  -2.19363  -2.19245  -2.19027  -1.13293
  Beta  occ. eigenvalues --   -1.13222  -1.13211  -1.13182  -1.13171  -1.13145
  Beta  occ. eigenvalues --   -1.13128  -1.13127  -1.13123  -1.13108  -1.13085
  Beta  occ. eigenvalues --   -1.13083  -1.13080  -1.13040  -1.13006  -1.12965
  Beta  occ. eigenvalues --   -1.12917  -1.12886  -1.12713  -1.12654  -1.12640
  Beta  occ. eigenvalues --   -0.18253  -0.12722  -0.12386
  Beta virt. eigenvalues --   -0.07014  -0.05297  -0.05143  -0.04573  -0.02381
  Beta virt. eigenvalues --   -0.02197  -0.01595  -0.01349  -0.01106  -0.00245
  Beta virt. eigenvalues --   -0.00001   0.00111   0.00368   0.00836   0.00918

 Mulliken charges and spin densities:
               1          2
     1  Na   0.265516   0.034622
     2  Na   0.098684  -0.080634
     3  Na  -0.393666   0.647179
     4  Na   0.237343  -0.067856
     5  Na   0.187952  -0.104268
     6  Na   0.004599  -0.116586
     7  Na  -0.400427   0.687543
 Sum of Mulliken charges =  -0.00000   1.00000

 Dipole moment (field-independent basis, Debye):
    X=              0.0471    Y=              0.3408    Z=              0.0397  Tot=              0.3463
 Quadrupole moment (field-independent basis, Debye-Ang):
   XX=            -57.0822   YY=            -63.5997   ZZ=            -73.1728
   XY=             -0.1811   XZ=              0.0890   YZ=              0.7430

 Normal termination of Gaussian 16 at Thu Dec  7 10:02:59 2023.
