 Gaussian 16, Revision B.01,
 Gaussian 16:  ES64L-G16RevB.01 20-Dec-2017

 -------------------------
 #P B3LYP/6-311+g(d) force
 -------------------------

 -----
 DPGEN
 -----
 Symbolic Z-matrix:
 Charge =  0 Multiplicity = 2

                         Standard orientation:
 ---------------------------------------------------------------------
 Center     Atomic      Atomic             Coordinates (Angstroms)
 Number     Number       Type             X           Y           Z
 ---------------------------------------------------------------------
      1         11           0        0.002914    1.588137    2.023986
      2         11           0       -0.075127   -1.235035   -1.634293
      3         11           0        2.732571   -1.606165    0.121167
      4         11           0       -0.475222   -1.578045    1.236297
      5         11           0       -3.131527   -0.703291   -0.021807
      6         11           0        2.124272    1.666293   -0.597430
      7         11           0       -1.177882    1.868105   -1.127920
 ---------------------------------------------------------------------

 SCF Done:  E(UB3LYP) =  -1136.13203544     A.U. after   20 cycles

 The electronic state is 2-A.
 Alpha  occ. eigenvalues --  -38.43937 -38.43932 -38.43688 -38.43434 -38.43388
 Alpha  occ. eigenvalues --  -38.43311 -38.43202  -2.19817  -2.19809  -2.19671
 Alpha  occ. eigenvalues --   -2.19321  -2.19306  -2.19243  -2.19119  -1.13533
 Alpha  occ. eigenvalues --   -1.13501  -1.13478  -1.13449  -1.13444  -1.13439
 Alpha  occ. eigenvalues --   -1.13436  -1.13327  -1.13257  -1.12995  -1.12982
 Alpha  occ. eigenvalues --   -1.12977  -1.12958  -1.12952  -1.12943  -1.12900
 Alpha  occ. eigenvalues --   -1.12872  -1.12869  -1.12809  -1.12771  -1.12725
 Alpha  occ. eigenvalues --   -0.19153  -0.13067  -0.12120  -0.11846
 Alpha virt. eigenvalues --   -0.05519  -0.04754  -0.03813  -0.03639  -0.03395
 Alpha virt. eigenvalues --   -0.03045  -0.01510  -0.00693  -0.00297   0.00278
 Alpha virt. eigenvalues --    0.00359   0.00397   0.00818   0.00907   0.00950

  Beta  occ. eigenvalues --  -38.43935 -38.43860 -38.43640 -38.43426 -38.43388
  Beta  occ. eigenvalues --  -38.43266 -38.43171  -2.19810  -2.19685  -2.19585
  Beta  occ. eigenvalues --   -2.19295  -2.19245  -2.19241  -2.19065  -1.13526
  Beta  occ. eigenvalues --   -1.13458  -1.13440  -1.13408  -1.13397  -1.13355
  Beta  occ. eigenvalues --   -1.13341  -1.13254  -1.13196  -1.12980  -1.12969
  Beta  occ. eigenvalues --   -1.12939  -1.12933  -1.12917  -1.12890  -1.12875
  Beta  occ. eigenvalues --   -1.12870  -1.12840  -1.12766  -1.12723  -1.12688
  Beta  occ. eigenvalues --   -0.18343  -0.12866  -0.11979
  Beta virt. eigenvalues --   -0.07697  -0.05423  -0.04707  -0.03530  -0.03117
  Beta virt. eigenvalues --   -0.02713  -0.01944  -0.01451  -0.00652  -0.00049
  Beta virt. eigenvalues --    0.00276   0.00382   0.00425   0.00911   0.00941

 Mulliken charges and spin densities:
               1          2
     1  Na  -0.596680   0.134210
     2  Na  -0.902251   0.492234
     3  Na   0.228576  -0.102494
     4  Na   0.597993   0.401774
     5  Na   0.256040  -0.142809
     6  Na   0.118453   0.062530
     7  Na   0.297869   0.154555
 Sum of Mulliken charges =  -0.00000   1.00000

 Dipole moment (field-independent basis, Debye):
    X=             -0.1507    Y=              0.1348    Z=              0.0370  Tot=              0.2055
 Quadrupole moment (field-independent basis, Debye-Ang):
   XX=            -56.8439   YY=            -71.8069   ZZ=            -66.5735
   XY=             -0.1148   XZ=              0.2593   YZ=             -0.4319

 Normal termination of Gaussian 16 at Thu Dec  7 15:48:48 2023.
