 Gaussian 16, Revision B.01,
 Gaussian 16:  ES64L-G16RevB.01 20-Dec-2017

 -------------------------
 #P B3LYP/6-311+g(d) force
 -------------------------

 -----
 DPGEN
 -----
 Symbolic Z-matrix:
 Charge =  0 Multiplicity = 2

                         Standard orientation:
 ---------------------------------------------------------------------
 Center     Atomic      Atomic             Coordinates (Angstroms)
 Number     Number       Type             X           Y           Z
 ---------------------------------------------------------------------
      1         11           0        3.060556   -0.405297   -0.593188
      2         11           0       -2.204399   -1.782468   -0.040281
      3         11           0        0.305623    0.506453    2.095752
      4         11           0        0.729029   -2.515675    0.394108
      5         11           0       -2.953803    1.453879   -0.223060
      6         11           0        1.181076    2.777771   -0.040706
      7         11           0       -0.118083   -0.034663   -1.592625
 ---------------------------------------------------------------------

 SCF Done:  E(UB3LYP) =  -1136.13351408     A.U. after   19 cycles

 The electronic state is 2-A.
 Alpha  occ. eigenvalues --  -38.44130 -38.44094 -38.43714 -38.43616 -38.43478
 Alpha  occ. eigenvalues --  -38.43273 -38.42874  -2.19944  -2.19936  -2.19606
 Alpha  occ. eigenvalues --   -2.19449  -2.19400  -2.19281  -2.18818  -1.13627
 Alpha  occ. eigenvalues --   -1.13610  -1.13606  -1.13605  -1.13571  -1.13568
 Alpha  occ. eigenvalues --   -1.13284  -1.13256  -1.13223  -1.13159  -1.13122
 Alpha  occ. eigenvalues --   -1.13108  -1.13070  -1.13065  -1.13033  -1.12959
 Alpha  occ. eigenvalues --   -1.12907  -1.12890  -1.12494  -1.12461  -1.12456
 Alpha  occ. eigenvalues --   -0.18858  -0.13140  -0.12401  -0.10993
 Alpha virt. eigenvalues --   -0.05842  -0.05009  -0.04346  -0.03274  -0.03031
 Alpha virt. eigenvalues --   -0.02633  -0.01658  -0.01019  -0.00353  -0.00093
 Alpha virt. eigenvalues --    0.00053   0.00337   0.00819   0.00884   0.00954

  Beta  occ. eigenvalues --  -38.44128 -38.44075 -38.43619 -38.43612 -38.43473
  Beta  occ. eigenvalues --  -38.43216 -38.42862  -2.19934  -2.19912  -2.19446
  Beta  occ. eigenvalues --   -2.19430  -2.19396  -2.19178  -2.18800  -1.13607
  Beta  occ. eigenvalues --   -1.13601  -1.13596  -1.13571  -1.13569  -1.13548
  Beta  occ. eigenvalues --   -1.13194  -1.13152  -1.13134  -1.13108  -1.13102
  Beta  occ. eigenvalues --   -1.13070  -1.13055  -1.13045  -1.13022  -1.12893
  Beta  occ. eigenvalues --   -1.12842  -1.12812  -1.12485  -1.12455  -1.12407
  Beta  occ. eigenvalues --   -0.18134  -0.12874  -0.12158
  Beta virt. eigenvalues --   -0.07064  -0.05803  -0.04940  -0.04324  -0.02515
  Beta virt. eigenvalues --   -0.02256  -0.01651  -0.01491  -0.00950  -0.00378
  Beta virt. eigenvalues --   -0.00048   0.00127   0.00377   0.00835   0.00932

 Mulliken charges and spin densities:
               1          2
     1  Na   0.242541   0.085961
     2  Na   0.147691   0.035332
     3  Na  -0.505152   0.570479
     4  Na   0.298802   0.183852
     5  Na   0.117724  -0.056564
     6  Na   0.069767  -0.076246
     7  Na  -0.371374   0.257186
 Sum of Mulliken charges =  -0.00000   1.00000

 Dipole moment (field-independent basis, Debye):
    X=              0.0159    Y=              0.4714    Z=              0.0884  Tot=              0.4799
 Quadrupole moment (field-independent basis, Debye-Ang):
   XX=            -56.5783   YY=            -64.4099   ZZ=            -72.9922
   XY=             -0.8171   XZ=             -1.2626   YZ=             -1.1692

 Normal termination of Gaussian 16 at Fri Dec  8 04:44:18 2023.
