 Gaussian 16, Revision B.01,
 Gaussian 16:  ES64L-G16RevB.01 20-Dec-2017

 -------------------------
 #P B3LYP/6-311+g(d) force
 -------------------------

 -----
 DPGEN
 -----
 Symbolic Z-matrix:
 Charge =  0 Multiplicity = 2

                         Standard orientation:
 ---------------------------------------------------------------------
 Center     Atomic      Atomic             Coordinates (Angstroms)
 Number     Number       Type             X           Y           Z
 ---------------------------------------------------------------------
      1         11           0       -1.701491   -2.215260   -0.804245
      2         11           0       -2.168256    1.904522   -1.211125
      3         11           0        2.534670    2.219804   -0.255250
      4         11           0       -3.231132    0.132455    1.580166
      5         11           0        1.381148   -1.220298   -1.602962
      6         11           0        3.087150   -1.027828    1.253708
      7         11           0        0.097911    0.206605    1.039708
 ---------------------------------------------------------------------

 SCF Done:  E(UB3LYP) =  -1136.12324153     A.U. after   22 cycles

 The electronic state is 2-A.
 Alpha  occ. eigenvalues --  -38.44731 -38.44539 -38.44190 -38.44077 -38.43380
 Alpha  occ. eigenvalues --  -38.43152 -38.43127  -2.20589  -2.20323  -2.20031
 Alpha  occ. eigenvalues --   -2.19872  -2.19370  -2.19052  -2.18958  -1.14275
 Alpha  occ. eigenvalues --   -1.14237  -1.14191  -1.13986  -1.13978  -1.13962
 Alpha  occ. eigenvalues --   -1.13708  -1.13665  -1.13653  -1.13551  -1.13541
 Alpha  occ. eigenvalues --   -1.13501  -1.13101  -1.13026  -1.13002  -1.12749
 Alpha  occ. eigenvalues --   -1.12706  -1.12683  -1.12627  -1.12616  -1.12579
 Alpha  occ. eigenvalues --   -0.18123  -0.14105  -0.11086  -0.10641
 Alpha virt. eigenvalues --   -0.06155  -0.05811  -0.04980  -0.03152  -0.02471
 Alpha virt. eigenvalues --   -0.02194  -0.02160  -0.01188  -0.00857  -0.00275
 Alpha virt. eigenvalues --    0.00203   0.00251   0.00277   0.00437   0.00572

  Beta  occ. eigenvalues --  -38.44691 -38.44514 -38.44149 -38.44072 -38.43354
  Beta  occ. eigenvalues --  -38.43122 -38.43119  -2.20514  -2.20276  -2.19955
  Beta  occ. eigenvalues --   -2.19865  -2.19328  -2.18999  -2.18946  -1.14216
  Beta  occ. eigenvalues --   -1.14187  -1.14143  -1.13953  -1.13943  -1.13925
  Beta  occ. eigenvalues --   -1.13649  -1.13615  -1.13604  -1.13547  -1.13531
  Beta  occ. eigenvalues --   -1.13490  -1.13041  -1.12990  -1.12977  -1.12716
  Beta  occ. eigenvalues --   -1.12658  -1.12647  -1.12611  -1.12603  -1.12559
  Beta  occ. eigenvalues --   -0.17504  -0.13829  -0.10826
  Beta virt. eigenvalues --   -0.07168  -0.05868  -0.05547  -0.04443  -0.02972
  Beta virt. eigenvalues --   -0.02079  -0.01965  -0.01467  -0.00960  -0.00526
  Beta virt. eigenvalues --   -0.00106   0.00285   0.00302   0.00363   0.00607

 Mulliken charges and spin densities:
               1          2
     1  Na  -0.171263   0.023820
     2  Na  -0.200308   0.221049
     3  Na  -0.031459   0.078063
     4  Na   0.765435   0.007811
     5  Na   0.099438   0.317757
     6  Na   0.699416  -0.015452
     7  Na  -1.161259   0.366953
 Sum of Mulliken charges =  -0.00000   1.00000

 Dipole moment (field-independent basis, Debye):
    X=              0.2080    Y=              0.0964    Z=             -0.0105  Tot=              0.2295
 Quadrupole moment (field-independent basis, Debye-Ang):
   XX=            -50.5423   YY=            -73.2814   ZZ=            -68.9247
   XY=             -0.2386   XZ=              0.4426   YZ=             -4.4803

 Normal termination of Gaussian 16 at Tue Dec  5 18:29:53 2023.
