 Gaussian 16, Revision B.01,
 Gaussian 16:  ES64L-G16RevB.01 20-Dec-2017

 -------------------------
 #P B3LYP/6-311+g(d) force
 -------------------------

 -----
 DPGEN
 -----
 Symbolic Z-matrix:
 Charge =  0 Multiplicity = 2

                         Standard orientation:
 ---------------------------------------------------------------------
 Center     Atomic      Atomic             Coordinates (Angstroms)
 Number     Number       Type             X           Y           Z
 ---------------------------------------------------------------------
      1         11           0       -0.755815    3.289607   -0.484974
      2         11           0       -3.791784    1.291798   -0.323769
      3         11           0        4.952985    0.148522   -0.371233
      4         11           0       -0.803265   -1.591383    0.061918
      5         11           0       -4.363148   -2.041337    0.264058
      6         11           0        2.672696   -2.129994   -0.576811
      7         11           0        2.088330    1.032785    1.430810
 ---------------------------------------------------------------------

 SCF Done:  E(UB3LYP) =  -1136.11602125     A.U. after   25 cycles

 The electronic state is 2-A.
 Alpha  occ. eigenvalues --  -38.45619 -38.44765 -38.44602 -38.44330 -38.43965
 Alpha  occ. eigenvalues --  -38.43770 -38.43186  -2.21383  -2.20598  -2.20382
 Alpha  occ. eigenvalues --   -2.20180  -2.19771  -2.19563  -2.18930  -1.15078
 Alpha  occ. eigenvalues --   -1.15053  -1.14994  -1.14276  -1.14261  -1.14242
 Alpha  occ. eigenvalues --   -1.14076  -1.14050  -1.13990  -1.13829  -1.13815
 Alpha  occ. eigenvalues --   -1.13794  -1.13469  -1.13432  -1.13376  -1.13231
 Alpha  occ. eigenvalues --   -1.13222  -1.13201  -1.12616  -1.12594  -1.12581
 Alpha  occ. eigenvalues --   -0.16683  -0.14318  -0.11548  -0.11034
 Alpha virt. eigenvalues --   -0.07255  -0.05170  -0.04450  -0.03737  -0.03192
 Alpha virt. eigenvalues --   -0.02423  -0.02268  -0.01414  -0.01023  -0.00709
 Alpha virt. eigenvalues --   -0.00556  -0.00286   0.00314   0.00445   0.00607

  Beta  occ. eigenvalues --  -38.45596 -38.44729 -38.44585 -38.44250 -38.43909
  Beta  occ. eigenvalues --  -38.43766 -38.43202  -2.21343  -2.20540  -2.20350
  Beta  occ. eigenvalues --   -2.20031  -2.19671  -2.19556  -2.18960  -1.15044
  Beta  occ. eigenvalues --   -1.15014  -1.14961  -1.14244  -1.14214  -1.14158
  Beta  occ. eigenvalues --   -1.14054  -1.14029  -1.13971  -1.13723  -1.13711
  Beta  occ. eigenvalues --   -1.13700  -1.13405  -1.13366  -1.13287  -1.13227
  Beta  occ. eigenvalues --   -1.13206  -1.13197  -1.12636  -1.12618  -1.12596
  Beta  occ. eigenvalues --   -0.15829  -0.13983  -0.11412
  Beta virt. eigenvalues --   -0.07379  -0.07030  -0.04915  -0.04050  -0.03439
  Beta virt. eigenvalues --   -0.02870  -0.02149  -0.01848  -0.00996  -0.00912
  Beta virt. eigenvalues --   -0.00514  -0.00474  -0.00004   0.00450   0.00526

 Mulliken charges and spin densities:
               1          2
     1  Na  -0.107358  -0.098803
     2  Na  -0.028049   0.159262
     3  Na  -0.127182   0.453854
     4  Na  -1.422281   0.286805
     5  Na   1.220501   0.351462
     6  Na   0.511222  -0.238056
     7  Na  -0.046852   0.085476
 Sum of Mulliken charges =  -0.00000   1.00000

 Dipole moment (field-independent basis, Debye):
    X=              0.8894    Y=             -0.6239    Z=              0.1094  Tot=              1.0919
 Quadrupole moment (field-independent basis, Debye-Ang):
   XX=            -58.9430   YY=            -70.4302   ZZ=            -68.7646
   XY=              0.7080   XZ=             -0.6112   YZ=              0.2797

 Normal termination of Gaussian 16 at Sun Dec  3 12:44:07 2023.
