 Gaussian 16, Revision B.01,
 Gaussian 16:  ES64L-G16RevB.01 20-Dec-2017

 -------------------------
 #P B3LYP/6-311+g(d) force
 -------------------------

 -----
 DPGEN
 -----
 Symbolic Z-matrix:
 Charge =  0 Multiplicity = 2

                         Standard orientation:
 ---------------------------------------------------------------------
 Center     Atomic      Atomic             Coordinates (Angstroms)
 Number     Number       Type             X           Y           Z
 ---------------------------------------------------------------------
      1         11           0        2.491159    1.408146   -0.093760
      2         11           0       -1.456571    0.567693    1.199081
      3         11           0       -1.981876   -2.105037   -0.338458
      4         11           0        1.177473   -1.807123    0.176490
      5         11           0        4.593144   -0.876996   -0.167798
      6         11           0       -4.310118   -0.196707   -0.388268
      7         11           0       -0.513211    3.010024   -0.387287
 ---------------------------------------------------------------------

 SCF Done:  E(UB3LYP) =  -1136.12398330     A.U. after   20 cycles

 The electronic state is 2-A.
 Alpha  occ. eigenvalues --  -38.44211 -38.44200 -38.43932 -38.43874 -38.43687
 Alpha  occ. eigenvalues --  -38.43514 -38.43033  -2.20143  -2.20098  -2.19805
 Alpha  occ. eigenvalues --   -2.19726  -2.19633  -2.19402  -2.18876  -1.13854
 Alpha  occ. eigenvalues --   -1.13835  -1.13814  -1.13776  -1.13718  -1.13698
 Alpha  occ. eigenvalues --   -1.13515  -1.13497  -1.13488  -1.13365  -1.13355
 Alpha  occ. eigenvalues --   -1.13319  -1.13306  -1.13279  -1.13275  -1.13080
 Alpha  occ. eigenvalues --   -1.13074  -1.13000  -1.12561  -1.12528  -1.12508
 Alpha  occ. eigenvalues --   -0.17871  -0.14634  -0.12227  -0.11008
 Alpha virt. eigenvalues --   -0.06028  -0.05128  -0.04414  -0.03914  -0.02810
 Alpha virt. eigenvalues --   -0.02084  -0.01744  -0.01386  -0.00690  -0.00404
 Alpha virt. eigenvalues --   -0.00333   0.00005   0.00629   0.00635   0.00742

  Beta  occ. eigenvalues --  -38.44186 -38.44129 -38.43922 -38.43825 -38.43662
  Beta  occ. eigenvalues --  -38.43462 -38.43038  -2.20122  -2.19944  -2.19789
  Beta  occ. eigenvalues --   -2.19635  -2.19600  -2.19314  -2.18886  -1.13840
  Beta  occ. eigenvalues --   -1.13813  -1.13758  -1.13688  -1.13616  -1.13600
  Beta  occ. eigenvalues --   -1.13496  -1.13489  -1.13447  -1.13303  -1.13293
  Beta  occ. eigenvalues --   -1.13281  -1.13264  -1.13261  -1.13197  -1.13025
  Beta  occ. eigenvalues --   -1.13015  -1.12906  -1.12566  -1.12534  -1.12513
  Beta  occ. eigenvalues --   -0.17181  -0.14022  -0.11942
  Beta virt. eigenvalues --   -0.07349  -0.05865  -0.04976  -0.03935  -0.03513
  Beta virt. eigenvalues --   -0.02547  -0.01765  -0.01383  -0.00923  -0.00530
  Beta virt. eigenvalues --   -0.00287  -0.00081   0.00254   0.00729   0.00746

 Mulliken charges and spin densities:
               1          2
     1  Na  -0.737796   0.099371
     2  Na  -0.053927   0.197082
     3  Na  -0.217817  -0.116121
     4  Na  -0.423097   0.107975
     5  Na   1.251025   0.360262
     6  Na   0.216510   0.404896
     7  Na  -0.034898  -0.053464
 Sum of Mulliken charges =  -0.00000   1.00000

 Dipole moment (field-independent basis, Debye):
    X=             -0.0645    Y=             -0.2125    Z=             -0.2776  Tot=              0.3555
 Quadrupole moment (field-independent basis, Debye-Ang):
   XX=            -60.7384   YY=            -69.3079   ZZ=            -68.2756
   XY=             -2.6419   XZ=              0.7504   YZ=             -0.6895

 Normal termination of Gaussian 16 at Wed Nov 29 01:46:32 2023.
