 Gaussian 16, Revision B.01,
 Gaussian 16:  ES64L-G16RevB.01 20-Dec-2017

 -------------------------
 #P B3LYP/6-311+g(d) force
 -------------------------

 -----
 DPGEN
 -----
 Symbolic Z-matrix:
 Charge =  0 Multiplicity = 2

                         Standard orientation:
 ---------------------------------------------------------------------
 Center     Atomic      Atomic             Coordinates (Angstroms)
 Number     Number       Type             X           Y           Z
 ---------------------------------------------------------------------
      1         11           0       -0.433399   -1.198298   -1.468682
      2         11           0        2.098432   -2.086882    0.589804
      3         11           0        2.360635    0.552426   -1.437904
      4         11           0        1.408412    2.037957    1.097657
      5         11           0       -0.475038   -0.542795    1.767374
      6         11           0       -3.485336   -0.622122   -0.002900
      7         11           0       -1.473707    1.859713   -0.545349
 ---------------------------------------------------------------------

 SCF Done:  E(UB3LYP) =  -1136.13160552     A.U. after   20 cycles

 The electronic state is 2-A.
 Alpha  occ. eigenvalues --  -38.44376 -38.44088 -38.43675 -38.43406 -38.43307
 Alpha  occ. eigenvalues --  -38.43239 -38.42787  -2.20226  -2.20001  -2.19661
 Alpha  occ. eigenvalues --   -2.19370  -2.19222  -2.19120  -2.18702  -1.13892
 Alpha  occ. eigenvalues --   -1.13887  -1.13871  -1.13686  -1.13671  -1.13611
 Alpha  occ. eigenvalues --   -1.13361  -1.13296  -1.13290  -1.13076  -1.13028
 Alpha  occ. eigenvalues --   -1.12982  -1.12909  -1.12891  -1.12834  -1.12797
 Alpha  occ. eigenvalues --   -1.12765  -1.12753  -1.12379  -1.12367  -1.12319
 Alpha  occ. eigenvalues --   -0.19224  -0.13686  -0.11680  -0.11633
 Alpha virt. eigenvalues --   -0.05950  -0.04785  -0.04133  -0.03319  -0.02988
 Alpha virt. eigenvalues --   -0.02859  -0.01847  -0.00779  -0.00380   0.00262
 Alpha virt. eigenvalues --    0.00305   0.00399   0.00624   0.00833   0.00916

  Beta  occ. eigenvalues --  -38.44376 -38.44047 -38.43593 -38.43362 -38.43296
  Beta  occ. eigenvalues --  -38.43228 -38.42768  -2.20226  -2.19926  -2.19513
  Beta  occ. eigenvalues --   -2.19293  -2.19205  -2.19103  -2.18671  -1.13891
  Beta  occ. eigenvalues --   -1.13878  -1.13872  -1.13627  -1.13615  -1.13562
  Beta  occ. eigenvalues --   -1.13270  -1.13183  -1.13180  -1.13029  -1.12955
  Beta  occ. eigenvalues --   -1.12929  -1.12894  -1.12851  -1.12826  -1.12772
  Beta  occ. eigenvalues --   -1.12754  -1.12729  -1.12353  -1.12338  -1.12291
  Beta  occ. eigenvalues --   -0.18438  -0.13471  -0.11454
  Beta virt. eigenvalues --   -0.07582  -0.05832  -0.04721  -0.03630  -0.03079
  Beta virt. eigenvalues --   -0.02281  -0.01880  -0.01683  -0.00701  -0.00104
  Beta virt. eigenvalues --    0.00303   0.00316   0.00403   0.00764   0.00880

 Mulliken charges and spin densities:
               1          2
     1  Na  -0.232479   0.412626
     2  Na  -0.040397  -0.098301
     3  Na   0.105956   0.150214
     4  Na   0.250670   0.008184
     5  Na  -0.362846   0.542873
     6  Na   0.712389  -0.028441
     7  Na  -0.433293   0.012845
 Sum of Mulliken charges =  -0.00000   1.00000

 Dipole moment (field-independent basis, Debye):
    X=             -0.6418    Y=             -0.2375    Z=             -0.1272  Tot=              0.6961
 Quadrupole moment (field-independent basis, Debye-Ang):
   XX=            -52.7873   YY=            -73.3017   ZZ=            -68.0049
   XY=              0.5011   XZ=             -0.3273   YZ=             -1.4549

 Normal termination of Gaussian 16 at Tue Dec  5 14:37:23 2023.
