 Gaussian 16, Revision B.01,
 Gaussian 16:  ES64L-G16RevB.01 20-Dec-2017

 -------------------------
 #P B3LYP/6-311+g(d) force
 -------------------------

 -----
 DPGEN
 -----
 Symbolic Z-matrix:
 Charge =  0 Multiplicity = 2

                         Standard orientation:
 ---------------------------------------------------------------------
 Center     Atomic      Atomic             Coordinates (Angstroms)
 Number     Number       Type             X           Y           Z
 ---------------------------------------------------------------------
      1         11           0       -3.600984    0.033656    0.082088
      2         11           0       -2.141763    2.452846   -1.164341
      3         11           0       -1.947921   -2.786167    1.011175
      4         11           0        2.020090    0.171297    2.095404
      5         11           0        3.390866   -0.240314   -0.956367
      6         11           0        1.139200    3.257037    0.324972
      7         11           0        1.140513   -2.888355   -1.392931
 ---------------------------------------------------------------------

 SCF Done:  E(UB3LYP) =  -1136.11185585     A.U. after   21 cycles

 The electronic state is 2-A.
 Alpha  occ. eigenvalues --  -38.44941 -38.44925 -38.44843 -38.44574 -38.44334
 Alpha  occ. eigenvalues --  -38.43889 -38.43610  -2.20734  -2.20669  -2.20639
 Alpha  occ. eigenvalues --   -2.20340  -2.20143  -2.19671  -2.19426  -1.14409
 Alpha  occ. eigenvalues --   -1.14389  -1.14364  -1.14353  -1.14337  -1.14315
 Alpha  occ. eigenvalues --   -1.14296  -1.14293  -1.14258  -1.14014  -1.13990
 Alpha  occ. eigenvalues --   -1.13966  -1.13845  -1.13808  -1.13792  -1.13330
 Alpha  occ. eigenvalues --   -1.13322  -1.13307  -1.13092  -1.13074  -1.13051
 Alpha  occ. eigenvalues --   -0.16201  -0.13648  -0.12713  -0.10572
 Alpha virt. eigenvalues --   -0.06964  -0.05924  -0.04208  -0.03677  -0.03502
 Alpha virt. eigenvalues --   -0.02255  -0.01595  -0.01424  -0.01245  -0.00844
 Alpha virt. eigenvalues --   -0.00450  -0.00142  -0.00063   0.00478   0.00523

  Beta  occ. eigenvalues --  -38.44928 -38.44888 -38.44818 -38.44531 -38.44330
  Beta  occ. eigenvalues --  -38.43849 -38.43573  -2.20676  -2.20634  -2.20598
  Beta  occ. eigenvalues --   -2.20263  -2.20140  -2.19596  -2.19357  -1.14363
  Beta  occ. eigenvalues --   -1.14351  -1.14349  -1.14321  -1.14298  -1.14287
  Beta  occ. eigenvalues --   -1.14270  -1.14265  -1.14201  -1.13963  -1.13943
  Beta  occ. eigenvalues --   -1.13895  -1.13831  -1.13810  -1.13774  -1.13277
  Beta  occ. eigenvalues --   -1.13273  -1.13257  -1.13048  -1.13027  -1.13006
  Beta  occ. eigenvalues --   -0.15709  -0.13120  -0.12230
  Beta virt. eigenvalues --   -0.07321  -0.07040  -0.05460  -0.03626  -0.03509
  Beta virt. eigenvalues --   -0.03102  -0.01755  -0.01493  -0.01350  -0.01118
  Beta virt. eigenvalues --   -0.00730  -0.00220   0.00114   0.00221   0.00527

 Mulliken charges and spin densities:
               1          2
     1  Na   0.414699  -0.024353
     2  Na  -0.255048   0.211258
     3  Na  -0.252956   0.234494
     4  Na  -0.053064   0.358043
     5  Na   0.256776   0.146818
     6  Na  -0.005338  -0.079147
     7  Na  -0.105070   0.152887
 Sum of Mulliken charges =  -0.00000   1.00000

 Dipole moment (field-independent basis, Debye):
    X=              1.0860    Y=              0.2654    Z=              0.1337  Tot=              1.1260
 Quadrupole moment (field-independent basis, Debye-Ang):
   XX=            -65.4571   YY=            -66.7279   ZZ=            -69.6947
   XY=              3.7995   XZ=             -0.7422   YZ=             -1.7294

 Normal termination of Gaussian 16 at Mon Dec  4 01:09:25 2023.
