 Gaussian 16, Revision B.01,
 Gaussian 16:  ES64L-G16RevB.01 20-Dec-2017

 -------------------------
 #P B3LYP/6-311+g(d) force
 -------------------------

 -----
 DPGEN
 -----
 Symbolic Z-matrix:
 Charge =  0 Multiplicity = 2

                         Standard orientation:
 ---------------------------------------------------------------------
 Center     Atomic      Atomic             Coordinates (Angstroms)
 Number     Number       Type             X           Y           Z
 ---------------------------------------------------------------------
      1         11           0        1.124172    4.500854   -0.382197
      2         11           0       -1.612780    1.853480   -0.462866
      3         11           0       -7.299319   -1.933552   -0.592326
      4         11           0       -5.104715   -0.760305    0.996054
      5         11           0        3.715691   -1.900891    0.867415
      6         11           0        5.353998   -4.098703   -0.751132
      7         11           0        3.822953    2.339118    0.325052
 ---------------------------------------------------------------------

 SCF Done:  E(UB3LYP) =  -1136.09905773     A.U. after   19 cycles

 The electronic state is 2-A.
 Alpha  occ. eigenvalues --  -38.45124 -38.44931 -38.44928 -38.44674 -38.44300
 Alpha  occ. eigenvalues --  -38.44292 -38.44046  -2.20889  -2.20700  -2.20667
 Alpha  occ. eigenvalues --   -2.20451  -2.20114  -2.20061  -2.19845  -1.14538
 Alpha  occ. eigenvalues --   -1.14537  -1.14480  -1.14361  -1.14354  -1.14349
 Alpha  occ. eigenvalues --   -1.14345  -1.14325  -1.14287  -1.14108  -1.14105
 Alpha  occ. eigenvalues --   -1.14104  -1.13859  -1.13753  -1.13752  -1.13731
 Alpha  occ. eigenvalues --   -1.13725  -1.13700  -1.13499  -1.13492  -1.13467
 Alpha  occ. eigenvalues --   -0.14764  -0.13646  -0.12983  -0.11212
 Alpha virt. eigenvalues --   -0.07196  -0.05524  -0.04509  -0.03227  -0.03097
 Alpha virt. eigenvalues --   -0.02871  -0.02304  -0.02033  -0.01701  -0.01424
 Alpha virt. eigenvalues --   -0.00958  -0.00701  -0.00110   0.00052   0.00365

  Beta  occ. eigenvalues --  -38.45012 -38.44956 -38.44847 -38.44653 -38.44299
  Beta  occ. eigenvalues --  -38.44275 -38.44052  -2.20719  -2.20680  -2.20548
  Beta  occ. eigenvalues --   -2.20411  -2.20076  -2.20066  -2.19860  -1.14398
  Beta  occ. eigenvalues --   -1.14396  -1.14394  -1.14372  -1.14347  -1.14326
  Beta  occ. eigenvalues --   -1.14253  -1.14242  -1.14203  -1.14084  -1.14078
  Beta  occ. eigenvalues --   -1.14077  -1.13833  -1.13743  -1.13735  -1.13720
  Beta  occ. eigenvalues --   -1.13719  -1.13696  -1.13511  -1.13502  -1.13455
  Beta  occ. eigenvalues --   -0.14065  -0.13265  -0.12775
  Beta virt. eigenvalues --   -0.07759  -0.06754  -0.05133  -0.04263  -0.02976
  Beta virt. eigenvalues --   -0.02905  -0.02627  -0.02244  -0.01982  -0.01409
  Beta virt. eigenvalues --   -0.01059  -0.00802  -0.00262   0.00118   0.00180

 Mulliken charges and spin densities:
               1          2
     1  Na   0.461725  -0.125883
     2  Na  -0.395164   0.603518
     3  Na   0.330828   0.084430
     4  Na  -0.345836  -0.029832
     5  Na  -0.385360  -0.016593
     6  Na   0.368278   0.084702
     7  Na  -0.034471   0.399658
 Sum of Mulliken charges =  -0.00000   1.00000

 Dipole moment (field-independent basis, Debye):
    X=              0.4889    Y=             -0.1402    Z=             -0.5635  Tot=              0.7591
 Quadrupole moment (field-independent basis, Debye-Ang):
   XX=            -62.7568   YY=            -60.0479   ZZ=            -70.6500
   XY=             -1.0330   XZ=              1.0227   YZ=              3.8350

 Normal termination of Gaussian 16 at Sun Dec  3 15:24:11 2023.
