 Gaussian 16, Revision B.01,
 Gaussian 16:  ES64L-G16RevB.01 20-Dec-2017

 -------------------------
 #P B3LYP/6-311+g(d) force
 -------------------------

 -----
 DPGEN
 -----
 Symbolic Z-matrix:
 Charge =  0 Multiplicity = 2

                         Standard orientation:
 ---------------------------------------------------------------------
 Center     Atomic      Atomic             Coordinates (Angstroms)
 Number     Number       Type             X           Y           Z
 ---------------------------------------------------------------------
      1         11           0       -5.455934   -0.500752    0.505239
      2         11           0        2.206623    0.163062   -0.140978
      3         11           0       -6.397418   -3.019578   -0.245080
      4         11           0       -0.130830    2.590854   -0.001745
      5         11           0       -3.313063    2.955179   -0.189788
      6         11           0        5.044858   -1.776319   -0.096174
      7         11           0        8.045766   -0.412447    0.168527
 ---------------------------------------------------------------------

 SCF Done:  E(UB3LYP) =  -1136.10436613     A.U. after   19 cycles

 The electronic state is 2-A.
 Alpha  occ. eigenvalues --  -38.45396 -38.44797 -38.44591 -38.44463 -38.44172
 Alpha  occ. eigenvalues --  -38.44115 -38.43860  -2.21183  -2.20600  -2.20407
 Alpha  occ. eigenvalues --   -2.20248  -2.20015  -2.19913  -2.19690  -1.14824
 Alpha  occ. eigenvalues --   -1.14822  -1.14806  -1.14247  -1.14244  -1.14231
 Alpha  occ. eigenvalues --   -1.14057  -1.14055  -1.14039  -1.13924  -1.13914
 Alpha  occ. eigenvalues --   -1.13905  -1.13858  -1.13637  -1.13637  -1.13585
 Alpha  occ. eigenvalues --   -1.13583  -1.13580  -1.13329  -1.13326  -1.13286
 Alpha  occ. eigenvalues --   -0.15302  -0.14290  -0.13084  -0.11580
 Alpha virt. eigenvalues --   -0.07186  -0.05280  -0.03732  -0.03430  -0.03229
 Alpha virt. eigenvalues --   -0.02753  -0.02428  -0.02067  -0.01564  -0.01406
 Alpha virt. eigenvalues --   -0.00890  -0.00505  -0.00223   0.00381   0.00511

  Beta  occ. eigenvalues --  -38.45315 -38.44726 -38.44510 -38.44479 -38.44151
  Beta  occ. eigenvalues --  -38.44128 -38.43863  -2.21032  -2.20468  -2.20284
  Beta  occ. eigenvalues --   -2.20255  -2.19975  -2.19944  -2.19698  -1.14721
  Beta  occ. eigenvalues --   -1.14718  -1.14708  -1.14165  -1.14154  -1.14142
  Beta  occ. eigenvalues --   -1.13973  -1.13957  -1.13951  -1.13948  -1.13930
  Beta  occ. eigenvalues --   -1.13878  -1.13835  -1.13613  -1.13611  -1.13610
  Beta  occ. eigenvalues --   -1.13608  -1.13553  -1.13337  -1.13333  -1.13270
  Beta  occ. eigenvalues --   -0.14614  -0.13711  -0.12637
  Beta virt. eigenvalues --   -0.08460  -0.06582  -0.04907  -0.03441  -0.03229
  Beta virt. eigenvalues --   -0.03002  -0.02553  -0.02192  -0.01898  -0.01413
  Beta virt. eigenvalues --   -0.01033  -0.00463  -0.00268  -0.00012   0.00463

 Mulliken charges and spin densities:
               1          2
     1  Na  -0.871448  -0.022715
     2  Na  -0.182482   0.346974
     3  Na   0.646925   0.102155
     4  Na   0.024876  -0.118172
     5  Na   0.113558   0.315506
     6  Na   0.160123   0.004535
     7  Na   0.108448   0.371717
 Sum of Mulliken charges =  -0.00000   1.00000

 Dipole moment (field-independent basis, Debye):
    X=              1.6605    Y=             -0.1173    Z=             -0.1259  Tot=              1.6694
 Quadrupole moment (field-independent basis, Debye-Ang):
   XX=            -52.0065   YY=            -61.9187   ZZ=            -74.7869
   XY=              3.0245   XZ=              2.5618   YZ=              1.9832

 Normal termination of Gaussian 16 at Sun Dec  3 14:55:15 2023.
