 Gaussian 16, Revision B.01,
 Gaussian 16:  ES64L-G16RevB.01 20-Dec-2017

 -------------------------
 #P B3LYP/6-311+g(d) force
 -------------------------

 -----
 DPGEN
 -----
 Symbolic Z-matrix:
 Charge =  0 Multiplicity = 2

                         Standard orientation:
 ---------------------------------------------------------------------
 Center     Atomic      Atomic             Coordinates (Angstroms)
 Number     Number       Type             X           Y           Z
 ---------------------------------------------------------------------
      1         11           0        0.113300    1.364925   -0.254644
      2         11           0        2.717737    3.438528   -0.434563
      3         11           0        3.499837    0.189347    1.073269
      4         11           0        2.930236   -2.978564   -0.814747
      5         11           0       -0.176533   -1.860224    0.394190
      6         11           0       -3.198569   -0.993271    0.046667
      7         11           0       -5.886008    0.839259   -0.010172
 ---------------------------------------------------------------------

 SCF Done:  E(UB3LYP) =  -1136.12062141     A.U. after   21 cycles

 The electronic state is 2-A.
 Alpha  occ. eigenvalues --  -38.45185 -38.44546 -38.44440 -38.43892 -38.43867
 Alpha  occ. eigenvalues --  -38.43513 -38.43397  -2.20963  -2.20380  -2.20256
 Alpha  occ. eigenvalues --   -2.19673  -2.19665  -2.19406  -2.19242  -1.14664
 Alpha  occ. eigenvalues --   -1.14629  -1.14553  -1.14083  -1.14068  -1.13968
 Alpha  occ. eigenvalues --   -1.13888  -1.13882  -1.13879  -1.13341  -1.13335
 Alpha  occ. eigenvalues --   -1.13334  -1.13328  -1.13303  -1.13295  -1.13099
 Alpha  occ. eigenvalues --   -1.13082  -1.13059  -1.12913  -1.12910  -1.12870
 Alpha  occ. eigenvalues --   -0.16819  -0.14002  -0.12272  -0.11200
 Alpha virt. eigenvalues --   -0.06217  -0.05711  -0.04357  -0.03638  -0.02633
 Alpha virt. eigenvalues --   -0.02482  -0.02249  -0.01432  -0.01121  -0.00883
 Alpha virt. eigenvalues --   -0.00514  -0.00251   0.00394   0.00450   0.00580

  Beta  occ. eigenvalues --  -38.45154 -38.44515 -38.44330 -38.43874 -38.43866
  Beta  occ. eigenvalues --  -38.43478 -38.43395  -2.20906  -2.20324  -2.20053
  Beta  occ. eigenvalues --   -2.19665  -2.19639  -2.19344  -2.19249  -1.14623
  Beta  occ. eigenvalues --   -1.14594  -1.14507  -1.14045  -1.14033  -1.13920
  Beta  occ. eigenvalues --   -1.13753  -1.13744  -1.13742  -1.13333  -1.13326
  Beta  occ. eigenvalues --   -1.13319  -1.13309  -1.13296  -1.13279  -1.13059
  Beta  occ. eigenvalues --   -1.13037  -1.13001  -1.12927  -1.12918  -1.12811
  Beta  occ. eigenvalues --   -0.16283  -0.13210  -0.11964
  Beta virt. eigenvalues --   -0.07770  -0.06002  -0.05423  -0.03924  -0.03388
  Beta virt. eigenvalues --   -0.02356  -0.02250  -0.02008  -0.01170  -0.00738
  Beta virt. eigenvalues --   -0.00572  -0.00221  -0.00103   0.00526   0.00551

 Mulliken charges and spin densities:
               1          2
     1  Na  -1.328751   0.055475
     2  Na   1.022900   0.069073
     3  Na   0.022089   0.263658
     4  Na   0.794171   0.172872
     5  Na  -0.307738  -0.177139
     6  Na  -0.427519   0.238692
     7  Na   0.224848   0.377368
 Sum of Mulliken charges =  -0.00000   1.00000

 Dipole moment (field-independent basis, Debye):
    X=              1.2200    Y=              0.7242    Z=             -0.1127  Tot=              1.4232
 Quadrupole moment (field-independent basis, Debye-Ang):
   XX=            -63.5836   YY=            -64.5123   ZZ=            -69.1602
   XY=              0.4236   XZ=              0.4490   YZ=              0.2111

 Normal termination of Gaussian 16 at Tue Nov 28 20:38:29 2023.
