 Gaussian 16, Revision B.01,
 Gaussian 16:  ES64L-G16RevB.01 20-Dec-2017

 -------------------------
 #P B3LYP/6-311+g(d) force
 -------------------------

 -----
 DPGEN
 -----
 Symbolic Z-matrix:
 Charge =  0 Multiplicity = 2

                         Standard orientation:
 ---------------------------------------------------------------------
 Center     Atomic      Atomic             Coordinates (Angstroms)
 Number     Number       Type             X           Y           Z
 ---------------------------------------------------------------------
      1         11           0       -0.305085   -0.042189    2.386612
      2         11           0       -1.863586   -2.534501   -0.662270
      3         11           0       -0.304490    3.034725   -0.024600
      4         11           0       -3.248334    0.546420   -0.173648
      5         11           0        2.579839   -2.039033    0.372565
      6         11           0        0.067238   -0.014138   -1.263137
      7         11           0        3.074418    1.048716   -0.635522
 ---------------------------------------------------------------------

 SCF Done:  E(UB3LYP) =  -1136.13092849     A.U. after   20 cycles

 The electronic state is 2-A.
 Alpha  occ. eigenvalues --  -38.44640 -38.44145 -38.44133 -38.44026 -38.43516
 Alpha  occ. eigenvalues --  -38.43120 -38.43065  -2.20448  -2.19971  -2.19968
 Alpha  occ. eigenvalues --   -2.19829  -2.19344  -2.19113  -2.18876  -1.14130
 Alpha  occ. eigenvalues --   -1.14109  -1.14078  -1.13666  -1.13637  -1.13619
 Alpha  occ. eigenvalues --   -1.13600  -1.13596  -1.13576  -1.13491  -1.13479
 Alpha  occ. eigenvalues --   -1.13467  -1.13053  -1.12991  -1.12975  -1.12815
 Alpha  occ. eigenvalues --   -1.12765  -1.12744  -1.12553  -1.12539  -1.12507
 Alpha  occ. eigenvalues --   -0.18030  -0.13320  -0.11820  -0.10817
 Alpha virt. eigenvalues --   -0.06029  -0.05312  -0.04586  -0.03237  -0.02757
 Alpha virt. eigenvalues --   -0.02626  -0.01888  -0.01182  -0.00623  -0.00455
 Alpha virt. eigenvalues --   -0.00078   0.00303   0.00681   0.00809   0.00816

  Beta  occ. eigenvalues --  -38.44636 -38.44120 -38.44028 -38.44022 -38.43504
  Beta  occ. eigenvalues --  -38.43087 -38.43065  -2.20444  -2.19947  -2.19823
  Beta  occ. eigenvalues --   -2.19751  -2.19325  -2.19055  -2.18879  -1.14114
  Beta  occ. eigenvalues --   -1.14108  -1.14070  -1.13648  -1.13615  -1.13586
  Beta  occ. eigenvalues --   -1.13480  -1.13478  -1.13470  -1.13457  -1.13448
  Beta  occ. eigenvalues --   -1.13419  -1.13034  -1.12976  -1.12955  -1.12763
  Beta  occ. eigenvalues --   -1.12726  -1.12703  -1.12550  -1.12535  -1.12505
  Beta  occ. eigenvalues --   -0.17374  -0.13103  -0.11624
  Beta virt. eigenvalues --   -0.06869  -0.05964  -0.05153  -0.04523  -0.02603
  Beta virt. eigenvalues --   -0.01976  -0.01804  -0.01661  -0.01082  -0.00622
  Beta virt. eigenvalues --   -0.00459   0.00108   0.00357   0.00780   0.00826

 Mulliken charges and spin densities:
               1          2
     1  Na  -0.519905   0.761878
     2  Na   0.215486   0.105972
     3  Na  -0.094084   0.052195
     4  Na   0.221680   0.037890
     5  Na   0.032112   0.116715
     6  Na  -0.135015  -0.138564
     7  Na   0.279726   0.063915
 Sum of Mulliken charges =  -0.00000   1.00000

 Dipole moment (field-independent basis, Debye):
    X=             -0.1162    Y=             -0.0510    Z=              0.2201  Tot=              0.2541
 Quadrupole moment (field-independent basis, Debye-Ang):
   XX=            -54.1454   YY=            -64.4771   ZZ=            -74.6819
   XY=             -1.0339   XZ=             -0.0894   YZ=             -0.4654

 Normal termination of Gaussian 16 at Tue Dec  5 12:05:04 2023.
