 Gaussian 16, Revision B.01,
 Gaussian 16:  ES64L-G16RevB.01 20-Dec-2017

 -------------------------
 #P B3LYP/6-311+g(d) force
 -------------------------

 -----
 DPGEN
 -----
 Symbolic Z-matrix:
 Charge =  0 Multiplicity = 2

                         Standard orientation:
 ---------------------------------------------------------------------
 Center     Atomic      Atomic             Coordinates (Angstroms)
 Number     Number       Type             X           Y           Z
 ---------------------------------------------------------------------
      1         11           0       -2.854677   -1.989992    0.239552
      2         11           0        0.013333    0.275762    1.663996
      3         11           0       -2.611648    1.615367   -0.264621
      4         11           0        0.162051    0.152956   -1.332156
      5         11           0        0.839969    3.230954   -0.139426
      6         11           0        1.097139   -3.019074   -0.383215
      7         11           0        3.353833   -0.265974    0.215870
 ---------------------------------------------------------------------

 SCF Done:  E(UB3LYP) =  -1136.13057089     A.U. after   22 cycles

 The electronic state is 2-A.
 Alpha  occ. eigenvalues --  -38.44399 -38.44090 -38.44078 -38.44014 -38.43937
 Alpha  occ. eigenvalues --  -38.43051 -38.42921  -2.20192  -2.19917  -2.19856
 Alpha  occ. eigenvalues --   -2.19824  -2.19736  -2.18995  -2.18925  -1.13868
 Alpha  occ. eigenvalues --   -1.13848  -1.13830  -1.13613  -1.13590  -1.13539
 Alpha  occ. eigenvalues --   -1.13529  -1.13508  -1.13503  -1.13493  -1.13483
 Alpha  occ. eigenvalues --   -1.13458  -1.13417  -1.13394  -1.13364  -1.12840
 Alpha  occ. eigenvalues --   -1.12607  -1.12585  -1.12578  -1.12538  -1.12525
 Alpha  occ. eigenvalues --   -0.18249  -0.12972  -0.12432  -0.09674
 Alpha virt. eigenvalues --   -0.05831  -0.05622  -0.05309  -0.02771  -0.02518
 Alpha virt. eigenvalues --   -0.01812  -0.01723  -0.01631  -0.00895  -0.00762
 Alpha virt. eigenvalues --    0.00022   0.00298   0.00723   0.00757   0.00769

  Beta  occ. eigenvalues --  -38.44393 -38.44088 -38.44068 -38.44009 -38.43924
  Beta  occ. eigenvalues --  -38.42975 -38.42871  -2.20185  -2.19902  -2.19854
  Beta  occ. eigenvalues --   -2.19818  -2.19713  -2.18857  -2.18832  -1.13853
  Beta  occ. eigenvalues --   -1.13843  -1.13818  -1.13602  -1.13564  -1.13530
  Beta  occ. eigenvalues --   -1.13515  -1.13505  -1.13493  -1.13489  -1.13474
  Beta  occ. eigenvalues --   -1.13445  -1.13394  -1.13371  -1.13352  -1.12750
  Beta  occ. eigenvalues --   -1.12513  -1.12495  -1.12489  -1.12461  -1.12453
  Beta  occ. eigenvalues --   -0.17592  -0.12708  -0.12197
  Beta virt. eigenvalues --   -0.06021  -0.05751  -0.05568  -0.05189  -0.02083
  Beta virt. eigenvalues --   -0.01892  -0.01693  -0.01630  -0.00921  -0.00854
  Beta virt. eigenvalues --   -0.00672   0.00177   0.00361   0.00738   0.00776

 Mulliken charges and spin densities:
               1          2
     1  Na  -0.071649  -0.012437
     2  Na  -0.170724   0.761246
     3  Na   0.199984   0.002204
     4  Na  -0.193599   0.312387
     5  Na   0.145726  -0.065744
     6  Na  -0.021849   0.023376
     7  Na   0.112111  -0.021031
 Sum of Mulliken charges =  -0.00000   1.00000

 Dipole moment (field-independent basis, Debye):
    X=              0.2132    Y=              0.1517    Z=              0.0833  Tot=              0.2746
 Quadrupole moment (field-independent basis, Debye-Ang):
   XX=            -53.6560   YY=            -55.8138   ZZ=            -79.5852
   XY=              1.0419   XZ=              0.3467   YZ=             -0.4230

 Normal termination of Gaussian 16 at Fri Dec  8 01:49:49 2023.
