 Gaussian 16, Revision B.01,
 Gaussian 16:  ES64L-G16RevB.01 20-Dec-2017

 -------------------------
 #P B3LYP/6-311+g(d) force
 -------------------------

 -----
 DPGEN
 -----
 Symbolic Z-matrix:
 Charge =  0 Multiplicity = 2

                         Standard orientation:
 ---------------------------------------------------------------------
 Center     Atomic      Atomic             Coordinates (Angstroms)
 Number     Number       Type             X           Y           Z
 ---------------------------------------------------------------------
      1         11           0        1.250304   -0.802693    1.438057
      2         11           0       -1.391497   -2.068295    0.141390
      3         11           0       -1.556934    1.591302    1.391306
      4         11           0        2.996929    1.430599   -0.917801
      5         11           0        0.580429    3.376036   -0.438478
      6         11           0       -4.286272   -0.425154   -1.113963
      7         11           0        2.407041   -3.101794   -0.500511
 ---------------------------------------------------------------------

 SCF Done:  E(UB3LYP) =  -1136.12131629     A.U. after   21 cycles

 The electronic state is 2-A.
 Alpha  occ. eigenvalues --  -38.44830 -38.44192 -38.44067 -38.44044 -38.44033
 Alpha  occ. eigenvalues --  -38.43884 -38.43883  -2.20613  -2.20007  -2.19968
 Alpha  occ. eigenvalues --   -2.19863  -2.19855  -2.19705  -2.19671  -1.14291
 Alpha  occ. eigenvalues --   -1.14267  -1.14253  -1.13767  -1.13703  -1.13641
 Alpha  occ. eigenvalues --   -1.13625  -1.13611  -1.13596  -1.13571  -1.13530
 Alpha  occ. eigenvalues --   -1.13528  -1.13507  -1.13494  -1.13431  -1.13371
 Alpha  occ. eigenvalues --   -1.13365  -1.13322  -1.13317  -1.13313  -1.13279
 Alpha  occ. eigenvalues --   -0.17153  -0.13177  -0.12985  -0.10485
 Alpha virt. eigenvalues --   -0.06463  -0.05834  -0.04337  -0.03792  -0.02970
 Alpha virt. eigenvalues --   -0.01974  -0.01796  -0.01415  -0.01181  -0.00808
 Alpha virt. eigenvalues --   -0.00212   0.00050   0.00486   0.00506   0.00595

  Beta  occ. eigenvalues --  -38.44830 -38.44192 -38.44034 -38.44032 -38.43999
  Beta  occ. eigenvalues --  -38.43841 -38.43804  -2.20613  -2.20012  -2.19910
  Beta  occ. eigenvalues --   -2.19858  -2.19778  -2.19628  -2.19524  -1.14291
  Beta  occ. eigenvalues --   -1.14268  -1.14251  -1.13740  -1.13702  -1.13635
  Beta  occ. eigenvalues --   -1.13591  -1.13582  -1.13557  -1.13526  -1.13524
  Beta  occ. eigenvalues --   -1.13508  -1.13462  -1.13442  -1.13391  -1.13319
  Beta  occ. eigenvalues --   -1.13304  -1.13263  -1.13221  -1.13213  -1.13186
  Beta  occ. eigenvalues --   -0.16652  -0.12924  -0.12371
  Beta virt. eigenvalues --   -0.07092  -0.06252  -0.05609  -0.03971  -0.03456
  Beta virt. eigenvalues --   -0.02607  -0.01715  -0.01485  -0.01045  -0.00935
  Beta virt. eigenvalues --   -0.00721   0.00036   0.00199   0.00513   0.00623

 Mulliken charges and spin densities:
               1          2
     1  Na   0.761019   0.234512
     2  Na  -0.816235  -0.042033
     3  Na  -0.184011   0.180188
     4  Na  -0.350052   0.288192
     5  Na   0.140646  -0.045373
     6  Na   0.235205   0.414536
     7  Na   0.213428  -0.030022
 Sum of Mulliken charges =  -0.00000   1.00000

 Dipole moment (field-independent basis, Debye):
    X=              0.7516    Y=             -0.4982    Z=             -0.1609  Tot=              0.9160
 Quadrupole moment (field-independent basis, Debye-Ang):
   XX=            -67.0244   YY=            -60.8226   ZZ=            -70.7532
   XY=             -9.1799   XZ=             -0.7381   YZ=              1.7975

 Normal termination of Gaussian 16 at Wed Nov 29 02:13:47 2023.
