 Gaussian 16, Revision B.01,
 Gaussian 16:  ES64L-G16RevB.01 20-Dec-2017

 -------------------------
 #P B3LYP/6-311+g(d) force
 -------------------------

 -----
 DPGEN
 -----
 Symbolic Z-matrix:
 Charge =  0 Multiplicity = 2

                         Standard orientation:
 ---------------------------------------------------------------------
 Center     Atomic      Atomic             Coordinates (Angstroms)
 Number     Number       Type             X           Y           Z
 ---------------------------------------------------------------------
      1         11           0        0.221246   -0.175670   -1.754959
      2         11           0       -2.010567    2.047519   -0.197484
      3         11           0        0.240753   -3.038341    0.013617
      4         11           0        1.502291    2.758447    0.197260
      5         11           0        0.067902   -0.283064    2.021049
      6         11           0        3.084157   -0.533586   -0.212222
      7         11           0       -3.105781   -0.775304   -0.067261
 ---------------------------------------------------------------------

 SCF Done:  E(UB3LYP) =  -1136.13714778     A.U. after   19 cycles

 The electronic state is 2-A.
 Alpha  occ. eigenvalues --  -38.44277 -38.44011 -38.43591 -38.43589 -38.43506
 Alpha  occ. eigenvalues --  -38.43425 -38.43390  -2.20103  -2.19850  -2.19472
 Alpha  occ. eigenvalues --   -2.19421  -2.19327  -2.19312  -2.19301  -1.13800
 Alpha  occ. eigenvalues --   -1.13763  -1.13723  -1.13572  -1.13506  -1.13478
 Alpha  occ. eigenvalues --   -1.13156  -1.13121  -1.13111  -1.13095  -1.13062
 Alpha  occ. eigenvalues --   -1.13046  -1.13012  -1.12984  -1.12983  -1.12980
 Alpha  occ. eigenvalues --   -1.12963  -1.12958  -1.12944  -1.12936  -1.12923
 Alpha  occ. eigenvalues --   -0.18463  -0.13065  -0.12351  -0.10724
 Alpha virt. eigenvalues --   -0.05806  -0.05033  -0.04846  -0.03212  -0.02899
 Alpha virt. eigenvalues --   -0.02604  -0.01569  -0.01193  -0.00487  -0.00331
 Alpha virt. eigenvalues --   -0.00021   0.00365   0.00792   0.00858   0.00910

  Beta  occ. eigenvalues --  -38.44270 -38.44010 -38.43584 -38.43504 -38.43499
  Beta  occ. eigenvalues --  -38.43420 -38.43321  -2.20093  -2.19850  -2.19415
  Beta  occ. eigenvalues --   -2.19311  -2.19303  -2.19294  -2.19200  -1.13782
  Beta  occ. eigenvalues --   -1.13742  -1.13721  -1.13575  -1.13488  -1.13478
  Beta  occ. eigenvalues --   -1.13113  -1.13075  -1.13046  -1.13024  -1.12989
  Beta  occ. eigenvalues --   -1.12980  -1.12972  -1.12969  -1.12960  -1.12953
  Beta  occ. eigenvalues --   -1.12941  -1.12917  -1.12912  -1.12859  -1.12856
  Beta  occ. eigenvalues --   -0.17734  -0.12831  -0.12131
  Beta virt. eigenvalues --   -0.06828  -0.05782  -0.04998  -0.04802  -0.02427
  Beta virt. eigenvalues --   -0.02139  -0.01554  -0.01477  -0.01117  -0.00555
  Beta virt. eigenvalues --   -0.00373   0.00118   0.00390   0.00806   0.00883

 Mulliken charges and spin densities:
               1          2
     1  Na  -0.097766   0.579868
     2  Na   0.044477  -0.026430
     3  Na   0.140122  -0.152114
     4  Na  -0.026063  -0.048092
     5  Na  -0.404326   0.818295
     6  Na   0.221390  -0.088624
     7  Na   0.122167  -0.082903
 Sum of Mulliken charges =  -0.00000   1.00000

 Dipole moment (field-independent basis, Debye):
    X=              0.2452    Y=             -0.2943    Z=              0.0636  Tot=              0.3883
 Quadrupole moment (field-independent basis, Debye-Ang):
   XX=            -57.3261   YY=            -61.9672   ZZ=            -74.5802
   XY=              0.8130   XZ=              0.2708   YZ=              0.3516

 Normal termination of Gaussian 16 at Thu Dec  7 23:49:30 2023.
