 Gaussian 16, Revision B.01,
 Gaussian 16:  ES64L-G16RevB.01 20-Dec-2017

 -------------------------
 #P B3LYP/6-311+g(d) force
 -------------------------

 -----
 DPGEN
 -----
 Symbolic Z-matrix:
 Charge =  0 Multiplicity = 2

                         Standard orientation:
 ---------------------------------------------------------------------
 Center     Atomic      Atomic             Coordinates (Angstroms)
 Number     Number       Type             X           Y           Z
 ---------------------------------------------------------------------
      1         11           0       -0.125973   -0.414289    2.050144
      2         11           0        2.124299   -2.209264    0.312629
      3         11           0       -1.200533   -1.426892   -1.373783
      4         11           0       -3.592781   -0.226246    0.427701
      5         11           0        2.424829    1.709226    0.602919
      6         11           0        1.459608    0.301133   -1.640107
      7         11           0       -1.089448    2.266332   -0.379502
 ---------------------------------------------------------------------

 SCF Done:  E(UB3LYP) =  -1136.12910946     A.U. after   20 cycles

 The electronic state is 2-A.
 Alpha  occ. eigenvalues --  -38.44459 -38.44267 -38.43853 -38.43574 -38.43565
 Alpha  occ. eigenvalues --  -38.43264 -38.43180  -2.20275  -2.20144  -2.19748
 Alpha  occ. eigenvalues --   -2.19597  -2.19468  -2.19103  -2.19034  -1.13959
 Alpha  occ. eigenvalues --   -1.13929  -1.13913  -1.13812  -1.13778  -1.13765
 Alpha  occ. eigenvalues --   -1.13648  -1.13394  -1.13336  -1.13307  -1.13198
 Alpha  occ. eigenvalues --   -1.13164  -1.13129  -1.13113  -1.13063  -1.12802
 Alpha  occ. eigenvalues --   -1.12787  -1.12710  -1.12703  -1.12698  -1.12665
 Alpha  occ. eigenvalues --   -0.18869  -0.13489  -0.11654  -0.11590
 Alpha virt. eigenvalues --   -0.06104  -0.04917  -0.04189  -0.03369  -0.03041
 Alpha virt. eigenvalues --   -0.02896  -0.01775  -0.00849  -0.00487   0.00102
 Alpha virt. eigenvalues --    0.00265   0.00324   0.00558   0.00762   0.00872

  Beta  occ. eigenvalues --  -38.44459 -38.44184 -38.43844 -38.43521 -38.43518
  Beta  occ. eigenvalues --  -38.43257 -38.43176  -2.20276  -2.19991  -2.19733
  Beta  occ. eigenvalues --   -2.19496  -2.19390  -2.19094  -2.19031  -1.13957
  Beta  occ. eigenvalues --   -1.13924  -1.13912  -1.13714  -1.13670  -1.13651
  Beta  occ. eigenvalues --   -1.13615  -1.13368  -1.13323  -1.13235  -1.13135
  Beta  occ. eigenvalues --   -1.13102  -1.13072  -1.13040  -1.13013  -1.12794
  Beta  occ. eigenvalues --   -1.12760  -1.12702  -1.12700  -1.12692  -1.12654
  Beta  occ. eigenvalues --   -0.18069  -0.13348  -0.11377
  Beta virt. eigenvalues --   -0.07587  -0.05943  -0.04891  -0.03672  -0.03106
  Beta virt. eigenvalues --   -0.02193  -0.02019  -0.01688  -0.00795  -0.00215
  Beta virt. eigenvalues --    0.00139   0.00261   0.00354   0.00725   0.00829

 Mulliken charges and spin densities:
               1          2
     1  Na  -0.388099   0.656516
     2  Na  -0.001715  -0.024547
     3  Na  -0.280258   0.075993
     4  Na   0.394318  -0.010944
     5  Na   0.210073   0.045451
     6  Na   0.433012   0.244433
     7  Na  -0.367330   0.013098
 Sum of Mulliken charges =  -0.00000   1.00000

 Dipole moment (field-independent basis, Debye):
    X=             -0.6104    Y=             -0.0349    Z=              0.5229  Tot=              0.8045
 Quadrupole moment (field-independent basis, Debye-Ang):
   XX=            -53.7664   YY=            -72.5131   ZZ=            -68.4779
   XY=             -0.3526   XZ=              0.1398   YZ=              0.8306

 Normal termination of Gaussian 16 at Fri Dec  8 02:52:24 2023.
