 Gaussian 16, Revision B.01,
 Gaussian 16:  ES64L-G16RevB.01 20-Dec-2017

 -------------------------
 #P B3LYP/6-311+g(d) force
 -------------------------

 -----
 DPGEN
 -----
 Symbolic Z-matrix:
 Charge =  0 Multiplicity = 2

                         Standard orientation:
 ---------------------------------------------------------------------
 Center     Atomic      Atomic             Coordinates (Angstroms)
 Number     Number       Type             X           Y           Z
 ---------------------------------------------------------------------
      1         11           0       -0.384802   -0.634545   -1.475063
      2         11           0       -0.629672   -1.235226    1.327594
      3         11           0       -2.970443   -0.521328   -0.300355
      4         11           0       -1.190662    1.880924    0.313238
      5         11           0        1.390689    0.811033    1.603944
      6         11           0        1.600726    1.374196   -1.247514
      7         11           0        2.184165   -1.675054   -0.221845
 ---------------------------------------------------------------------

 SCF Done:  E(UB3LYP) =  -1136.10296434     A.U. after   21 cycles

 The electronic state is 2-A.
 Alpha  occ. eigenvalues --  -38.44147 -38.43939 -38.43840 -38.43686 -38.43553
 Alpha  occ. eigenvalues --  -38.43139 -38.42593  -2.20155  -2.20075  -2.20042
 Alpha  occ. eigenvalues --   -2.19745  -2.19699  -2.19122  -2.18645  -1.14095
 Alpha  occ. eigenvalues --   -1.13908  -1.13862  -1.13805  -1.13792  -1.13759
 Alpha  occ. eigenvalues --   -1.13741  -1.13635  -1.13605  -1.13371  -1.13344
 Alpha  occ. eigenvalues --   -1.13329  -1.13306  -1.13291  -1.13253  -1.12808
 Alpha  occ. eigenvalues --   -1.12775  -1.12735  -1.12355  -1.12307  -1.12252
 Alpha  occ. eigenvalues --   -0.20930  -0.14013  -0.12544  -0.11918
 Alpha virt. eigenvalues --   -0.05460  -0.04216  -0.04106  -0.03596  -0.02979
 Alpha virt. eigenvalues --   -0.02920  -0.01302  -0.00466  -0.00324   0.00319
 Alpha virt. eigenvalues --    0.00703   0.00815   0.00947   0.01032   0.01072

  Beta  occ. eigenvalues --  -38.44142 -38.43875 -38.43772 -38.43644 -38.43499
  Beta  occ. eigenvalues --  -38.43131 -38.42580  -2.20145  -2.19959  -2.19928
  Beta  occ. eigenvalues --   -2.19670  -2.19605  -2.19112  -2.18627  -1.14046
  Beta  occ. eigenvalues --   -1.13850  -1.13805  -1.13765  -1.13720  -1.13692
  Beta  occ. eigenvalues --   -1.13681  -1.13556  -1.13537  -1.13301  -1.13287
  Beta  occ. eigenvalues --   -1.13271  -1.13245  -1.13204  -1.13181  -1.12801
  Beta  occ. eigenvalues --   -1.12749  -1.12717  -1.12347  -1.12261  -1.12236
  Beta  occ. eigenvalues --   -0.20095  -0.13764  -0.11700
  Beta virt. eigenvalues --   -0.08157  -0.05377  -0.04229  -0.03393  -0.03242
  Beta virt. eigenvalues --   -0.02205  -0.01938  -0.01244  -0.00449  -0.00060
  Beta virt. eigenvalues --    0.00353   0.00747   0.00820   0.01022   0.01105

 Mulliken charges and spin densities:
               1          2
     1  Na  -0.191253   0.442244
     2  Na  -0.448218   0.292122
     3  Na   0.905529  -0.021241
     4  Na  -0.779053   0.088643
     5  Na   0.570384   0.277164
     6  Na   0.158175   0.023888
     7  Na  -0.215564  -0.102819
 Sum of Mulliken charges =  -0.00000   1.00000

 Dipole moment (field-independent basis, Debye):
    X=             -0.0401    Y=              0.0435    Z=              0.0232  Tot=              0.0635
 Quadrupole moment (field-independent basis, Debye-Ang):
   XX=            -56.3355   YY=            -73.6116   ZZ=            -65.8279
   XY=             -0.4783   XZ=             -0.1494   YZ=             -0.2326

 Normal termination of Gaussian 16 at Fri Dec  8 19:15:13 2023.
