 Gaussian 16, Revision B.01,
 Gaussian 16:  ES64L-G16RevB.01 20-Dec-2017

 -------------------------
 #P B3LYP/6-311+g(d) force
 -------------------------

 -----
 DPGEN
 -----
 Symbolic Z-matrix:
 Charge =  0 Multiplicity = 2

                         Standard orientation:
 ---------------------------------------------------------------------
 Center     Atomic      Atomic             Coordinates (Angstroms)
 Number     Number       Type             X           Y           Z
 ---------------------------------------------------------------------
      1         11           0       -2.130097    2.334948   -0.654109
      2         11           0        1.453342    1.592767    0.910403
      3         11           0        4.043560   -0.096261   -0.496167
      4         11           0        1.105624   -2.182487   -0.181499
      5         11           0       -3.247047   -1.626454   -0.307512
      6         11           0       -0.933125   -0.270457    2.020651
      7         11           0       -0.292256    0.247944   -1.291767
 ---------------------------------------------------------------------

 SCF Done:  E(UB3LYP) =  -1136.11802013     A.U. after   23 cycles

 The electronic state is 2-A.
 Alpha  occ. eigenvalues --  -38.45054 -38.44638 -38.43760 -38.43714 -38.43548
 Alpha  occ. eigenvalues --  -38.43401 -38.43208  -2.20837  -2.20412  -2.19786
 Alpha  occ. eigenvalues --   -2.19616  -2.19482  -2.19267  -2.19129  -1.14509
 Alpha  occ. eigenvalues --   -1.14498  -1.14458  -1.14097  -1.14064  -1.14042
 Alpha  occ. eigenvalues --   -1.13632  -1.13498  -1.13385  -1.13315  -1.13285
 Alpha  occ. eigenvalues --   -1.13184  -1.13177  -1.13104  -1.13080  -1.12946
 Alpha  occ. eigenvalues --   -1.12888  -1.12859  -1.12836  -1.12795  -1.12709
 Alpha  occ. eigenvalues --   -0.18701  -0.13575  -0.11404  -0.10975
 Alpha virt. eigenvalues --   -0.07022  -0.05109  -0.03738  -0.03155  -0.02707
 Alpha virt. eigenvalues --   -0.02455  -0.02352  -0.01314  -0.00694  -0.00086
 Alpha virt. eigenvalues --    0.00082   0.00159   0.00515   0.00707   0.00800

  Beta  occ. eigenvalues --  -38.45042 -38.44633 -38.43753 -38.43680 -38.43454
  Beta  occ. eigenvalues --  -38.43378 -38.43178  -2.20815  -2.20403  -2.19727
  Beta  occ. eigenvalues --   -2.19606  -2.19311  -2.19228  -2.19079  -1.14492
  Beta  occ. eigenvalues --   -1.14483  -1.14444  -1.14086  -1.14053  -1.14036
  Beta  occ. eigenvalues --   -1.13590  -1.13447  -1.13349  -1.13293  -1.13255
  Beta  occ. eigenvalues --   -1.13173  -1.13062  -1.12986  -1.12956  -1.12910
  Beta  occ. eigenvalues --   -1.12864  -1.12827  -1.12805  -1.12720  -1.12684
  Beta  occ. eigenvalues --   -0.17988  -0.13293  -0.11191
  Beta virt. eigenvalues --   -0.07124  -0.06793  -0.04958  -0.03527  -0.02802
  Beta virt. eigenvalues --   -0.02497  -0.01864  -0.01421  -0.01210  -0.00419
  Beta virt. eigenvalues --    0.00000   0.00133   0.00159   0.00648   0.00764

 Mulliken charges and spin densities:
               1          2
     1  Na   0.072993   0.087163
     2  Na   0.248167   0.131266
     3  Na   0.033150   0.072678
     4  Na   0.193098   0.065113
     5  Na   0.074859  -0.010426
     6  Na   0.134881   0.370872
     7  Na  -0.757149   0.283334
 Sum of Mulliken charges =  -0.00000   1.00000

 Dipole moment (field-independent basis, Debye):
    X=              0.2397    Y=             -0.2704    Z=              0.2100  Tot=              0.4180
 Quadrupole moment (field-independent basis, Debye-Ang):
   XX=            -46.0356   YY=            -72.2090   ZZ=            -72.3718
   XY=              0.9632   XZ=             -1.0184   YZ=              1.0870

 Normal termination of Gaussian 16 at Tue Dec  5 11:50:32 2023.
