 Gaussian 16, Revision B.01,
 Gaussian 16:  ES64L-G16RevB.01 20-Dec-2017

 -------------------------
 #P B3LYP/6-311+g(d) force
 -------------------------

 -----
 DPGEN
 -----
 Symbolic Z-matrix:
 Charge =  0 Multiplicity = 2

                         Standard orientation:
 ---------------------------------------------------------------------
 Center     Atomic      Atomic             Coordinates (Angstroms)
 Number     Number       Type             X           Y           Z
 ---------------------------------------------------------------------
      1         11           0       -2.004789   -0.574529    1.858047
      2         11           0        2.423252    1.270722   -1.146332
      3         11           0        1.154701    0.800101    1.862040
      4         11           0       -1.350726    2.186151   -0.481052
      5         11           0        3.388304   -1.634169    0.190445
      6         11           0        0.004350   -1.124405   -1.435609
      7         11           0       -3.615092   -0.923871   -0.847540
 ---------------------------------------------------------------------

 SCF Done:  E(UB3LYP) =  -1136.12594079     A.U. after   24 cycles

 The electronic state is 2-A.
 Alpha  occ. eigenvalues --  -38.44517 -38.44231 -38.44173 -38.44047 -38.43881
 Alpha  occ. eigenvalues --  -38.43735 -38.42946  -2.20397  -2.20108  -2.20000
 Alpha  occ. eigenvalues --   -2.19866  -2.19711  -2.19563  -2.18829  -1.14088
 Alpha  occ. eigenvalues --   -1.14073  -1.13997  -1.13792  -1.13765  -1.13728
 Alpha  occ. eigenvalues --   -1.13707  -1.13690  -1.13596  -1.13533  -1.13520
 Alpha  occ. eigenvalues --   -1.13491  -1.13384  -1.13361  -1.13341  -1.13246
 Alpha  occ. eigenvalues --   -1.13210  -1.13184  -1.12522  -1.12493  -1.12439
 Alpha  occ. eigenvalues --   -0.18302  -0.14173  -0.11419  -0.10821
 Alpha virt. eigenvalues --   -0.06431  -0.05526  -0.04889  -0.03156  -0.02690
 Alpha virt. eigenvalues --   -0.02342  -0.02240  -0.01127  -0.00848  -0.00260
 Alpha virt. eigenvalues --    0.00204   0.00253   0.00315   0.00457   0.00657

  Beta  occ. eigenvalues --  -38.44491 -38.44178 -38.44155 -38.44027 -38.43878
  Beta  occ. eigenvalues --  -38.43702 -38.42913  -2.20350  -2.20010  -2.19969
  Beta  occ. eigenvalues --   -2.19828  -2.19706  -2.19504  -2.18772  -1.14050
  Beta  occ. eigenvalues --   -1.14040  -1.13957  -1.13720  -1.13702  -1.13677
  Beta  occ. eigenvalues --   -1.13662  -1.13650  -1.13580  -1.13506  -1.13489
  Beta  occ. eigenvalues --   -1.13469  -1.13368  -1.13359  -1.13337  -1.13201
  Beta  occ. eigenvalues --   -1.13159  -1.13145  -1.12481  -1.12443  -1.12395
  Beta  occ. eigenvalues --   -0.17600  -0.13967  -0.10629
  Beta virt. eigenvalues --   -0.07589  -0.06219  -0.05118  -0.04488  -0.02826
  Beta virt. eigenvalues --   -0.02313  -0.02096  -0.01684  -0.00889  -0.00426
  Beta virt. eigenvalues --   -0.00138   0.00236   0.00334   0.00394   0.00577

 Mulliken charges and spin densities:
               1          2
     1  Na  -0.079106   0.067307
     2  Na   0.517605   0.157023
     3  Na  -0.225830   0.366373
     4  Na  -0.202281   0.205138
     5  Na   0.206013  -0.030599
     6  Na  -0.635738   0.250216
     7  Na   0.419336  -0.015457
 Sum of Mulliken charges =  -0.00000   1.00000

 Dipole moment (field-independent basis, Debye):
    X=              0.0638    Y=              0.3202    Z=             -0.1443  Tot=              0.3569
 Quadrupole moment (field-independent basis, Debye-Ang):
   XX=            -53.1176   YY=            -72.5680   ZZ=            -70.5336
   XY=             -0.6881   XZ=              0.8452   YZ=             -6.5265

 Normal termination of Gaussian 16 at Thu Dec  7 09:19:41 2023.
