 Gaussian 16, Revision B.01,
 Gaussian 16:  ES64L-G16RevB.01 20-Dec-2017

 -------------------------
 #P B3LYP/6-311+g(d) force
 -------------------------

 -----
 DPGEN
 -----
 Symbolic Z-matrix:
 Charge =  0 Multiplicity = 2

                         Standard orientation:
 ---------------------------------------------------------------------
 Center     Atomic      Atomic             Coordinates (Angstroms)
 Number     Number       Type             X           Y           Z
 ---------------------------------------------------------------------
      1         11           0       -2.537635    2.146481   -0.356299
      2         11           0       -5.005179    0.064356   -0.471076
      3         11           0       -2.811298   -1.864178    0.180848
      4         11           0        0.985223   -1.642490   -0.479882
      5         11           0       -0.102732    1.053587    1.135959
      6         11           0        3.562009   -0.350670    0.897783
      7         11           0        5.909612    0.592913   -0.907332
 ---------------------------------------------------------------------

 SCF Done:  E(UB3LYP) =  -1136.11239362     A.U. after   22 cycles

 The electronic state is 2-A.
 Alpha  occ. eigenvalues --  -38.45033 -38.44857 -38.44480 -38.44248 -38.43796
 Alpha  occ. eigenvalues --  -38.43384 -38.43295  -2.20891  -2.20744  -2.20330
 Alpha  occ. eigenvalues --   -2.20128  -2.19669  -2.19254  -2.19078  -1.14564
 Alpha  occ. eigenvalues --   -1.14555  -1.14507  -1.14449  -1.14386  -1.14351
 Alpha  occ. eigenvalues --   -1.14012  -1.13990  -1.13959  -1.13811  -1.13779
 Alpha  occ. eigenvalues --   -1.13731  -1.13354  -1.13311  -1.13303  -1.12949
 Alpha  occ. eigenvalues --   -1.12942  -1.12897  -1.12737  -1.12735  -1.12699
 Alpha  occ. eigenvalues --   -0.17525  -0.14439  -0.12122  -0.11205
 Alpha virt. eigenvalues --   -0.06376  -0.05959  -0.04200  -0.03561  -0.03255
 Alpha virt. eigenvalues --   -0.02719  -0.01885  -0.01430  -0.00972  -0.00491
 Alpha virt. eigenvalues --   -0.00193  -0.00084   0.00219   0.00419   0.00625

  Beta  occ. eigenvalues --  -38.44960 -38.44778 -38.44455 -38.44208 -38.43783
  Beta  occ. eigenvalues --  -38.43381 -38.43309  -2.20758  -2.20601  -2.20283
  Beta  occ. eigenvalues --   -2.20058  -2.19648  -2.19247  -2.19105  -1.14474
  Beta  occ. eigenvalues --   -1.14461  -1.14408  -1.14337  -1.14292  -1.14251
  Beta  occ. eigenvalues --   -1.13978  -1.13959  -1.13920  -1.13756  -1.13738
  Beta  occ. eigenvalues --   -1.13660  -1.13326  -1.13297  -1.13286  -1.12945
  Beta  occ. eigenvalues --   -1.12939  -1.12900  -1.12755  -1.12753  -1.12713
  Beta  occ. eigenvalues --   -0.16760  -0.14302  -0.11157
  Beta virt. eigenvalues --   -0.07992  -0.06122  -0.05509  -0.03817  -0.03147
  Beta virt. eigenvalues --   -0.02669  -0.02528  -0.01608  -0.01080  -0.00846
  Beta virt. eigenvalues --   -0.00389  -0.00053   0.00137   0.00328   0.00591

 Mulliken charges and spin densities:
               1          2
     1  Na   0.241517   0.184504
     2  Na   0.262045   0.007341
     3  Na  -0.168156   0.379273
     4  Na  -0.132059   0.154270
     5  Na  -0.405364   0.298557
     6  Na   0.228570   0.059917
     7  Na  -0.026551  -0.083861
 Sum of Mulliken charges =  -0.00000   1.00000

 Dipole moment (field-independent basis, Debye):
    X=             -1.7231    Y=             -0.0685    Z=             -0.2525  Tot=              1.7428
 Quadrupole moment (field-independent basis, Debye-Ang):
   XX=            -74.3874   YY=            -66.9151   ZZ=            -66.6891
   XY=              0.0430   XZ=             -1.9018   YZ=             -0.6648

 Normal termination of Gaussian 16 at Tue Nov 28 22:07:12 2023.
