 Gaussian 16, Revision B.01,
 Gaussian 16:  ES64L-G16RevB.01 20-Dec-2017

 -------------------------
 #P B3LYP/6-311+g(d) force
 -------------------------

 -----
 DPGEN
 -----
 Symbolic Z-matrix:
 Charge =  0 Multiplicity = 2

                         Standard orientation:
 ---------------------------------------------------------------------
 Center     Atomic      Atomic             Coordinates (Angstroms)
 Number     Number       Type             X           Y           Z
 ---------------------------------------------------------------------
      1         11           0        0.406376   -0.303763    1.764022
      2         11           0        0.695429    0.122256   -1.277355
      3         11           0       -2.888872   -1.126900    0.852310
      4         11           0       -0.746052   -2.287120   -0.924009
      5         11           0        0.954173    3.269273    0.287002
      6         11           0        3.470349   -1.384946    0.063925
      7         11           0       -1.891403    1.711199   -0.765894
 ---------------------------------------------------------------------

 SCF Done:  E(UB3LYP) =  -1136.12374353     A.U. after   19 cycles

 The electronic state is 2-A.
 Alpha  occ. eigenvalues --  -38.44305 -38.43966 -38.43835 -38.43670 -38.43628
 Alpha  occ. eigenvalues --  -38.43622 -38.43010  -2.20078  -2.19921  -2.19638
 Alpha  occ. eigenvalues --   -2.19563  -2.19550  -2.19514  -2.19102  -1.13757
 Alpha  occ. eigenvalues --   -1.13737  -1.13729  -1.13711  -1.13601  -1.13510
 Alpha  occ. eigenvalues --   -1.13321  -1.13308  -1.13297  -1.13289  -1.13281
 Alpha  occ. eigenvalues --   -1.13230  -1.13183  -1.13175  -1.13160  -1.13158
 Alpha  occ. eigenvalues --   -1.13127  -1.13118  -1.12790  -1.12733  -1.12676
 Alpha  occ. eigenvalues --   -0.18865  -0.12817  -0.12473  -0.10780
 Alpha virt. eigenvalues --   -0.05982  -0.05407  -0.03908  -0.03195  -0.02800
 Alpha virt. eigenvalues --   -0.02391  -0.01875  -0.01385  -0.00403   0.00019
 Alpha virt. eigenvalues --    0.00258   0.00297   0.00690   0.00759   0.00831

  Beta  occ. eigenvalues --  -38.44309 -38.43931 -38.43836 -38.43653 -38.43603
  Beta  occ. eigenvalues --  -38.43558 -38.42951  -2.20087  -2.19862  -2.19640
  Beta  occ. eigenvalues --   -2.19534  -2.19480  -2.19422  -2.19000  -1.13760
  Beta  occ. eigenvalues --   -1.13737  -1.13718  -1.13674  -1.13552  -1.13460
  Beta  occ. eigenvalues --   -1.13307  -1.13305  -1.13288  -1.13264  -1.13212
  Beta  occ. eigenvalues --   -1.13197  -1.13151  -1.13140  -1.13120  -1.13097
  Beta  occ. eigenvalues --   -1.13074  -1.13041  -1.12729  -1.12627  -1.12601
  Beta  occ. eigenvalues --   -0.18095  -0.12627  -0.12283
  Beta virt. eigenvalues --   -0.06765  -0.05913  -0.05319  -0.03845  -0.02548
  Beta virt. eigenvalues --   -0.02201  -0.01859  -0.01366  -0.01199  -0.00256
  Beta virt. eigenvalues --    0.00070   0.00303   0.00328   0.00757   0.00829

 Mulliken charges and spin densities:
               1          2
     1  Na  -0.522946   0.678741
     2  Na  -0.310154   0.025063
     3  Na   0.318540   0.062439
     4  Na   0.157324   0.151442
     5  Na   0.160108  -0.058443
     6  Na   0.084318  -0.009409
     7  Na   0.112810   0.150166
 Sum of Mulliken charges =  -0.00000   1.00000

 Dipole moment (field-independent basis, Debye):
    X=              0.4485    Y=              0.1256    Z=              0.3316  Tot=              0.5718
 Quadrupole moment (field-independent basis, Debye-Ang):
   XX=            -54.9417   YY=            -62.3235   ZZ=            -73.6638
   XY=              0.2834   XZ=              0.3659   YZ=              1.3909

 Normal termination of Gaussian 16 at Fri Dec  8 04:14:49 2023.
