 Gaussian 16, Revision B.01,
 Gaussian 16:  ES64L-G16RevB.01 20-Dec-2017

 -------------------------
 #P B3LYP/6-311+g(d) force
 -------------------------

 -----
 DPGEN
 -----
 Symbolic Z-matrix:
 Charge =  0 Multiplicity = 2

                         Standard orientation:
 ---------------------------------------------------------------------
 Center     Atomic      Atomic             Coordinates (Angstroms)
 Number     Number       Type             X           Y           Z
 ---------------------------------------------------------------------
      1         11           0       -0.869380    0.004290    1.679235
      2         11           0        2.175928   -1.523937    0.835010
      3         11           0       -3.583027   -0.992027   -0.183095
      4         11           0        1.200545    1.235610   -0.785469
      5         11           0       -2.573603    2.172452   -0.009720
      6         11           0       -0.494122   -1.635954   -1.351814
      7         11           0        4.143658    0.739566   -0.184148
 ---------------------------------------------------------------------

 SCF Done:  E(UB3LYP) =  -1136.11300493     A.U. after   35 cycles

 The electronic state is 2-A.
 Alpha  occ. eigenvalues --  -38.44684 -38.44672 -38.44193 -38.44168 -38.43599
 Alpha  occ. eigenvalues --  -38.43404 -38.43383  -2.20598  -2.20539  -2.20108
 Alpha  occ. eigenvalues --   -2.20048  -2.19574  -2.19289  -2.19231  -1.14318
 Alpha  occ. eigenvalues --   -1.14277  -1.14237  -1.14208  -1.14184  -1.14163
 Alpha  occ. eigenvalues --   -1.13812  -1.13784  -1.13765  -1.13692  -1.13669
 Alpha  occ. eigenvalues --   -1.13644  -1.13267  -1.13234  -1.13174  -1.12998
 Alpha  occ. eigenvalues --   -1.12931  -1.12904  -1.12897  -1.12886  -1.12877
 Alpha  occ. eigenvalues --   -0.18815  -0.14854  -0.11152  -0.10602
 Alpha virt. eigenvalues --   -0.07782  -0.05444  -0.03959  -0.03596  -0.03070
 Alpha virt. eigenvalues --   -0.02186  -0.01772  -0.01580  -0.00679  -0.00451
 Alpha virt. eigenvalues --   -0.00362   0.00204   0.00314   0.00631   0.00662

  Beta  occ. eigenvalues --  -38.44682 -38.44619 -38.44178 -38.44129 -38.43526
  Beta  occ. eigenvalues --  -38.43389 -38.43377  -2.20599  -2.20441  -2.20084
  Beta  occ. eigenvalues --   -2.19975  -2.19442  -2.19263  -2.19224  -1.14325
  Beta  occ. eigenvalues --   -1.14263  -1.14216  -1.14135  -1.14122  -1.14089
  Beta  occ. eigenvalues --   -1.13788  -1.13755  -1.13735  -1.13644  -1.13618
  Beta  occ. eigenvalues --   -1.13603  -1.13179  -1.13135  -1.13079  -1.12982
  Beta  occ. eigenvalues --   -1.12916  -1.12891  -1.12883  -1.12865  -1.12850
  Beta  occ. eigenvalues --   -0.18231  -0.14372  -0.10842
  Beta virt. eigenvalues --   -0.07573  -0.06967  -0.05348  -0.03382  -0.03180
  Beta virt. eigenvalues --   -0.02938  -0.01878  -0.01438  -0.01179  -0.00350
  Beta virt. eigenvalues --   -0.00244  -0.00184   0.00247   0.00499   0.00652

 Mulliken charges and spin densities:
               1          2
     1  Na  -0.262122   0.185584
     2  Na   0.450554   0.205873
     3  Na   0.093499   0.203444
     4  Na  -0.391659   0.136165
     5  Na   0.270625   0.192682
     6  Na  -0.128443   0.140173
     7  Na  -0.032454  -0.063921
 Sum of Mulliken charges =  -0.00000   1.00000

 Dipole moment (field-independent basis, Debye):
    X=              0.1999    Y=             -0.6123    Z=              0.6605  Tot=              0.9226
 Quadrupole moment (field-independent basis, Debye-Ang):
   XX=            -56.5983   YY=            -76.1242   ZZ=            -67.7044
   XY=             -3.1301   XZ=              1.0952   YZ=             -4.4088

 Normal termination of Gaussian 16 at Wed Nov 29 02:02:17 2023.
