 Gaussian 16, Revision B.01,
 Gaussian 16:  ES64L-G16RevB.01 20-Dec-2017

 -------------------------
 #P B3LYP/6-311+g(d) force
 -------------------------

 -----
 DPGEN
 -----
 Symbolic Z-matrix:
 Charge =  0 Multiplicity = 2

                         Standard orientation:
 ---------------------------------------------------------------------
 Center     Atomic      Atomic             Coordinates (Angstroms)
 Number     Number       Type             X           Y           Z
 ---------------------------------------------------------------------
      1         11           0        0.012959   -0.169089   -1.661279
      2         11           0       -0.133580    0.077399    1.703014
      3         11           0        1.172796   -2.126704    0.124438
      4         11           0       -1.669292   -1.706041    0.050749
      5         11           0        2.419336    0.468344   -0.103777
      6         11           0       -2.131046    1.061314   -0.193534
      7         11           0        0.328827    2.394778    0.080389
 ---------------------------------------------------------------------

 SCF Done:  E(UB3LYP) =  -1136.08310135     A.U. after   18 cycles

 The electronic state is 2-A.
 Alpha  occ. eigenvalues --  -38.43859 -38.43850 -38.43677 -38.43650 -38.43611
 Alpha  occ. eigenvalues --  -38.43559 -38.43548  -2.20163  -2.20126  -2.19850
 Alpha  occ. eigenvalues --   -2.19802  -2.19735  -2.19676  -2.19641  -1.14119
 Alpha  occ. eigenvalues --   -1.13966  -1.13954  -1.13881  -1.13843  -1.13780
 Alpha  occ. eigenvalues --   -1.13728  -1.13610  -1.13502  -1.13467  -1.13431
 Alpha  occ. eigenvalues --   -1.13411  -1.13383  -1.13339  -1.13313  -1.13266
 Alpha  occ. eigenvalues --   -1.13261  -1.13249  -1.13210  -1.13184  -1.13092
 Alpha  occ. eigenvalues --   -0.21735  -0.13572  -0.13544  -0.12080
 Alpha virt. eigenvalues --   -0.04926  -0.04448  -0.04387  -0.03398  -0.03387
 Alpha virt. eigenvalues --   -0.02644  -0.00759  -0.00741  -0.00037   0.00370
 Alpha virt. eigenvalues --    0.00778   0.00830   0.01127   0.01136   0.01173

  Beta  occ. eigenvalues --  -38.43768 -38.43757 -38.43662 -38.43635 -38.43598
  Beta  occ. eigenvalues --  -38.43548 -38.43535  -2.20002  -2.19960  -2.19826
  Beta  occ. eigenvalues --   -2.19782  -2.19718  -2.19660  -2.19626  -1.14055
  Beta  occ. eigenvalues --   -1.13887  -1.13865  -1.13773  -1.13733  -1.13716
  Beta  occ. eigenvalues --   -1.13677  -1.13595  -1.13456  -1.13424  -1.13397
  Beta  occ. eigenvalues --   -1.13339  -1.13327  -1.13309  -1.13251  -1.13241
  Beta  occ. eigenvalues --   -1.13204  -1.13196  -1.13190  -1.13173  -1.13089
  Beta  occ. eigenvalues --   -0.20924  -0.13194  -0.13165
  Beta virt. eigenvalues --   -0.07874  -0.04982  -0.04425  -0.04369  -0.02443
  Beta virt. eigenvalues --   -0.02429  -0.01538  -0.00706  -0.00688   0.00097
  Beta virt. eigenvalues --    0.00395   0.00734   0.00783   0.01157   0.01168

 Mulliken charges and spin densities:
               1          2
     1  Na  -0.585129   0.377028
     2  Na  -0.568916   0.419128
     3  Na   0.194649   0.033551
     4  Na   0.271085   0.036315
     5  Na   0.154274   0.023975
     6  Na   0.279637   0.056099
     7  Na   0.254399   0.053903
 Sum of Mulliken charges =  -0.00000   1.00000

 Dipole moment (field-independent basis, Debye):
    X=              0.1458    Y=              0.0089    Z=              0.0563  Tot=              0.1565
 Quadrupole moment (field-independent basis, Debye-Ang):
   XX=            -63.7633   YY=            -64.0670   ZZ=            -69.9778
   XY=             -0.0115   XZ=              0.2681   YZ=             -0.4872

 Normal termination of Gaussian 16 at Fri Dec  8 18:00:38 2023.
