 Gaussian 16, Revision B.01,
 Gaussian 16:  ES64L-G16RevB.01 20-Dec-2017

 -------------------------
 #P B3LYP/6-311+g(d) force
 -------------------------

 -----
 DPGEN
 -----
 Symbolic Z-matrix:
 Charge =  0 Multiplicity = 2

                         Standard orientation:
 ---------------------------------------------------------------------
 Center     Atomic      Atomic             Coordinates (Angstroms)
 Number     Number       Type             X           Y           Z
 ---------------------------------------------------------------------
      1         11           0        2.617273    1.199883   -0.815977
      2         11           0        5.491010    0.492863    0.928265
      3         11           0        3.194370   -2.134758   -0.173921
      4         11           0       -0.064955   -1.391209   -0.413874
      5         11           0       -0.593835    2.266496   -0.127130
      6         11           0       -3.322301   -0.236097    0.476079
      7         11           0       -7.321561   -0.197178    0.126559
 ---------------------------------------------------------------------

 SCF Done:  E(UB3LYP) =  -1136.11329517     A.U. after   28 cycles

 The electronic state is 2-A.
 Alpha  occ. eigenvalues --  -38.44798 -38.44640 -38.44602 -38.44486 -38.44437
 Alpha  occ. eigenvalues --  -38.44271 -38.43784  -2.20648  -2.20510  -2.20419
 Alpha  occ. eigenvalues --   -2.20297  -2.20294  -2.19944  -2.19571  -1.14335
 Alpha  occ. eigenvalues --   -1.14320  -1.14257  -1.14205  -1.14180  -1.14138
 Alpha  occ. eigenvalues --   -1.14087  -1.14060  -1.14034  -1.13976  -1.13961
 Alpha  occ. eigenvalues --   -1.13952  -1.13948  -1.13901  -1.13899  -1.13647
 Alpha  occ. eigenvalues --   -1.13647  -1.13606  -1.13264  -1.13251  -1.13145
 Alpha  occ. eigenvalues --   -0.17511  -0.13999  -0.12148  -0.11103
 Alpha virt. eigenvalues --   -0.07149  -0.05621  -0.04435  -0.03989  -0.03424
 Alpha virt. eigenvalues --   -0.02450  -0.02035  -0.01609  -0.01060  -0.00818
 Alpha virt. eigenvalues --   -0.00556  -0.00213  -0.00160   0.00187   0.00558

  Beta  occ. eigenvalues --  -38.44741 -38.44592 -38.44552 -38.44427 -38.44383
  Beta  occ. eigenvalues --  -38.44364 -38.43744  -2.20549  -2.20427  -2.20330
  Beta  occ. eigenvalues --   -2.20200  -2.20185  -2.20119  -2.19493  -1.14265
  Beta  occ. eigenvalues --   -1.14257  -1.14157  -1.14148  -1.14110  -1.14055
  Beta  occ. eigenvalues --   -1.14029  -1.13991  -1.13965  -1.13917  -1.13883
  Beta  occ. eigenvalues --   -1.13872  -1.13868  -1.13833  -1.13812  -1.13766
  Beta  occ. eigenvalues --   -1.13766  -1.13720  -1.13203  -1.13195  -1.13119
  Beta  occ. eigenvalues --   -0.16483  -0.13679  -0.11517
  Beta virt. eigenvalues --   -0.07947  -0.06979  -0.05011  -0.04210  -0.03616
  Beta virt. eigenvalues --   -0.02647  -0.02152  -0.01807  -0.01519  -0.00888
  Beta virt. eigenvalues --   -0.00754  -0.00261  -0.00139   0.00025   0.00341

 Mulliken charges and spin densities:
               1          2
     1  Na  -0.704482   0.183647
     2  Na   0.368481   0.266509
     3  Na   0.239030   0.036100
     4  Na  -0.435218   0.729421
     5  Na   0.349469   0.356808
     6  Na   0.075744  -0.106818
     7  Na   0.106977  -0.465667
 Sum of Mulliken charges =  -0.00000   1.00000

 Dipole moment (field-independent basis, Debye):
    X=              2.5571    Y=              0.2382    Z=              0.0571  Tot=              2.5688
 Quadrupole moment (field-independent basis, Debye-Ang):
   XX=            -67.2963   YY=            -65.5958   ZZ=            -71.6432
   XY=             -3.3148   XZ=              3.1585   YZ=              0.4543

 Normal termination of Gaussian 16 at Tue Nov 28 22:26:15 2023.
