 Gaussian 16, Revision B.01,
 Gaussian 16:  ES64L-G16RevB.01 20-Dec-2017

 -------------------------
 #P B3LYP/6-311+g(d) force
 -------------------------

 -----
 DPGEN
 -----
 Symbolic Z-matrix:
 Charge =  0 Multiplicity = 2

                         Standard orientation:
 ---------------------------------------------------------------------
 Center     Atomic      Atomic             Coordinates (Angstroms)
 Number     Number       Type             X           Y           Z
 ---------------------------------------------------------------------
      1         11           0        2.194211    1.789400   -1.291548
      2         11           0       -0.389910    1.959080    0.479378
      3         11           0       -5.363552    0.153796   -0.693767
      4         11           0       -3.322379   -1.134415    0.852397
      5         11           0        0.267493   -1.170472   -0.131336
      6         11           0        3.500749   -2.117250   -0.714371
      7         11           0        3.113389    0.519861    1.499247
 ---------------------------------------------------------------------

 SCF Done:  E(UB3LYP) =  -1136.11313017     A.U. after   23 cycles

 The electronic state is 2-A.
 Alpha  occ. eigenvalues --  -38.45606 -38.44646 -38.43992 -38.43629 -38.43525
 Alpha  occ. eigenvalues --  -38.43284 -38.42993  -2.21459  -2.20533  -2.19843
 Alpha  occ. eigenvalues --   -2.19474  -2.19443  -2.19161  -2.18816  -1.15157
 Alpha  occ. eigenvalues --   -1.15119  -1.15051  -1.14210  -1.14193  -1.14151
 Alpha  occ. eigenvalues --   -1.13621  -1.13460  -1.13455  -1.13139  -1.13131
 Alpha  occ. eigenvalues --   -1.13121  -1.13111  -1.13101  -1.13037  -1.12845
 Alpha  occ. eigenvalues --   -1.12833  -1.12764  -1.12491  -1.12473  -1.12456
 Alpha  occ. eigenvalues --   -0.17914  -0.14140  -0.11495  -0.10718
 Alpha virt. eigenvalues --   -0.07028  -0.05180  -0.04509  -0.03195  -0.03094
 Alpha virt. eigenvalues --   -0.02073  -0.01910  -0.01368  -0.01208  -0.00595
 Alpha virt. eigenvalues --   -0.00478  -0.00045   0.00284   0.00543   0.00580

  Beta  occ. eigenvalues --  -38.45573 -38.44625 -38.43920 -38.43631 -38.43448
  Beta  occ. eigenvalues --  -38.43275 -38.42990  -2.21399  -2.20496  -2.19709
  Beta  occ. eigenvalues --   -2.19486  -2.19301  -2.19146  -2.18812  -1.15100
  Beta  occ. eigenvalues --   -1.15078  -1.15010  -1.14173  -1.14165  -1.14129
  Beta  occ. eigenvalues --   -1.13545  -1.13368  -1.13362  -1.13145  -1.13121
  Beta  occ. eigenvalues --   -1.13053  -1.13041  -1.13020  -1.12935  -1.12838
  Beta  occ. eigenvalues --   -1.12814  -1.12742  -1.12489  -1.12463  -1.12449
  Beta  occ. eigenvalues --   -0.17304  -0.13439  -0.11315
  Beta virt. eigenvalues --   -0.07234  -0.06820  -0.04767  -0.04256  -0.02864
  Beta virt. eigenvalues --   -0.02789  -0.01943  -0.01589  -0.00980  -0.00864
  Beta virt. eigenvalues --   -0.00398  -0.00315   0.00144   0.00349   0.00612

 Mulliken charges and spin densities:
               1          2
     1  Na   0.402260   0.220030
     2  Na  -0.216562  -0.108522
     3  Na   0.085913   0.307403
     4  Na   0.010013   0.005234
     5  Na  -1.362986   0.250921
     6  Na   0.685588   0.021113
     7  Na   0.395775   0.303820
 Sum of Mulliken charges =  -0.00000   1.00000

 Dipole moment (field-independent basis, Debye):
    X=              1.3077    Y=              1.0712    Z=              0.0619  Tot=              1.6915
 Quadrupole moment (field-independent basis, Debye-Ang):
   XX=            -70.3307   YY=            -74.6686   ZZ=            -59.0765
   XY=             -1.4150   XZ=              2.0585   YZ=             -0.6644

 Normal termination of Gaussian 16 at Fri Dec  8 18:34:09 2023.
