 Gaussian 16, Revision B.01,
 Gaussian 16:  ES64L-G16RevB.01 20-Dec-2017

 -------------------------
 #P B3LYP/6-311+g(d) force
 -------------------------

 -----
 DPGEN
 -----
 Symbolic Z-matrix:
 Charge =  0 Multiplicity = 2

                         Standard orientation:
 ---------------------------------------------------------------------
 Center     Atomic      Atomic             Coordinates (Angstroms)
 Number     Number       Type             X           Y           Z
 ---------------------------------------------------------------------
      1         11           0       -3.884663   -0.538984   -0.204892
      2         11           0        2.119721   -2.739601   -0.386660
      3         11           0        1.145702    3.414886    0.369814
      4         11           0        3.852331    0.064049   -0.231997
      5         11           0       -1.581111   -2.968718    0.449850
      6         11           0       -2.084794    2.517399   -0.477949
      7         11           0        0.432815    0.250968    0.481834
 ---------------------------------------------------------------------

 SCF Done:  E(UB3LYP) =  -1136.12783006     A.U. after   22 cycles

 The electronic state is 2-A.
 Alpha  occ. eigenvalues --  -38.44463 -38.44413 -38.44035 -38.43924 -38.43750
 Alpha  occ. eigenvalues --  -38.43559 -38.43497  -2.20279  -2.20232  -2.19923
 Alpha  occ. eigenvalues --   -2.19762  -2.19591  -2.19372  -2.19311  -1.13965
 Alpha  occ. eigenvalues --   -1.13952  -1.13924  -1.13916  -1.13915  -1.13847
 Alpha  occ. eigenvalues --   -1.13648  -1.13593  -1.13560  -1.13417  -1.13400
 Alpha  occ. eigenvalues --   -1.13383  -1.13243  -1.13225  -1.13224  -1.13039
 Alpha  occ. eigenvalues --   -1.13031  -1.13019  -1.12982  -1.12958  -1.12930
 Alpha  occ. eigenvalues --   -0.17075  -0.13779  -0.13301  -0.09862
 Alpha virt. eigenvalues --   -0.06640  -0.05665  -0.04150  -0.03489  -0.02874
 Alpha virt. eigenvalues --   -0.02082  -0.02001  -0.01755  -0.01396  -0.00265
 Alpha virt. eigenvalues --   -0.00080   0.00314   0.00416   0.00609   0.00758

  Beta  occ. eigenvalues --  -38.44453 -38.44393 -38.44034 -38.43895 -38.43692
  Beta  occ. eigenvalues --  -38.43516 -38.43462  -2.20268  -2.20200  -2.19921
  Beta  occ. eigenvalues --   -2.19707  -2.19483  -2.19295  -2.19248  -1.13964
  Beta  occ. eigenvalues --   -1.13954  -1.13909  -1.13899  -1.13854  -1.13783
  Beta  occ. eigenvalues --   -1.13644  -1.13588  -1.13563  -1.13380  -1.13365
  Beta  occ. eigenvalues --   -1.13349  -1.13170  -1.13158  -1.13141  -1.12988
  Beta  occ. eigenvalues --   -1.12980  -1.12958  -1.12939  -1.12913  -1.12878
  Beta  occ. eigenvalues --   -0.16745  -0.13012  -0.12855
  Beta virt. eigenvalues --   -0.06656  -0.06527  -0.05457  -0.04010  -0.02844
  Beta virt. eigenvalues --   -0.02355  -0.01938  -0.01807  -0.01397  -0.01323
  Beta virt. eigenvalues --   -0.00100   0.00240   0.00422   0.00549   0.00672

 Mulliken charges and spin densities:
               1          2
     1  Na  -0.254849   0.284099
     2  Na   0.664688   0.031178
     3  Na   0.861620   0.134597
     4  Na   0.300358   0.345201
     5  Na   1.159550   0.064464
     6  Na   0.534610   0.136339
     7  Na  -3.265976   0.004122
 Sum of Mulliken charges =  -0.00000   1.00000

 Dipole moment (field-independent basis, Debye):
    X=              0.7862    Y=              0.5321    Z=             -0.1179  Tot=              0.9566
 Quadrupole moment (field-independent basis, Debye-Ang):
   XX=            -68.0189   YY=            -57.1872   ZZ=            -72.3457
   XY=              3.7862   XZ=             -0.0381   YZ=              0.3846

 Normal termination of Gaussian 16 at Wed Nov 29 15:39:57 2023.
