 Gaussian 16, Revision B.01,
 Gaussian 16:  ES64L-G16RevB.01 20-Dec-2017

 -------------------------
 #P B3LYP/6-311+g(d) force
 -------------------------

 -----
 DPGEN
 -----
 Symbolic Z-matrix:
 Charge =  0 Multiplicity = 2

                         Standard orientation:
 ---------------------------------------------------------------------
 Center     Atomic      Atomic             Coordinates (Angstroms)
 Number     Number       Type             X           Y           Z
 ---------------------------------------------------------------------
      1         11           0       -1.611401    2.462553   -0.203237
      2         11           0        0.043508   -0.216569   -1.733954
      3         11           0       -3.287516   -0.635617   -0.139790
      4         11           0        2.866688   -1.053192   -0.400781
      5         11           0        2.012341    2.405271    0.220395
      6         11           0       -0.023408   -2.858372    0.247310
      7         11           0       -0.000212   -0.104074    2.010058
 ---------------------------------------------------------------------

 SCF Done:  E(UB3LYP) =  -1136.13885808     A.U. after   19 cycles

 The electronic state is 2-A.
 Alpha  occ. eigenvalues --  -38.44148 -38.43838 -38.43608 -38.43585 -38.43500
 Alpha  occ. eigenvalues --  -38.43406 -38.43345  -2.19937  -2.19694  -2.19503
 Alpha  occ. eigenvalues --   -2.19412  -2.19354  -2.19310  -2.19220  -1.13612
 Alpha  occ. eigenvalues --   -1.13592  -1.13581  -1.13399  -1.13347  -1.13324
 Alpha  occ. eigenvalues --   -1.13185  -1.13144  -1.13120  -1.13106  -1.13080
 Alpha  occ. eigenvalues --   -1.13043  -1.13039  -1.12996  -1.12982  -1.12973
 Alpha  occ. eigenvalues --   -1.12961  -1.12953  -1.12895  -1.12876  -1.12834
 Alpha  occ. eigenvalues --   -0.18502  -0.12897  -0.12412  -0.10802
 Alpha virt. eigenvalues --   -0.05649  -0.05132  -0.04767  -0.03135  -0.02957
 Alpha virt. eigenvalues --   -0.02617  -0.01601  -0.01131  -0.00404  -0.00357
 Alpha virt. eigenvalues --   -0.00016   0.00351   0.00793   0.00869   0.00879

  Beta  occ. eigenvalues --  -38.44147 -38.43826 -38.43581 -38.43514 -38.43497
  Beta  occ. eigenvalues --  -38.43340 -38.43335  -2.19938  -2.19676  -2.19408
  Beta  occ. eigenvalues --   -2.19332  -2.19308  -2.19232  -2.19206  -1.13604
  Beta  occ. eigenvalues --   -1.13592  -1.13581  -1.13376  -1.13320  -1.13316
  Beta  occ. eigenvalues --   -1.13098  -1.13076  -1.13071  -1.13037  -1.13014
  Beta  occ. eigenvalues --   -1.13002  -1.12970  -1.12965  -1.12963  -1.12951
  Beta  occ. eigenvalues --   -1.12916  -1.12879  -1.12865  -1.12838  -1.12823
  Beta  occ. eigenvalues --   -0.17770  -0.12654  -0.12179
  Beta virt. eigenvalues --   -0.06894  -0.05621  -0.05131  -0.04690  -0.02381
  Beta virt. eigenvalues --   -0.02183  -0.01585  -0.01499  -0.01052  -0.00444
  Beta virt. eigenvalues --   -0.00399   0.00114   0.00377   0.00845   0.00867

 Mulliken charges and spin densities:
               1          2
     1  Na  -0.015789  -0.085001
     2  Na  -0.114788   0.556157
     3  Na   0.018263  -0.107256
     4  Na   0.256330   0.003567
     5  Na  -0.034768  -0.060435
     6  Na   0.202392  -0.063823
     7  Na  -0.311639   0.756792
 Sum of Mulliken charges =  -0.00000   1.00000

 Dipole moment (field-independent basis, Debye):
    X=             -0.1510    Y=             -0.0863    Z=              0.0455  Tot=              0.1798
 Quadrupole moment (field-independent basis, Debye-Ang):
   XX=            -56.4078   YY=            -62.8663   ZZ=            -74.1749
   XY=              0.5590   XZ=             -0.0104   YZ=             -0.0483

 Normal termination of Gaussian 16 at Thu Dec  7 18:57:54 2023.
