 Gaussian 16, Revision B.01,
 Gaussian 16:  ES64L-G16RevB.01 20-Dec-2017

 -------------------------
 #P B3LYP/6-311+g(d) force
 -------------------------

 -----
 DPGEN
 -----
 Symbolic Z-matrix:
 Charge =  0 Multiplicity = 2

                         Standard orientation:
 ---------------------------------------------------------------------
 Center     Atomic      Atomic             Coordinates (Angstroms)
 Number     Number       Type             X           Y           Z
 ---------------------------------------------------------------------
      1         11           0       -2.465171    1.257593   -0.179148
      2         11           0        0.617611    0.680521   -1.822083
      3         11           0        3.101865   -1.965688   -0.268398
      4         11           0       -0.549270   -2.363972   -0.541983
      5         11           0       -3.831319   -1.272300    1.063785
      6         11           0        2.914131    0.676113    1.822162
      7         11           0        0.212153    2.987732   -0.074335
 ---------------------------------------------------------------------

 SCF Done:  E(UB3LYP) =  -1136.12390269     A.U. after   20 cycles

 The electronic state is 2-A.
 Alpha  occ. eigenvalues --  -38.44549 -38.44191 -38.44184 -38.44177 -38.43864
 Alpha  occ. eigenvalues --  -38.43653 -38.43458  -2.20351  -2.20102  -2.19981
 Alpha  occ. eigenvalues --   -2.19970  -2.19751  -2.19477  -2.19349  -1.14004
 Alpha  occ. eigenvalues --   -1.13986  -1.13972  -1.13821  -1.13781  -1.13709
 Alpha  occ. eigenvalues --   -1.13663  -1.13660  -1.13652  -1.13643  -1.13625
 Alpha  occ. eigenvalues --   -1.13557  -1.13442  -1.13433  -1.13417  -1.13133
 Alpha  occ. eigenvalues --   -1.13124  -1.13090  -1.13029  -1.12997  -1.12960
 Alpha  occ. eigenvalues --   -0.17524  -0.13683  -0.12502  -0.11013
 Alpha virt. eigenvalues --   -0.05928  -0.05355  -0.04857  -0.03807  -0.03135
 Alpha virt. eigenvalues --   -0.02240  -0.01648  -0.01087  -0.00767  -0.00520
 Alpha virt. eigenvalues --   -0.00284   0.00285   0.00394   0.00509   0.00626

  Beta  occ. eigenvalues --  -38.44462 -38.44195 -38.44152 -38.44131 -38.43855
  Beta  occ. eigenvalues --  -38.43617 -38.43457  -2.20187  -2.20005  -2.19993
  Beta  occ. eigenvalues --   -2.19927  -2.19737  -2.19411  -2.19351  -1.13893
  Beta  occ. eigenvalues --   -1.13880  -1.13860  -1.13752  -1.13712  -1.13674
  Beta  occ. eigenvalues --   -1.13656  -1.13641  -1.13625  -1.13618  -1.13604
  Beta  occ. eigenvalues --   -1.13525  -1.13436  -1.13413  -1.13391  -1.13085
  Beta  occ. eigenvalues --   -1.13078  -1.13051  -1.13022  -1.13000  -1.12950
  Beta  occ. eigenvalues --   -0.16953  -0.13078  -0.12295
  Beta virt. eigenvalues --   -0.07509  -0.05749  -0.05052  -0.04498  -0.03414
  Beta virt. eigenvalues --   -0.02534  -0.01851  -0.01462  -0.00987  -0.00646
  Beta virt. eigenvalues --   -0.00360   0.00029   0.00384   0.00588   0.00657

 Mulliken charges and spin densities:
               1          2
     1  Na  -0.512146  -0.052373
     2  Na   0.175404   0.157002
     3  Na   0.213945   0.036997
     4  Na  -0.433388  -0.029592
     5  Na   0.608489   0.244983
     6  Na  -0.198917   0.445336
     7  Na   0.146613   0.197646
 Sum of Mulliken charges =  -0.00000   1.00000

 Dipole moment (field-independent basis, Debye):
    X=              0.3729    Y=             -0.1634    Z=              0.0401  Tot=              0.4091
 Quadrupole moment (field-independent basis, Debye-Ang):
   XX=            -65.2870   YY=            -65.0431   ZZ=            -69.0403
   XY=             -1.2133   XZ=             -2.5994   YZ=              0.9116

 Normal termination of Gaussian 16 at Wed Nov 29 03:33:51 2023.
