 Gaussian 16, Revision B.01,
 Gaussian 16:  ES64L-G16RevB.01 20-Dec-2017

 -------------------------
 #P B3LYP/6-311+g(d) force
 -------------------------

 -----
 DPGEN
 -----
 Symbolic Z-matrix:
 Charge =  0 Multiplicity = 2

                         Standard orientation:
 ---------------------------------------------------------------------
 Center     Atomic      Atomic             Coordinates (Angstroms)
 Number     Number       Type             X           Y           Z
 ---------------------------------------------------------------------
      1         11           0       -0.260302    1.249019   -0.358335
      2         11           0        2.508890    3.262719    0.010233
      3         11           0        3.475123    0.518136    0.424763
      4         11           0        3.443081   -2.533583   -0.416481
      5         11           0        0.295273   -2.142045    0.057289
      6         11           0       -3.439662   -0.944291    0.589889
      7         11           0       -6.022402    0.590045   -0.307357
 ---------------------------------------------------------------------

 SCF Done:  E(UB3LYP) =  -1136.12158922     A.U. after   20 cycles

 The electronic state is 2-A.
 Alpha  occ. eigenvalues --  -38.44834 -38.44628 -38.44240 -38.43926 -38.43908
 Alpha  occ. eigenvalues --  -38.43464 -38.43452  -2.20650  -2.20447  -2.20149
 Alpha  occ. eigenvalues --   -2.19751  -2.19728  -2.19328  -2.19315  -1.14340
 Alpha  occ. eigenvalues --   -1.14339  -1.14230  -1.14098  -1.14075  -1.14072
 Alpha  occ. eigenvalues --   -1.13854  -1.13819  -1.13790  -1.13439  -1.13430
 Alpha  occ. eigenvalues --   -1.13411  -1.13409  -1.13381  -1.13365  -1.13019
 Alpha  occ. eigenvalues --   -1.12980  -1.12964  -1.12954  -1.12950  -1.12942
 Alpha  occ. eigenvalues --   -0.17047  -0.14240  -0.12473  -0.11506
 Alpha virt. eigenvalues --   -0.05899  -0.05148  -0.04605  -0.04037  -0.03039
 Alpha virt. eigenvalues --   -0.02352  -0.01741  -0.01529  -0.01050  -0.00700
 Alpha virt. eigenvalues --   -0.00585   0.00075   0.00330   0.00510   0.00747

  Beta  occ. eigenvalues --  -38.44787 -38.44537 -38.44203 -38.43929 -38.43879
  Beta  occ. eigenvalues --  -38.43461 -38.43428  -2.20565  -2.20279  -2.20084
  Beta  occ. eigenvalues --   -2.19744  -2.19700  -2.19323  -2.19270  -1.14284
  Beta  occ. eigenvalues --   -1.14279  -1.14166  -1.13989  -1.13961  -1.13958
  Beta  occ. eigenvalues --   -1.13799  -1.13775  -1.13746  -1.13429  -1.13423
  Beta  occ. eigenvalues --   -1.13406  -1.13397  -1.13334  -1.13317  -1.13006
  Beta  occ. eigenvalues --   -1.12962  -1.12945  -1.12940  -1.12924  -1.12918
  Beta  occ. eigenvalues --   -0.16430  -0.13365  -0.12359
  Beta virt. eigenvalues --   -0.08041  -0.05474  -0.04885  -0.04148  -0.03825
  Beta virt. eigenvalues --   -0.02730  -0.02050  -0.01587  -0.01247  -0.00874
  Beta virt. eigenvalues --   -0.00367  -0.00231   0.00211   0.00461   0.00642

 Mulliken charges and spin densities:
               1          2
     1  Na  -0.801912   0.077509
     2  Na   1.026352   0.057588
     3  Na  -0.631912   0.327439
     4  Na   0.797427   0.178118
     5  Na  -0.865052  -0.008459
     6  Na   0.111121  -0.011254
     7  Na   0.363975   0.379058
 Sum of Mulliken charges =  -0.00000   1.00000

 Dipole moment (field-independent basis, Debye):
    X=             -0.1396    Y=              0.4814    Z=             -0.2880  Tot=              0.5781
 Quadrupole moment (field-independent basis, Debye-Ang):
   XX=            -61.6939   YY=            -64.2798   ZZ=            -71.5100
   XY=             -2.0644   XZ=              1.5283   YZ=             -1.2899

 Normal termination of Gaussian 16 at Tue Nov 28 20:29:10 2023.
