 Gaussian 16, Revision B.01,
 Gaussian 16:  ES64L-G16RevB.01 20-Dec-2017

 -------------------------
 #P B3LYP/6-311+g(d) force
 -------------------------

 -----
 DPGEN
 -----
 Symbolic Z-matrix:
 Charge =  0 Multiplicity = 2

                         Standard orientation:
 ---------------------------------------------------------------------
 Center     Atomic      Atomic             Coordinates (Angstroms)
 Number     Number       Type             X           Y           Z
 ---------------------------------------------------------------------
      1         11           0        2.578352    1.598852    0.234796
      2         11           0       -0.670753    2.738613   -0.323445
      3         11           0       -0.045139   -0.169583   -1.709463
      4         11           0        2.169552   -1.974645   -0.535649
      5         11           0       -1.021137   -2.416309    0.400538
      6         11           0        0.215430    0.070688    2.007356
      7         11           0       -3.226305    0.152384   -0.074133
 ---------------------------------------------------------------------

 SCF Done:  E(UB3LYP) =  -1136.13822237     A.U. after   19 cycles

 The electronic state is 2-A.
 Alpha  occ. eigenvalues --  -38.43841 -38.43713 -38.43644 -38.43438 -38.43371
 Alpha  occ. eigenvalues --  -38.43322 -38.43157  -2.19660  -2.19643  -2.19492
 Alpha  occ. eigenvalues --   -2.19334  -2.19321  -2.19228  -2.19087  -1.13333
 Alpha  occ. eigenvalues --   -1.13328  -1.13316  -1.13307  -1.13302  -1.13258
 Alpha  occ. eigenvalues --   -1.13160  -1.13149  -1.13132  -1.13119  -1.13017
 Alpha  occ. eigenvalues --   -1.12992  -1.12961  -1.12949  -1.12912  -1.12892
 Alpha  occ. eigenvalues --   -1.12877  -1.12840  -1.12773  -1.12745  -1.12690
 Alpha  occ. eigenvalues --   -0.18981  -0.12851  -0.12650  -0.11137
 Alpha virt. eigenvalues --   -0.05435  -0.04897  -0.04574  -0.03214  -0.03091
 Alpha virt. eigenvalues --   -0.02761  -0.01443  -0.01022  -0.00173  -0.00083
 Alpha virt. eigenvalues --    0.00066   0.00358   0.00855   0.00921   0.00946

  Beta  occ. eigenvalues --  -38.43841 -38.43638 -38.43621 -38.43423 -38.43364
  Beta  occ. eigenvalues --  -38.43252 -38.43143  -2.19663  -2.19485  -2.19474
  Beta  occ. eigenvalues --   -2.19302  -2.19218  -2.19201  -2.19066  -1.13334
  Beta  occ. eigenvalues --   -1.13316  -1.13306  -1.13220  -1.13200  -1.13148
  Beta  occ. eigenvalues --   -1.13135  -1.13125  -1.13106  -1.13070  -1.12956
  Beta  occ. eigenvalues --   -1.12952  -1.12927  -1.12911  -1.12873  -1.12852
  Beta  occ. eigenvalues --   -1.12837  -1.12810  -1.12751  -1.12702  -1.12677
  Beta  occ. eigenvalues --   -0.18238  -0.12609  -0.12369
  Beta virt. eigenvalues --   -0.07177  -0.05403  -0.04877  -0.04537  -0.02422
  Beta virt. eigenvalues --   -0.02313  -0.01688  -0.01367  -0.00943  -0.00175
  Beta virt. eigenvalues --   -0.00077   0.00127   0.00376   0.00902   0.00920

 Mulliken charges and spin densities:
               1          2
     1  Na   0.105710  -0.039785
     2  Na   0.029165  -0.086716
     3  Na  -0.281142   0.533137
     4  Na   0.226419   0.004850
     5  Na   0.332559   0.070070
     6  Na  -0.342374   0.625278
     7  Na  -0.070337  -0.106834
 Sum of Mulliken charges =  -0.00000   1.00000

 Dipole moment (field-independent basis, Debye):
    X=             -0.0118    Y=              0.1586    Z=              0.1244  Tot=              0.2019
 Quadrupole moment (field-independent basis, Debye-Ang):
   XX=            -57.2076   YY=            -64.1751   ZZ=            -72.5744
   XY=             -0.3001   XZ=             -0.5191   YZ=             -0.3473

 Normal termination of Gaussian 16 at Tue Dec  5 20:18:24 2023.
