 Gaussian 16, Revision B.01,
 Gaussian 16:  ES64L-G16RevB.01 20-Dec-2017

 -------------------------
 #P B3LYP/6-311+g(d) force
 -------------------------

 -----
 DPGEN
 -----
 Symbolic Z-matrix:
 Charge =  0 Multiplicity = 2

                         Standard orientation:
 ---------------------------------------------------------------------
 Center     Atomic      Atomic             Coordinates (Angstroms)
 Number     Number       Type             X           Y           Z
 ---------------------------------------------------------------------
      1         11           0        0.160415    1.593286    1.771720
      2         11           0        4.697265   -1.000689   -1.678660
      3         11           0       -2.810793   -2.674588   -0.105612
      4         11           0       -1.949388    2.865693   -1.065648
      5         11           0       -4.018114   -0.224360   -0.797097
      6         11           0        0.689550   -1.345384    1.587774
      7         11           0        3.231063    0.786042    0.287524
 ---------------------------------------------------------------------

 SCF Done:  E(UB3LYP) =  -1136.10625732     A.U. after   20 cycles

 The electronic state is 2-A.
 Alpha  occ. eigenvalues --  -38.45741 -38.44918 -38.44301 -38.44020 -38.43937
 Alpha  occ. eigenvalues --  -38.43748 -38.43720  -2.21585  -2.20694  -2.20141
 Alpha  occ. eigenvalues --   -2.19885  -2.19756  -2.19589  -2.19578  -1.15280
 Alpha  occ. eigenvalues --   -1.15225  -1.15183  -1.14350  -1.14333  -1.14312
 Alpha  occ. eigenvalues --   -1.13940  -1.13791  -1.13764  -1.13626  -1.13557
 Alpha  occ. eigenvalues --   -1.13543  -1.13391  -1.13386  -1.13354  -1.13291
 Alpha  occ. eigenvalues --   -1.13237  -1.13235  -1.13220  -1.13208  -1.13196
 Alpha  occ. eigenvalues --   -0.16823  -0.14131  -0.12036  -0.11839
 Alpha virt. eigenvalues --   -0.06287  -0.05391  -0.04878  -0.03839  -0.02981
 Alpha virt. eigenvalues --   -0.02405  -0.02013  -0.01320  -0.00847  -0.00690
 Alpha virt. eigenvalues --   -0.00643  -0.00412   0.00038   0.00319   0.00652

  Beta  occ. eigenvalues --  -38.45670 -38.44841 -38.44298 -38.44013 -38.43890
  Beta  occ. eigenvalues --  -38.43735 -38.43720  -2.21456  -2.20551  -2.20135
  Beta  occ. eigenvalues --   -2.19877  -2.19670  -2.19582  -2.19564  -1.15190
  Beta  occ. eigenvalues --   -1.15136  -1.15090  -1.14253  -1.14234  -1.14218
  Beta  occ. eigenvalues --   -1.13929  -1.13788  -1.13755  -1.13603  -1.13555
  Beta  occ. eigenvalues --   -1.13524  -1.13333  -1.13327  -1.13306  -1.13278
  Beta  occ. eigenvalues --   -1.13243  -1.13225  -1.13204  -1.13185  -1.13185
  Beta  occ. eigenvalues --   -0.16204  -0.13659  -0.11380
  Beta virt. eigenvalues --   -0.08661  -0.05792  -0.04931  -0.04541  -0.03545
  Beta virt. eigenvalues --   -0.02719  -0.02100  -0.01828  -0.01050  -0.00662
  Beta virt. eigenvalues --   -0.00533  -0.00350  -0.00247   0.00263   0.00377

 Mulliken charges and spin densities:
               1          2
     1  Na   0.622725   0.000447
     2  Na   0.344133   0.077296
     3  Na   0.374548   0.039806
     4  Na   0.143380   0.358534
     5  Na  -0.434561   0.098728
     6  Na  -0.578196   0.304051
     7  Na  -0.472029   0.121139
 Sum of Mulliken charges =  -0.00000   1.00000

 Dipole moment (field-independent basis, Debye):
    X=              0.1160    Y=              0.0470    Z=              0.1150  Tot=              0.1700
 Quadrupole moment (field-independent basis, Debye-Ang):
   XX=            -72.4505   YY=            -64.5812   ZZ=            -67.8516
   XY=             -4.1983   XZ=              0.5642   YZ=             -2.1977

 Normal termination of Gaussian 16 at Mon Dec  4 00:27:27 2023.
