 Gaussian 16, Revision B.01,
 Gaussian 16:  ES64L-G16RevB.01 20-Dec-2017

 -------------------------
 #P B3LYP/6-311+g(d) force
 -------------------------

 -----
 DPGEN
 -----
 Symbolic Z-matrix:
 Charge =  0 Multiplicity = 2

                         Standard orientation:
 ---------------------------------------------------------------------
 Center     Atomic      Atomic             Coordinates (Angstroms)
 Number     Number       Type             X           Y           Z
 ---------------------------------------------------------------------
      1         11           0        1.673007   -2.302225   -0.623112
      2         11           0       -4.520509   -1.222677   -0.053252
      3         11           0       -3.883092    1.751822    0.358056
      4         11           0        2.652874    2.088826   -0.450913
      5         11           0       -0.011287    3.794955   -0.047186
      6         11           0       -1.160380   -3.308561    0.140073
      7         11           0        5.249386   -0.802140    0.676333
 ---------------------------------------------------------------------

 SCF Done:  E(UB3LYP) =  -1136.10677075     A.U. after   19 cycles

 The electronic state is 2-A.
 Alpha  occ. eigenvalues --  -38.45263 -38.44880 -38.44619 -38.44554 -38.44435
 Alpha  occ. eigenvalues --  -38.44148 -38.44015  -2.21036  -2.20662  -2.20418
 Alpha  occ. eigenvalues --   -2.20324  -2.20217  -2.19956  -2.19807  -1.14681
 Alpha  occ. eigenvalues --   -1.14672  -1.14640  -1.14374  -1.14323  -1.14302
 Alpha  occ. eigenvalues --   -1.14074  -1.14061  -1.14046  -1.14012  -1.14009
 Alpha  occ. eigenvalues --   -1.13965  -1.13926  -1.13892  -1.13867  -1.13606
 Alpha  occ. eigenvalues --   -1.13602  -1.13572  -1.13460  -1.13458  -1.13439
 Alpha  occ. eigenvalues --   -0.15389  -0.13977  -0.13080  -0.11517
 Alpha virt. eigenvalues --   -0.06907  -0.05660  -0.04004  -0.03445  -0.03363
 Alpha virt. eigenvalues --   -0.02622  -0.02224  -0.01998  -0.01345  -0.01082
 Alpha virt. eigenvalues --   -0.00632  -0.00312  -0.00074   0.00515   0.00557

  Beta  occ. eigenvalues --  -38.45157 -38.44860 -38.44603 -38.44549 -38.44427
  Beta  occ. eigenvalues --  -38.44104 -38.43976  -2.20837  -2.20629  -2.20390
  Beta  occ. eigenvalues --   -2.20320  -2.20207  -2.19877  -2.19736  -1.14545
  Beta  occ. eigenvalues --   -1.14537  -1.14508  -1.14343  -1.14302  -1.14277
  Beta  occ. eigenvalues --   -1.14058  -1.14044  -1.14015  -1.14013  -1.14006
  Beta  occ. eigenvalues --   -1.13933  -1.13906  -1.13889  -1.13841  -1.13554
  Beta  occ. eigenvalues --   -1.13548  -1.13517  -1.13413  -1.13409  -1.13390
  Beta  occ. eigenvalues --   -0.14872  -0.13216  -0.12309
  Beta virt. eigenvalues --   -0.08305  -0.07080  -0.05063  -0.03734  -0.03180
  Beta virt. eigenvalues --   -0.03117  -0.02348  -0.01938  -0.01775  -0.01134
  Beta virt. eigenvalues --   -0.00773  -0.00204  -0.00038   0.00096   0.00523

 Mulliken charges and spin densities:
               1          2
     1  Na  -0.543393  -0.013980
     2  Na  -0.069118   0.003488
     3  Na   0.015626   0.120091
     4  Na  -0.089022   0.064412
     5  Na  -0.086734   0.127927
     6  Na   0.195119   0.168836
     7  Na   0.577523   0.529226
 Sum of Mulliken charges =  -0.00000   1.00000

 Dipole moment (field-independent basis, Debye):
    X=             -0.0865    Y=             -0.2215    Z=              0.2635  Tot=              0.3549
 Quadrupole moment (field-independent basis, Debye-Ang):
   XX=            -56.7364   YY=            -67.0104   ZZ=            -73.4674
   XY=             -0.1279   XZ=              0.8043   YZ=              0.1567

 Normal termination of Gaussian 16 at Mon Dec  4 00:04:51 2023.
