 Gaussian 16, Revision B.01,
 Gaussian 16:  ES64L-G16RevB.01 20-Dec-2017

 -------------------------
 #P B3LYP/6-311+g(d) force
 -------------------------

 -----
 DPGEN
 -----
 Symbolic Z-matrix:
 Charge =  0 Multiplicity = 2

                         Standard orientation:
 ---------------------------------------------------------------------
 Center     Atomic      Atomic             Coordinates (Angstroms)
 Number     Number       Type             X           Y           Z
 ---------------------------------------------------------------------
      1         11           0        0.646103   -0.401502    2.194185
      2         11           0       -1.482678    2.778186    0.163738
      3         11           0       -3.199368   -0.263833   -0.090805
      4         11           0        2.653871   -1.413625   -0.539880
      5         11           0       -0.185985    0.247182   -1.450393
      6         11           0       -0.822052   -2.986787   -0.111854
      7         11           0        2.390109    2.040379   -0.164991
 ---------------------------------------------------------------------

 SCF Done:  E(UB3LYP) =  -1136.13730480     A.U. after   19 cycles

 The electronic state is 2-A.
 Alpha  occ. eigenvalues --  -38.44035 -38.43930 -38.43905 -38.43727 -38.43602
 Alpha  occ. eigenvalues --  -38.43570 -38.43023  -2.19855  -2.19752  -2.19750
 Alpha  occ. eigenvalues --   -2.19544  -2.19451  -2.19379  -2.19006  -1.13542
 Alpha  occ. eigenvalues --   -1.13520  -1.13486  -1.13449  -1.13425  -1.13422
 Alpha  occ. eigenvalues --   -1.13406  -1.13399  -1.13357  -1.13235  -1.13206
 Alpha  occ. eigenvalues --   -1.13171  -1.13105  -1.13081  -1.13071  -1.13054
 Alpha  occ. eigenvalues --   -1.13040  -1.13017  -1.12697  -1.12645  -1.12638
 Alpha  occ. eigenvalues --   -0.18258  -0.13047  -0.12371  -0.10497
 Alpha virt. eigenvalues --   -0.05535  -0.05502  -0.04939  -0.03118  -0.02810
 Alpha virt. eigenvalues --   -0.02448  -0.01494  -0.01261  -0.00642  -0.00587
 Alpha virt. eigenvalues --   -0.00022   0.00339   0.00773   0.00819   0.00842

  Beta  occ. eigenvalues --  -38.44034 -38.43925 -38.43891 -38.43726 -38.43567
  Beta  occ. eigenvalues --  -38.43499 -38.42977  -2.19855  -2.19745  -2.19727
  Beta  occ. eigenvalues --   -2.19543  -2.19377  -2.19261  -2.18922  -1.13537
  Beta  occ. eigenvalues --   -1.13512  -1.13490  -1.13439  -1.13410  -1.13398
  Beta  occ. eigenvalues --   -1.13388  -1.13374  -1.13348  -1.13231  -1.13196
  Beta  occ. eigenvalues --   -1.13172  -1.13050  -1.13031  -1.13019  -1.12974
  Beta  occ. eigenvalues --   -1.12949  -1.12929  -1.12634  -1.12581  -1.12576
  Beta  occ. eigenvalues --   -0.17576  -0.12832  -0.12185
  Beta virt. eigenvalues --   -0.06563  -0.05528  -0.05476  -0.04830  -0.02408
  Beta virt. eigenvalues --   -0.02082  -0.01427  -0.01369  -0.01185  -0.00666
  Beta virt. eigenvalues --   -0.00639   0.00163   0.00390   0.00821   0.00835

 Mulliken charges and spin densities:
               1          2
     1  Na  -0.647216   0.804312
     2  Na   0.022019  -0.008721
     3  Na   0.094037  -0.032867
     4  Na   0.294805   0.025380
     5  Na  -0.034356   0.228683
     6  Na   0.098880  -0.036754
     7  Na   0.171830   0.019967
 Sum of Mulliken charges =  -0.00000   1.00000

 Dipole moment (field-independent basis, Debye):
    X=             -0.0107    Y=              0.0864    Z=              0.0889  Tot=              0.1244
 Quadrupole moment (field-independent basis, Debye-Ang):
   XX=            -56.8968   YY=            -60.4254   ZZ=            -75.7322
   XY=              0.4630   XZ=             -1.7131   YZ=              1.5238

 Normal termination of Gaussian 16 at Thu Dec  7 22:50:19 2023.
