 Gaussian 16, Revision B.01,
 Gaussian 16:  ES64L-G16RevB.01 20-Dec-2017

 -------------------------
 #P B3LYP/6-311+g(d) force
 -------------------------

 -----
 DPGEN
 -----
 Symbolic Z-matrix:
 Charge =  0 Multiplicity = 2

                         Standard orientation:
 ---------------------------------------------------------------------
 Center     Atomic      Atomic             Coordinates (Angstroms)
 Number     Number       Type             X           Y           Z
 ---------------------------------------------------------------------
      1         11           0       -4.206038    1.029515   -0.039330
      2         11           0        4.254811    0.217936   -0.228609
      3         11           0       -3.303682   -2.182657   -0.026345
      4         11           0       -1.233538    2.952591    0.884529
      5         11           0        2.145727    3.046905   -0.573230
      6         11           0        2.332834   -2.864262    1.309323
      7         11           0        0.009886   -2.200029   -1.326337
 ---------------------------------------------------------------------

 SCF Done:  E(UB3LYP) =  -1136.10655781     A.U. after   26 cycles

 The electronic state is 2-A.
 Alpha  occ. eigenvalues --  -38.45565 -38.45403 -38.45051 -38.44109 -38.43952
 Alpha  occ. eigenvalues --  -38.43940 -38.43855  -2.21306  -2.21157  -2.20818
 Alpha  occ. eigenvalues --   -2.19894  -2.19719  -2.19711  -2.19667  -1.14991
 Alpha  occ. eigenvalues --   -1.14990  -1.14926  -1.14838  -1.14811  -1.14777
 Alpha  occ. eigenvalues --   -1.14502  -1.14484  -1.14464  -1.13549  -1.13538
 Alpha  occ. eigenvalues --   -1.13516  -1.13402  -1.13391  -1.13381  -1.13375
 Alpha  occ. eigenvalues --   -1.13356  -1.13319  -1.13319  -1.13310  -1.13309
 Alpha  occ. eigenvalues --   -0.15609  -0.13772  -0.12917  -0.10266
 Alpha virt. eigenvalues --   -0.07644  -0.05510  -0.04272  -0.03492  -0.03214
 Alpha virt. eigenvalues --   -0.02726  -0.02295  -0.01571  -0.01176  -0.00856
 Alpha virt. eigenvalues --   -0.00400  -0.00283   0.00070   0.00410   0.00547

  Beta  occ. eigenvalues --  -38.45565 -38.45363 -38.45049 -38.44046 -38.43943
  Beta  occ. eigenvalues --  -38.43895 -38.43809  -2.21309  -2.21088  -2.20820
  Beta  occ. eigenvalues --   -2.19778  -2.19705  -2.19628  -2.19580  -1.14996
  Beta  occ. eigenvalues --   -1.14993  -1.14905  -1.14794  -1.14767  -1.14702
  Beta  occ. eigenvalues --   -1.14508  -1.14488  -1.14432  -1.13469  -1.13459
  Beta  occ. eigenvalues --   -1.13441  -1.13394  -1.13385  -1.13331  -1.13322
  Beta  occ. eigenvalues --   -1.13316  -1.13265  -1.13258  -1.13257  -1.13250
  Beta  occ. eigenvalues --   -0.15164  -0.13064  -0.12335
  Beta virt. eigenvalues --   -0.07753  -0.07105  -0.05139  -0.03908  -0.03267
  Beta virt. eigenvalues --   -0.02833  -0.02364  -0.02186  -0.01343  -0.00983
  Beta virt. eigenvalues --   -0.00696  -0.00212  -0.00059   0.00263   0.00506

 Mulliken charges and spin densities:
               1          2
     1  Na   0.147167   0.012363
     2  Na   0.001800   0.206027
     3  Na   0.004721   0.213366
     4  Na  -0.217252   0.226718
     5  Na   0.056020   0.047295
     6  Na   0.063924   0.300465
     7  Na  -0.056380  -0.006235
 Sum of Mulliken charges =  -0.00000   1.00000

 Dipole moment (field-independent basis, Debye):
    X=              0.1303    Y=             -0.7664    Z=             -0.1507  Tot=              0.7919
 Quadrupole moment (field-independent basis, Debye-Ang):
   XX=            -58.7107   YY=            -74.4119   ZZ=            -68.5719
   XY=             -2.6287   XZ=              0.6046   YZ=             -1.7361

 Normal termination of Gaussian 16 at Sun Dec  3 20:23:02 2023.
