 Gaussian 16, Revision B.01,
 Gaussian 16:  ES64L-G16RevB.01 20-Dec-2017

 -------------------------
 #P B3LYP/6-311+g(d) force
 -------------------------

 -----
 DPGEN
 -----
 Symbolic Z-matrix:
 Charge =  0 Multiplicity = 2

                         Standard orientation:
 ---------------------------------------------------------------------
 Center     Atomic      Atomic             Coordinates (Angstroms)
 Number     Number       Type             X           Y           Z
 ---------------------------------------------------------------------
      1         11           0       -0.465072   -0.126013    1.696527
      2         11           0        1.512122    1.547148    0.700324
      3         11           0        3.627821   -0.621240   -0.462941
      4         11           0        1.027831   -2.561930   -0.609490
      5         11           0       -2.609897   -2.557369   -0.049315
      6         11           0       -2.486873    0.833788   -0.603217
      7         11           0       -0.605932    3.485615   -0.671890
 ---------------------------------------------------------------------

 SCF Done:  E(UB3LYP) =  -1136.12152515     A.U. after   20 cycles

 The electronic state is 2-A.
 Alpha  occ. eigenvalues --  -38.44340 -38.44283 -38.44206 -38.43991 -38.43848
 Alpha  occ. eigenvalues --  -38.43842 -38.43720  -2.20153  -2.20090  -2.20076
 Alpha  occ. eigenvalues --   -2.19828  -2.19824  -2.19700  -2.19685  -1.13837
 Alpha  occ. eigenvalues --   -1.13828  -1.13795  -1.13793  -1.13772  -1.13767
 Alpha  occ. eigenvalues --   -1.13749  -1.13747  -1.13726  -1.13681  -1.13509
 Alpha  occ. eigenvalues --   -1.13474  -1.13462  -1.13447  -1.13421  -1.13401
 Alpha  occ. eigenvalues --   -1.13349  -1.13332  -1.13291  -1.13244  -1.13224
 Alpha  occ. eigenvalues --   -0.18141  -0.13454  -0.13255  -0.10291
 Alpha virt. eigenvalues --   -0.06233  -0.05932  -0.04594  -0.03283  -0.03233
 Alpha virt. eigenvalues --   -0.01691  -0.01619  -0.01513  -0.00933  -0.00901
 Alpha virt. eigenvalues --    0.00113   0.00323   0.00552   0.00695   0.00741

  Beta  occ. eigenvalues --  -38.44322 -38.44281 -38.44185 -38.43976 -38.43817
  Beta  occ. eigenvalues --  -38.43747 -38.43690  -2.20121  -2.20087  -2.20041
  Beta  occ. eigenvalues --   -2.19797  -2.19669  -2.19643  -2.19623  -1.13815
  Beta  occ. eigenvalues --   -1.13802  -1.13770  -1.13767  -1.13753  -1.13741
  Beta  occ. eigenvalues --   -1.13725  -1.13721  -1.13655  -1.13650  -1.13489
  Beta  occ. eigenvalues --   -1.13448  -1.13445  -1.13377  -1.13324  -1.13314
  Beta  occ. eigenvalues --   -1.13301  -1.13294  -1.13251  -1.13200  -1.13143
  Beta  occ. eigenvalues --   -0.17564  -0.13181  -0.12890
  Beta virt. eigenvalues --   -0.06690  -0.06122  -0.05807  -0.04292  -0.02681
  Beta virt. eigenvalues --   -0.02617  -0.01662  -0.01457  -0.00946  -0.00764
  Beta virt. eigenvalues --   -0.00739   0.00312   0.00415   0.00568   0.00790

 Mulliken charges and spin densities:
               1          2
     1  Na   0.498981   0.216869
     2  Na  -1.001872   0.395220
     3  Na   0.515275  -0.034245
     4  Na  -0.507422   0.141462
     5  Na   0.494780   0.050843
     6  Na  -0.529911   0.241029
     7  Na   0.530170  -0.011179
 Sum of Mulliken charges =  -0.00000   1.00000

 Dipole moment (field-independent basis, Debye):
    X=             -0.3239    Y=             -0.5162    Z=             -0.1297  Tot=              0.6230
 Quadrupole moment (field-independent basis, Debye-Ang):
   XX=            -60.2136   YY=            -61.2333   ZZ=            -75.1537
   XY=              6.3083   XZ=             -0.4625   YZ=             -0.4497

 Normal termination of Gaussian 16 at Fri Dec  8 19:16:36 2023.
