 Gaussian 16, Revision B.01,
 Gaussian 16:  ES64L-G16RevB.01 20-Dec-2017

 -------------------------
 #P B3LYP/6-311+g(d) force
 -------------------------

 -----
 DPGEN
 -----
 Symbolic Z-matrix:
 Charge =  0 Multiplicity = 2

                         Standard orientation:
 ---------------------------------------------------------------------
 Center     Atomic      Atomic             Coordinates (Angstroms)
 Number     Number       Type             X           Y           Z
 ---------------------------------------------------------------------
      1         11           0       -2.645662   -1.860164   -0.475500
      2         11           0        0.119619   -0.616568   -1.486033
      3         11           0        2.750525    0.654336   -0.099277
      4         11           0       -0.640435   -0.517711    2.146433
      5         11           0        0.741374    3.015507   -0.022429
      6         11           0       -2.313589    1.829892   -0.164986
      7         11           0        1.988169   -2.505293    0.101791
 ---------------------------------------------------------------------

 SCF Done:  E(UB3LYP) =  -1136.13186137     A.U. after   19 cycles

 The electronic state is 2-A.
 Alpha  occ. eigenvalues --  -38.44137 -38.44079 -38.44076 -38.43717 -38.43669
 Alpha  occ. eigenvalues --  -38.43326 -38.43179  -2.19965  -2.19935  -2.19912
 Alpha  occ. eigenvalues --   -2.19618  -2.19522  -2.19180  -2.19173  -1.13648
 Alpha  occ. eigenvalues --   -1.13644  -1.13638  -1.13611  -1.13596  -1.13594
 Alpha  occ. eigenvalues --   -1.13567  -1.13562  -1.13537  -1.13328  -1.13279
 Alpha  occ. eigenvalues --   -1.13256  -1.13177  -1.13151  -1.13140  -1.12849
 Alpha  occ. eigenvalues --   -1.12846  -1.12830  -1.12821  -1.12814  -1.12802
 Alpha  occ. eigenvalues --   -0.18506  -0.13177  -0.12664  -0.10612
 Alpha virt. eigenvalues --   -0.05951  -0.05161  -0.04823  -0.03280  -0.02828
 Alpha virt. eigenvalues --   -0.02507  -0.01516  -0.01335  -0.00452  -0.00315
 Alpha virt. eigenvalues --   -0.00019   0.00338   0.00787   0.00833   0.00873

  Beta  occ. eigenvalues --  -38.44133 -38.44073 -38.44065 -38.43713 -38.43570
  Beta  occ. eigenvalues --  -38.43327 -38.43126  -2.19960  -2.19931  -2.19891
  Beta  occ. eigenvalues --   -2.19614  -2.19338  -2.19182  -2.19079  -1.13646
  Beta  occ. eigenvalues --   -1.13640  -1.13612  -1.13602  -1.13589  -1.13582
  Beta  occ. eigenvalues --   -1.13550  -1.13531  -1.13526  -1.13325  -1.13272
  Beta  occ. eigenvalues --   -1.13242  -1.13054  -1.13024  -1.13009  -1.12854
  Beta  occ. eigenvalues --   -1.12831  -1.12812  -1.12774  -1.12747  -1.12734
  Beta  occ. eigenvalues --   -0.17835  -0.12950  -0.12471
  Beta virt. eigenvalues --   -0.06681  -0.05945  -0.05047  -0.04779  -0.02499
  Beta virt. eigenvalues --   -0.02151  -0.01456  -0.01417  -0.01268  -0.00501
  Beta virt. eigenvalues --   -0.00328   0.00171   0.00394   0.00795   0.00874

 Mulliken charges and spin densities:
               1          2
     1  Na   0.269981   0.038657
     2  Na  -0.149148   0.075091
     3  Na   0.069582   0.113971
     4  Na  -0.541577   0.644152
     5  Na  -0.210497  -0.033067
     6  Na   0.151601   0.085611
     7  Na   0.410057   0.075586
 Sum of Mulliken charges =  -0.00000   1.00000

 Dipole moment (field-independent basis, Debye):
    X=             -0.2713    Y=             -0.4627    Z=              0.1380  Tot=              0.5538
 Quadrupole moment (field-independent basis, Debye-Ang):
   XX=            -58.3875   YY=            -60.7780   ZZ=            -75.3601
   XY=             -0.8174   XZ=              1.4736   YZ=             -0.2160

 Normal termination of Gaussian 16 at Thu Dec  7 13:41:15 2023.
