 Gaussian 16, Revision B.01,
 Gaussian 16:  ES64L-G16RevB.01 20-Dec-2017

 -------------------------
 #P B3LYP/6-311+g(d) force
 -------------------------

 -----
 DPGEN
 -----
 Symbolic Z-matrix:
 Charge =  0 Multiplicity = 2

                         Standard orientation:
 ---------------------------------------------------------------------
 Center     Atomic      Atomic             Coordinates (Angstroms)
 Number     Number       Type             X           Y           Z
 ---------------------------------------------------------------------
      1         11           0       -1.880083    2.455364   -0.462484
      2         11           0        4.291904    0.080123    0.402801
      3         11           0       -1.025164   -0.655619   -1.623322
      4         11           0        1.014356   -2.295824   -0.505584
      5         11           0        1.566000    1.365785   -0.470393
      6         11           0       -0.325023    0.099784    2.011173
      7         11           0       -3.641990   -1.049614    0.647807
 ---------------------------------------------------------------------

 SCF Done:  E(UB3LYP) =  -1136.11488145     A.U. after   27 cycles

 The electronic state is 2-A.
 Alpha  occ. eigenvalues --  -38.45578 -38.45354 -38.45303 -38.43103 -38.43071
 Alpha  occ. eigenvalues --  -38.42997 -38.42956  -2.21398  -2.21139  -2.21080
 Alpha  occ. eigenvalues --   -2.19101  -2.18953  -2.18918  -2.18787  -1.15094
 Alpha  occ. eigenvalues --   -1.15031  -1.15018  -1.14824  -1.14785  -1.14759
 Alpha  occ. eigenvalues --   -1.14752  -1.14716  -1.14711  -1.12984  -1.12738
 Alpha  occ. eigenvalues --   -1.12719  -1.12632  -1.12599  -1.12593  -1.12572
 Alpha  occ. eigenvalues --   -1.12533  -1.12511  -1.12461  -1.12431  -1.12425
 Alpha  occ. eigenvalues --   -0.18381  -0.13630  -0.11205  -0.11037
 Alpha virt. eigenvalues --   -0.07647  -0.04821  -0.03974  -0.03175  -0.03097
 Alpha virt. eigenvalues --   -0.02487  -0.02333  -0.01392  -0.00780  -0.00307
 Alpha virt. eigenvalues --   -0.00104   0.00138   0.00267   0.00689   0.00710

  Beta  occ. eigenvalues --  -38.45535 -38.45334 -38.45267 -38.43050 -38.43042
  Beta  occ. eigenvalues --  -38.42983 -38.42943  -2.21317  -2.21100  -2.21013
  Beta  occ. eigenvalues --   -2.18996  -2.18918  -2.18898  -2.18766  -1.15032
  Beta  occ. eigenvalues --   -1.14979  -1.14956  -1.14800  -1.14755  -1.14734
  Beta  occ. eigenvalues --   -1.14699  -1.14671  -1.14664  -1.12914  -1.12669
  Beta  occ. eigenvalues --   -1.12639  -1.12620  -1.12573  -1.12546  -1.12531
  Beta  occ. eigenvalues --   -1.12511  -1.12479  -1.12436  -1.12420  -1.12401
  Beta  occ. eigenvalues --   -0.17724  -0.13284  -0.10925
  Beta virt. eigenvalues --   -0.07538  -0.07151  -0.04736  -0.03607  -0.02988
  Beta virt. eigenvalues --   -0.02692  -0.01895  -0.01618  -0.01229  -0.00550
  Beta virt. eigenvalues --   -0.00236  -0.00029   0.00176   0.00433   0.00755

 Mulliken charges and spin densities:
               1          2
     1  Na  -0.049301  -0.094406
     2  Na   0.551323   0.204572
     3  Na   0.414858   0.250042
     4  Na  -0.111093  -0.059230
     5  Na  -0.617656   0.005995
     6  Na  -0.130768   0.563979
     7  Na  -0.057363   0.129048
 Sum of Mulliken charges =  -0.00000   1.00000

 Dipole moment (field-independent basis, Debye):
    X=              0.1102    Y=             -0.2987    Z=              0.6872  Tot=              0.7574
 Quadrupole moment (field-independent basis, Debye-Ang):
   XX=            -45.6357   YY=            -76.4725   ZZ=            -70.2270
   XY=             -1.5915   XZ=              1.8326   YZ=             -2.5038

 Normal termination of Gaussian 16 at Thu Dec  7 02:22:33 2023.
