 Gaussian 16, Revision B.01,
 Gaussian 16:  ES64L-G16RevB.01 20-Dec-2017

 -------------------------
 #P B3LYP/6-311+g(d) force
 -------------------------

 -----
 DPGEN
 -----
 Symbolic Z-matrix:
 Charge =  0 Multiplicity = 2

                         Standard orientation:
 ---------------------------------------------------------------------
 Center     Atomic      Atomic             Coordinates (Angstroms)
 Number     Number       Type             X           Y           Z
 ---------------------------------------------------------------------
      1         11           0       -3.115019   -0.749754   -0.143442
      2         11           0        0.045557    0.119593   -1.640385
      3         11           0        3.034850   -1.272600   -0.123900
      4         11           0        2.139829    2.177720   -0.040475
      5         11           0       -1.704297    2.469706   -0.036171
      6         11           0       -0.398424   -2.686133   -0.085471
      7         11           0       -0.002496   -0.058533    2.069844
 ---------------------------------------------------------------------

 SCF Done:  E(UB3LYP) =  -1136.13887345     A.U. after   18 cycles

 The electronic state is 2-A.
 Alpha  occ. eigenvalues --  -38.44163 -38.44077 -38.43788 -38.43544 -38.43462
 Alpha  occ. eigenvalues --  -38.43184 -38.43038  -2.19965  -2.19914  -2.19614
 Alpha  occ. eigenvalues --   -2.19429  -2.19297  -2.19161  -2.18926  -1.13638
 Alpha  occ. eigenvalues --   -1.13619  -1.13612  -1.13582  -1.13573  -1.13564
 Alpha  occ. eigenvalues --   -1.13304  -1.13280  -1.13239  -1.13101  -1.13058
 Alpha  occ. eigenvalues --   -1.13044  -1.12993  -1.12960  -1.12927  -1.12858
 Alpha  occ. eigenvalues --   -1.12810  -1.12770  -1.12607  -1.12591  -1.12543
 Alpha  occ. eigenvalues --   -0.18617  -0.13080  -0.12303  -0.10671
 Alpha virt. eigenvalues --   -0.05753  -0.05440  -0.04421  -0.03144  -0.02791
 Alpha virt. eigenvalues --   -0.02558  -0.01707  -0.01201  -0.00429  -0.00279
 Alpha virt. eigenvalues --   -0.00024   0.00344   0.00745   0.00855   0.00900

  Beta  occ. eigenvalues --  -38.44162 -38.44074 -38.43784 -38.43458 -38.43444
  Beta  occ. eigenvalues --  -38.43122 -38.43029  -2.19965  -2.19911  -2.19610
  Beta  occ. eigenvalues --   -2.19294  -2.19245  -2.19047  -2.18915  -1.13622
  Beta  occ. eigenvalues --   -1.13621  -1.13612  -1.13578  -1.13566  -1.13554
  Beta  occ. eigenvalues --   -1.13296  -1.13262  -1.13240  -1.12991  -1.12974
  Beta  occ. eigenvalues --   -1.12946  -1.12929  -1.12919  -1.12910  -1.12783
  Beta  occ. eigenvalues --   -1.12731  -1.12687  -1.12596  -1.12548  -1.12541
  Beta  occ. eigenvalues --   -0.17880  -0.12869  -0.12062
  Beta virt. eigenvalues --   -0.06734  -0.05703  -0.05461  -0.04398  -0.02378
  Beta virt. eigenvalues --   -0.01999  -0.01617  -0.01465  -0.01146  -0.00492
  Beta virt. eigenvalues --   -0.00324   0.00123   0.00368   0.00810   0.00842

 Mulliken charges and spin densities:
               1          2
     1  Na   0.183615  -0.028362
     2  Na  -0.288515   0.514094
     3  Na   0.122531  -0.069730
     4  Na   0.129215  -0.094820
     5  Na   0.149348  -0.082564
     6  Na   0.240303  -0.051645
     7  Na  -0.536497   0.813026
 Sum of Mulliken charges =  -0.00000   1.00000

 Dipole moment (field-independent basis, Debye):
    X=              0.1425    Y=              0.0719    Z=              0.1138  Tot=              0.1960
 Quadrupole moment (field-independent basis, Debye-Ang):
   XX=            -53.7362   YY=            -64.0789   ZZ=            -74.9124
   XY=             -0.2749   XZ=              0.1328   YZ=              0.4742

 Normal termination of Gaussian 16 at Fri Dec  8 05:06:04 2023.
