 Gaussian 16, Revision B.01,
 Gaussian 16:  ES64L-G16RevB.01 20-Dec-2017

 -------------------------
 #P B3LYP/6-311+g(d) force
 -------------------------

 -----
 DPGEN
 -----
 Symbolic Z-matrix:
 Charge =  0 Multiplicity = 2

                         Standard orientation:
 ---------------------------------------------------------------------
 Center     Atomic      Atomic             Coordinates (Angstroms)
 Number     Number       Type             X           Y           Z
 ---------------------------------------------------------------------
      1         11           0        0.343673   -0.313834    2.123829
      2         11           0        0.043570   -0.074152   -1.573554
      3         11           0       -0.072762    2.974891   -0.334566
      4         11           0       -2.841196    1.065075    0.047040
      5         11           0       -2.438583   -2.088659    0.066397
      6         11           0        1.906296   -2.639413   -0.535032
      7         11           0        3.059002    1.076093    0.205886
 ---------------------------------------------------------------------

 SCF Done:  E(UB3LYP) =  -1136.13491483     A.U. after   19 cycles

 The electronic state is 2-A.
 Alpha  occ. eigenvalues --  -38.44471 -38.43970 -38.43937 -38.43870 -38.43683
 Alpha  occ. eigenvalues --  -38.43163 -38.43144  -2.20263  -2.19790  -2.19733
 Alpha  occ. eigenvalues --   -2.19712  -2.19549  -2.19119  -2.18990  -1.13942
 Alpha  occ. eigenvalues --   -1.13922  -1.13897  -1.13491  -1.13453  -1.13431
 Alpha  occ. eigenvalues --   -1.13420  -1.13386  -1.13375  -1.13365  -1.13339
 Alpha  occ. eigenvalues --   -1.13328  -1.13218  -1.13210  -1.13186  -1.12816
 Alpha  occ. eigenvalues --   -1.12777  -1.12747  -1.12654  -1.12649  -1.12618
 Alpha  occ. eigenvalues --   -0.18243  -0.13063  -0.12252  -0.10646
 Alpha virt. eigenvalues --   -0.05955  -0.05328  -0.04634  -0.03247  -0.02788
 Alpha virt. eigenvalues --   -0.02525  -0.01668  -0.01329  -0.00585  -0.00418
 Alpha virt. eigenvalues --   -0.00029   0.00340   0.00765   0.00776   0.00858

  Beta  occ. eigenvalues --  -38.44465 -38.43969 -38.43920 -38.43777 -38.43680
  Beta  occ. eigenvalues --  -38.43139 -38.43104  -2.20256  -2.19791  -2.19705
  Beta  occ. eigenvalues --   -2.19548  -2.19540  -2.19013  -2.18983  -1.13921
  Beta  occ. eigenvalues --   -1.13912  -1.13897  -1.13494  -1.13434  -1.13433
  Beta  occ. eigenvalues --   -1.13389  -1.13360  -1.13348  -1.13262  -1.13224
  Beta  occ. eigenvalues --   -1.13216  -1.13205  -1.13201  -1.13175  -1.12746
  Beta  occ. eigenvalues --   -1.12711  -1.12673  -1.12641  -1.12619  -1.12610
  Beta  occ. eigenvalues --   -0.17561  -0.12847  -0.11997
  Beta virt. eigenvalues --   -0.06801  -0.05874  -0.05249  -0.04610  -0.02501
  Beta virt. eigenvalues --   -0.02105  -0.01549  -0.01498  -0.01217  -0.00647
  Beta virt. eigenvalues --   -0.00442   0.00124   0.00377   0.00778   0.00838

 Mulliken charges and spin densities:
               1          2
     1  Na  -0.436666   0.672786
     2  Na  -0.118268   0.351881
     3  Na   0.155154   0.004519
     4  Na   0.064346   0.027321
     5  Na   0.156935  -0.033814
     6  Na   0.035673  -0.044962
     7  Na   0.142825   0.022269
 Sum of Mulliken charges =  -0.00000   1.00000

 Dipole moment (field-independent basis, Debye):
    X=              0.3406    Y=             -0.2435    Z=              0.1973  Tot=              0.4628
 Quadrupole moment (field-independent basis, Debye-Ang):
   XX=            -56.2040   YY=            -62.0303   ZZ=            -75.1846
   XY=              0.8434   XZ=             -0.5434   YZ=              0.4951

 Normal termination of Gaussian 16 at Thu Dec  7 13:13:00 2023.
