 Gaussian 16, Revision B.01,
 Gaussian 16:  ES64L-G16RevB.01 20-Dec-2017

 -------------------------
 #P B3LYP/6-311+g(d) force
 -------------------------

 -----
 DPGEN
 -----
 Symbolic Z-matrix:
 Charge =  0 Multiplicity = 2

                         Standard orientation:
 ---------------------------------------------------------------------
 Center     Atomic      Atomic             Coordinates (Angstroms)
 Number     Number       Type             X           Y           Z
 ---------------------------------------------------------------------
      1         11           0        1.680323    2.284945    0.060411
      2         11           0       -2.601753    1.441157    0.803586
      3         11           0        3.684683   -0.712479   -0.069450
      4         11           0        0.398126   -0.623177    2.001968
      5         11           0       -3.407476   -1.414202   -0.305484
      6         11           0       -0.502605    1.042504   -1.815861
      7         11           0        0.748703   -2.018747   -0.675169
 ---------------------------------------------------------------------

 SCF Done:  E(UB3LYP) =  -1136.12019385     A.U. after   23 cycles

 The electronic state is 2-A.
 Alpha  occ. eigenvalues --  -38.45509 -38.44765 -38.44356 -38.44293 -38.43323
 Alpha  occ. eigenvalues --  -38.43284 -38.42914  -2.21301  -2.20547  -2.20199
 Alpha  occ. eigenvalues --   -2.20162  -2.19220  -2.19184  -2.18758  -1.14982
 Alpha  occ. eigenvalues --   -1.14948  -1.14940  -1.14251  -1.14205  -1.14181
 Alpha  occ. eigenvalues --   -1.13889  -1.13867  -1.13858  -1.13826  -1.13792
 Alpha  occ. eigenvalues --   -1.13753  -1.12934  -1.12898  -1.12861  -1.12826
 Alpha  occ. eigenvalues --   -1.12819  -1.12809  -1.12436  -1.12418  -1.12389
 Alpha  occ. eigenvalues --   -0.18270  -0.13755  -0.11273  -0.10837
 Alpha virt. eigenvalues --   -0.07116  -0.05463  -0.03869  -0.03244  -0.02837
 Alpha virt. eigenvalues --   -0.02640  -0.02372  -0.01451  -0.00390  -0.00231
 Alpha virt. eigenvalues --    0.00091   0.00191   0.00383   0.00647   0.00770

  Beta  occ. eigenvalues --  -38.45512 -38.44768 -38.44339 -38.44219 -38.43293
  Beta  occ. eigenvalues --  -38.43229 -38.42909  -2.21308  -2.20555  -2.20169
  Beta  occ. eigenvalues --   -2.20026  -2.19170  -2.19083  -2.18753  -1.14978
  Beta  occ. eigenvalues --   -1.14955  -1.14943  -1.14256  -1.14201  -1.14185
  Beta  occ. eigenvalues --   -1.13846  -1.13821  -1.13811  -1.13794  -1.13694
  Beta  occ. eigenvalues --   -1.13656  -1.12897  -1.12832  -1.12802  -1.12786
  Beta  occ. eigenvalues --   -1.12745  -1.12739  -1.12428  -1.12394  -1.12389
  Beta  occ. eigenvalues --   -0.17522  -0.13639  -0.11099
  Beta virt. eigenvalues --   -0.06962  -0.06941  -0.05390  -0.03275  -0.03096
  Beta virt. eigenvalues --   -0.02539  -0.02097  -0.01469  -0.01332  -0.00323
  Beta virt. eigenvalues --   -0.00076   0.00107   0.00207   0.00549   0.00709

 Mulliken charges and spin densities:
               1          2
     1  Na  -0.074834   0.067647
     2  Na   0.114802   0.071725
     3  Na   0.296072  -0.104234
     4  Na  -0.308612   0.549173
     5  Na   0.038022  -0.084847
     6  Na  -0.018373   0.289698
     7  Na  -0.047077   0.210838
 Sum of Mulliken charges =  -0.00000   1.00000

 Dipole moment (field-independent basis, Debye):
    X=              0.2864    Y=             -0.2742    Z=              0.1793  Tot=              0.4351
 Quadrupole moment (field-independent basis, Debye-Ang):
   XX=            -45.5018   YY=            -74.7657   ZZ=            -72.5298
   XY=              0.6673   XZ=             -0.0940   YZ=              3.2908

 Normal termination of Gaussian 16 at Sun Dec  3 20:36:56 2023.
