 Gaussian 16, Revision B.01,
 Gaussian 16:  ES64L-G16RevB.01 20-Dec-2017

 -------------------------
 #P B3LYP/6-311+g(d) force
 -------------------------

 -----
 DPGEN
 -----
 Symbolic Z-matrix:
 Charge =  0 Multiplicity = 2

                         Standard orientation:
 ---------------------------------------------------------------------
 Center     Atomic      Atomic             Coordinates (Angstroms)
 Number     Number       Type             X           Y           Z
 ---------------------------------------------------------------------
      1         11           0        2.357547   -1.913572    0.383426
      2         11           0        0.443969   -0.382765   -1.750777
      3         11           0       -2.598023    0.973612   -0.978533
      4         11           0       -0.313892   -0.261368    1.906527
      5         11           0       -2.261056   -2.241169    0.106733
      6         11           0       -0.383180    2.701214    0.874936
      7         11           0        2.754636    1.124048   -0.542313
 ---------------------------------------------------------------------

 SCF Done:  E(UB3LYP) =  -1136.13101579     A.U. after   19 cycles

 The electronic state is 2-A.
 Alpha  occ. eigenvalues --  -38.44078 -38.43992 -38.43945 -38.43817 -38.43661
 Alpha  occ. eigenvalues --  -38.43556 -38.42743  -2.19964  -2.19857  -2.19815
 Alpha  occ. eigenvalues --   -2.19782  -2.19606  -2.19384  -2.18611  -1.13749
 Alpha  occ. eigenvalues --   -1.13640  -1.13577  -1.13553  -1.13512  -1.13505
 Alpha  occ. eigenvalues --   -1.13488  -1.13484  -1.13430  -1.13425  -1.13394
 Alpha  occ. eigenvalues --   -1.13377  -1.13275  -1.13258  -1.13235  -1.13057
 Alpha  occ. eigenvalues --   -1.13033  -1.13024  -1.12311  -1.12254  -1.12236
 Alpha  occ. eigenvalues --   -0.18768  -0.13461  -0.11907  -0.11425
 Alpha virt. eigenvalues --   -0.05460  -0.05359  -0.04021  -0.03690  -0.03055
 Alpha virt. eigenvalues --   -0.02922  -0.01481  -0.01048  -0.00233   0.00008
 Alpha virt. eigenvalues --    0.00198   0.00383   0.00769   0.00795   0.00857

  Beta  occ. eigenvalues --  -38.44067 -38.43966 -38.43938 -38.43755 -38.43575
  Beta  occ. eigenvalues --  -38.43557 -38.42726  -2.19947  -2.19811  -2.19804
  Beta  occ. eigenvalues --   -2.19670  -2.19449  -2.19388  -2.18584  -1.13719
  Beta  occ. eigenvalues --   -1.13625  -1.13560  -1.13511  -1.13493  -1.13471
  Beta  occ. eigenvalues --   -1.13461  -1.13456  -1.13414  -1.13363  -1.13321
  Beta  occ. eigenvalues --   -1.13300  -1.13170  -1.13155  -1.13125  -1.13045
  Beta  occ. eigenvalues --   -1.13029  -1.13017  -1.12280  -1.12233  -1.12214
  Beta  occ. eigenvalues --   -0.18031  -0.13207  -0.11659
  Beta virt. eigenvalues --   -0.07501  -0.05389  -0.05218  -0.03945  -0.03014
  Beta virt. eigenvalues --   -0.02331  -0.01908  -0.01384  -0.00954  -0.00074
  Beta virt. eigenvalues --   -0.00009   0.00221   0.00422   0.00832   0.00873

 Mulliken charges and spin densities:
               1          2
     1  Na  -0.037750   0.010402
     2  Na   0.095641   0.232234
     3  Na  -0.054541   0.145932
     4  Na   0.035311   0.492856
     5  Na  -0.132026  -0.004200
     6  Na   0.018322   0.043223
     7  Na   0.075043   0.079554
 Sum of Mulliken charges =  -0.00000   1.00000

 Dipole moment (field-independent basis, Debye):
    X=              0.2607    Y=             -0.3230    Z=             -0.1678  Tot=              0.4477
 Quadrupole moment (field-independent basis, Debye-Ang):
   XX=            -57.7832   YY=            -66.4799   ZZ=            -70.8445
   XY=              0.2243   XZ=              1.9478   YZ=             -1.4726

 Normal termination of Gaussian 16 at Mon Dec  4 05:42:22 2023.
