 Gaussian 16, Revision B.01,
 Gaussian 16:  ES64L-G16RevB.01 20-Dec-2017

 -------------------------
 #P B3LYP/6-311+g(d) force
 -------------------------

 -----
 DPGEN
 -----
 Symbolic Z-matrix:
 Charge =  0 Multiplicity = 2

                         Standard orientation:
 ---------------------------------------------------------------------
 Center     Atomic      Atomic             Coordinates (Angstroms)
 Number     Number       Type             X           Y           Z
 ---------------------------------------------------------------------
      1         11           0        0.000530    0.033406    1.628386
      2         11           0       -0.000570    0.032506   -1.627914
      3         11           0        2.534507   -0.729371   -0.000514
      4         11           0        1.388179    1.675414   -0.000614
      5         11           0       -0.004531   -1.970794    0.000786
      6         11           0       -1.379621    1.680857    0.000286
      7         11           0       -2.538493   -0.722018   -0.000414
 ---------------------------------------------------------------------

 SCF Done:  E(UB3LYP) =  -1136.04136033     A.U. after   18 cycles

 The electronic state is 2-A.
 Alpha  occ. eigenvalues --  -38.44634 -38.44634 -38.44277 -38.44275 -38.44019
 Alpha  occ. eigenvalues --  -38.44011 -38.43872  -2.21066  -2.21042  -2.20421
 Alpha  occ. eigenvalues --   -2.20417  -2.20306  -2.20255  -2.20153  -1.15147
 Alpha  occ. eigenvalues --   -1.14987  -1.14919  -1.14797  -1.14786  -1.14681
 Alpha  occ. eigenvalues --   -1.14441  -1.14318  -1.14199  -1.14106  -1.14008
 Alpha  occ. eigenvalues --   -1.14004  -1.13977  -1.13840  -1.13817  -1.13813
 Alpha  occ. eigenvalues --   -1.13710  -1.13680  -1.13675  -1.13605  -1.13556
 Alpha  occ. eigenvalues --   -0.22376  -0.14491  -0.12888  -0.12335
 Alpha virt. eigenvalues --   -0.05540  -0.04220  -0.03915  -0.03847  -0.02974
 Alpha virt. eigenvalues --   -0.02479  -0.01383  -0.00382  -0.00038   0.00306
 Alpha virt. eigenvalues --    0.00736   0.00839   0.01073   0.01181   0.01277

  Beta  occ. eigenvalues --  -38.44538 -38.44537 -38.44267 -38.44265 -38.44000
  Beta  occ. eigenvalues --  -38.43992 -38.43852  -2.20897  -2.20868  -2.20407
  Beta  occ. eigenvalues --   -2.20403  -2.20281  -2.20230  -2.20124  -1.15068
  Beta  occ. eigenvalues --   -1.14882  -1.14789  -1.14705  -1.14678  -1.14551
  Beta  occ. eigenvalues --   -1.14437  -1.14304  -1.14178  -1.14093  -1.13981
  Beta  occ. eigenvalues --   -1.13942  -1.13917  -1.13798  -1.13748  -1.13723
  Beta  occ. eigenvalues --   -1.13699  -1.13659  -1.13598  -1.13575  -1.13549
  Beta  occ. eigenvalues --   -0.21558  -0.14074  -0.12493
  Beta virt. eigenvalues --   -0.08057  -0.05589  -0.04196  -0.03843  -0.02821
  Beta virt. eigenvalues --   -0.02032  -0.01437  -0.01302  -0.00349   0.00100
  Beta virt. eigenvalues --    0.00339   0.00744   0.00831   0.01078   0.01198

 Mulliken charges and spin densities:
               1          2
     1  Na  -0.417802   0.462937
     2  Na  -0.418403   0.462759
     3  Na  -0.056018  -0.059535
     4  Na   0.282702   0.066960
     5  Na   0.384901   0.060834
     6  Na   0.282186   0.066266
     7  Na  -0.057566  -0.060220
 Sum of Mulliken charges =  -0.00000   1.00000

 Dipole moment (field-independent basis, Debye):
    X=             -0.0030    Y=             -0.2087    Z=              0.0003  Tot=              0.2088
 Quadrupole moment (field-independent basis, Debye-Ang):
   XX=            -56.6242   YY=            -71.5022   ZZ=            -69.8561
   XY=             -0.0056   XZ=             -0.0018   YZ=             -0.0009

 Normal termination of Gaussian 16 at Fri Dec  8 19:49:12 2023.
