 Gaussian 16, Revision B.01,
 Gaussian 16:  ES64L-G16RevB.01 20-Dec-2017

 -------------------------
 #P B3LYP/6-311+g(d) force
 -------------------------

 -----
 DPGEN
 -----
 Symbolic Z-matrix:
 Charge =  0 Multiplicity = 2

                         Standard orientation:
 ---------------------------------------------------------------------
 Center     Atomic      Atomic             Coordinates (Angstroms)
 Number     Number       Type             X           Y           Z
 ---------------------------------------------------------------------
      1         11           0       -2.353816   -1.410190    0.470803
      2         11           0       -5.882756   -0.439158   -0.319997
      3         11           0       -2.781906    2.327000   -0.124123
      4         11           0        0.300547    1.200596   -0.134313
      5         11           0        0.642617   -2.141577   -0.247854
      6         11           0        3.360286    0.454632    0.985775
      7         11           0        6.715027    0.008696   -0.630291
 ---------------------------------------------------------------------

 SCF Done:  E(UB3LYP) =  -1136.11084180     A.U. after   25 cycles

 The electronic state is 2-A.
 Alpha  occ. eigenvalues --  -38.44912 -38.44599 -38.44425 -38.44365 -38.44341
 Alpha  occ. eigenvalues --  -38.44304 -38.44089  -2.20725  -2.20451  -2.20289
 Alpha  occ. eigenvalues --   -2.20207  -2.20105  -2.20063  -2.19884  -1.14407
 Alpha  occ. eigenvalues --   -1.14392  -1.14320  -1.14153  -1.14120  -1.14096
 Alpha  occ. eigenvalues --   -1.13948  -1.13922  -1.13913  -1.13891  -1.13870
 Alpha  occ. eigenvalues --   -1.13809  -1.13767  -1.13762  -1.13755  -1.13754
 Alpha  occ. eigenvalues --   -1.13714  -1.13711  -1.13575  -1.13547  -1.13476
 Alpha  occ. eigenvalues --   -0.17387  -0.13644  -0.12312  -0.11240
 Alpha virt. eigenvalues --   -0.07152  -0.05318  -0.04726  -0.03580  -0.03416
 Alpha virt. eigenvalues --   -0.02489  -0.02105  -0.01353  -0.01201  -0.00785
 Alpha virt. eigenvalues --   -0.00561  -0.00283  -0.00105   0.00170   0.00419

  Beta  occ. eigenvalues --  -38.44848 -38.44551 -38.44421 -38.44379 -38.44289
  Beta  occ. eigenvalues --  -38.44256 -38.44063  -2.20611  -2.20368  -2.20207
  Beta  occ. eigenvalues --   -2.20169  -2.20123  -2.20008  -2.19835  -1.14320
  Beta  occ. eigenvalues --   -1.14320  -1.14226  -1.14094  -1.14057  -1.14021
  Beta  occ. eigenvalues --   -1.13896  -1.13872  -1.13835  -1.13835  -1.13827
  Beta  occ. eigenvalues --   -1.13826  -1.13804  -1.13778  -1.13735  -1.13701
  Beta  occ. eigenvalues --   -1.13691  -1.13653  -1.13535  -1.13512  -1.13461
  Beta  occ. eigenvalues --   -0.16550  -0.13391  -0.11358
  Beta virt. eigenvalues --   -0.08117  -0.06872  -0.04950  -0.04397  -0.03228
  Beta virt. eigenvalues --   -0.02750  -0.02373  -0.01784  -0.01250  -0.00890
  Beta virt. eigenvalues --   -0.00588  -0.00305  -0.00156   0.00030   0.00327

 Mulliken charges and spin densities:
               1          2
     1  Na  -0.423150   0.259468
     2  Na   0.031555   0.291823
     3  Na   0.348176  -0.109698
     4  Na  -1.017231   0.734607
     5  Na   0.600605   0.096383
     6  Na   0.281563   0.022483
     7  Na   0.178481  -0.295067
 Sum of Mulliken charges =  -0.00000   1.00000

 Dipole moment (field-independent basis, Debye):
    X=             -0.9933    Y=             -0.3233    Z=             -0.3289  Tot=              1.0952
 Quadrupole moment (field-independent basis, Debye-Ang):
   XX=            -66.4656   YY=            -66.3151   ZZ=            -70.8122
   XY=             -4.3407   XZ=             -2.2668   YZ=              0.7381

 Normal termination of Gaussian 16 at Tue Nov 28 20:35:30 2023.
