 Gaussian 16, Revision B.01,
 Gaussian 16:  ES64L-G16RevB.01 20-Dec-2017

 -------------------------
 #P B3LYP/6-311+g(d) force
 -------------------------

 -----
 DPGEN
 -----
 Symbolic Z-matrix:
 Charge =  0 Multiplicity = 2

                         Standard orientation:
 ---------------------------------------------------------------------
 Center     Atomic      Atomic             Coordinates (Angstroms)
 Number     Number       Type             X           Y           Z
 ---------------------------------------------------------------------
      1         11           0        0.166631   -0.176328    1.819351
      2         11           0       -1.442440    2.306098   -0.176649
      3         11           0       -3.453489   -0.638710   -0.066230
      4         11           0        2.855321   -1.913706   -0.079151
      5         11           0        1.966818    2.369210    0.347253
      6         11           0       -0.817541   -2.181970   -0.060358
      7         11           0        0.724700    0.235407   -1.784217
 ---------------------------------------------------------------------

 SCF Done:  E(UB3LYP) =  -1136.13140189     A.U. after   21 cycles

 The electronic state is 2-A.
 Alpha  occ. eigenvalues --  -38.44145 -38.44133 -38.43786 -38.43550 -38.43486
 Alpha  occ. eigenvalues --  -38.43311 -38.43297  -2.19962  -2.19942  -2.19641
 Alpha  occ. eigenvalues --   -2.19452  -2.19407  -2.19272  -2.19250  -1.13673
 Alpha  occ. eigenvalues --   -1.13615  -1.13608  -1.13601  -1.13600  -1.13582
 Alpha  occ. eigenvalues --   -1.13328  -1.13314  -1.13273  -1.13271  -1.13110
 Alpha  occ. eigenvalues --   -1.13096  -1.13069  -1.13032  -1.13019  -1.12972
 Alpha  occ. eigenvalues --   -1.12907  -1.12902  -1.12883  -1.12858  -1.12837
 Alpha  occ. eigenvalues --   -0.18806  -0.13054  -0.12503  -0.10660
 Alpha virt. eigenvalues --   -0.05857  -0.05499  -0.04179  -0.03126  -0.02874
 Alpha virt. eigenvalues --   -0.02414  -0.01844  -0.01379  -0.00279  -0.00040
 Alpha virt. eigenvalues --    0.00042   0.00289   0.00741   0.00843   0.00916

  Beta  occ. eigenvalues --  -38.44143 -38.44136 -38.43776 -38.43542 -38.43400
  Beta  occ. eigenvalues --  -38.43298 -38.43224  -2.19969  -2.19942  -2.19627
  Beta  occ. eigenvalues --   -2.19397  -2.19297  -2.19250  -2.19117  -1.13680
  Beta  occ. eigenvalues --   -1.13605  -1.13604  -1.13600  -1.13594  -1.13583
  Beta  occ. eigenvalues --   -1.13319  -1.13276  -1.13266  -1.13190  -1.13094
  Beta  occ. eigenvalues --   -1.13055  -1.13016  -1.12976  -1.12929  -1.12922
  Beta  occ. eigenvalues --   -1.12849  -1.12838  -1.12822  -1.12792  -1.12748
  Beta  occ. eigenvalues --   -0.18069  -0.12857  -0.12247
  Beta virt. eigenvalues --   -0.06742  -0.05760  -0.05491  -0.04164  -0.02393
  Beta virt. eigenvalues --   -0.02103  -0.01782  -0.01408  -0.01268  -0.00314
  Beta virt. eigenvalues --    0.00020   0.00111   0.00316   0.00779   0.00842

 Mulliken charges and spin densities:
               1          2
     1  Na  -0.484845   0.535247
     2  Na   0.178546   0.068561
     3  Na  -0.218736  -0.109063
     4  Na   0.345188  -0.086742
     5  Na   0.161711  -0.115151
     6  Na   0.499683   0.176939
     7  Na  -0.481546   0.530208
 Sum of Mulliken charges =  -0.00000   1.00000

 Dipole moment (field-independent basis, Debye):
    X=              0.3102    Y=              0.1645    Z=              0.0379  Tot=              0.3531
 Quadrupole moment (field-independent basis, Debye-Ang):
   XX=            -52.1959   YY=            -65.3271   ZZ=            -74.8223
   XY=             -0.9869   XZ=              1.1065   YZ=              0.7941

 Normal termination of Gaussian 16 at Thu Dec  7 20:09:00 2023.
