 Gaussian 16, Revision B.01,
 Gaussian 16:  ES64L-G16RevB.01 20-Dec-2017

 -------------------------
 #P B3LYP/6-311+g(d) force
 -------------------------

 -----
 DPGEN
 -----
 Symbolic Z-matrix:
 Charge =  0 Multiplicity = 2

                         Standard orientation:
 ---------------------------------------------------------------------
 Center     Atomic      Atomic             Coordinates (Angstroms)
 Number     Number       Type             X           Y           Z
 ---------------------------------------------------------------------
      1         11           0       -0.824209   -0.343698   -1.418354
      2         11           0        0.617962    0.492881    1.879529
      3         11           0        1.473513    2.701632   -0.981565
      4         11           0       -1.777581    1.720862    0.704569
      5         11           0       -3.281712   -0.859887   -0.177484
      6         11           0        0.498405   -2.823950    0.068731
      7         11           0        3.293623   -0.887841   -0.075427
 ---------------------------------------------------------------------

 SCF Done:  E(UB3LYP) =  -1136.12206667     A.U. after   20 cycles

 The electronic state is 2-A.
 Alpha  occ. eigenvalues --  -38.44778 -38.44459 -38.43586 -38.43572 -38.43533
 Alpha  occ. eigenvalues --  -38.43461 -38.43438  -2.20563  -2.20364  -2.19566
 Alpha  occ. eigenvalues --   -2.19426  -2.19425  -2.19389  -2.19371  -1.14242
 Alpha  occ. eigenvalues --   -1.14213  -1.14206  -1.14168  -1.14012  -1.13968
 Alpha  occ. eigenvalues --   -1.13310  -1.13260  -1.13246  -1.13180  -1.13095
 Alpha  occ. eigenvalues --   -1.13088  -1.13049  -1.13038  -1.13035  -1.13034
 Alpha  occ. eigenvalues --   -1.13022  -1.13019  -1.12995  -1.12982  -1.12943
 Alpha  occ. eigenvalues --   -0.18655  -0.13427  -0.12301  -0.10664
 Alpha virt. eigenvalues --   -0.06237  -0.04960  -0.04584  -0.03379  -0.03006
 Alpha virt. eigenvalues --   -0.02175  -0.01881  -0.01023  -0.00441  -0.00241
 Alpha virt. eigenvalues --    0.00046   0.00293   0.00744   0.00761   0.00867

  Beta  occ. eigenvalues --  -38.44778 -38.44456 -38.43584 -38.43531 -38.43490
  Beta  occ. eigenvalues --  -38.43411 -38.43387  -2.20565  -2.20361  -2.19488
  Beta  occ. eigenvalues --   -2.19423  -2.19379  -2.19297  -2.19256  -1.14235
  Beta  occ. eigenvalues --   -1.14216  -1.14203  -1.14159  -1.14000  -1.13963
  Beta  occ. eigenvalues --   -1.13258  -1.13218  -1.13178  -1.13123  -1.13075
  Beta  occ. eigenvalues --   -1.13072  -1.13032  -1.13012  -1.12982  -1.12974
  Beta  occ. eigenvalues --   -1.12970  -1.12949  -1.12942  -1.12888  -1.12864
  Beta  occ. eigenvalues --   -0.18006  -0.13229  -0.12000
  Beta virt. eigenvalues --   -0.06824  -0.06183  -0.04816  -0.04444  -0.02736
  Beta virt. eigenvalues --   -0.02319  -0.01833  -0.01314  -0.00865  -0.00388
  Beta virt. eigenvalues --   -0.00163   0.00154   0.00351   0.00794   0.00871

 Mulliken charges and spin densities:
               1          2
     1  Na  -0.040991   0.447220
     2  Na  -0.105301   0.272849
     3  Na  -0.312939   0.211450
     4  Na   0.450354   0.218835
     5  Na   0.173385  -0.063460
     6  Na  -0.215572  -0.062962
     7  Na   0.051064  -0.023933
 Sum of Mulliken charges =  -0.00000   1.00000

 Dipole moment (field-independent basis, Debye):
    X=              0.3285    Y=             -0.3834    Z=              0.0930  Tot=              0.5134
 Quadrupole moment (field-independent basis, Debye-Ang):
   XX=            -52.4510   YY=            -66.5514   ZZ=            -74.5318
   XY=              0.9078   XZ=             -1.9968   YZ=             -1.7491

 Normal termination of Gaussian 16 at Tue Dec  5 15:04:13 2023.
