 Gaussian 16, Revision B.01,
 Gaussian 16:  ES64L-G16RevB.01 20-Dec-2017

 -------------------------
 #P B3LYP/6-311+g(d) force
 -------------------------

 -----
 DPGEN
 -----
 Symbolic Z-matrix:
 Charge =  0 Multiplicity = 2

                         Standard orientation:
 ---------------------------------------------------------------------
 Center     Atomic      Atomic             Coordinates (Angstroms)
 Number     Number       Type             X           Y           Z
 ---------------------------------------------------------------------
      1         11           0       -1.097873    2.046280   -0.094973
      2         11           0        5.633776   -0.004906    0.325648
      3         11           0        2.609124    1.625209   -0.570182
      4         11           0        2.884256   -2.000877   -0.101654
      5         11           0       -0.465351   -1.229910   -0.144835
      6         11           0       -3.476848    0.222122    1.280180
      7         11           0       -6.087085   -0.657919   -0.694185
 ---------------------------------------------------------------------

 SCF Done:  E(UB3LYP) =  -1136.11814195     A.U. after   22 cycles

 The electronic state is 2-A.
 Alpha  occ. eigenvalues --  -38.44861 -38.44312 -38.44218 -38.44102 -38.43973
 Alpha  occ. eigenvalues --  -38.43957 -38.43907  -2.20665  -2.20158  -2.20074
 Alpha  occ. eigenvalues --   -2.19910  -2.19806  -2.19749  -2.19709  -1.14362
 Alpha  occ. eigenvalues --   -1.14335  -1.14257  -1.13838  -1.13833  -1.13776
 Alpha  occ. eigenvalues --   -1.13755  -1.13718  -1.13701  -1.13569  -1.13568
 Alpha  occ. eigenvalues --   -1.13530  -1.13499  -1.13470  -1.13442  -1.13429
 Alpha  occ. eigenvalues --   -1.13415  -1.13388  -1.13388  -1.13373  -1.13312
 Alpha  occ. eigenvalues --   -0.17022  -0.14425  -0.11506  -0.11290
 Alpha virt. eigenvalues --   -0.06941  -0.05380  -0.04497  -0.03803  -0.03110
 Alpha virt. eigenvalues --   -0.02413  -0.02087  -0.01652  -0.00850  -0.00589
 Alpha virt. eigenvalues --   -0.00340  -0.00018   0.00120   0.00292   0.00581

  Beta  occ. eigenvalues --  -38.44811 -38.44253 -38.44162 -38.44073 -38.44014
  Beta  occ. eigenvalues --  -38.43932 -38.43894  -2.20574  -2.20053  -2.19974
  Beta  occ. eigenvalues --   -2.19857  -2.19785  -2.19760  -2.19723  -1.14302
  Beta  occ. eigenvalues --   -1.14271  -1.14177  -1.13767  -1.13762  -1.13691
  Beta  occ. eigenvalues --   -1.13680  -1.13652  -1.13607  -1.13533  -1.13523
  Beta  occ. eigenvalues --   -1.13497  -1.13467  -1.13442  -1.13441  -1.13437
  Beta  occ. eigenvalues --   -1.13433  -1.13415  -1.13400  -1.13364  -1.13322
  Beta  occ. eigenvalues --   -0.16306  -0.14228  -0.11296
  Beta virt. eigenvalues --   -0.07419  -0.06798  -0.04759  -0.04315  -0.03623
  Beta virt. eigenvalues --   -0.02430  -0.02034  -0.01787  -0.01595  -0.00638
  Beta virt. eigenvalues --   -0.00382  -0.00178   0.00077   0.00318   0.00446

 Mulliken charges and spin densities:
               1          2
     1  Na   0.007250   0.293914
     2  Na   0.489335   0.126990
     3  Na  -0.268631   0.161567
     4  Na  -0.201180  -0.020014
     5  Na  -0.338342   0.481730
     6  Na   0.164125   0.176161
     7  Na   0.147442  -0.220349
 Sum of Mulliken charges =  -0.00000   1.00000

 Dipole moment (field-independent basis, Debye):
    X=              1.2458    Y=              0.2398    Z=             -0.1518  Tot=              1.2777
 Quadrupole moment (field-independent basis, Debye-Ang):
   XX=            -63.7017   YY=            -68.3800   ZZ=            -68.8945
   XY=             -0.8672   XZ=              4.2920   YZ=              0.5230

 Normal termination of Gaussian 16 at Tue Nov 28 19:36:26 2023.
