 Gaussian 16, Revision B.01,
 Gaussian 16:  ES64L-G16RevB.01 20-Dec-2017

 -------------------------
 #P B3LYP/6-311+g(d) force
 -------------------------

 -----
 DPGEN
 -----
 Symbolic Z-matrix:
 Charge =  0 Multiplicity = 2

                         Standard orientation:
 ---------------------------------------------------------------------
 Center     Atomic      Atomic             Coordinates (Angstroms)
 Number     Number       Type             X           Y           Z
 ---------------------------------------------------------------------
      1         11           0       -2.053103    2.569136    0.053521
      2         11           0        0.560892   -0.481037    2.111260
      3         11           0        1.766703    2.523274    0.008143
      4         11           0        3.338979   -0.796688   -0.466127
      5         11           0       -0.419422   -2.993039   -0.142053
      6         11           0       -0.141400   -0.005765   -1.500559
      7         11           0       -3.052650   -0.815881   -0.064186
 ---------------------------------------------------------------------

 SCF Done:  E(UB3LYP) =  -1136.13490449     A.U. after   19 cycles

 The electronic state is 2-A.
 Alpha  occ. eigenvalues --  -38.44503 -38.44078 -38.44046 -38.43626 -38.43564
 Alpha  occ. eigenvalues --  -38.43460 -38.43206  -2.20279  -2.19913  -2.19843
 Alpha  occ. eigenvalues --   -2.19421  -2.19412  -2.19312  -2.19156  -1.13952
 Alpha  occ. eigenvalues --   -1.13927  -1.13922  -1.13599  -1.13576  -1.13549
 Alpha  occ. eigenvalues --   -1.13528  -1.13515  -1.13466  -1.13110  -1.13095
 Alpha  occ. eigenvalues --   -1.13085  -1.13080  -1.13064  -1.13043  -1.12972
 Alpha  occ. eigenvalues --   -1.12937  -1.12927  -1.12849  -1.12795  -1.12776
 Alpha  occ. eigenvalues --   -0.18098  -0.13013  -0.12337  -0.10319
 Alpha virt. eigenvalues --   -0.05991  -0.05405  -0.04916  -0.03098  -0.02760
 Alpha virt. eigenvalues --   -0.02295  -0.01808  -0.01266  -0.00718  -0.00656
 Alpha virt. eigenvalues --   -0.00028   0.00315   0.00722   0.00781   0.00809

  Beta  occ. eigenvalues --  -38.44491 -38.44075 -38.44043 -38.43627 -38.43558
  Beta  occ. eigenvalues --  -38.43360 -38.43156  -2.20260  -2.19911  -2.19840
  Beta  occ. eigenvalues --   -2.19424  -2.19406  -2.19129  -2.19066  -1.13921
  Beta  occ. eigenvalues --   -1.13915  -1.13912  -1.13594  -1.13562  -1.13552
  Beta  occ. eigenvalues --   -1.13522  -1.13498  -1.13466  -1.13103  -1.13088
  Beta  occ. eigenvalues --   -1.13086  -1.13066  -1.13047  -1.13040  -1.12851
  Beta  occ. eigenvalues --   -1.12810  -1.12798  -1.12781  -1.12730  -1.12709
  Beta  occ. eigenvalues --   -0.17428  -0.12793  -0.12144
  Beta virt. eigenvalues --   -0.06455  -0.05936  -0.05384  -0.04827  -0.02381
  Beta virt. eigenvalues --   -0.02050  -0.01699  -0.01291  -0.01190  -0.00740
  Beta virt. eigenvalues --   -0.00708   0.00151   0.00369   0.00771   0.00813

 Mulliken charges and spin densities:
               1          2
     1  Na  -0.053597  -0.036337
     2  Na  -0.476488   0.742011
     3  Na   0.027937  -0.016993
     4  Na   0.122686  -0.022990
     5  Na   0.281238  -0.047698
     6  Na  -0.062252   0.389652
     7  Na   0.160477  -0.007645
 Sum of Mulliken charges =  -0.00000   1.00000

 Dipole moment (field-independent basis, Debye):
    X=              0.2451    Y=             -0.0783    Z=              0.0230  Tot=              0.2583
 Quadrupole moment (field-independent basis, Debye-Ang):
   XX=            -54.8704   YY=            -61.0651   ZZ=            -76.6914
   XY=             -0.0567   XZ=             -1.5456   YZ=              1.2428

 Normal termination of Gaussian 16 at Thu Dec  7 21:44:10 2023.
