 Gaussian 16, Revision B.01,
 Gaussian 16:  ES64L-G16RevB.01 20-Dec-2017

 -------------------------
 #P B3LYP/6-311+g(d) force
 -------------------------

 -----
 DPGEN
 -----
 Symbolic Z-matrix:
 Charge =  0 Multiplicity = 2

                         Standard orientation:
 ---------------------------------------------------------------------
 Center     Atomic      Atomic             Coordinates (Angstroms)
 Number     Number       Type             X           Y           Z
 ---------------------------------------------------------------------
      1         11           0        0.350019   -0.254431    1.390826
      2         11           0       -2.157087   -2.077098   -0.288802
      3         11           0       -0.730622    2.324578   -0.608546
      4         11           0        3.504897   -0.506291   -0.334380
      5         11           0        2.091633    2.810995    0.072337
      6         11           0       -4.467909    0.605824    0.035330
      7         11           0        1.409069   -2.903577   -0.266765
 ---------------------------------------------------------------------

 SCF Done:  E(UB3LYP) =  -1136.12352381     A.U. after   20 cycles

 The electronic state is 2-A.
 Alpha  occ. eigenvalues --  -38.44681 -38.44421 -38.44237 -38.44191 -38.43886
 Alpha  occ. eigenvalues --  -38.43462 -38.43248  -2.20572  -2.20273  -2.20097
 Alpha  occ. eigenvalues --   -2.19995  -2.19748  -2.19265  -2.19118  -1.14273
 Alpha  occ. eigenvalues --   -1.14226  -1.14193  -1.14036  -1.13936  -1.13928
 Alpha  occ. eigenvalues --   -1.13751  -1.13726  -1.13696  -1.13691  -1.13668
 Alpha  occ. eigenvalues --   -1.13619  -1.13434  -1.13419  -1.13384  -1.12914
 Alpha  occ. eigenvalues --   -1.12909  -1.12875  -1.12774  -1.12757  -1.12744
 Alpha  occ. eigenvalues --   -0.17671  -0.13582  -0.13247  -0.09992
 Alpha virt. eigenvalues --   -0.06382  -0.06032  -0.04723  -0.03203  -0.02703
 Alpha virt. eigenvalues --   -0.02448  -0.02079  -0.01377  -0.00904  -0.00782
 Alpha virt. eigenvalues --   -0.00065   0.00103   0.00497   0.00572   0.00703

  Beta  occ. eigenvalues --  -38.44653 -38.44414 -38.44234 -38.44184 -38.43879
  Beta  occ. eigenvalues --  -38.43376 -38.43179  -2.20520  -2.20263  -2.20096
  Beta  occ. eigenvalues --   -2.19989  -2.19741  -2.19103  -2.18990  -1.14237
  Beta  occ. eigenvalues --   -1.14199  -1.14148  -1.14019  -1.13929  -1.13921
  Beta  occ. eigenvalues --   -1.13752  -1.13725  -1.13692  -1.13677  -1.13666
  Beta  occ. eigenvalues --   -1.13579  -1.13433  -1.13420  -1.13339  -1.12803
  Beta  occ. eigenvalues --   -1.12798  -1.12771  -1.12687  -1.12676  -1.12655
  Beta  occ. eigenvalues --   -0.17272  -0.13073  -0.12654
  Beta virt. eigenvalues --   -0.06595  -0.06249  -0.05930  -0.04478  -0.02517
  Beta virt. eigenvalues --   -0.02431  -0.02193  -0.01733  -0.01146  -0.00844
  Beta virt. eigenvalues --   -0.00581   0.00246   0.00309   0.00558   0.00752

 Mulliken charges and spin densities:
               1          2
     1  Na   0.014713  -0.052057
     2  Na  -0.155267   0.027963
     3  Na  -0.449260  -0.035421
     4  Na  -0.158218   0.458372
     5  Na   0.480889   0.049763
     6  Na   0.174452   0.535863
     7  Na   0.092691   0.015519
 Sum of Mulliken charges =  -0.00000   1.00000

 Dipole moment (field-independent basis, Debye):
    X=              0.6423    Y=              0.1152    Z=              0.0935  Tot=              0.6592
 Quadrupole moment (field-independent basis, Debye-Ang):
   XX=            -77.6918   YY=            -60.6359   ZZ=            -67.8467
   XY=              4.1679   XZ=              0.5273   YZ=              1.4712

 Normal termination of Gaussian 16 at Wed Nov 29 03:31:02 2023.
