 Gaussian 16, Revision B.01,
 Gaussian 16:  ES64L-G16RevB.01 20-Dec-2017

 -------------------------
 #P B3LYP/6-311+g(d) force
 -------------------------

 -----
 DPGEN
 -----
 Symbolic Z-matrix:
 Charge =  0 Multiplicity = 2

                         Standard orientation:
 ---------------------------------------------------------------------
 Center     Atomic      Atomic             Coordinates (Angstroms)
 Number     Number       Type             X           Y           Z
 ---------------------------------------------------------------------
      1         11           0       -2.955452    1.387212   -0.241928
      2         11           0       -0.045573    0.130164    2.097282
      3         11           0        3.315635    0.141078   -0.159558
      4         11           0        1.493314   -2.465630   -0.239351
      5         11           0        0.681675    2.969896   -0.123334
      6         11           0       -2.282897   -2.335244   -0.036390
      7         11           0       -0.206702    0.172525   -1.296721
 ---------------------------------------------------------------------

 SCF Done:  E(UB3LYP) =  -1136.13403458     A.U. after   20 cycles

 The electronic state is 2-A.
 Alpha  occ. eigenvalues --  -38.44448 -38.44200 -38.43931 -38.43664 -38.43397
 Alpha  occ. eigenvalues --  -38.43308 -38.42892  -2.20261  -2.20021  -2.19727
 Alpha  occ. eigenvalues --   -2.19493  -2.19262  -2.19185  -2.18923  -1.13960
 Alpha  occ. eigenvalues --   -1.13916  -1.13879  -1.13706  -1.13684  -1.13655
 Alpha  occ. eigenvalues --   -1.13404  -1.13385  -1.13369  -1.13207  -1.13153
 Alpha  occ. eigenvalues --   -1.13111  -1.12962  -1.12921  -1.12891  -1.12864
 Alpha  occ. eigenvalues --   -1.12801  -1.12792  -1.12617  -1.12565  -1.12544
 Alpha  occ. eigenvalues --   -0.18432  -0.13072  -0.12368  -0.10287
 Alpha virt. eigenvalues --   -0.05969  -0.05455  -0.04694  -0.02927  -0.02617
 Alpha virt. eigenvalues --   -0.02272  -0.01821  -0.01405  -0.00691  -0.00459
 Alpha virt. eigenvalues --   -0.00008   0.00303   0.00724   0.00785   0.00857

  Beta  occ. eigenvalues --  -38.44440 -38.44197 -38.43930 -38.43659 -38.43391
  Beta  occ. eigenvalues --  -38.43199 -38.42850  -2.20248  -2.20017  -2.19728
  Beta  occ. eigenvalues --   -2.19488  -2.19253  -2.18984  -2.18849  -1.13944
  Beta  occ. eigenvalues --   -1.13895  -1.13874  -1.13705  -1.13666  -1.13652
  Beta  occ. eigenvalues --   -1.13396  -1.13379  -1.13371  -1.13201  -1.13128
  Beta  occ. eigenvalues --   -1.13112  -1.12953  -1.12903  -1.12878  -1.12733
  Beta  occ. eigenvalues --   -1.12662  -1.12648  -1.12548  -1.12512  -1.12491
  Beta  occ. eigenvalues --   -0.17741  -0.12834  -0.12161
  Beta virt. eigenvalues --   -0.06383  -0.05908  -0.05435  -0.04666  -0.02216
  Beta virt. eigenvalues --   -0.01893  -0.01728  -0.01348  -0.01179  -0.00735
  Beta virt. eigenvalues --   -0.00486   0.00159   0.00361   0.00762   0.00817

 Mulliken charges and spin densities:
               1          2
     1  Na   0.332571   0.000930
     2  Na  -0.485265   0.783442
     3  Na   0.208712   0.025516
     4  Na   0.227574   0.035528
     5  Na   0.282039  -0.008083
     6  Na   0.190302   0.009487
     7  Na  -0.755932   0.153181
 Sum of Mulliken charges =  -0.00000   1.00000

 Dipole moment (field-independent basis, Debye):
    X=             -0.2538    Y=              0.2120    Z=              0.1724  Tot=              0.3729
 Quadrupole moment (field-independent basis, Debye-Ang):
   XX=            -53.3393   YY=            -60.8793   ZZ=            -77.1937
   XY=              0.9363   XZ=             -0.3080   YZ=             -0.0045

 Normal termination of Gaussian 16 at Thu Dec  7 23:24:17 2023.
