 Gaussian 16, Revision B.01,
 Gaussian 16:  ES64L-G16RevB.01 20-Dec-2017

 -------------------------
 #P B3LYP/6-311+g(d) force
 -------------------------

 -----
 DPGEN
 -----
 Symbolic Z-matrix:
 Charge =  0 Multiplicity = 2

                         Standard orientation:
 ---------------------------------------------------------------------
 Center     Atomic      Atomic             Coordinates (Angstroms)
 Number     Number       Type             X           Y           Z
 ---------------------------------------------------------------------
      1         11           0        1.529496    2.472114    0.136201
      2         11           0        0.451197   -0.149988    1.994150
      3         11           0        0.119602   -2.706584    0.248487
      4         11           0       -2.799359   -0.976055   -0.074043
      5         11           0       -0.167368   -0.197985   -1.736382
      6         11           0       -2.244413    2.054693   -0.024754
      7         11           0        3.110846   -0.496195   -0.543659
 ---------------------------------------------------------------------

 SCF Done:  E(UB3LYP) =  -1136.13624021     A.U. after   19 cycles

 The electronic state is 2-A.
 Alpha  occ. eigenvalues --  -38.44241 -38.43785 -38.43605 -38.43519 -38.43454
 Alpha  occ. eigenvalues --  -38.43415 -38.42952  -2.20074  -2.19691  -2.19534
 Alpha  occ. eigenvalues --   -2.19431  -2.19370  -2.19257  -2.18869  -1.13749
 Alpha  occ. eigenvalues --   -1.13726  -1.13711  -1.13414  -1.13370  -1.13327
 Alpha  occ. eigenvalues --   -1.13219  -1.13181  -1.13145  -1.13114  -1.13079
 Alpha  occ. eigenvalues --   -1.13053  -1.13033  -1.13017  -1.12999  -1.12934
 Alpha  occ. eigenvalues --   -1.12921  -1.12885  -1.12558  -1.12532  -1.12478
 Alpha  occ. eigenvalues --   -0.18920  -0.13328  -0.12309  -0.10999
 Alpha virt. eigenvalues --   -0.05699  -0.05070  -0.04403  -0.03414  -0.02887
 Alpha virt. eigenvalues --   -0.02672  -0.01609  -0.00921  -0.00233  -0.00159
 Alpha virt. eigenvalues --   -0.00002   0.00361   0.00814   0.00915   0.00925

  Beta  occ. eigenvalues --  -38.44225 -38.43781 -38.43519 -38.43513 -38.43410
  Beta  occ. eigenvalues --  -38.43387 -38.42940  -2.20048  -2.19687  -2.19373
  Beta  occ. eigenvalues --   -2.19365  -2.19310  -2.19251  -2.18853  -1.13720
  Beta  occ. eigenvalues --   -1.13701  -1.13696  -1.13410  -1.13363  -1.13309
  Beta  occ. eigenvalues --   -1.13110  -1.13064  -1.13041  -1.13033  -1.13031
  Beta  occ. eigenvalues --   -1.13029  -1.12995  -1.12979  -1.12952  -1.12919
  Beta  occ. eigenvalues --   -1.12900  -1.12883  -1.12547  -1.12488  -1.12469
  Beta  occ. eigenvalues --   -0.18189  -0.13079  -0.12052
  Beta virt. eigenvalues --   -0.07071  -0.05626  -0.05068  -0.04369  -0.02642
  Beta virt. eigenvalues --   -0.02101  -0.01637  -0.01468  -0.00861  -0.00270
  Beta virt. eigenvalues --   -0.00183   0.00117   0.00394   0.00876   0.00912

 Mulliken charges and spin densities:
               1          2
     1  Na  -0.004971  -0.060611
     2  Na  -0.418554   0.646141
     3  Na   0.381528  -0.008144
     4  Na   0.284249  -0.015268
     5  Na  -0.321575   0.525415
     6  Na  -0.050484  -0.083387
     7  Na   0.129808  -0.004146
 Sum of Mulliken charges =  -0.00000   1.00000

 Dipole moment (field-independent basis, Debye):
    X=              0.2761    Y=              0.0122    Z=             -0.0001  Tot=              0.2763
 Quadrupole moment (field-independent basis, Debye-Ang):
   XX=            -56.4276   YY=            -65.0844   ZZ=            -72.9506
   XY=             -0.2399   XZ=             -1.4708   YZ=              0.2054

 Normal termination of Gaussian 16 at Thu Dec  7 12:22:23 2023.
