 Gaussian 16, Revision B.01,
 Gaussian 16:  ES64L-G16RevB.01 20-Dec-2017

 -------------------------
 #P B3LYP/6-311+g(d) force
 -------------------------

 -----
 DPGEN
 -----
 Symbolic Z-matrix:
 Charge =  0 Multiplicity = 2

                         Standard orientation:
 ---------------------------------------------------------------------
 Center     Atomic      Atomic             Coordinates (Angstroms)
 Number     Number       Type             X           Y           Z
 ---------------------------------------------------------------------
      1         11           0       -3.052941    1.242285   -0.170724
      2         11           0        1.392743   -2.297556   -0.407190
      3         11           0        0.595546    2.835472    0.020252
      4         11           0        0.040262   -0.199179    2.131211
      5         11           0        3.431257    0.216264   -0.014751
      6         11           0       -2.338349   -1.959038    0.047650
      7         11           0       -0.068517    0.161751   -1.606448
 ---------------------------------------------------------------------

 SCF Done:  E(UB3LYP) =  -1136.13356473     A.U. after   20 cycles

 The electronic state is 2-A.
 Alpha  occ. eigenvalues --  -38.44831 -38.44410 -38.43730 -38.43582 -38.43312
 Alpha  occ. eigenvalues --  -38.43110 -38.43078  -2.20629  -2.20223  -2.19598
 Alpha  occ. eigenvalues --   -2.19432  -2.19296  -2.18977  -2.18935  -1.14301
 Alpha  occ. eigenvalues --   -1.14297  -1.14263  -1.13901  -1.13889  -1.13857
 Alpha  occ. eigenvalues --   -1.13266  -1.13224  -1.13216  -1.13106  -1.13095
 Alpha  occ. eigenvalues --   -1.13074  -1.13005  -1.12979  -1.12907  -1.12665
 Alpha  occ. eigenvalues --   -1.12629  -1.12623  -1.12600  -1.12593  -1.12551
 Alpha  occ. eigenvalues --   -0.18548  -0.13324  -0.11975  -0.10749
 Alpha virt. eigenvalues --   -0.06358  -0.05099  -0.04193  -0.03305  -0.02697
 Alpha virt. eigenvalues --   -0.02619  -0.02060  -0.01103  -0.00421  -0.00209
 Alpha virt. eigenvalues --   -0.00052   0.00315   0.00737   0.00830   0.00848

  Beta  occ. eigenvalues --  -38.44832 -38.44406 -38.43628 -38.43579 -38.43252
  Beta  occ. eigenvalues --  -38.43107 -38.43064  -2.20632  -2.20220  -2.19428
  Beta  occ. eigenvalues --   -2.19409  -2.19188  -2.18958  -2.18933  -1.14306
  Beta  occ. eigenvalues --   -1.14282  -1.14267  -1.13897  -1.13873  -1.13857
  Beta  occ. eigenvalues --   -1.13144  -1.13106  -1.13092  -1.13083  -1.13078
  Beta  occ. eigenvalues --   -1.13056  -1.12935  -1.12900  -1.12831  -1.12644
  Beta  occ. eigenvalues --   -1.12616  -1.12595  -1.12581  -1.12575  -1.12552
  Beta  occ. eigenvalues --   -0.17815  -0.13126  -0.11737
  Beta virt. eigenvalues --   -0.06796  -0.06304  -0.05107  -0.04166  -0.02554
  Beta virt. eigenvalues --   -0.01972  -0.01907  -0.01530  -0.01051  -0.00461
  Beta virt. eigenvalues --   -0.00239   0.00102   0.00343   0.00800   0.00847

 Mulliken charges and spin densities:
               1          2
     1  Na   0.120445  -0.060403
     2  Na   0.322585   0.027906
     3  Na  -0.002061  -0.098766
     4  Na  -0.579510   0.788934
     5  Na   0.075927  -0.043614
     6  Na   0.267913   0.014677
     7  Na  -0.205300   0.371266
 Sum of Mulliken charges =  -0.00000   1.00000

 Dipole moment (field-independent basis, Debye):
    X=              0.0999    Y=              0.1599    Z=              0.2139  Tot=              0.2851
 Quadrupole moment (field-independent basis, Debye-Ang):
   XX=            -50.8176   YY=            -67.2145   ZZ=            -74.6582
   XY=              0.2745   XZ=              0.1208   YZ=              0.6948

 Normal termination of Gaussian 16 at Thu Dec  7 02:31:33 2023.
