 Gaussian 16, Revision B.01,
 Gaussian 16:  ES64L-G16RevB.01 20-Dec-2017

 -------------------------
 #P B3LYP/6-311+g(d) force
 -------------------------

 -----
 DPGEN
 -----
 Symbolic Z-matrix:
 Charge =  0 Multiplicity = 2

                         Standard orientation:
 ---------------------------------------------------------------------
 Center     Atomic      Atomic             Coordinates (Angstroms)
 Number     Number       Type             X           Y           Z
 ---------------------------------------------------------------------
      1         11           0        0.238934   -0.576825    2.112526
      2         11           0       -0.330438   -3.027170   -0.021252
      3         11           0       -1.565105    2.218517    0.343459
      4         11           0       -3.221506   -0.338063   -0.436569
      5         11           0       -0.077037    0.086932   -1.500867
      6         11           0        1.824233    2.752550   -0.046482
      7         11           0        3.130918   -1.115942   -0.450815
 ---------------------------------------------------------------------

 SCF Done:  E(UB3LYP) =  -1136.13351839     A.U. after   20 cycles

 The electronic state is 2-A.
 Alpha  occ. eigenvalues --  -38.44489 -38.43891 -38.43797 -38.43780 -38.43620
 Alpha  occ. eigenvalues --  -38.43303 -38.43182  -2.20261  -2.19715  -2.19630
 Alpha  occ. eigenvalues --   -2.19589  -2.19489  -2.19211  -2.19156  -1.13942
 Alpha  occ. eigenvalues --   -1.13913  -1.13891  -1.13413  -1.13391  -1.13335
 Alpha  occ. eigenvalues --   -1.13331  -1.13296  -1.13265  -1.13256  -1.13252
 Alpha  occ. eigenvalues --   -1.13232  -1.13148  -1.13111  -1.13105  -1.12953
 Alpha  occ. eigenvalues --   -1.12864  -1.12836  -1.12830  -1.12779  -1.12767
 Alpha  occ. eigenvalues --   -0.18327  -0.12854  -0.12453  -0.10591
 Alpha virt. eigenvalues --   -0.05962  -0.05193  -0.04706  -0.03190  -0.02810
 Alpha virt. eigenvalues --   -0.02432  -0.01695  -0.01347  -0.00587  -0.00322
 Alpha virt. eigenvalues --   -0.00030   0.00320   0.00718   0.00827   0.00879

  Beta  occ. eigenvalues --  -38.44476 -38.43886 -38.43799 -38.43772 -38.43522
  Beta  occ. eigenvalues --  -38.43295 -38.43132  -2.20238  -2.19709  -2.19616
  Beta  occ. eigenvalues --   -2.19595  -2.19309  -2.19198  -2.19066  -1.13911
  Beta  occ. eigenvalues --   -1.13900  -1.13877  -1.13402  -1.13363  -1.13335
  Beta  occ. eigenvalues --   -1.13325  -1.13272  -1.13267  -1.13248  -1.13245
  Beta  occ. eigenvalues --   -1.13236  -1.13031  -1.12985  -1.12978  -1.12930
  Beta  occ. eigenvalues --   -1.12841  -1.12816  -1.12775  -1.12723  -1.12699
  Beta  occ. eigenvalues --   -0.17640  -0.12600  -0.12241
  Beta virt. eigenvalues --   -0.06743  -0.05900  -0.05118  -0.04640  -0.02435
  Beta virt. eigenvalues --   -0.02143  -0.01569  -0.01428  -0.01289  -0.00618
  Beta virt. eigenvalues --   -0.00323   0.00126   0.00365   0.00741   0.00885

 Mulliken charges and spin densities:
               1          2
     1  Na  -0.369237   0.634419
     2  Na   0.179836  -0.046984
     3  Na   0.190210   0.121610
     4  Na   0.252501   0.046557
     5  Na  -0.238465   0.328156
     6  Na  -0.011293  -0.049883
     7  Na  -0.003551  -0.033876
 Sum of Mulliken charges =  -0.00000   1.00000

 Dipole moment (field-independent basis, Debye):
    X=              0.3588    Y=             -0.3483    Z=              0.0645  Tot=              0.5041
 Quadrupole moment (field-independent basis, Debye-Ang):
   XX=            -56.4571   YY=            -61.3342   ZZ=            -75.0527
   XY=              0.9728   XZ=             -0.2964   YZ=              1.7160

 Normal termination of Gaussian 16 at Fri Dec  8 03:20:08 2023.
