 Gaussian 16, Revision B.01,
 Gaussian 16:  ES64L-G16RevB.01 20-Dec-2017

 -------------------------
 #P B3LYP/6-311+g(d) force
 -------------------------

 -----
 DPGEN
 -----
 Symbolic Z-matrix:
 Charge =  0 Multiplicity = 2

                         Standard orientation:
 ---------------------------------------------------------------------
 Center     Atomic      Atomic             Coordinates (Angstroms)
 Number     Number       Type             X           Y           Z
 ---------------------------------------------------------------------
      1         11           0        0.621099   -0.822703   -0.094174
      2         11           0        5.993838    2.543588    0.304056
      3         11           0       -3.010187   -0.990419   -0.725086
      4         11           0       -7.563136    1.945687   -0.399953
      5         11           0       -6.468769   -0.705072    0.977411
      6         11           0        6.856742   -0.159478   -0.129809
      7         11           0        3.570413   -1.811604    0.067555
 ---------------------------------------------------------------------

 SCF Done:  E(UB3LYP) =  -1136.10429558     A.U. after   19 cycles

 The electronic state is 2-A.
 Alpha  occ. eigenvalues --  -38.44921 -38.44858 -38.44567 -38.44417 -38.44411
 Alpha  occ. eigenvalues --  -38.43895 -38.43183  -2.20749  -2.20649  -2.20346
 Alpha  occ. eigenvalues --   -2.20254  -2.20192  -2.19727  -2.18975  -1.14505
 Alpha  occ. eigenvalues --   -1.14379  -1.14371  -1.14307  -1.14295  -1.14288
 Alpha  occ. eigenvalues --   -1.14018  -1.13999  -1.13995  -1.13907  -1.13898
 Alpha  occ. eigenvalues --   -1.13886  -1.13850  -1.13845  -1.13785  -1.13398
 Alpha  occ. eigenvalues --   -1.13373  -1.13342  -1.12652  -1.12650  -1.12638
 Alpha  occ. eigenvalues --   -0.15145  -0.14456  -0.12668  -0.10839
 Alpha virt. eigenvalues --   -0.06810  -0.05662  -0.03932  -0.03326  -0.03178
 Alpha virt. eigenvalues --   -0.02733  -0.02241  -0.02004  -0.01405  -0.00978
 Alpha virt. eigenvalues --   -0.00499  -0.00294  -0.00139   0.00331   0.00436

  Beta  occ. eigenvalues --  -38.44881 -38.44806 -38.44578 -38.44422 -38.44319
  Beta  occ. eigenvalues --  -38.43826 -38.43200  -2.20675  -2.20551  -2.20371
  Beta  occ. eigenvalues --   -2.20268  -2.20020  -2.19599  -2.19013  -1.14462
  Beta  occ. eigenvalues --   -1.14329  -1.14319  -1.14247  -1.14229  -1.14223
  Beta  occ. eigenvalues --   -1.14039  -1.14016  -1.13982  -1.13911  -1.13904
  Beta  occ. eigenvalues --   -1.13879  -1.13732  -1.13727  -1.13675  -1.13319
  Beta  occ. eigenvalues --   -1.13285  -1.13259  -1.12682  -1.12681  -1.12618
  Beta  occ. eigenvalues --   -0.14658  -0.13860  -0.12094
  Beta virt. eigenvalues --   -0.07741  -0.06324  -0.05350  -0.03672  -0.03189
  Beta virt. eigenvalues --   -0.02947  -0.02499  -0.01907  -0.01694  -0.01243
  Beta virt. eigenvalues --   -0.00804  -0.00159   0.00021   0.00055   0.00409

 Mulliken charges and spin densities:
               1          2
     1  Na  -0.778941   0.139033
     2  Na   0.043868   0.190237
     3  Na  -0.649907   0.249458
     4  Na   0.161280   0.243750
     5  Na   0.053740  -0.043054
     6  Na   0.066421  -0.018213
     7  Na   1.103538   0.238787
 Sum of Mulliken charges =  -0.00000   1.00000

 Dipole moment (field-independent basis, Debye):
    X=             -0.1569    Y=              1.2535    Z=              0.0196  Tot=              1.2634
 Quadrupole moment (field-independent basis, Debye-Ang):
   XX=            -53.5299   YY=            -60.9816   ZZ=            -72.2562
   XY=             -4.9489   XZ=              0.8341   YZ=             -2.6037

 Normal termination of Gaussian 16 at Sun Dec  3 21:57:44 2023.
