 Gaussian 16, Revision B.01,
 Gaussian 16:  ES64L-G16RevB.01 20-Dec-2017

 -------------------------
 #P B3LYP/6-311+g(d) force
 -------------------------

 -----
 DPGEN
 -----
 Symbolic Z-matrix:
 Charge =  0 Multiplicity = 2

                         Standard orientation:
 ---------------------------------------------------------------------
 Center     Atomic      Atomic             Coordinates (Angstroms)
 Number     Number       Type             X           Y           Z
 ---------------------------------------------------------------------
      1         11           0        5.028134   -0.105536   -0.734906
      2         11           0       -6.293813    0.384111   -0.402283
      3         11           0        2.887094    2.567328    0.812365
      4         11           0       -0.142938    2.577657   -0.344902
      5         11           0       -3.512759   -0.470427    0.180472
      6         11           0        2.499230   -2.716081   -0.124801
      7         11           0       -0.464948   -2.237052    0.614056
 ---------------------------------------------------------------------

 SCF Done:  E(UB3LYP) =  -1136.10724583     A.U. after   21 cycles

 The electronic state is 2-A.
 Alpha  occ. eigenvalues --  -38.45495 -38.44985 -38.44961 -38.44022 -38.43995
 Alpha  occ. eigenvalues --  -38.43989 -38.43871  -2.21272  -2.20791  -2.20761
 Alpha  occ. eigenvalues --   -2.19815  -2.19796  -2.19783  -2.19695  -1.14926
 Alpha  occ. eigenvalues --   -1.14901  -1.14891  -1.14480  -1.14420  -1.14413
 Alpha  occ. eigenvalues --   -1.14412  -1.14411  -1.14384  -1.13535  -1.13497
 Alpha  occ. eigenvalues --   -1.13476  -1.13474  -1.13470  -1.13468  -1.13458
 Alpha  occ. eigenvalues --   -1.13446  -1.13436  -1.13344  -1.13335  -1.13291
 Alpha  occ. eigenvalues --   -0.15794  -0.14218  -0.12408  -0.11870
 Alpha virt. eigenvalues --   -0.06682  -0.06041  -0.03790  -0.03435  -0.03189
 Alpha virt. eigenvalues --   -0.02854  -0.02340  -0.01842  -0.01110  -0.00831
 Alpha virt. eigenvalues --   -0.00443  -0.00395  -0.00164   0.00183   0.00668

  Beta  occ. eigenvalues --  -38.45407 -38.44930 -38.44890 -38.44034 -38.44014
  Beta  occ. eigenvalues --  -38.43992 -38.43832  -2.21108  -2.20660  -2.20658
  Beta  occ. eigenvalues --   -2.19829  -2.19822  -2.19821  -2.19621  -1.14814
  Beta  occ. eigenvalues --   -1.14791  -1.14782  -1.14393  -1.14349  -1.14343
  Beta  occ. eigenvalues --   -1.14323  -1.14322  -1.14316  -1.13537  -1.13493
  Beta  occ. eigenvalues --   -1.13493  -1.13487  -1.13486  -1.13485  -1.13458
  Beta  occ. eigenvalues --   -1.13449  -1.13443  -1.13294  -1.13285  -1.13261
  Beta  occ. eigenvalues --   -0.15195  -0.13404  -0.12134
  Beta virt. eigenvalues --   -0.08695  -0.06147  -0.05589  -0.03592  -0.03193
  Beta virt. eigenvalues --   -0.02793  -0.02642  -0.02034  -0.01621  -0.00686
  Beta virt. eigenvalues --   -0.00486  -0.00375  -0.00258   0.00027   0.00269

 Mulliken charges and spin densities:
               1          2
     1  Na   0.078962   0.381300
     2  Na  -0.210093   0.175217
     3  Na  -0.105493  -0.006314
     4  Na  -0.142304   0.180624
     5  Na  -0.464828   0.580969
     6  Na   0.019185   0.032845
     7  Na   0.824572  -0.344641
 Sum of Mulliken charges =  -0.00000   1.00000

 Dipole moment (field-independent basis, Debye):
    X=              0.0320    Y=              0.6858    Z=             -0.4558  Tot=              0.8241
 Quadrupole moment (field-independent basis, Debye-Ang):
   XX=            -47.1639   YY=            -74.0961   ZZ=            -71.6232
   XY=             -3.4652   XZ=              0.7616   YZ=             -0.3628

 Normal termination of Gaussian 16 at Mon Dec  4 02:29:52 2023.
