 Gaussian 16, Revision B.01,
 Gaussian 16:  ES64L-G16RevB.01 20-Dec-2017

 -------------------------
 #P B3LYP/6-311+g(d) force
 -------------------------

 -----
 DPGEN
 -----
 Symbolic Z-matrix:
 Charge =  0 Multiplicity = 2

                         Standard orientation:
 ---------------------------------------------------------------------
 Center     Atomic      Atomic             Coordinates (Angstroms)
 Number     Number       Type             X           Y           Z
 ---------------------------------------------------------------------
      1         11           0        1.908032    2.019338   -0.408241
      2         11           0        0.320743   -2.537515   -0.322295
      3         11           0       -0.449235    0.026720   -1.478506
      4         11           0        0.097376    0.138766    1.645786
      5         11           0       -1.757753    2.517298    0.113921
      6         11           0       -3.281941   -1.277073    0.180465
      7         11           0        3.162778   -0.887534    0.268870
 ---------------------------------------------------------------------

 SCF Done:  E(UB3LYP) =  -1136.12948343     A.U. after   24 cycles

 The electronic state is 2-A.
 Alpha  occ. eigenvalues --  -38.44795 -38.44060 -38.43686 -38.43527 -38.43269
 Alpha  occ. eigenvalues --  -38.43075 -38.42780  -2.20565  -2.19921  -2.19532
 Alpha  occ. eigenvalues --   -2.19425  -2.19193  -2.19073  -2.18853  -1.14245
 Alpha  occ. eigenvalues --   -1.14215  -1.14203  -1.13603  -1.13577  -1.13570
 Alpha  occ. eigenvalues --   -1.13227  -1.13209  -1.13151  -1.13123  -1.13092
 Alpha  occ. eigenvalues --   -1.13041  -1.13013  -1.12868  -1.12793  -1.12778
 Alpha  occ. eigenvalues --   -1.12688  -1.12669  -1.12524  -1.12468  -1.12433
 Alpha  occ. eigenvalues --   -0.19035  -0.13274  -0.12401  -0.10215
 Alpha virt. eigenvalues --   -0.06233  -0.05371  -0.04181  -0.03038  -0.02593
 Alpha virt. eigenvalues --   -0.02107  -0.01873  -0.01335  -0.00371  -0.00129
 Alpha virt. eigenvalues --    0.00032   0.00297   0.00722   0.00814   0.00900

  Beta  occ. eigenvalues --  -38.44794 -38.44055 -38.43681 -38.43512 -38.43253
  Beta  occ. eigenvalues --  -38.43004 -38.42709  -2.20566  -2.19914  -2.19526
  Beta  occ. eigenvalues --   -2.19404  -2.19170  -2.18945  -2.18726  -1.14235
  Beta  occ. eigenvalues --   -1.14212  -1.14205  -1.13602  -1.13571  -1.13545
  Beta  occ. eigenvalues --   -1.13223  -1.13184  -1.13146  -1.13110  -1.13044
  Beta  occ. eigenvalues --   -1.13031  -1.12982  -1.12813  -1.12768  -1.12711
  Beta  occ. eigenvalues --   -1.12600  -1.12573  -1.12438  -1.12376  -1.12337
  Beta  occ. eigenvalues --   -0.18323  -0.13044  -0.12118
  Beta virt. eigenvalues --   -0.06351  -0.06161  -0.05354  -0.04171  -0.02348
  Beta virt. eigenvalues --   -0.02004  -0.01802  -0.01281  -0.00903  -0.00388
  Beta virt. eigenvalues --   -0.00148   0.00160   0.00334   0.00763   0.00812

 Mulliken charges and spin densities:
               1          2
     1  Na   0.330971   0.017117
     2  Na   0.318789  -0.039814
     3  Na  -0.272344   0.324772
     4  Na  -0.534873   0.787261
     5  Na   0.020072  -0.077608
     6  Na  -0.042094  -0.063775
     7  Na   0.179480   0.052048
 Sum of Mulliken charges =  -0.00000   1.00000

 Dipole moment (field-independent basis, Debye):
    X=             -0.4861    Y=              0.0034    Z=              0.1652  Tot=              0.5135
 Quadrupole moment (field-independent basis, Debye-Ang):
   XX=            -48.9821   YY=            -63.6075   ZZ=            -77.1375
   XY=             -0.0568   XZ=             -1.0634   YZ=             -0.6025

 Normal termination of Gaussian 16 at Tue Dec  5 22:54:18 2023.
