 Gaussian 16, Revision B.01,
 Gaussian 16:  ES64L-G16RevB.01 20-Dec-2017

 -------------------------
 #P B3LYP/6-311+g(d) force
 -------------------------

 -----
 DPGEN
 -----
 Symbolic Z-matrix:
 Charge =  0 Multiplicity = 2

                         Standard orientation:
 ---------------------------------------------------------------------
 Center     Atomic      Atomic             Coordinates (Angstroms)
 Number     Number       Type             X           Y           Z
 ---------------------------------------------------------------------
      1         11           0        2.132229    1.918326    0.855248
      2         11           0       -3.927009   -0.667757    0.474165
      3         11           0        1.479193    0.580763   -1.564686
      4         11           0       -0.027788   -0.518195    1.770969
      5         11           0       -1.555570    2.201904   -0.487049
      6         11           0        2.962706   -1.962019    0.131381
      7         11           0       -1.063760   -1.553021   -1.180029
 ---------------------------------------------------------------------

 SCF Done:  E(UB3LYP) =  -1136.12449995     A.U. after   20 cycles

 The electronic state is 2-A.
 Alpha  occ. eigenvalues --  -38.44976 -38.44147 -38.43912 -38.43765 -38.43683
 Alpha  occ. eigenvalues --  -38.43595 -38.43310  -2.20751  -2.20031  -2.19705
 Alpha  occ. eigenvalues --   -2.19662  -2.19564  -2.19396  -2.19303  -1.14425
 Alpha  occ. eigenvalues --   -1.14410  -1.14380  -1.13739  -1.13683  -1.13632
 Alpha  occ. eigenvalues --   -1.13495  -1.13390  -1.13360  -1.13345  -1.13315
 Alpha  occ. eigenvalues --   -1.13278  -1.13236  -1.13232  -1.13154  -1.13087
 Alpha  occ. eigenvalues --   -1.13075  -1.13006  -1.12971  -1.12933  -1.12862
 Alpha  occ. eigenvalues --   -0.18528  -0.13592  -0.11334  -0.10967
 Alpha virt. eigenvalues --   -0.06661  -0.05434  -0.04031  -0.03184  -0.02594
 Alpha virt. eigenvalues --   -0.02518  -0.02251  -0.01349  -0.00633  -0.00113
 Alpha virt. eigenvalues --    0.00159   0.00216   0.00471   0.00629   0.00736

  Beta  occ. eigenvalues --  -38.44973 -38.44082 -38.43914 -38.43745 -38.43646
  Beta  occ. eigenvalues --  -38.43586 -38.43256  -2.20745  -2.19913  -2.19710
  Beta  occ. eigenvalues --   -2.19627  -2.19498  -2.19383  -2.19207  -1.14418
  Beta  occ. eigenvalues --   -1.14405  -1.14376  -1.13657  -1.13594  -1.13548
  Beta  occ. eigenvalues --   -1.13463  -1.13389  -1.13352  -1.13349  -1.13275
  Beta  occ. eigenvalues --   -1.13237  -1.13210  -1.13158  -1.13110  -1.13072
  Beta  occ. eigenvalues --   -1.13052  -1.13001  -1.12899  -1.12865  -1.12794
  Beta  occ. eigenvalues --   -0.17757  -0.13444  -0.11138
  Beta virt. eigenvalues --   -0.06986  -0.06468  -0.05452  -0.03572  -0.02970
  Beta virt. eigenvalues --   -0.02205  -0.01897  -0.01563  -0.01189  -0.00387
  Beta virt. eigenvalues --   -0.00039   0.00155   0.00252   0.00628   0.00677

 Mulliken charges and spin densities:
               1          2
     1  Na   0.200450   0.069390
     2  Na   0.229935   0.022219
     3  Na   0.191163   0.335531
     4  Na  -0.331433   0.625249
     5  Na  -0.218975  -0.021332
     6  Na   0.042036  -0.091073
     7  Na  -0.113177   0.060015
 Sum of Mulliken charges =  -0.00000   1.00000

 Dipole moment (field-independent basis, Debye):
    X=             -0.8375    Y=             -0.1385    Z=              0.3672  Tot=              0.9249
 Quadrupole moment (field-independent basis, Debye-Ang):
   XX=            -47.9224   YY=            -72.3119   ZZ=            -71.6489
   XY=             -0.6285   XZ=             -0.3808   YZ=              0.5772

 Normal termination of Gaussian 16 at Tue Dec  5 21:21:11 2023.
