 Gaussian 16, Revision B.01,
 Gaussian 16:  ES64L-G16RevB.01 20-Dec-2017

 -------------------------
 #P B3LYP/6-311+g(d) force
 -------------------------

 -----
 DPGEN
 -----
 Symbolic Z-matrix:
 Charge =  0 Multiplicity = 2

                         Standard orientation:
 ---------------------------------------------------------------------
 Center     Atomic      Atomic             Coordinates (Angstroms)
 Number     Number       Type             X           Y           Z
 ---------------------------------------------------------------------
      1         11           0       -1.050529    2.687707   -0.631100
      2         11           0       -0.102453   -2.385856    0.536499
      3         11           0        2.974942   -1.152330   -0.707966
      4         11           0       -0.294093    0.040604   -1.717406
      5         11           0       -0.725137    0.381644    1.952963
      6         11           0       -2.902221   -1.078992   -0.243675
      7         11           0        2.099492    1.507224    0.810685
 ---------------------------------------------------------------------

 SCF Done:  E(UB3LYP) =  -1136.13226826     A.U. after   19 cycles

 The electronic state is 2-A.
 Alpha  occ. eigenvalues --  -38.43959 -38.43757 -38.43655 -38.43550 -38.43484
 Alpha  occ. eigenvalues --  -38.43274 -38.43185  -2.19848  -2.19726  -2.19571
 Alpha  occ. eigenvalues --   -2.19537  -2.19328  -2.19155  -2.19118  -1.13557
 Alpha  occ. eigenvalues --   -1.13518  -1.13480  -1.13429  -1.13360  -1.13346
 Alpha  occ. eigenvalues --   -1.13295  -1.13234  -1.13218  -1.13211  -1.13178
 Alpha  occ. eigenvalues --   -1.13158  -1.12985  -1.12976  -1.12966  -1.12838
 Alpha  occ. eigenvalues --   -1.12816  -1.12788  -1.12785  -1.12761  -1.12713
 Alpha  occ. eigenvalues --   -0.19162  -0.13094  -0.12364  -0.11559
 Alpha virt. eigenvalues --   -0.05463  -0.04772  -0.04239  -0.03433  -0.03195
 Alpha virt. eigenvalues --   -0.02995  -0.01424  -0.00870  -0.00289   0.00256
 Alpha virt. eigenvalues --    0.00274   0.00385   0.00891   0.00907   0.00931

  Beta  occ. eigenvalues --  -38.43953 -38.43670 -38.43638 -38.43477 -38.43477
  Beta  occ. eigenvalues --  -38.43261 -38.43172  -2.19842  -2.19568  -2.19509
  Beta  occ. eigenvalues --   -2.19439  -2.19316  -2.19135  -2.19098  -1.13548
  Beta  occ. eigenvalues --   -1.13492  -1.13474  -1.13329  -1.13257  -1.13241
  Beta  occ. eigenvalues --   -1.13207  -1.13199  -1.13154  -1.13146  -1.13141
  Beta  occ. eigenvalues --   -1.13082  -1.12969  -1.12964  -1.12958  -1.12808
  Beta  occ. eigenvalues --   -1.12796  -1.12773  -1.12745  -1.12740  -1.12700
  Beta  occ. eigenvalues --   -0.18401  -0.12868  -0.12082
  Beta virt. eigenvalues --   -0.07556  -0.05403  -0.04632  -0.04202  -0.02747
  Beta virt. eigenvalues --   -0.02457  -0.01906  -0.01366  -0.00806  -0.00083
  Beta virt. eigenvalues --    0.00240   0.00291   0.00411   0.00898   0.00924

 Mulliken charges and spin densities:
               1          2
     1  Na  -0.043320  -0.083754
     2  Na  -0.163748   0.082220
     3  Na   0.282730  -0.025189
     4  Na  -0.252762   0.633815
     5  Na   0.184875   0.443841
     6  Na   0.234237  -0.082889
     7  Na  -0.242012   0.031956
 Sum of Mulliken charges =  -0.00000   1.00000

 Dipole moment (field-independent basis, Debye):
    X=             -0.3382    Y=              0.0150    Z=              0.0524  Tot=              0.3426
 Quadrupole moment (field-independent basis, Debye-Ang):
   XX=            -58.1336   YY=            -66.8254   ZZ=            -69.9145
   XY=              0.1913   XZ=              0.1544   YZ=              0.3613

 Normal termination of Gaussian 16 at Sun Dec  3 18:33:52 2023.
