 Gaussian 16, Revision B.01,
 Gaussian 16:  ES64L-G16RevB.01 20-Dec-2017

 -------------------------
 #P B3LYP/6-311+g(d) force
 -------------------------

 -----
 DPGEN
 -----
 Symbolic Z-matrix:
 Charge =  0 Multiplicity = 2

                         Standard orientation:
 ---------------------------------------------------------------------
 Center     Atomic      Atomic             Coordinates (Angstroms)
 Number     Number       Type             X           Y           Z
 ---------------------------------------------------------------------
      1         11           0       -1.401006   -3.321044   -0.953080
      2         11           0        1.095661    2.628121   -0.841551
      3         11           0        1.580319   -1.498611    1.625658
      4         11           0        4.122729   -0.296729   -0.564629
      5         11           0       -1.604341    2.914876    0.854617
      6         11           0       -2.018654    0.087615   -2.057288
      7         11           0       -1.774707   -0.514229    1.936272
 ---------------------------------------------------------------------

 SCF Done:  E(UB3LYP) =  -1136.11838284     A.U. after   19 cycles

 The electronic state is 2-A.
 Alpha  occ. eigenvalues --  -38.45101 -38.44667 -38.44435 -38.44403 -38.44063
 Alpha  occ. eigenvalues --  -38.43896 -38.43760  -2.20871  -2.20416  -2.20222
 Alpha  occ. eigenvalues --   -2.20209  -2.19835  -2.19715  -2.19506  -1.14553
 Alpha  occ. eigenvalues --   -1.14521  -1.14473  -1.14091  -1.14069  -1.14049
 Alpha  occ. eigenvalues --   -1.13905  -1.13902  -1.13880  -1.13864  -1.13834
 Alpha  occ. eigenvalues --   -1.13829  -1.13523  -1.13503  -1.13451  -1.13387
 Alpha  occ. eigenvalues --   -1.13370  -1.13351  -1.13181  -1.13162  -1.13148
 Alpha  occ. eigenvalues --   -0.16796  -0.12602  -0.12265  -0.11465
 Alpha virt. eigenvalues --   -0.06186  -0.05651  -0.04996  -0.03508  -0.03350
 Alpha virt. eigenvalues --   -0.02695  -0.01576  -0.01363  -0.00743  -0.00450
 Alpha virt. eigenvalues --   -0.00302   0.00024   0.00216   0.00400   0.00572

  Beta  occ. eigenvalues --  -38.45041 -38.44650 -38.44423 -38.44331 -38.44040
  Beta  occ. eigenvalues --  -38.43885 -38.43761  -2.20760  -2.20387  -2.20187
  Beta  occ. eigenvalues --   -2.20090  -2.19794  -2.19696  -2.19508  -1.14475
  Beta  occ. eigenvalues --   -1.14449  -1.14388  -1.14071  -1.14037  -1.14031
  Beta  occ. eigenvalues --   -1.13887  -1.13865  -1.13816  -1.13809  -1.13770
  Beta  occ. eigenvalues --   -1.13739  -1.13491  -1.13477  -1.13417  -1.13377
  Beta  occ. eigenvalues --   -1.13348  -1.13332  -1.13182  -1.13162  -1.13150
  Beta  occ. eigenvalues --   -0.16075  -0.12416  -0.12033
  Beta virt. eigenvalues --   -0.07816  -0.06026  -0.05074  -0.04725  -0.03117
  Beta virt. eigenvalues --   -0.02893  -0.02136  -0.01438  -0.01225  -0.00585
  Beta virt. eigenvalues --   -0.00310  -0.00096   0.00131   0.00396   0.00473

 Mulliken charges and spin densities:
               1          2
     1  Na   0.082067   0.071405
     2  Na  -0.408838   0.155543
     3  Na  -0.174149   0.057692
     4  Na   0.244661  -0.044506
     5  Na   0.251602  -0.020284
     6  Na  -0.083164   0.364658
     7  Na   0.087822   0.415492
 Sum of Mulliken charges =  -0.00000   1.00000

 Dipole moment (field-independent basis, Debye):
    X=             -0.7915    Y=             -0.1960    Z=             -0.5055  Tot=              0.9595
 Quadrupole moment (field-independent basis, Debye-Ang):
   XX=            -67.1948   YY=            -62.9741   ZZ=            -68.3947
   XY=             -0.8299   XZ=             -3.2648   YZ=              0.7097

 Normal termination of Gaussian 16 at Sun Dec  3 14:30:38 2023.
