 Gaussian 16, Revision B.01,
 Gaussian 16:  ES64L-G16RevB.01 20-Dec-2017

 -------------------------
 #P B3LYP/6-311+g(d) force
 -------------------------

 -----
 DPGEN
 -----
 Symbolic Z-matrix:
 Charge =  0 Multiplicity = 2

                         Standard orientation:
 ---------------------------------------------------------------------
 Center     Atomic      Atomic             Coordinates (Angstroms)
 Number     Number       Type             X           Y           Z
 ---------------------------------------------------------------------
      1         11           0       -1.691225   -0.463227    2.280823
      2         11           0       -2.786999   -1.862840   -0.708843
      3         11           0        2.011300    0.554543    1.659295
      4         11           0        0.957550    2.324627   -0.653361
      5         11           0        3.770930   -1.317151   -0.757044
      6         11           0       -2.468609    1.684730   -0.897684
      7         11           0        0.207052   -0.920682   -0.923186
 ---------------------------------------------------------------------

 SCF Done:  E(UB3LYP) =  -1136.12354682     A.U. after   24 cycles

 The electronic state is 2-A.
 Alpha  occ. eigenvalues --  -38.44661 -38.44353 -38.44314 -38.44065 -38.43701
 Alpha  occ. eigenvalues --  -38.43697 -38.42805  -2.20489  -2.20233  -2.20098
 Alpha  occ. eigenvalues --   -2.19883  -2.19635  -2.19560  -2.18681  -1.14151
 Alpha  occ. eigenvalues --   -1.14127  -1.14098  -1.13930  -1.13903  -1.13841
 Alpha  occ. eigenvalues --   -1.13767  -1.13755  -1.13719  -1.13566  -1.13539
 Alpha  occ. eigenvalues --   -1.13511  -1.13362  -1.13342  -1.13281  -1.13203
 Alpha  occ. eigenvalues --   -1.13199  -1.13170  -1.12372  -1.12361  -1.12287
 Alpha  occ. eigenvalues --   -0.18258  -0.13871  -0.11462  -0.11128
 Alpha virt. eigenvalues --   -0.06374  -0.05523  -0.04691  -0.03337  -0.02625
 Alpha virt. eigenvalues --   -0.02546  -0.02157  -0.01103  -0.00704  -0.00151
 Alpha virt. eigenvalues --    0.00094   0.00222   0.00331   0.00445   0.00644

  Beta  occ. eigenvalues --  -38.44572 -38.44318 -38.44300 -38.44049 -38.43696
  Beta  occ. eigenvalues --  -38.43672 -38.42802  -2.20325  -2.20170  -2.20072
  Beta  occ. eigenvalues --   -2.19855  -2.19592  -2.19552  -2.18677  -1.14038
  Beta  occ. eigenvalues --   -1.14018  -1.13978  -1.13893  -1.13856  -1.13786
  Beta  occ. eigenvalues --   -1.13743  -1.13737  -1.13700  -1.13533  -1.13523
  Beta  occ. eigenvalues --   -1.13493  -1.13342  -1.13292  -1.13251  -1.13194
  Beta  occ. eigenvalues --   -1.13181  -1.13155  -1.12372  -1.12341  -1.12287
  Beta  occ. eigenvalues --   -0.17583  -0.13697  -0.10940
  Beta virt. eigenvalues --   -0.07546  -0.06182  -0.05193  -0.04202  -0.02998
  Beta virt. eigenvalues --   -0.02269  -0.01919  -0.01816  -0.00938  -0.00331
  Beta virt. eigenvalues --   -0.00097   0.00195   0.00267   0.00466   0.00576

 Mulliken charges and spin densities:
               1          2
     1  Na  -0.240438   0.300647
     2  Na   1.477716   0.041504
     3  Na   0.522118   0.259802
     4  Na  -0.265055  -0.059215
     5  Na   0.292399   0.011458
     6  Na   0.368833   0.094239
     7  Na  -2.155574   0.351566
 Sum of Mulliken charges =  -0.00000   1.00000

 Dipole moment (field-independent basis, Debye):
    X=             -0.1453    Y=             -0.0061    Z=              0.2274  Tot=              0.2700
 Quadrupole moment (field-independent basis, Debye-Ang):
   XX=            -51.5469   YY=            -75.3620   ZZ=            -67.7447
   XY=              0.1836   XZ=              0.2616   YZ=              1.7919

 Normal termination of Gaussian 16 at Tue Dec  5 14:06:42 2023.
