 Gaussian 16, Revision B.01,
 Gaussian 16:  ES64L-G16RevB.01 20-Dec-2017

 -------------------------
 #P B3LYP/6-311+g(d) force
 -------------------------

 -----
 DPGEN
 -----
 Symbolic Z-matrix:
 Charge =  0 Multiplicity = 2

                         Standard orientation:
 ---------------------------------------------------------------------
 Center     Atomic      Atomic             Coordinates (Angstroms)
 Number     Number       Type             X           Y           Z
 ---------------------------------------------------------------------
      1         11           0       -0.860678    2.897409    0.161159
      2         11           0        2.551997    1.405693   -0.623530
      3         11           0        0.337475    0.130074    2.167397
      4         11           0       -1.625834   -2.665294    0.095261
      5         11           0       -3.594704    0.182078   -0.368891
      6         11           0        2.974457   -1.593152    0.050181
      7         11           0        0.217286   -0.356807   -1.481579
 ---------------------------------------------------------------------

 SCF Done:  E(UB3LYP) =  -1136.12833472     A.U. after   21 cycles

 The electronic state is 2-A.
 Alpha  occ. eigenvalues --  -38.44996 -38.44318 -38.43922 -38.43713 -38.43708
 Alpha  occ. eigenvalues --  -38.43558 -38.42914  -2.20758  -2.20166  -2.19836
 Alpha  occ. eigenvalues --   -2.19664  -2.19565  -2.19366  -2.18712  -1.14439
 Alpha  occ. eigenvalues --   -1.14400  -1.14397  -1.13877  -1.13824  -1.13806
 Alpha  occ. eigenvalues --   -1.13597  -1.13478  -1.13434  -1.13354  -1.13306
 Alpha  occ. eigenvalues --   -1.13268  -1.13222  -1.13194  -1.13174  -1.13046
 Alpha  occ. eigenvalues --   -1.13028  -1.12996  -1.12387  -1.12379  -1.12356
 Alpha  occ. eigenvalues --   -0.18235  -0.13446  -0.11764  -0.10700
 Alpha virt. eigenvalues --   -0.06442  -0.05250  -0.04425  -0.03321  -0.02645
 Alpha virt. eigenvalues --   -0.02578  -0.02095  -0.01174  -0.00615  -0.00401
 Alpha virt. eigenvalues --   -0.00070   0.00265   0.00650   0.00755   0.00798

  Beta  occ. eigenvalues --  -38.44990 -38.44315 -38.43899 -38.43671 -38.43600
  Beta  occ. eigenvalues --  -38.43557 -38.42913  -2.20747  -2.20163  -2.19799
  Beta  occ. eigenvalues --   -2.19590  -2.19369  -2.19364  -2.18714  -1.14426
  Beta  occ. eigenvalues --   -1.14394  -1.14392  -1.13876  -1.13820  -1.13780
  Beta  occ. eigenvalues --   -1.13561  -1.13444  -1.13400  -1.13293  -1.13257
  Beta  occ. eigenvalues --   -1.13215  -1.13090  -1.13059  -1.13043  -1.13029
  Beta  occ. eigenvalues --   -1.13021  -1.12990  -1.12383  -1.12369  -1.12359
  Beta  occ. eigenvalues --   -0.17522  -0.13219  -0.11586
  Beta virt. eigenvalues --   -0.06789  -0.06308  -0.05213  -0.04373  -0.02643
  Beta virt. eigenvalues --   -0.02013  -0.01910  -0.01560  -0.01103  -0.00621
  Beta virt. eigenvalues --   -0.00386   0.00098   0.00322   0.00738   0.00818

 Mulliken charges and spin densities:
               1          2
     1  Na  -0.132551  -0.037112
     2  Na   0.374929   0.120896
     3  Na  -0.394132   0.729175
     4  Na   0.021622   0.016846
     5  Na  -0.033041  -0.004619
     6  Na   0.193913   0.067561
     7  Na  -0.030740   0.107254
 Sum of Mulliken charges =  -0.00000   1.00000

 Dipole moment (field-independent basis, Debye):
    X=             -0.1163    Y=             -0.2909    Z=              0.0886  Tot=              0.3256
 Quadrupole moment (field-independent basis, Debye-Ang):
   XX=            -52.0979   YY=            -66.5707   ZZ=            -74.8474
   XY=             -1.9310   XZ=              0.3694   YZ=             -1.5806

 Normal termination of Gaussian 16 at Thu Dec  7 11:12:52 2023.
