 Gaussian 16, Revision B.01,
 Gaussian 16:  ES64L-G16RevB.01 20-Dec-2017

 -------------------------
 #P B3LYP/6-311+g(d) force
 -------------------------

 -----
 DPGEN
 -----
 Symbolic Z-matrix:
 Charge =  0 Multiplicity = 2

                         Standard orientation:
 ---------------------------------------------------------------------
 Center     Atomic      Atomic             Coordinates (Angstroms)
 Number     Number       Type             X           Y           Z
 ---------------------------------------------------------------------
      1         11           0        2.559020   -0.246210   -0.507142
      2         11           0        3.207607    2.904424    0.261252
      3         11           0       -3.627676    0.706366    0.041836
      4         11           0        5.107794   -2.529068   -0.082692
      5         11           0       -6.253393   -0.970233   -0.242977
      6         11           0       -0.245005    1.644604   -0.176973
      7         11           0       -0.748347   -1.509884    0.706696
 ---------------------------------------------------------------------

 SCF Done:  E(UB3LYP) =  -1136.11111945     A.U. after   25 cycles

 The electronic state is 2-A.
 Alpha  occ. eigenvalues --  -38.46228 -38.45416 -38.44356 -38.43998 -38.43805
 Alpha  occ. eigenvalues --  -38.43343 -38.43097  -2.22041  -2.21229  -2.20169
 Alpha  occ. eigenvalues --   -2.19843  -2.19680  -2.19086  -2.18977  -1.15701
 Alpha  occ. eigenvalues --   -1.15685  -1.15643  -1.14875  -1.14870  -1.14831
 Alpha  occ. eigenvalues --   -1.13843  -1.13804  -1.13801  -1.13523  -1.13514
 Alpha  occ. eigenvalues --   -1.13477  -1.13383  -1.13364  -1.13296  -1.12761
 Alpha  occ. eigenvalues --   -1.12757  -1.12743  -1.12685  -1.12669  -1.12571
 Alpha  occ. eigenvalues --   -0.17277  -0.14302  -0.11967  -0.11139
 Alpha virt. eigenvalues --   -0.06900  -0.05703  -0.04287  -0.03851  -0.03036
 Alpha virt. eigenvalues --   -0.02692  -0.01867  -0.01475  -0.01401  -0.00971
 Alpha virt. eigenvalues --   -0.00484  -0.00215   0.00036   0.00320   0.00521

  Beta  occ. eigenvalues --  -38.46154 -38.45325 -38.44293 -38.43996 -38.43802
  Beta  occ. eigenvalues --  -38.43364 -38.43087  -2.21905  -2.21059  -2.20052
  Beta  occ. eigenvalues --   -2.19845  -2.19680  -2.19126  -2.18962  -1.15609
  Beta  occ. eigenvalues --   -1.15592  -1.15544  -1.14758  -1.14755  -1.14717
  Beta  occ. eigenvalues --   -1.13768  -1.13725  -1.13722  -1.13530  -1.13520
  Beta  occ. eigenvalues --   -1.13439  -1.13383  -1.13367  -1.13263  -1.12788
  Beta  occ. eigenvalues --   -1.12783  -1.12767  -1.12664  -1.12636  -1.12574
  Beta  occ. eigenvalues --   -0.16592  -0.13579  -0.10930
  Beta virt. eigenvalues --   -0.08592  -0.06529  -0.05199  -0.03998  -0.03585
  Beta virt. eigenvalues --   -0.02595  -0.02382  -0.01474  -0.01273  -0.01145
  Beta virt. eigenvalues --   -0.00788  -0.00220  -0.00121   0.00155   0.00408

 Mulliken charges and spin densities:
               1          2
     1  Na  -1.138618   0.059640
     2  Na   1.354103   0.280757
     3  Na  -0.651851   0.298836
     4  Na  -0.013462  -0.105689
     5  Na   0.717166   0.093877
     6  Na  -0.508488   0.101155
     7  Na   0.241150   0.271423
 Sum of Mulliken charges =  -0.00000   1.00000

 Dipole moment (field-independent basis, Debye):
    X=             -0.8574    Y=              0.6569    Z=              0.7624  Tot=              1.3221
 Quadrupole moment (field-independent basis, Debye-Ang):
   XX=            -68.3985   YY=            -61.9963   ZZ=            -72.8124
   XY=             10.1472   XZ=              2.4591   YZ=             -1.4980

 Normal termination of Gaussian 16 at Wed Nov 29 03:43:31 2023.
