 Gaussian 16, Revision B.01,
 Gaussian 16:  ES64L-G16RevB.01 20-Dec-2017

 -------------------------
 #P B3LYP/6-311+g(d) force
 -------------------------

 -----
 DPGEN
 -----
 Symbolic Z-matrix:
 Charge =  0 Multiplicity = 2

                         Standard orientation:
 ---------------------------------------------------------------------
 Center     Atomic      Atomic             Coordinates (Angstroms)
 Number     Number       Type             X           Y           Z
 ---------------------------------------------------------------------
      1         11           0        1.740163    1.654828    0.005698
      2         11           0        0.497955    0.144095   -1.808765
      3         11           0        2.781795   -1.131258   -0.103022
      4         11           0        0.614600   -0.311573    1.897926
      5         11           0       -1.255411    1.683930    0.232947
      6         11           0       -0.856536   -1.757328   -0.183227
      7         11           0       -3.522566   -0.282694   -0.041558
 ---------------------------------------------------------------------

 SCF Done:  E(UB3LYP) =  -1136.09631558     A.U. after   23 cycles

 The electronic state is 2-A.
 Alpha  occ. eigenvalues --  -38.45358 -38.44411 -38.44190 -38.44136 -38.43276
 Alpha  occ. eigenvalues --  -38.43098 -38.42550  -2.21224  -2.20579  -2.20236
 Alpha  occ. eigenvalues --   -2.20171  -2.19425  -2.19149  -2.18615  -1.14912
 Alpha  occ. eigenvalues --   -1.14893  -1.14854  -1.14410  -1.14291  -1.14153
 Alpha  occ. eigenvalues --   -1.13998  -1.13940  -1.13875  -1.13848  -1.13789
 Alpha  occ. eigenvalues --   -1.13724  -1.13096  -1.13058  -1.13009  -1.12864
 Alpha  occ. eigenvalues --   -1.12836  -1.12704  -1.12327  -1.12266  -1.12228
 Alpha  occ. eigenvalues --   -0.20723  -0.14407  -0.11905  -0.11612
 Alpha virt. eigenvalues --   -0.06807  -0.04377  -0.03900  -0.03383  -0.02556
 Alpha virt. eigenvalues --   -0.02509  -0.02269  -0.00641  -0.00167   0.00143
 Alpha virt. eigenvalues --    0.00371   0.00503   0.00646   0.00949   0.01011

  Beta  occ. eigenvalues --  -38.45367 -38.44319 -38.44178 -38.44041 -38.43256
  Beta  occ. eigenvalues --  -38.43080 -38.42538  -2.21241  -2.20412  -2.20155
  Beta  occ. eigenvalues --   -2.20062  -2.19398  -2.19122  -2.18599  -1.14926
  Beta  occ. eigenvalues --   -1.14906  -1.14856  -1.14305  -1.14175  -1.14041
  Beta  occ. eigenvalues --   -1.13933  -1.13833  -1.13804  -1.13764  -1.13751
  Beta  occ. eigenvalues --   -1.13642  -1.13081  -1.13003  -1.12966  -1.12847
  Beta  occ. eigenvalues --   -1.12766  -1.12693  -1.12322  -1.12226  -1.12206
  Beta  occ. eigenvalues --   -0.19893  -0.14159  -0.11306
  Beta virt. eigenvalues --   -0.07714  -0.06699  -0.04382  -0.03145  -0.03056
  Beta virt. eigenvalues --   -0.02225  -0.01775  -0.01565  -0.00608   0.00024
  Beta virt. eigenvalues --    0.00175   0.00381   0.00485   0.00894   0.00983

 Mulliken charges and spin densities:
               1          2
     1  Na   0.262558   0.051964
     2  Na  -0.078743   0.443689
     3  Na   0.385954   0.006187
     4  Na  -0.092655   0.451826
     5  Na  -0.229118   0.063620
     6  Na  -0.029173   0.132754
     7  Na  -0.218823  -0.150040
 Sum of Mulliken charges =  -0.00000   1.00000

 Dipole moment (field-independent basis, Debye):
    X=             -0.6331    Y=             -0.2711    Z=              0.1181  Tot=              0.6987
 Quadrupole moment (field-independent basis, Debye-Ang):
   XX=            -47.5451   YY=            -77.0797   ZZ=            -69.3251
   XY=             -0.8437   XZ=             -0.1333   YZ=              0.9471

 Normal termination of Gaussian 16 at Fri Dec  8 19:50:01 2023.
