 Gaussian 16, Revision B.01,
 Gaussian 16:  ES64L-G16RevB.01 20-Dec-2017

 -------------------------
 #P B3LYP/6-311+g(d) force
 -------------------------

 -----
 DPGEN
 -----
 Symbolic Z-matrix:
 Charge =  0 Multiplicity = 2

                         Standard orientation:
 ---------------------------------------------------------------------
 Center     Atomic      Atomic             Coordinates (Angstroms)
 Number     Number       Type             X           Y           Z
 ---------------------------------------------------------------------
      1         11           0        2.427659    1.416470    0.246999
      2         11           0       -2.965883    0.161592    0.101476
      3         11           0       -0.710417    2.751164   -0.364124
      4         11           0        0.369155    0.104017   -1.771566
      5         11           0        2.327928   -1.687348    0.072248
      6         11           0       -0.325367   -0.249704    2.324770
      7         11           0       -1.123076   -2.496191   -0.609803
 ---------------------------------------------------------------------

 SCF Done:  E(UB3LYP) =  -1136.13633495     A.U. after   20 cycles

 The electronic state is 2-A.
 Alpha  occ. eigenvalues --  -38.44434 -38.43702 -38.43511 -38.43504 -38.43421
 Alpha  occ. eigenvalues --  -38.43247 -38.43058  -2.20284  -2.19558  -2.19529
 Alpha  occ. eigenvalues --   -2.19414  -2.19318  -2.19127  -2.18926  -1.13933
 Alpha  occ. eigenvalues --   -1.13912  -1.13909  -1.13264  -1.13233  -1.13229
 Alpha  occ. eigenvalues --   -1.13206  -1.13203  -1.13177  -1.13117  -1.13062
 Alpha  occ. eigenvalues --   -1.13048  -1.12973  -1.12961  -1.12925  -1.12815
 Alpha  occ. eigenvalues --   -1.12770  -1.12750  -1.12617  -1.12576  -1.12552
 Alpha  occ. eigenvalues --   -0.18966  -0.13079  -0.12370  -0.11552
 Alpha virt. eigenvalues --   -0.05278  -0.04842  -0.04449  -0.03632  -0.03209
 Alpha virt. eigenvalues --   -0.03078  -0.01157  -0.00856  -0.00163   0.00022
 Alpha virt. eigenvalues --    0.00093   0.00397   0.00841   0.00961   0.00971

  Beta  occ. eigenvalues --  -38.44333 -38.43700 -38.43498 -38.43445 -38.43417
  Beta  occ. eigenvalues --  -38.43233 -38.43053  -2.20097  -2.19557  -2.19411
  Beta  occ. eigenvalues --   -2.19404  -2.19313  -2.19103  -2.18918  -1.13810
  Beta  occ. eigenvalues --   -1.13781  -1.13775  -1.13232  -1.13218  -1.13212
  Beta  occ. eigenvalues --   -1.13198  -1.13124  -1.13115  -1.13081  -1.13045
  Beta  occ. eigenvalues --   -1.13010  -1.12959  -1.12941  -1.12919  -1.12788
  Beta  occ. eigenvalues --   -1.12743  -1.12735  -1.12603  -1.12563  -1.12548
  Beta  occ. eigenvalues --   -0.18204  -0.12861  -0.12120
  Beta virt. eigenvalues --   -0.07554  -0.05176  -0.04861  -0.04381  -0.02793
  Beta virt. eigenvalues --   -0.02339  -0.02115  -0.01070  -0.00795  -0.00090
  Beta virt. eigenvalues --    0.00042   0.00091   0.00419   0.00925   0.00955

 Mulliken charges and spin densities:
               1          2
     1  Na   0.159012   0.101484
     2  Na   0.106190   0.033697
     3  Na   0.184407  -0.017037
     4  Na  -0.234606   0.256026
     5  Na   0.208690   0.026562
     6  Na  -0.677848   0.593393
     7  Na   0.254155   0.005876
 Sum of Mulliken charges =  -0.00000   1.00000

 Dipole moment (field-independent basis, Debye):
    X=             -0.0764    Y=             -0.0854    Z=              0.4085  Tot=              0.4242
 Quadrupole moment (field-independent basis, Debye-Ang):
   XX=            -60.8292   YY=            -65.7348   ZZ=            -69.5645
   XY=             -0.2990   XZ=              1.1491   YZ=              0.6806

 Normal termination of Gaussian 16 at Thu Dec  7 13:56:13 2023.
