 Gaussian 16, Revision B.01,
 Gaussian 16:  ES64L-G16RevB.01 20-Dec-2017

 -------------------------
 #P B3LYP/6-311+g(d) force
 -------------------------

 -----
 DPGEN
 -----
 Symbolic Z-matrix:
 Charge =  0 Multiplicity = 2

                         Standard orientation:
 ---------------------------------------------------------------------
 Center     Atomic      Atomic             Coordinates (Angstroms)
 Number     Number       Type             X           Y           Z
 ---------------------------------------------------------------------
      1         11           0        0.744232    2.502831   -0.433601
      2         11           0        3.615761   -1.227317   -0.667657
      3         11           0       -3.151619   -1.761839    0.326669
      4         11           0       -2.666980    1.375158   -0.808439
      5         11           0       -1.143061   -0.160769    1.672944
      6         11           0        0.201793   -1.025152   -1.700709
      7         11           0        2.399874    0.297088    1.610792
 ---------------------------------------------------------------------

 SCF Done:  E(UB3LYP) =  -1136.12001333     A.U. after   24 cycles

 The electronic state is 2-A.
 Alpha  occ. eigenvalues --  -38.44806 -38.44569 -38.44232 -38.44186 -38.44154
 Alpha  occ. eigenvalues --  -38.43712 -38.42621  -2.20627  -2.20430  -2.20144
 Alpha  occ. eigenvalues --   -2.20064  -2.20043  -2.19598  -2.18448  -1.14312
 Alpha  occ. eigenvalues --   -1.14273  -1.14238  -1.14129  -1.14096  -1.14039
 Alpha  occ. eigenvalues --   -1.13875  -1.13863  -1.13813  -1.13760  -1.13718
 Alpha  occ. eigenvalues --   -1.13710  -1.13688  -1.13668  -1.13601  -1.13269
 Alpha  occ. eigenvalues --   -1.13235  -1.13216  -1.12126  -1.12116  -1.12091
 Alpha  occ. eigenvalues --   -0.18424  -0.14310  -0.11396  -0.11152
 Alpha virt. eigenvalues --   -0.06742  -0.05152  -0.04956  -0.03260  -0.02845
 Alpha virt. eigenvalues --   -0.02379  -0.02328  -0.01088  -0.00742  -0.00185
 Alpha virt. eigenvalues --    0.00142   0.00236   0.00299   0.00472   0.00680

  Beta  occ. eigenvalues --  -38.44735 -38.44552 -38.44232 -38.44127 -38.44115
  Beta  occ. eigenvalues --  -38.43707 -38.42622  -2.20497  -2.20399  -2.20063
  Beta  occ. eigenvalues --   -2.20037  -2.19973  -2.19593  -2.18454  -1.14222
  Beta  occ. eigenvalues --   -1.14181  -1.14141  -1.14103  -1.14065  -1.14021
  Beta  occ. eigenvalues --   -1.13853  -1.13789  -1.13742  -1.13711  -1.13692
  Beta  occ. eigenvalues --   -1.13684  -1.13646  -1.13627  -1.13567  -1.13247
  Beta  occ. eigenvalues --   -1.13233  -1.13206  -1.12132  -1.12104  -1.12092
  Beta  occ. eigenvalues --   -0.17729  -0.14156  -0.10921
  Beta virt. eigenvalues --   -0.07535  -0.06535  -0.05058  -0.04229  -0.02982
  Beta virt. eigenvalues --   -0.02357  -0.02090  -0.01698  -0.00901  -0.00400
  Beta virt. eigenvalues --   -0.00216   0.00194   0.00335   0.00397   0.00610

 Mulliken charges and spin densities:
               1          2
     1  Na  -0.274594  -0.048825
     2  Na  -0.054242  -0.075970
     3  Na   0.995183   0.015505
     4  Na   0.284400   0.150559
     5  Na  -0.850958   0.192999
     6  Na  -0.564550   0.513327
     7  Na   0.464760   0.252404
 Sum of Mulliken charges =  -0.00000   1.00000

 Dipole moment (field-independent basis, Debye):
    X=             -0.3523    Y=              0.0084    Z=             -0.4392  Tot=              0.5632
 Quadrupole moment (field-independent basis, Debye-Ang):
   XX=            -53.1538   YY=            -74.4713   ZZ=            -69.7748
   XY=              0.1163   XZ=              2.3790   YZ=              0.5779

 Normal termination of Gaussian 16 at Fri Dec  8 00:01:40 2023.
