 Gaussian 16, Revision B.01,
 Gaussian 16:  ES64L-G16RevB.01 20-Dec-2017

 -------------------------
 #P B3LYP/6-311+g(d) force
 -------------------------

 -----
 DPGEN
 -----
 Symbolic Z-matrix:
 Charge =  0 Multiplicity = 2

                         Standard orientation:
 ---------------------------------------------------------------------
 Center     Atomic      Atomic             Coordinates (Angstroms)
 Number     Number       Type             X           Y           Z
 ---------------------------------------------------------------------
      1         11           0       -1.161892    2.772345   -1.160954
      2         11           0       -1.430542    0.744393    1.641624
      3         11           0       -3.361654   -1.772735   -0.329156
      4         11           0        1.641885    1.544483    1.279190
      5         11           0        0.689765   -2.053372    0.937630
      6         11           0       -0.186793   -0.478487   -1.543410
      7         11           0        3.809231   -0.756628   -0.824924
 ---------------------------------------------------------------------

 SCF Done:  E(UB3LYP) =  -1136.12799807     A.U. after   21 cycles

 The electronic state is 2-A.
 Alpha  occ. eigenvalues --  -38.44423 -38.44205 -38.44097 -38.43766 -38.43650
 Alpha  occ. eigenvalues --  -38.43366 -38.43332  -2.20185  -2.19966  -2.19953
 Alpha  occ. eigenvalues --   -2.19684  -2.19501  -2.19253  -2.19192  -1.13854
 Alpha  occ. eigenvalues --   -1.13852  -1.13804  -1.13732  -1.13646  -1.13631
 Alpha  occ. eigenvalues --   -1.13624  -1.13592  -1.13520  -1.13385  -1.13332
 Alpha  occ. eigenvalues --   -1.13271  -1.13230  -1.13156  -1.13106  -1.12947
 Alpha  occ. eigenvalues --   -1.12908  -1.12865  -1.12858  -1.12834  -1.12798
 Alpha  occ. eigenvalues --   -0.18198  -0.12768  -0.11766  -0.11145
 Alpha virt. eigenvalues --   -0.06387  -0.04978  -0.04283  -0.03141  -0.02877
 Alpha virt. eigenvalues --   -0.02573  -0.02131  -0.01179  -0.00774   0.00033
 Alpha virt. eigenvalues --    0.00150   0.00217   0.00506   0.00631   0.00802

  Beta  occ. eigenvalues --  -38.44409 -38.44207 -38.44076 -38.43716 -38.43620
  Beta  occ. eigenvalues --  -38.43330 -38.43284  -2.20159  -2.19972  -2.19918
  Beta  occ. eigenvalues --   -2.19595  -2.19451  -2.19169  -2.19125  -1.13836
  Beta  occ. eigenvalues --   -1.13831  -1.13789  -1.13707  -1.13646  -1.13632
  Beta  occ. eigenvalues --   -1.13596  -1.13572  -1.13498  -1.13320  -1.13264
  Beta  occ. eigenvalues --   -1.13209  -1.13179  -1.13107  -1.13079  -1.12889
  Beta  occ. eigenvalues --   -1.12839  -1.12807  -1.12801  -1.12786  -1.12752
  Beta  occ. eigenvalues --   -0.17433  -0.12575  -0.11570
  Beta virt. eigenvalues --   -0.07230  -0.06241  -0.04810  -0.04007  -0.02784
  Beta virt. eigenvalues --   -0.02372  -0.02068  -0.01618  -0.01021  -0.00417
  Beta virt. eigenvalues --    0.00039   0.00206   0.00231   0.00581   0.00742

 Mulliken charges and spin densities:
               1          2
     1  Na  -0.173344   0.004365
     2  Na   0.270250   0.285423
     3  Na   0.116069  -0.054261
     4  Na  -0.075938   0.133959
     5  Na  -0.036148   0.085723
     6  Na  -0.244559   0.569008
     7  Na   0.143671  -0.024215
 Sum of Mulliken charges =  -0.00000   1.00000

 Dipole moment (field-independent basis, Debye):
    X=              0.1718    Y=             -0.1515    Z=             -0.0457  Tot=              0.2336
 Quadrupole moment (field-independent basis, Debye-Ang):
   XX=            -52.8944   YY=            -69.2466   ZZ=            -69.7715
   XY=              0.7724   XZ=             -0.7680   YZ=             -1.5361

 Normal termination of Gaussian 16 at Tue Dec  5 18:48:29 2023.
