 Gaussian 16, Revision B.01,
 Gaussian 16:  ES64L-G16RevB.01 20-Dec-2017

 -------------------------
 #P B3LYP/6-311+g(d) force
 -------------------------

 -----
 DPGEN
 -----
 Symbolic Z-matrix:
 Charge =  0 Multiplicity = 2

                         Standard orientation:
 ---------------------------------------------------------------------
 Center     Atomic      Atomic             Coordinates (Angstroms)
 Number     Number       Type             X           Y           Z
 ---------------------------------------------------------------------
      1         11           0        2.961434   -1.668297    0.510831
      2         11           0       -2.929924   -0.534736   -0.948865
      3         11           0        0.117353   -1.799831   -1.761353
      4         11           0        2.508309    2.353111    0.130249
      5         11           0       -2.056887    1.551217    1.507023
      6         11           0        0.006432    1.521915   -1.585382
      7         11           0       -0.606719   -1.423380    2.147497
 ---------------------------------------------------------------------

 SCF Done:  E(UB3LYP) =  -1136.12409415     A.U. after   22 cycles

 The electronic state is 2-A.
 Alpha  occ. eigenvalues --  -38.44700 -38.44377 -38.44369 -38.44164 -38.44066
 Alpha  occ. eigenvalues --  -38.43383 -38.43287  -2.20505  -2.20226  -2.20210
 Alpha  occ. eigenvalues --   -2.20020  -2.19823  -2.19175  -2.19169  -1.14194
 Alpha  occ. eigenvalues --   -1.14146  -1.14116  -1.13915  -1.13908  -1.13884
 Alpha  occ. eigenvalues --   -1.13872  -1.13830  -1.13812  -1.13715  -1.13661
 Alpha  occ. eigenvalues --   -1.13626  -1.13503  -1.13471  -1.13462  -1.12925
 Alpha  occ. eigenvalues --   -1.12858  -1.12838  -1.12813  -1.12803  -1.12748
 Alpha  occ. eigenvalues --   -0.17989  -0.12789  -0.12350  -0.11497
 Alpha virt. eigenvalues --   -0.05793  -0.05368  -0.04423  -0.03587  -0.03400
 Alpha virt. eigenvalues --   -0.03192  -0.01475  -0.00921  -0.00510  -0.00167
 Alpha virt. eigenvalues --    0.00098   0.00316   0.00404   0.00589   0.00719

  Beta  occ. eigenvalues --  -38.44635 -38.44358 -38.44325 -38.44108 -38.44061
  Beta  occ. eigenvalues --  -38.43385 -38.43260  -2.20386  -2.20196  -2.20131
  Beta  occ. eigenvalues --   -2.19920  -2.19815  -2.19175  -2.19125  -1.14107
  Beta  occ. eigenvalues --   -1.14069  -1.14025  -1.13890  -1.13870  -1.13842
  Beta  occ. eigenvalues --   -1.13818  -1.13777  -1.13762  -1.13643  -1.13600
  Beta  occ. eigenvalues --   -1.13542  -1.13491  -1.13466  -1.13457  -1.12911
  Beta  occ. eigenvalues --   -1.12835  -1.12822  -1.12804  -1.12783  -1.12719
  Beta  occ. eigenvalues --   -0.17116  -0.12603  -0.11390
  Beta virt. eigenvalues --   -0.08302  -0.05527  -0.05199  -0.03817  -0.03228
  Beta virt. eigenvalues --   -0.02971  -0.02447  -0.01378  -0.00790  -0.00258
  Beta virt. eigenvalues --   -0.00085   0.00198   0.00373   0.00526   0.00702

 Mulliken charges and spin densities:
               1          2
     1  Na   0.013973   0.064180
     2  Na   0.550379  -0.077561
     3  Na  -0.318948   0.259932
     4  Na  -0.056668   0.003674
     5  Na  -0.076889   0.324833
     6  Na   0.105308   0.049710
     7  Na  -0.217156   0.375231
 Sum of Mulliken charges =  -0.00000   1.00000

 Dipole moment (field-independent basis, Debye):
    X=             -0.6600    Y=             -0.4362    Z=              0.5369  Tot=              0.9561
 Quadrupole moment (field-independent basis, Debye-Ang):
   XX=            -59.2546   YY=            -73.7765   ZZ=            -64.6904
   XY=             -0.9904   XZ=              2.9479   YZ=              3.6323

 Normal termination of Gaussian 16 at Sun Dec  3 13:21:34 2023.
