 Gaussian 16, Revision B.01,
 Gaussian 16:  ES64L-G16RevB.01 20-Dec-2017

 -------------------------
 #P B3LYP/6-311+g(d) force
 -------------------------

 -----
 DPGEN
 -----
 Symbolic Z-matrix:
 Charge =  0 Multiplicity = 2

                         Standard orientation:
 ---------------------------------------------------------------------
 Center     Atomic      Atomic             Coordinates (Angstroms)
 Number     Number       Type             X           Y           Z
 ---------------------------------------------------------------------
      1         11           0       -0.770688    2.455382   -2.023271
      2         11           0       -1.019444   -0.404690    2.605228
      3         11           0       -1.327194   -1.045628   -1.940584
      4         11           0       -2.736010   -2.366957    0.063744
      5         11           0       -0.288283    2.530094    1.558060
      6         11           0        2.064505    0.443067   -0.108123
      7         11           0        4.077115   -1.611268   -0.155054
 ---------------------------------------------------------------------

 SCF Done:  E(UB3LYP) =  -1136.10987972     A.U. after   24 cycles

 The electronic state is 2-A.
 Alpha  occ. eigenvalues --  -38.45943 -38.45658 -38.44777 -38.43899 -38.43868
 Alpha  occ. eigenvalues --  -38.42873 -38.42700  -2.21764  -2.21468  -2.20648
 Alpha  occ. eigenvalues --   -2.19736  -2.19727  -2.18699  -2.18584  -1.15420
 Alpha  occ. eigenvalues --   -1.15407  -1.15371  -1.15122  -1.15113  -1.15069
 Alpha  occ. eigenvalues --   -1.14430  -1.14278  -1.14269  -1.13427  -1.13412
 Alpha  occ. eigenvalues --   -1.13400  -1.13367  -1.13351  -1.13347  -1.12534
 Alpha  occ. eigenvalues --   -1.12339  -1.12335  -1.12249  -1.12243  -1.12130
 Alpha  occ. eigenvalues --   -0.17682  -0.13170  -0.12919  -0.11718
 Alpha virt. eigenvalues --   -0.05839  -0.05592  -0.05007  -0.03789  -0.03009
 Alpha virt. eigenvalues --   -0.02913  -0.01258  -0.01024  -0.00973  -0.00470
 Alpha virt. eigenvalues --   -0.00117   0.00031   0.00299   0.00335   0.00792

  Beta  occ. eigenvalues --  -38.45852 -38.45571 -38.44743 -38.43892 -38.43870
  Beta  occ. eigenvalues --  -38.42876 -38.42696  -2.21596  -2.21305  -2.20588
  Beta  occ. eigenvalues --   -2.19731  -2.19728  -2.18706  -2.18579  -1.15306
  Beta  occ. eigenvalues --   -1.15292  -1.15250  -1.15004  -1.14999  -1.14965
  Beta  occ. eigenvalues --   -1.14385  -1.14234  -1.14228  -1.13410  -1.13408
  Beta  occ. eigenvalues --   -1.13398  -1.13354  -1.13349  -1.13342  -1.12538
  Beta  occ. eigenvalues --   -1.12343  -1.12339  -1.12241  -1.12232  -1.12134
  Beta  occ. eigenvalues --   -0.16783  -0.12875  -0.11586
  Beta virt. eigenvalues --   -0.09082  -0.05254  -0.05027  -0.04469  -0.03381
  Beta virt. eigenvalues --   -0.02867  -0.02480  -0.01135  -0.01001  -0.00599
  Beta virt. eigenvalues --   -0.00115   0.00101   0.00168   0.00340   0.00548

 Mulliken charges and spin densities:
               1          2
     1  Na   0.258715   0.316122
     2  Na   0.281830   0.392322
     3  Na   0.324338   0.110002
     4  Na  -0.251052   0.049977
     5  Na   0.644731  -0.082870
     6  Na  -1.149232   0.180646
     7  Na  -0.109331   0.033801
 Sum of Mulliken charges =  -0.00000   1.00000

 Dipole moment (field-independent basis, Debye):
    X=             -1.7842    Y=              0.6036    Z=              0.2902  Tot=              1.9058
 Quadrupole moment (field-independent basis, Debye-Ang):
   XX=            -74.7118   YY=            -64.9377   ZZ=            -60.6895
   XY=             -0.7083   XZ=             -0.0148   YZ=             -5.5489

 Normal termination of Gaussian 16 at Sun Dec  3 14:27:34 2023.
