 Gaussian 16, Revision B.01,
 Gaussian 16:  ES64L-G16RevB.01 20-Dec-2017

 -------------------------
 #P B3LYP/6-311+g(d) force
 -------------------------

 -----
 DPGEN
 -----
 Symbolic Z-matrix:
 Charge =  0 Multiplicity = 2

                         Standard orientation:
 ---------------------------------------------------------------------
 Center     Atomic      Atomic             Coordinates (Angstroms)
 Number     Number       Type             X           Y           Z
 ---------------------------------------------------------------------
      1         11           0       -2.627496    2.951555    0.165730
      2         11           0       -4.823644   -0.466180   -0.723874
      3         11           0       -2.391029   -1.869073    0.643961
      4         11           0        0.702917   -2.261247   -0.500002
      5         11           0        0.076624    1.352160    0.088954
      6         11           0        3.220684   -0.310129    1.171905
      7         11           0        5.841944    0.602914   -0.846673
 ---------------------------------------------------------------------

 SCF Done:  E(UB3LYP) =  -1136.11252141     A.U. after   24 cycles

 The electronic state is 2-A.
 Alpha  occ. eigenvalues --  -38.45333 -38.45128 -38.44557 -38.44251 -38.43883
 Alpha  occ. eigenvalues --  -38.43596 -38.43166  -2.21139  -2.20911  -2.20348
 Alpha  occ. eigenvalues --   -2.20095  -2.19717  -2.19420  -2.18969  -1.14817
 Alpha  occ. eigenvalues --   -1.14781  -1.14734  -1.14551  -1.14551  -1.14528
 Alpha  occ. eigenvalues --   -1.14041  -1.14022  -1.13986  -1.13781  -1.13747
 Alpha  occ. eigenvalues --   -1.13716  -1.13405  -1.13381  -1.13368  -1.13098
 Alpha  occ. eigenvalues --   -1.13076  -1.13047  -1.12654  -1.12628  -1.12590
 Alpha  occ. eigenvalues --   -0.16597  -0.14229  -0.11907  -0.11565
 Alpha virt. eigenvalues --   -0.06370  -0.05367  -0.04806  -0.03351  -0.03024
 Alpha virt. eigenvalues --   -0.02590  -0.02134  -0.01345  -0.00943  -0.00840
 Alpha virt. eigenvalues --   -0.00511  -0.00263   0.00261   0.00293   0.00633

  Beta  occ. eigenvalues --  -38.45254 -38.45037 -38.44568 -38.44195 -38.43881
  Beta  occ. eigenvalues --  -38.43591 -38.43150  -2.20995  -2.20742  -2.20373
  Beta  occ. eigenvalues --   -2.19994  -2.19716  -2.19410  -2.18943  -1.14713
  Beta  occ. eigenvalues --   -1.14685  -1.14638  -1.14436  -1.14434  -1.14416
  Beta  occ. eigenvalues --   -1.14062  -1.14044  -1.13966  -1.13714  -1.13690
  Beta  occ. eigenvalues --   -1.13628  -1.13402  -1.13378  -1.13354  -1.13090
  Beta  occ. eigenvalues --   -1.13069  -1.13046  -1.12624  -1.12612  -1.12572
  Beta  occ. eigenvalues --   -0.16109  -0.13343  -0.11222
  Beta virt. eigenvalues --   -0.08465  -0.05822  -0.05273  -0.04605  -0.03082
  Beta virt. eigenvalues --   -0.02729  -0.02129  -0.01724  -0.01277  -0.00683
  Beta virt. eigenvalues --   -0.00478  -0.00244  -0.00122   0.00270   0.00387

 Mulliken charges and spin densities:
               1          2
     1  Na   0.324513  -0.075480
     2  Na   0.110950   0.203663
     3  Na  -0.268569   0.235327
     4  Na   0.400201  -0.081931
     5  Na  -1.085425   0.248263
     6  Na   0.352820   0.038549
     7  Na   0.165510   0.431609
 Sum of Mulliken charges =  -0.00000   1.00000

 Dipole moment (field-independent basis, Debye):
    X=              0.2560    Y=             -0.4603    Z=             -0.6052  Tot=              0.8023
 Quadrupole moment (field-independent basis, Debye-Ang):
   XX=            -52.5801   YY=            -75.5445   ZZ=            -66.6611
   XY=             -0.8108   XZ=             -0.7809   YZ=             -0.4681

 Normal termination of Gaussian 16 at Tue Nov 28 22:54:07 2023.
