 Gaussian 16, Revision B.01,
 Gaussian 16:  ES64L-G16RevB.01 20-Dec-2017

 -------------------------
 #P B3LYP/6-311+g(d) force
 -------------------------

 -----
 DPGEN
 -----
 Symbolic Z-matrix:
 Charge =  0 Multiplicity = 2

                         Standard orientation:
 ---------------------------------------------------------------------
 Center     Atomic      Atomic             Coordinates (Angstroms)
 Number     Number       Type             X           Y           Z
 ---------------------------------------------------------------------
      1         11           0       -0.007502    0.018381   -1.699424
      2         11           0       -1.878882   -2.416098   -0.175362
      3         11           0        0.083036    2.782586    0.242653
      4         11           0       -3.194334    0.930349   -0.270880
      5         11           0        2.042355   -2.034933    0.228107
      6         11           0        3.158832    0.744686   -0.402306
      7         11           0       -0.203505   -0.024972    2.077211
 ---------------------------------------------------------------------

 SCF Done:  E(UB3LYP) =  -1136.13611858     A.U. after   20 cycles

 The electronic state is 2-A.
 Alpha  occ. eigenvalues --  -38.44589 -38.44131 -38.43641 -38.43516 -38.43484
 Alpha  occ. eigenvalues --  -38.43453 -38.42957  -2.20383  -2.19984  -2.19532
 Alpha  occ. eigenvalues --   -2.19458  -2.19358  -2.19274  -2.18807  -1.14063
 Alpha  occ. eigenvalues --   -1.14035  -1.14019  -1.13690  -1.13644  -1.13610
 Alpha  occ. eigenvalues --   -1.13206  -1.13160  -1.13156  -1.13147  -1.13111
 Alpha  occ. eigenvalues --   -1.13085  -1.13026  -1.13012  -1.12990  -1.12951
 Alpha  occ. eigenvalues --   -1.12936  -1.12906  -1.12495  -1.12480  -1.12424
 Alpha  occ. eigenvalues --   -0.18540  -0.13293  -0.12014  -0.10878
 Alpha virt. eigenvalues --   -0.06061  -0.05155  -0.04265  -0.03350  -0.02804
 Alpha virt. eigenvalues --   -0.02679  -0.01881  -0.01072  -0.00386  -0.00211
 Alpha virt. eigenvalues --   -0.00039   0.00338   0.00739   0.00859   0.00885

  Beta  occ. eigenvalues --  -38.44584 -38.44124 -38.43540 -38.43478 -38.43458
  Beta  occ. eigenvalues --  -38.43450 -38.42949  -2.20376  -2.19972  -2.19353
  Beta  occ. eigenvalues --   -2.19351  -2.19345  -2.19272  -2.18796  -1.14044
  Beta  occ. eigenvalues --   -1.14033  -1.14014  -1.13686  -1.13621  -1.13602
  Beta  occ. eigenvalues --   -1.13101  -1.13064  -1.13049  -1.13035  -1.13025
  Beta  occ. eigenvalues --   -1.13018  -1.13004  -1.12980  -1.12969  -1.12933
  Beta  occ. eigenvalues --   -1.12930  -1.12899  -1.12489  -1.12446  -1.12421
  Beta  occ. eigenvalues --   -0.17810  -0.13054  -0.11773
  Beta virt. eigenvalues --   -0.06973  -0.05994  -0.05148  -0.04221  -0.02610
  Beta virt. eigenvalues --   -0.02022  -0.01766  -0.01627  -0.01021  -0.00415
  Beta virt. eigenvalues --   -0.00241   0.00096   0.00370   0.00807   0.00870

 Mulliken charges and spin densities:
               1          2
     1  Na  -0.194200   0.490010
     2  Na   0.038678  -0.076988
     3  Na   0.067238  -0.053562
     4  Na   0.089298  -0.072216
     5  Na   0.176998  -0.004361
     6  Na   0.156291   0.011105
     7  Na  -0.334304   0.706012
 Sum of Mulliken charges =  -0.00000   1.00000

 Dipole moment (field-independent basis, Debye):
    X=             -0.3262    Y=              0.0928    Z=             -0.0099  Tot=              0.3392
 Quadrupole moment (field-independent basis, Debye-Ang):
   XX=            -53.5632   YY=            -66.3339   ZZ=            -73.6265
   XY=              0.0329   XZ=              0.1041   YZ=             -0.3880

 Normal termination of Gaussian 16 at Fri Dec  8 06:15:24 2023.
