 Gaussian 16, Revision B.01,
 Gaussian 16:  ES64L-G16RevB.01 20-Dec-2017

 -------------------------
 #P B3LYP/6-311+g(d) force
 -------------------------

 -----
 DPGEN
 -----
 Symbolic Z-matrix:
 Charge =  0 Multiplicity = 2

                         Standard orientation:
 ---------------------------------------------------------------------
 Center     Atomic      Atomic             Coordinates (Angstroms)
 Number     Number       Type             X           Y           Z
 ---------------------------------------------------------------------
      1         11           0        0.597055   -1.691595   -1.519180
      2         11           0        0.578110    1.166713   -0.644695
      3         11           0        4.473020    1.751172    0.024186
      4         11           0        3.250262   -1.140913    0.227583
      5         11           0       -0.195676   -0.745678    1.985832
      6         11           0       -2.682344    0.012014    0.112811
      7         11           0       -6.020427    0.648286   -0.186536
 ---------------------------------------------------------------------

 SCF Done:  E(UB3LYP) =  -1136.10503423     A.U. after   30 cycles

 The electronic state is 2-A.
 Alpha  occ. eigenvalues --  -38.46671 -38.45055 -38.44409 -38.44144 -38.43666
 Alpha  occ. eigenvalues --  -38.43541 -38.43092  -2.22571  -2.20940  -2.20316
 Alpha  occ. eigenvalues --   -2.20084  -2.19424  -2.19350  -2.18959  -1.16304
 Alpha  occ. eigenvalues --   -1.16241  -1.16163  -1.14625  -1.14597  -1.14590
 Alpha  occ. eigenvalues --   -1.13977  -1.13969  -1.13912  -1.13777  -1.13727
 Alpha  occ. eigenvalues --   -1.13658  -1.13087  -1.13086  -1.13067  -1.13023
 Alpha  occ. eigenvalues --   -1.13002  -1.12994  -1.12671  -1.12649  -1.12559
 Alpha  occ. eigenvalues --   -0.18846  -0.13851  -0.11438  -0.10990
 Alpha virt. eigenvalues --   -0.08321  -0.05625  -0.04185  -0.03591  -0.02948
 Alpha virt. eigenvalues --   -0.02449  -0.02118  -0.01950  -0.01165  -0.01014
 Alpha virt. eigenvalues --   -0.00499   0.00064   0.00155   0.00506   0.00562

  Beta  occ. eigenvalues --  -38.46657 -38.45047 -38.44323 -38.44067 -38.43660
  Beta  occ. eigenvalues --  -38.43538 -38.43087  -2.22551  -2.20930  -2.20156
  Beta  occ. eigenvalues --   -2.19942  -2.19412  -2.19344  -2.18954  -1.16264
  Beta  occ. eigenvalues --   -1.16205  -1.16158  -1.14599  -1.14590  -1.14577
  Beta  occ. eigenvalues --   -1.13863  -1.13856  -1.13809  -1.13679  -1.13629
  Beta  occ. eigenvalues --   -1.13557  -1.13080  -1.13078  -1.13060  -1.13021
  Beta  occ. eigenvalues --   -1.12996  -1.12990  -1.12666  -1.12627  -1.12557
  Beta  occ. eigenvalues --   -0.18149  -0.13611  -0.11067
  Beta virt. eigenvalues --   -0.08087  -0.07290  -0.05358  -0.04064  -0.02987
  Beta virt. eigenvalues --   -0.02658  -0.01956  -0.01749  -0.01542  -0.01060
  Beta virt. eigenvalues --   -0.00760  -0.00377   0.00164   0.00309   0.00550

 Mulliken charges and spin densities:
               1          2
     1  Na   0.245953   0.312826
     2  Na   0.386167   0.634268
     3  Na   0.045015  -0.168753
     4  Na   0.165287   0.092497
     5  Na   0.712831   0.463789
     6  Na  -0.929200  -0.256220
     7  Na  -0.626053  -0.078406
 Sum of Mulliken charges =  -0.00000   1.00000

 Dipole moment (field-independent basis, Debye):
    X=              1.6878    Y=             -0.7031    Z=              0.1502  Tot=              1.8345
 Quadrupole moment (field-independent basis, Debye-Ang):
   XX=            -73.8371   YY=            -63.1033   ZZ=            -72.8357
   XY=             -1.7389   XZ=              1.0422   YZ=             -4.3443

 Normal termination of Gaussian 16 at Fri Dec  8 20:03:11 2023.
