 Gaussian 16, Revision B.01,
 Gaussian 16:  ES64L-G16RevB.01 20-Dec-2017

 -------------------------
 #P B3LYP/6-311+g(d) force
 -------------------------

 -----
 DPGEN
 -----
 Symbolic Z-matrix:
 Charge =  0 Multiplicity = 2

                         Standard orientation:
 ---------------------------------------------------------------------
 Center     Atomic      Atomic             Coordinates (Angstroms)
 Number     Number       Type             X           Y           Z
 ---------------------------------------------------------------------
      1         11           0       -1.314319   -2.741721   -0.079724
      2         11           0       -0.760870    3.128821   -0.082126
      3         11           0        2.459968   -2.038826   -0.250367
      4         11           0       -0.235233   -0.135412    2.121670
      5         11           0        2.944116    1.470146    0.042727
      6         11           0       -3.102730    0.183313   -0.269236
      7         11           0        0.009068    0.133679   -1.482944
 ---------------------------------------------------------------------

 SCF Done:  E(UB3LYP) =  -1136.13738901     A.U. after   19 cycles

 The electronic state is 2-A.
 Alpha  occ. eigenvalues --  -38.44262 -38.44019 -38.43876 -38.43742 -38.43523
 Alpha  occ. eigenvalues --  -38.43494 -38.43035  -2.20045  -2.19861  -2.19679
 Alpha  occ. eigenvalues --   -2.19537  -2.19365  -2.19355  -2.19002  -1.13724
 Alpha  occ. eigenvalues --   -1.13706  -1.13683  -1.13549  -1.13521  -1.13491
 Alpha  occ. eigenvalues --   -1.13360  -1.13339  -1.13314  -1.13221  -1.13198
 Alpha  occ. eigenvalues --   -1.13173  -1.13049  -1.13038  -1.13012  -1.13001
 Alpha  occ. eigenvalues --   -1.12976  -1.12966  -1.12699  -1.12634  -1.12632
 Alpha  occ. eigenvalues --   -0.18252  -0.12919  -0.12351  -0.10410
 Alpha virt. eigenvalues --   -0.05741  -0.05355  -0.05030  -0.02992  -0.02728
 Alpha virt. eigenvalues --   -0.02422  -0.01580  -0.01342  -0.00730  -0.00629
 Alpha virt. eigenvalues --   -0.00009   0.00334   0.00768   0.00805   0.00831

  Beta  occ. eigenvalues --  -38.44262 -38.44011 -38.43872 -38.43741 -38.43518
  Beta  occ. eigenvalues --  -38.43389 -38.42984  -2.20047  -2.19848  -2.19674
  Beta  occ. eigenvalues --   -2.19538  -2.19358  -2.19162  -2.18911  -1.13714
  Beta  occ. eigenvalues --   -1.13706  -1.13686  -1.13536  -1.13493  -1.13487
  Beta  occ. eigenvalues --   -1.13347  -1.13329  -1.13314  -1.13214  -1.13190
  Beta  occ. eigenvalues --   -1.13175  -1.13040  -1.13001  -1.13001  -1.12889
  Beta  occ. eigenvalues --   -1.12841  -1.12831  -1.12631  -1.12567  -1.12564
  Beta  occ. eigenvalues --   -0.17545  -0.12714  -0.12147
  Beta virt. eigenvalues --   -0.06480  -0.05735  -0.05342  -0.04957  -0.02264
  Beta virt. eigenvalues --   -0.02006  -0.01495  -0.01334  -0.01257  -0.00771
  Beta virt. eigenvalues --   -0.00686   0.00153   0.00378   0.00792   0.00835

 Mulliken charges and spin densities:
               1          2
     1  Na   0.241395   0.000917
     2  Na   0.045177  -0.071366
     3  Na   0.103604  -0.039322
     4  Na  -0.517685   0.827053
     5  Na   0.038185  -0.054545
     6  Na   0.294650  -0.000962
     7  Na  -0.205326   0.338225
 Sum of Mulliken charges =  -0.00000   1.00000

 Dipole moment (field-independent basis, Debye):
    X=              0.1187    Y=              0.1231    Z=              0.0876  Tot=              0.1921
 Quadrupole moment (field-independent basis, Debye-Ang):
   XX=            -56.1643   YY=            -59.4762   ZZ=            -76.6091
   XY=              0.2982   XZ=              0.6638   YZ=              0.7846

 Normal termination of Gaussian 16 at Thu Dec  7 06:30:43 2023.
