 Gaussian 16, Revision B.01,
 Gaussian 16:  ES64L-G16RevB.01 20-Dec-2017

 -------------------------
 #P B3LYP/6-311+g(d) force
 -------------------------

 -----
 DPGEN
 -----
 Symbolic Z-matrix:
 Charge =  0 Multiplicity = 2

                         Standard orientation:
 ---------------------------------------------------------------------
 Center     Atomic      Atomic             Coordinates (Angstroms)
 Number     Number       Type             X           Y           Z
 ---------------------------------------------------------------------
      1         11           0        1.209018    1.257736    1.761165
      2         11           0       -2.777118   -2.047795   -1.043813
      3         11           0       -0.117844    0.265092   -1.586986
      4         11           0        3.365660   -0.276680   -1.438276
      5         11           0       -1.069353    2.664712   -0.627864
      6         11           0       -2.256217    0.084389    1.506278
      7         11           0        1.645854   -1.947454    1.429496
 ---------------------------------------------------------------------

 SCF Done:  E(UB3LYP) =  -1136.12015375     A.U. after   23 cycles

 The electronic state is 2-A.
 Alpha  occ. eigenvalues --  -38.44897 -38.44371 -38.44285 -38.44133 -38.43929
 Alpha  occ. eigenvalues --  -38.43066 -38.43060  -2.20677  -2.20210  -2.20086
 Alpha  occ. eigenvalues --   -2.20007  -2.19905  -2.18972  -2.18862  -1.14352
 Alpha  occ. eigenvalues --   -1.14327  -1.14289  -1.13894  -1.13872  -1.13835
 Alpha  occ. eigenvalues --   -1.13815  -1.13735  -1.13718  -1.13702  -1.13684
 Alpha  occ. eigenvalues --   -1.13646  -1.13604  -1.13547  -1.13494  -1.12679
 Alpha  occ. eigenvalues --   -1.12578  -1.12566  -1.12533  -1.12513  -1.12503
 Alpha  occ. eigenvalues --   -0.18164  -0.13104  -0.12035  -0.11284
 Alpha virt. eigenvalues --   -0.05983  -0.04957  -0.04713  -0.03369  -0.03025
 Alpha virt. eigenvalues --   -0.02967  -0.01673  -0.00899  -0.00746   0.00082
 Alpha virt. eigenvalues --    0.00105   0.00202   0.00382   0.00625   0.00748

  Beta  occ. eigenvalues --  -38.44858 -38.44353 -38.44262 -38.44078 -38.43871
  Beta  occ. eigenvalues --  -38.43061 -38.43052  -2.20606  -2.20177  -2.20046
  Beta  occ. eigenvalues --   -2.19908  -2.19800  -2.18965  -2.18846  -1.14292
  Beta  occ. eigenvalues --   -1.14278  -1.14246  -1.13867  -1.13844  -1.13808
  Beta  occ. eigenvalues --   -1.13768  -1.13706  -1.13673  -1.13649  -1.13617
  Beta  occ. eigenvalues --   -1.13568  -1.13538  -1.13473  -1.13410  -1.12661
  Beta  occ. eigenvalues --   -1.12572  -1.12558  -1.12517  -1.12503  -1.12495
  Beta  occ. eigenvalues --   -0.17384  -0.12862  -0.11150
  Beta virt. eigenvalues --   -0.08137  -0.05472  -0.04788  -0.04373  -0.02945
  Beta virt. eigenvalues --   -0.02529  -0.02355  -0.01465  -0.00719  -0.00545
  Beta virt. eigenvalues --    0.00201   0.00275   0.00319   0.00427   0.00679

 Mulliken charges and spin densities:
               1          2
     1  Na   0.138997   0.452985
     2  Na   0.094242  -0.052824
     3  Na  -0.180202   0.352071
     4  Na   0.079601   0.031494
     5  Na   0.030898   0.129619
     6  Na   0.072301   0.043833
     7  Na  -0.235838   0.042823
 Sum of Mulliken charges =  -0.00000   1.00000

 Dipole moment (field-independent basis, Debye):
    X=              0.9795    Y=              0.0988    Z=              0.3523  Tot=              1.0456
 Quadrupole moment (field-independent basis, Debye-Ang):
   XX=            -60.8977   YY=            -71.0517   ZZ=            -63.9662
   XY=             -1.8242   XZ=             -3.0378   YZ=              1.0189

 Normal termination of Gaussian 16 at Tue Dec  5 10:50:38 2023.
