 Gaussian 16, Revision B.01,
 Gaussian 16:  ES64L-G16RevB.01 20-Dec-2017

 -------------------------
 #P B3LYP/6-311+g(d) force
 -------------------------

 -----
 DPGEN
 -----
 Symbolic Z-matrix:
 Charge =  0 Multiplicity = 2

                         Standard orientation:
 ---------------------------------------------------------------------
 Center     Atomic      Atomic             Coordinates (Angstroms)
 Number     Number       Type             X           Y           Z
 ---------------------------------------------------------------------
      1         11           0       -2.399392   -1.938351   -0.436121
      2         11           0        3.971539   -1.166471   -0.862552
      3         11           0       -2.350752    2.028978    0.291421
      4         11           0        1.092784    2.525306   -1.221715
      5         11           0        3.272302    1.314382    1.493811
      6         11           0        1.349471   -2.537844    0.499546
      7         11           0       -4.935951   -0.226000    0.235610
 ---------------------------------------------------------------------

 SCF Done:  E(UB3LYP) =  -1136.11178923     A.U. after   22 cycles

 The electronic state is 2-A.
 Alpha  occ. eigenvalues --  -38.45224 -38.44893 -38.44643 -38.44588 -38.43686
 Alpha  occ. eigenvalues --  -38.43549 -38.43496  -2.20993  -2.20663  -2.20446
 Alpha  occ. eigenvalues --   -2.20390  -2.19548  -2.19313  -2.19294  -1.14673
 Alpha  occ. eigenvalues --   -1.14643  -1.14619  -1.14357  -1.14339  -1.14272
 Alpha  occ. eigenvalues --   -1.14118  -1.14111  -1.14081  -1.14076  -1.14059
 Alpha  occ. eigenvalues --   -1.14032  -1.13208  -1.13184  -1.13170  -1.12988
 Alpha  occ. eigenvalues --   -1.12976  -1.12970  -1.12959  -1.12950  -1.12917
 Alpha  occ. eigenvalues --   -0.16133  -0.14513  -0.11895  -0.10268
 Alpha virt. eigenvalues --   -0.06833  -0.05926  -0.04354  -0.03324  -0.03182
 Alpha virt. eigenvalues --   -0.02590  -0.02087  -0.01426  -0.01046  -0.00615
 Alpha virt. eigenvalues --   -0.00414  -0.00266   0.00304   0.00379   0.00522

  Beta  occ. eigenvalues --  -38.45202 -38.44867 -38.44640 -38.44561 -38.43631
  Beta  occ. eigenvalues --  -38.43531 -38.43467  -2.20953  -2.20618  -2.20441
  Beta  occ. eigenvalues --   -2.20344  -2.19444  -2.19283  -2.19243  -1.14643
  Beta  occ. eigenvalues --   -1.14618  -1.14587  -1.14330  -1.14309  -1.14214
  Beta  occ. eigenvalues --   -1.14117  -1.14110  -1.14069  -1.14049  -1.14026
  Beta  occ. eigenvalues --   -1.13965  -1.13136  -1.13112  -1.13104  -1.12970
  Beta  occ. eigenvalues --   -1.12953  -1.12947  -1.12925  -1.12915  -1.12864
  Beta  occ. eigenvalues --   -0.15626  -0.14118  -0.11374
  Beta virt. eigenvalues --   -0.06950  -0.06736  -0.05747  -0.03753  -0.03093
  Beta virt. eigenvalues --   -0.02961  -0.02092  -0.01888  -0.01282  -0.00910
  Beta virt. eigenvalues --   -0.00398  -0.00108  -0.00045   0.00398   0.00439

 Mulliken charges and spin densities:
               1          2
     1  Na  -0.436879   0.185926
     2  Na   0.327539   0.121910
     3  Na  -0.340880   0.172332
     4  Na  -0.225721   0.024420
     5  Na   0.248725   0.155057
     6  Na  -0.452237   0.041263
     7  Na   0.879453   0.299092
 Sum of Mulliken charges =  -0.00000   1.00000

 Dipole moment (field-independent basis, Debye):
    X=              0.4147    Y=              0.2886    Z=              0.2657  Tot=              0.5708
 Quadrupole moment (field-independent basis, Debye-Ang):
   XX=            -60.2718   YY=            -75.8851   ZZ=            -63.7103
   XY=             -0.1270   XZ=             -1.9528   YZ=              3.3824

 Normal termination of Gaussian 16 at Mon Dec  4 04:20:43 2023.
