 Gaussian 16, Revision B.01,
 Gaussian 16:  ES64L-G16RevB.01 20-Dec-2017

 -------------------------
 #P B3LYP/6-311+g(d) force
 -------------------------

 -----
 DPGEN
 -----
 Symbolic Z-matrix:
 Charge =  0 Multiplicity = 2

                         Standard orientation:
 ---------------------------------------------------------------------
 Center     Atomic      Atomic             Coordinates (Angstroms)
 Number     Number       Type             X           Y           Z
 ---------------------------------------------------------------------
      1         11           0        0.358648    0.147126    1.966838
      2         11           0       -1.745068    2.404236   -0.511589
      3         11           0        0.267633   -0.011231   -1.697678
      4         11           0       -3.091931   -0.644538    0.410165
      5         11           0        2.914775   -1.477022   -0.114119
      6         11           0       -0.634429   -2.833011   -0.218545
      7         11           0        1.930373    2.414440    0.164930
 ---------------------------------------------------------------------

 SCF Done:  E(UB3LYP) =  -1136.13808110     A.U. after   19 cycles

 The electronic state is 2-A.
 Alpha  occ. eigenvalues --  -38.44146 -38.43856 -38.43692 -38.43605 -38.43576
 Alpha  occ. eigenvalues --  -38.43509 -38.43205  -2.19950  -2.19689  -2.19517
 Alpha  occ. eigenvalues --   -2.19496  -2.19409  -2.19354  -2.19163  -1.13633
 Alpha  occ. eigenvalues --   -1.13610  -1.13584  -1.13390  -1.13358  -1.13312
 Alpha  occ. eigenvalues --   -1.13192  -1.13185  -1.13179  -1.13162  -1.13123
 Alpha  occ. eigenvalues --   -1.13110  -1.13102  -1.13061  -1.13057  -1.13033
 Alpha  occ. eigenvalues --   -1.13013  -1.12972  -1.12838  -1.12793  -1.12781
 Alpha  occ. eigenvalues --   -0.18453  -0.12838  -0.12525  -0.10712
 Alpha virt. eigenvalues --   -0.05696  -0.05273  -0.04671  -0.03151  -0.02969
 Alpha virt. eigenvalues --   -0.02529  -0.01544  -0.01259  -0.00458  -0.00309
 Alpha virt. eigenvalues --    0.00000   0.00356   0.00814   0.00829   0.00893

  Beta  occ. eigenvalues --  -38.44143 -38.43850 -38.43687 -38.43564 -38.43519
  Beta  occ. eigenvalues --  -38.43504 -38.43135  -2.19947  -2.19681  -2.19510
  Beta  occ. eigenvalues --   -2.19390  -2.19350  -2.19337  -2.19036  -1.13617
  Beta  occ. eigenvalues --   -1.13607  -1.13580  -1.13374  -1.13337  -1.13307
  Beta  occ. eigenvalues --   -1.13190  -1.13178  -1.13158  -1.13078  -1.13062
  Beta  occ. eigenvalues --   -1.13045  -1.13039  -1.13025  -1.13015  -1.12998
  Beta  occ. eigenvalues --   -1.12992  -1.12968  -1.12752  -1.12708  -1.12685
  Beta  occ. eigenvalues --   -0.17739  -0.12613  -0.12259
  Beta virt. eigenvalues --   -0.06851  -0.05706  -0.05167  -0.04630  -0.02405
  Beta virt. eigenvalues --   -0.02212  -0.01512  -0.01450  -0.01178  -0.00476
  Beta virt. eigenvalues --   -0.00352   0.00124   0.00383   0.00819   0.00863

 Mulliken charges and spin densities:
               1          2
     1  Na  -0.284557   0.748364
     2  Na   0.069045   0.012256
     3  Na   0.024461   0.489581
     4  Na  -0.041038   0.018975
     5  Na   0.055331  -0.130619
     6  Na   0.046022  -0.047002
     7  Na   0.130736  -0.091555
 Sum of Mulliken charges =  -0.00000   1.00000

 Dipole moment (field-independent basis, Debye):
    X=              0.4071    Y=              0.0210    Z=              0.1151  Tot=              0.4236
 Quadrupole moment (field-independent basis, Debye-Ang):
   XX=            -56.8209   YY=            -61.8006   ZZ=            -74.5864
   XY=             -0.3614   XZ=             -0.4647   YZ=             -0.5067

 Normal termination of Gaussian 16 at Thu Dec  7 04:48:37 2023.
