 Gaussian 16, Revision B.01,
 Gaussian 16:  ES64L-G16RevB.01 20-Dec-2017

 -------------------------
 #P B3LYP/6-311+g(d) force
 -------------------------

 -----
 DPGEN
 -----
 Symbolic Z-matrix:
 Charge =  0 Multiplicity = 2

                         Standard orientation:
 ---------------------------------------------------------------------
 Center     Atomic      Atomic             Coordinates (Angstroms)
 Number     Number       Type             X           Y           Z
 ---------------------------------------------------------------------
      1         11           0        2.571378    0.773086   -1.718228
      2         11           0        0.570771   -0.754845    2.638409
      3         11           0       -0.225392   -0.522554   -0.872229
      4         11           0        1.119818    2.759149    0.368412
      5         11           0       -2.456409    0.511208    1.157091
      6         11           0        2.685021   -2.202313   -0.225266
      7         11           0       -4.265186   -0.563731   -1.348189
 ---------------------------------------------------------------------

 SCF Done:  E(UB3LYP) =  -1136.12013358     A.U. after   24 cycles

 The electronic state is 2-A.
 Alpha  occ. eigenvalues --  -38.44754 -38.44312 -38.44059 -38.43979 -38.43835
 Alpha  occ. eigenvalues --  -38.43455 -38.43217  -2.20552  -2.20238  -2.19923
 Alpha  occ. eigenvalues --   -2.19815  -2.19666  -2.19267  -2.19112  -1.14211
 Alpha  occ. eigenvalues --   -1.14199  -1.14174  -1.13984  -1.13899  -1.13867
 Alpha  occ. eigenvalues --   -1.13622  -1.13577  -1.13546  -1.13488  -1.13478
 Alpha  occ. eigenvalues --   -1.13427  -1.13329  -1.13306  -1.13296  -1.12938
 Alpha  occ. eigenvalues --   -1.12930  -1.12887  -1.12799  -1.12769  -1.12738
 Alpha  occ. eigenvalues --   -0.17952  -0.13930  -0.11940  -0.11082
 Alpha virt. eigenvalues --   -0.06283  -0.05172  -0.04510  -0.03216  -0.03109
 Alpha virt. eigenvalues --   -0.02629  -0.02193  -0.01344  -0.00720  -0.00106
 Alpha virt. eigenvalues --    0.00090   0.00130   0.00337   0.00680   0.00751

  Beta  occ. eigenvalues --  -38.44704 -38.44303 -38.44050 -38.43945 -38.43776
  Beta  occ. eigenvalues --  -38.43420 -38.43211  -2.20459  -2.20225  -2.19913
  Beta  occ. eigenvalues --   -2.19754  -2.19556  -2.19204  -2.19105  -1.14149
  Beta  occ. eigenvalues --   -1.14135  -1.14113  -1.13948  -1.13894  -1.13863
  Beta  occ. eigenvalues --   -1.13619  -1.13571  -1.13496  -1.13446  -1.13429
  Beta  occ. eigenvalues --   -1.13387  -1.13258  -1.13234  -1.13212  -1.12893
  Beta  occ. eigenvalues --   -1.12885  -1.12837  -1.12797  -1.12769  -1.12704
  Beta  occ. eigenvalues --   -0.17266  -0.13366  -0.10898
  Beta virt. eigenvalues --   -0.08350  -0.05930  -0.04748  -0.04068  -0.02940
  Beta virt. eigenvalues --   -0.02721  -0.02232  -0.01937  -0.00908  -0.00679
  Beta virt. eigenvalues --    0.00141   0.00206   0.00282   0.00393   0.00722

 Mulliken charges and spin densities:
               1          2
     1  Na   0.590439   0.083294
     2  Na  -0.023207   0.171552
     3  Na  -1.051454  -0.077135
     4  Na  -0.179103   0.344285
     5  Na   0.110267   0.085349
     6  Na   0.278754   0.216415
     7  Na   0.274304   0.176241
 Sum of Mulliken charges =  -0.00000   1.00000

 Dipole moment (field-independent basis, Debye):
    X=             -0.5829    Y=             -0.2408    Z=             -0.0282  Tot=              0.6313
 Quadrupole moment (field-independent basis, Debye-Ang):
   XX=            -55.7309   YY=            -72.2769   ZZ=            -66.8534
   XY=             -1.7700   XZ=              1.9689   YZ=              8.1657

 Normal termination of Gaussian 16 at Tue Dec  5 23:51:07 2023.
