 Gaussian 16, Revision B.01,
 Gaussian 16:  ES64L-G16RevB.01 20-Dec-2017

 -------------------------
 #P B3LYP/6-311+g(d) force
 -------------------------

 -----
 DPGEN
 -----
 Symbolic Z-matrix:
 Charge =  0 Multiplicity = 2

                         Standard orientation:
 ---------------------------------------------------------------------
 Center     Atomic      Atomic             Coordinates (Angstroms)
 Number     Number       Type             X           Y           Z
 ---------------------------------------------------------------------
      1         11           0        2.445729   -1.895509    0.799367
      2         11           0        0.031155   -0.647642   -1.559426
      3         11           0       -1.742466    2.220293   -0.192731
      4         11           0       -3.738097   -0.885973   -0.857486
      5         11           0       -1.911189   -0.762531    1.706912
      6         11           0        3.440872    0.432103   -1.188572
      7         11           0        1.473996    1.539258    1.291937
 ---------------------------------------------------------------------

 SCF Done:  E(UB3LYP) =  -1136.12048606     A.U. after   26 cycles

 The electronic state is 2-A.
 Alpha  occ. eigenvalues --  -38.45054 -38.44651 -38.44487 -38.44389 -38.44141
 Alpha  occ. eigenvalues --  -38.43158 -38.42792  -2.20908  -2.20491  -2.20341
 Alpha  occ. eigenvalues --   -2.20206  -2.19987  -2.18988  -2.18649  -1.14578
 Alpha  occ. eigenvalues --   -1.14557  -1.14545  -1.14197  -1.14150  -1.14100
 Alpha  occ. eigenvalues --   -1.14040  -1.14010  -1.13966  -1.13865  -1.13858
 Alpha  occ. eigenvalues --   -1.13829  -1.13651  -1.13643  -1.13623  -1.12676
 Alpha  occ. eigenvalues --   -1.12655  -1.12610  -1.12329  -1.12324  -1.12270
 Alpha  occ. eigenvalues --   -0.18209  -0.14543  -0.10833  -0.10600
 Alpha virt. eigenvalues --   -0.06926  -0.05708  -0.05146  -0.02984  -0.02760
 Alpha virt. eigenvalues --   -0.02311  -0.02232  -0.01220  -0.00910  -0.00436
 Alpha virt. eigenvalues --    0.00127   0.00158   0.00240   0.00466   0.00560

  Beta  occ. eigenvalues --  -38.45033 -38.44603 -38.44442 -38.44398 -38.44113
  Beta  occ. eigenvalues --  -38.43154 -38.42773  -2.20869  -2.20406  -2.20257
  Beta  occ. eigenvalues --   -2.20224  -2.19935  -2.18981  -2.18615  -1.14547
  Beta  occ. eigenvalues --   -1.14526  -1.14518  -1.14123  -1.14086  -1.14039
  Beta  occ. eigenvalues --   -1.14002  -1.13951  -1.13911  -1.13870  -1.13857
  Beta  occ. eigenvalues --   -1.13825  -1.13614  -1.13607  -1.13572  -1.12666
  Beta  occ. eigenvalues --   -1.12646  -1.12605  -1.12307  -1.12280  -1.12250
  Beta  occ. eigenvalues --   -0.17519  -0.14420  -0.10482
  Beta virt. eigenvalues --   -0.07162  -0.06700  -0.05236  -0.04699  -0.02817
  Beta virt. eigenvalues --   -0.02578  -0.01798  -0.01536  -0.00878  -0.00647
  Beta virt. eigenvalues --   -0.00368   0.00168   0.00240   0.00322   0.00600

 Mulliken charges and spin densities:
               1          2
     1  Na  -0.107025   0.203940
     2  Na  -0.504400   0.415219
     3  Na  -0.173895  -0.055759
     4  Na   0.591677  -0.041378
     5  Na  -0.287492   0.258675
     6  Na   0.655301  -0.084409
     7  Na  -0.174167   0.303712
 Sum of Mulliken charges =  -0.00000   1.00000

 Dipole moment (field-independent basis, Debye):
    X=              0.2218    Y=             -0.0463    Z=             -0.3829  Tot=              0.4449
 Quadrupole moment (field-independent basis, Debye-Ang):
   XX=            -48.6951   YY=            -77.3004   ZZ=            -69.3352
   XY=              0.3249   XZ=              0.0717   YZ=             -4.2915

 Normal termination of Gaussian 16 at Thu Dec  7 12:18:15 2023.
