 Gaussian 16, Revision B.01,
 Gaussian 16:  ES64L-G16RevB.01 20-Dec-2017

 -------------------------
 #P B3LYP/6-311+g(d) force
 -------------------------

 -----
 DPGEN
 -----
 Symbolic Z-matrix:
 Charge =  0 Multiplicity = 2

                         Standard orientation:
 ---------------------------------------------------------------------
 Center     Atomic      Atomic             Coordinates (Angstroms)
 Number     Number       Type             X           Y           Z
 ---------------------------------------------------------------------
      1         11           0        0.670056   -1.855139   -1.140258
      2         11           0       -2.919135   -2.007446    0.571027
      3         11           0        0.279302   -0.189511    1.773327
      4         11           0       -1.273984    2.844035    0.770730
      5         11           0       -1.664610    0.434532   -1.459636
      6         11           0        3.418974   -0.709759    0.650473
      7         11           0        1.489396    1.483287   -1.165662
 ---------------------------------------------------------------------

 SCF Done:  E(UB3LYP) =  -1136.13546457     A.U. after   19 cycles

 The electronic state is 2-A.
 Alpha  occ. eigenvalues --  -38.43939 -38.43815 -38.43736 -38.43625 -38.43486
 Alpha  occ. eigenvalues --  -38.43223 -38.43142  -2.19785  -2.19731  -2.19533
 Alpha  occ. eigenvalues --   -2.19522  -2.19398  -2.19172  -2.18978  -1.13473
 Alpha  occ. eigenvalues --   -1.13446  -1.13440  -1.13416  -1.13365  -1.13334
 Alpha  occ. eigenvalues --   -1.13262  -1.13200  -1.13197  -1.13183  -1.13153
 Alpha  occ. eigenvalues --   -1.13125  -1.13100  -1.13057  -1.12993  -1.12876
 Alpha  occ. eigenvalues --   -1.12835  -1.12771  -1.12643  -1.12633  -1.12602
 Alpha  occ. eigenvalues --   -0.18729  -0.13089  -0.11850  -0.11366
 Alpha virt. eigenvalues --   -0.05746  -0.04963  -0.04334  -0.03259  -0.02927
 Alpha virt. eigenvalues --   -0.02742  -0.01702  -0.01036  -0.00616   0.00189
 Alpha virt. eigenvalues --    0.00299   0.00339   0.00692   0.00750   0.00823

  Beta  occ. eigenvalues --  -38.43931 -38.43745 -38.43732 -38.43589 -38.43452
  Beta  occ. eigenvalues --  -38.43187 -38.43130  -2.19771  -2.19604  -2.19516
  Beta  occ. eigenvalues --   -2.19472  -2.19340  -2.19110  -2.18957  -1.13444
  Beta  occ. eigenvalues --   -1.13436  -1.13419  -1.13346  -1.13274  -1.13246
  Beta  occ. eigenvalues --   -1.13212  -1.13195  -1.13170  -1.13149  -1.13127
  Beta  occ. eigenvalues --   -1.13086  -1.13056  -1.12996  -1.12957  -1.12825
  Beta  occ. eigenvalues --   -1.12780  -1.12730  -1.12619  -1.12615  -1.12587
  Beta  occ. eigenvalues --   -0.17912  -0.12909  -0.11681
  Beta virt. eigenvalues --   -0.07346  -0.05606  -0.04855  -0.04032  -0.02832
  Beta virt. eigenvalues --   -0.02379  -0.01774  -0.01587  -0.00940  -0.00261
  Beta virt. eigenvalues --    0.00166   0.00318   0.00416   0.00756   0.00852

 Mulliken charges and spin densities:
               1          2
     1  Na  -0.233245   0.133196
     2  Na  -0.145327  -0.100870
     3  Na  -0.516899   0.698717
     4  Na  -0.105121  -0.108894
     5  Na   0.526159   0.228892
     6  Na   0.660316  -0.047887
     7  Na  -0.185882   0.196846
 Sum of Mulliken charges =  -0.00000   1.00000

 Dipole moment (field-independent basis, Debye):
    X=              0.4282    Y=             -0.1492    Z=              0.2402  Tot=              0.5131
 Quadrupole moment (field-independent basis, Debye-Ang):
   XX=            -55.7804   YY=            -68.2881   ZZ=            -68.9167
   XY=             -0.5666   XZ=             -1.1275   YZ=              0.0663

 Normal termination of Gaussian 16 at Tue Dec  5 23:55:28 2023.
