 Gaussian 16, Revision B.01,
 Gaussian 16:  ES64L-G16RevB.01 20-Dec-2017

 -------------------------
 #P B3LYP/6-311+g(d) force
 -------------------------

 -----
 DPGEN
 -----
 Symbolic Z-matrix:
 Charge =  0 Multiplicity = 2

                         Standard orientation:
 ---------------------------------------------------------------------
 Center     Atomic      Atomic             Coordinates (Angstroms)
 Number     Number       Type             X           Y           Z
 ---------------------------------------------------------------------
      1         11           0        0.432824   -1.521416    0.037254
      2         11           0       -1.342457    1.808738   -0.558113
      3         11           0        3.441185   -1.633920   -0.416955
      4         11           0        2.423551    1.654168   -1.094130
      5         11           0        0.438286    1.346753    2.261650
      6         11           0       -3.233763   -0.500252   -1.707232
      7         11           0       -2.159625   -1.154070    1.477526
 ---------------------------------------------------------------------

 SCF Done:  E(UB3LYP) =  -1136.12388005     A.U. after   23 cycles

 The electronic state is 2-A.
 Alpha  occ. eigenvalues --  -38.44551 -38.44417 -38.44299 -38.43698 -38.43341
 Alpha  occ. eigenvalues --  -38.43339 -38.43329  -2.20346  -2.20265  -2.20207
 Alpha  occ. eigenvalues --   -2.19542  -2.19282  -2.19237  -2.19163  -1.14037
 Alpha  occ. eigenvalues --   -1.13994  -1.13960  -1.13956  -1.13946  -1.13915
 Alpha  occ. eigenvalues --   -1.13885  -1.13825  -1.13796  -1.13217  -1.13202
 Alpha  occ. eigenvalues --   -1.13158  -1.13033  -1.12956  -1.12931  -1.12917
 Alpha  occ. eigenvalues --   -1.12897  -1.12852  -1.12812  -1.12800  -1.12777
 Alpha  occ. eigenvalues --   -0.18339  -0.13761  -0.11912  -0.11195
 Alpha virt. eigenvalues --   -0.05708  -0.05621  -0.04587  -0.03272  -0.02875
 Alpha virt. eigenvalues --   -0.02665  -0.01822  -0.00958  -0.00935  -0.00121
 Alpha virt. eigenvalues --    0.00232   0.00305   0.00378   0.00617   0.00688

  Beta  occ. eigenvalues --  -38.44525 -38.44363 -38.44257 -38.43658 -38.43334
  Beta  occ. eigenvalues --  -38.43318 -38.43308  -2.20296  -2.20165  -2.20134
  Beta  occ. eigenvalues --   -2.19469  -2.19245  -2.19182  -2.19173  -1.14000
  Beta  occ. eigenvalues --   -1.13963  -1.13921  -1.13903  -1.13868  -1.13849
  Beta  occ. eigenvalues --   -1.13819  -1.13777  -1.13724  -1.13165  -1.13156
  Beta  occ. eigenvalues --   -1.13094  -1.13017  -1.12909  -1.12900  -1.12886
  Beta  occ. eigenvalues --   -1.12850  -1.12816  -1.12802  -1.12801  -1.12776
  Beta  occ. eigenvalues --   -0.17575  -0.13433  -0.11104
  Beta virt. eigenvalues --   -0.07994  -0.05412  -0.05198  -0.04266  -0.02992
  Beta virt. eigenvalues --   -0.02295  -0.02093  -0.01704  -0.00804  -0.00526
  Beta virt. eigenvalues --    0.00014   0.00289   0.00385   0.00501   0.00749

 Mulliken charges and spin densities:
               1          2
     1  Na  -1.034000   0.183457
     2  Na  -0.319530   0.402915
     3  Na   0.122097   0.020486
     4  Na  -0.004213   0.041369
     5  Na   0.048494   0.168284
     6  Na   0.223469   0.101756
     7  Na   0.963684   0.081733
 Sum of Mulliken charges =  -0.00000   1.00000

 Dipole moment (field-independent basis, Debye):
    X=             -0.2754    Y=              0.4700    Z=              0.0451  Tot=              0.5466
 Quadrupole moment (field-independent basis, Debye-Ang):
   XX=            -56.3616   YY=            -75.5126   ZZ=            -63.3099
   XY=              3.7842   XZ=              0.4384   YZ=             -2.7712

 Normal termination of Gaussian 16 at Mon Dec  4 05:39:24 2023.
