 Gaussian 16, Revision B.01,
 Gaussian 16:  ES64L-G16RevB.01 20-Dec-2017

 -------------------------
 #P B3LYP/6-311+g(d) force
 -------------------------

 -----
 DPGEN
 -----
 Symbolic Z-matrix:
 Charge =  0 Multiplicity = 2

                         Standard orientation:
 ---------------------------------------------------------------------
 Center     Atomic      Atomic             Coordinates (Angstroms)
 Number     Number       Type             X           Y           Z
 ---------------------------------------------------------------------
      1         11           0       -3.505370    0.325031    0.508111
      2         11           0        3.247232   -1.776552    0.186915
      3         11           0       -1.959615   -2.463729   -0.227408
      4         11           0        0.189780   -0.097146    1.866654
      5         11           0        2.730481    2.046750    0.152252
      6         11           0        0.465378   -0.731210   -1.803394
      7         11           0       -1.167886    2.696857   -0.683130
 ---------------------------------------------------------------------

 SCF Done:  E(UB3LYP) =  -1136.12482666     A.U. after   22 cycles

 The electronic state is 2-A.
 Alpha  occ. eigenvalues --  -38.44895 -38.44750 -38.44598 -38.44381 -38.43719
 Alpha  occ. eigenvalues --  -38.43419 -38.43224  -2.20657  -2.20505  -2.20405
 Alpha  occ. eigenvalues --   -2.20201  -2.19547  -2.19284  -2.19009  -1.14334
 Alpha  occ. eigenvalues --   -1.14313  -1.14298  -1.14191  -1.14162  -1.14139
 Alpha  occ. eigenvalues --   -1.14075  -1.14063  -1.14051  -1.13891  -1.13843
 Alpha  occ. eigenvalues --   -1.13812  -1.13228  -1.13202  -1.13197  -1.12959
 Alpha  occ. eigenvalues --   -1.12911  -1.12903  -1.12682  -1.12672  -1.12648
 Alpha  occ. eigenvalues --   -0.17653  -0.13430  -0.11637  -0.10391
 Alpha virt. eigenvalues --   -0.06566  -0.06131  -0.04222  -0.03397  -0.02780
 Alpha virt. eigenvalues --   -0.02330  -0.02204  -0.01596  -0.00941  -0.00278
 Alpha virt. eigenvalues --   -0.00141   0.00249   0.00469   0.00610   0.00676

  Beta  occ. eigenvalues --  -38.44895 -38.44749 -38.44590 -38.44318 -38.43713
  Beta  occ. eigenvalues --  -38.43339 -38.43209  -2.20659  -2.20506  -2.20391
  Beta  occ. eigenvalues --   -2.20084  -2.19540  -2.19137  -2.18981  -1.14327
  Beta  occ. eigenvalues --   -1.14312  -1.14296  -1.14181  -1.14164  -1.14136
  Beta  occ. eigenvalues --   -1.14066  -1.14043  -1.14043  -1.13808  -1.13764
  Beta  occ. eigenvalues --   -1.13724  -1.13217  -1.13201  -1.13173  -1.12862
  Beta  occ. eigenvalues --   -1.12809  -1.12796  -1.12661  -1.12645  -1.12630
  Beta  occ. eigenvalues --   -0.16976  -0.13240  -0.11398
  Beta virt. eigenvalues --   -0.06708  -0.06450  -0.06051  -0.04023  -0.02793
  Beta virt. eigenvalues --   -0.02182  -0.02006  -0.01546  -0.01385  -0.00965
  Beta virt. eigenvalues --   -0.00258   0.00031   0.00291   0.00593   0.00675

 Mulliken charges and spin densities:
               1          2
     1  Na   0.057773   0.090665
     2  Na   0.001838  -0.071110
     3  Na   0.081132   0.008743
     4  Na   0.051038   0.424567
     5  Na  -0.064432  -0.001644
     6  Na   0.170433   0.506794
     7  Na  -0.297782   0.041985
 Sum of Mulliken charges =  -0.00000   1.00000

 Dipole moment (field-independent basis, Debye):
    X=              0.6924    Y=             -0.2652    Z=              0.3228  Tot=              0.8086
 Quadrupole moment (field-independent basis, Debye-Ang):
   XX=            -49.6569   YY=            -67.7819   ZZ=            -75.7890
   XY=             -0.1893   XZ=             -0.2196   YZ=             -0.9975

 Normal termination of Gaussian 16 at Thu Dec  7 05:33:58 2023.
