 Gaussian 16, Revision B.01,
 Gaussian 16:  ES64L-G16RevB.01 20-Dec-2017

 -------------------------
 #P B3LYP/6-311+g(d) force
 -------------------------

 -----
 DPGEN
 -----
 Symbolic Z-matrix:
 Charge =  0 Multiplicity = 2

                         Standard orientation:
 ---------------------------------------------------------------------
 Center     Atomic      Atomic             Coordinates (Angstroms)
 Number     Number       Type             X           Y           Z
 ---------------------------------------------------------------------
      1         11           0       -4.665557   -0.217036   -0.114769
      2         11           0        3.385868   -2.030280   -0.320028
      3         11           0        4.341906    1.567638    0.196655
      4         11           0       -2.370911    3.039370   -0.391057
      5         11           0        1.038060    3.494646    0.224061
      6         11           0        0.627068   -3.741176   -0.171214
      7         11           0       -2.356433   -2.113162    0.576352
 ---------------------------------------------------------------------

 SCF Done:  E(UB3LYP) =  -1136.10894903     A.U. after   22 cycles

 The electronic state is 2-A.
 Alpha  occ. eigenvalues --  -38.45270 -38.45005 -38.44972 -38.44647 -38.44389
 Alpha  occ. eigenvalues --  -38.44252 -38.43697  -2.21030  -2.20779  -2.20771
 Alpha  occ. eigenvalues --   -2.20394  -2.20210  -2.20030  -2.19518  -1.14716
 Alpha  occ. eigenvalues --   -1.14706  -1.14673  -1.14467  -1.14445  -1.14440
 Alpha  occ. eigenvalues --   -1.14437  -1.14430  -1.14386  -1.14083  -1.14075
 Alpha  occ. eigenvalues --   -1.14021  -1.13872  -1.13853  -1.13831  -1.13688
 Alpha  occ. eigenvalues --   -1.13670  -1.13656  -1.13170  -1.13165  -1.13164
 Alpha  occ. eigenvalues --   -0.15572  -0.13922  -0.13550  -0.11078
 Alpha virt. eigenvalues --   -0.07647  -0.04789  -0.04442  -0.03655  -0.03513
 Alpha virt. eigenvalues --   -0.02453  -0.02211  -0.01930  -0.01483  -0.00748
 Alpha virt. eigenvalues --   -0.00664  -0.00206   0.00104   0.00391   0.00499

  Beta  occ. eigenvalues --  -38.45266 -38.44956 -38.44951 -38.44640 -38.44348
  Beta  occ. eigenvalues --  -38.44184 -38.43658  -2.21029  -2.20755  -2.20675
  Beta  occ. eigenvalues --   -2.20387  -2.20137  -2.19903  -2.19445  -1.14720
  Beta  occ. eigenvalues --   -1.14708  -1.14636  -1.14442  -1.14430  -1.14404
  Beta  occ. eigenvalues --   -1.14378  -1.14367  -1.14306  -1.14082  -1.14073
  Beta  occ. eigenvalues --   -1.13983  -1.13815  -1.13804  -1.13784  -1.13601
  Beta  occ. eigenvalues --   -1.13584  -1.13571  -1.13123  -1.13117  -1.13115
  Beta  occ. eigenvalues --   -0.15056  -0.13174  -0.12751
  Beta virt. eigenvalues --   -0.07940  -0.07821  -0.04283  -0.04004  -0.03486
  Beta virt. eigenvalues --   -0.03129  -0.02221  -0.02037  -0.01734  -0.01316
  Beta virt. eigenvalues --   -0.00378  -0.00316  -0.00081   0.00321   0.00442

 Mulliken charges and spin densities:
               1          2
     1  Na   0.764754   0.168148
     2  Na  -0.157942   0.060801
     3  Na   0.273449   0.336814
     4  Na  -0.040139   0.149748
     5  Na  -0.095310  -0.008055
     6  Na   0.322923   0.163611
     7  Na  -1.067734   0.128933
 Sum of Mulliken charges =  -0.00000   1.00000

 Dipole moment (field-independent basis, Debye):
    X=             -0.6520    Y=              0.0407    Z=             -0.0989  Tot=              0.6607
 Quadrupole moment (field-independent basis, Debye-Ang):
   XX=            -57.6081   YY=            -67.8058   ZZ=            -73.7041
   XY=             -3.0076   XZ=              1.2212   YZ=             -0.0627

 Normal termination of Gaussian 16 at Sun Dec  3 18:20:41 2023.
