 Gaussian 16, Revision B.01,
 Gaussian 16:  ES64L-G16RevB.01 20-Dec-2017

 -------------------------
 #P B3LYP/6-311+g(d) force
 -------------------------

 -----
 DPGEN
 -----
 Symbolic Z-matrix:
 Charge =  0 Multiplicity = 2

                         Standard orientation:
 ---------------------------------------------------------------------
 Center     Atomic      Atomic             Coordinates (Angstroms)
 Number     Number       Type             X           Y           Z
 ---------------------------------------------------------------------
      1         11           0       -2.412020    1.470508   -0.151366
      2         11           0        0.208363    0.310891    1.937180
      3         11           0        1.181120   -2.476163    0.041430
      4         11           0       -0.156857   -0.333125   -1.664350
      5         11           0        0.490097    2.886709   -0.154575
      6         11           0        3.009205    0.117741   -0.191829
      7         11           0       -2.319908   -1.976560    0.183509
 ---------------------------------------------------------------------

 SCF Done:  E(UB3LYP) =  -1136.13890836     A.U. after   19 cycles

 The electronic state is 2-A.
 Alpha  occ. eigenvalues --  -38.43660 -38.43513 -38.43507 -38.43432 -38.43431
 Alpha  occ. eigenvalues --  -38.43349 -38.43118  -2.19528  -2.19413  -2.19365
 Alpha  occ. eigenvalues --   -2.19360  -2.19305  -2.19287  -2.19141  -1.13238
 Alpha  occ. eigenvalues --   -1.13192  -1.13174  -1.13137  -1.13115  -1.13087
 Alpha  occ. eigenvalues --   -1.13080  -1.13040  -1.13030  -1.13011  -1.13002
 Alpha  occ. eigenvalues --   -1.12999  -1.12963  -1.12954  -1.12941  -1.12924
 Alpha  occ. eigenvalues --   -1.12901  -1.12889  -1.12802  -1.12763  -1.12739
 Alpha  occ. eigenvalues --   -0.19166  -0.13092  -0.12751  -0.10814
 Alpha virt. eigenvalues --   -0.05205  -0.05058  -0.04882  -0.03162  -0.03020
 Alpha virt. eigenvalues --   -0.02447  -0.01293  -0.01099  -0.00180  -0.00115
 Alpha virt. eigenvalues --    0.00006   0.00374   0.00876   0.00935   0.00940

  Beta  occ. eigenvalues --  -38.43655 -38.43505 -38.43503 -38.43426 -38.43424
  Beta  occ. eigenvalues --  -38.43261 -38.43049  -2.19522  -2.19404  -2.19361
  Beta  occ. eigenvalues --   -2.19350  -2.19299  -2.19125  -2.19016  -1.13236
  Beta  occ. eigenvalues --   -1.13175  -1.13158  -1.13127  -1.13099  -1.13085
  Beta  occ. eigenvalues --   -1.13044  -1.13031  -1.13003  -1.12998  -1.12980
  Beta  occ. eigenvalues --   -1.12975  -1.12951  -1.12937  -1.12923  -1.12846
  Beta  occ. eigenvalues --   -1.12789  -1.12783  -1.12721  -1.12676  -1.12650
  Beta  occ. eigenvalues --   -0.18418  -0.12819  -0.12520
  Beta virt. eigenvalues --   -0.06873  -0.05196  -0.05056  -0.04832  -0.02320
  Beta virt. eigenvalues --   -0.02239  -0.01395  -0.01218  -0.01027  -0.00236
  Beta virt. eigenvalues --   -0.00167   0.00139   0.00391   0.00911   0.00920

 Mulliken charges and spin densities:
               1          2
     1  Na   0.200695  -0.053099
     2  Na  -0.553633   0.744887
     3  Na   0.299632  -0.013390
     4  Na  -0.380577   0.516844
     5  Na   0.158359  -0.081413
     6  Na   0.147521  -0.077120
     7  Na   0.128002  -0.036709
 Sum of Mulliken charges =  -0.00000   1.00000

 Dipole moment (field-independent basis, Debye):
    X=              0.0394    Y=              0.0490    Z=              0.1272  Tot=              0.1419
 Quadrupole moment (field-independent basis, Debye-Ang):
   XX=            -58.6550   YY=            -61.2175   ZZ=            -73.8544
   XY=              1.0244   XZ=             -0.9402   YZ=             -1.4977

 Normal termination of Gaussian 16 at Thu Dec  7 06:53:03 2023.
