 Gaussian 16, Revision B.01,
 Gaussian 16:  ES64L-G16RevB.01 20-Dec-2017

 -------------------------
 #P B3LYP/6-311+g(d) force
 -------------------------

 -----
 DPGEN
 -----
 Symbolic Z-matrix:
 Charge =  0 Multiplicity = 2

                         Standard orientation:
 ---------------------------------------------------------------------
 Center     Atomic      Atomic             Coordinates (Angstroms)
 Number     Number       Type             X           Y           Z
 ---------------------------------------------------------------------
      1         11           0       -0.674994    2.885438   -0.624273
      2         11           0       -3.505892   -0.280778   -0.014795
      3         11           0        2.331544    1.673086    0.145363
      4         11           0        2.723149   -1.621465   -0.108424
      5         11           0       -0.281320    0.367669    2.225682
      6         11           0       -0.555551   -2.833767   -0.094965
      7         11           0       -0.036936   -0.190184   -1.528588
 ---------------------------------------------------------------------

 SCF Done:  E(UB3LYP) =  -1136.13407264     A.U. after   20 cycles

 The electronic state is 2-A.
 Alpha  occ. eigenvalues --  -38.44559 -38.43907 -38.43706 -38.43589 -38.43569
 Alpha  occ. eigenvalues --  -38.43462 -38.43150  -2.20309  -2.19748  -2.19557
 Alpha  occ. eigenvalues --   -2.19434  -2.19416  -2.19346  -2.19147  -1.13987
 Alpha  occ. eigenvalues --   -1.13964  -1.13951  -1.13408  -1.13377  -1.13364
 Alpha  occ. eigenvalues --   -1.13312  -1.13218  -1.13163  -1.13132  -1.13126
 Alpha  occ. eigenvalues --   -1.13095  -1.13079  -1.13070  -1.13052  -1.13007
 Alpha  occ. eigenvalues --   -1.13005  -1.12958  -1.12825  -1.12789  -1.12749
 Alpha  occ. eigenvalues --   -0.18412  -0.12701  -0.12565  -0.10784
 Alpha virt. eigenvalues --   -0.05984  -0.04885  -0.04800  -0.03070  -0.03002
 Alpha virt. eigenvalues --   -0.02639  -0.01744  -0.01141  -0.00389  -0.00364
 Alpha virt. eigenvalues --   -0.00036   0.00328   0.00761   0.00853   0.00879

  Beta  occ. eigenvalues --  -38.44561 -38.43805 -38.43701 -38.43588 -38.43552
  Beta  occ. eigenvalues --  -38.43456 -38.43095  -2.20316  -2.19560  -2.19550
  Beta  occ. eigenvalues --   -2.19434  -2.19387  -2.19337  -2.19048  -1.13978
  Beta  occ. eigenvalues --   -1.13971  -1.13957  -1.13300  -1.13281  -1.13248
  Beta  occ. eigenvalues --   -1.13227  -1.13200  -1.13161  -1.13132  -1.13102
  Beta  occ. eigenvalues --   -1.13078  -1.13074  -1.13052  -1.13025  -1.13004
  Beta  occ. eigenvalues --   -1.12971  -1.12952  -1.12754  -1.12717  -1.12680
  Beta  occ. eigenvalues --   -0.17701  -0.12513  -0.12330
  Beta virt. eigenvalues --   -0.06831  -0.05951  -0.04843  -0.04738  -0.02332
  Beta virt. eigenvalues --   -0.02250  -0.01732  -0.01519  -0.01051  -0.00429
  Beta virt. eigenvalues --   -0.00391   0.00123   0.00360   0.00788   0.00869

 Mulliken charges and spin densities:
               1          2
     1  Na   0.214521   0.019473
     2  Na   0.017627  -0.069542
     3  Na   0.355803   0.136409
     4  Na   0.076611   0.007114
     5  Na  -0.621646   0.722029
     6  Na   0.210188  -0.004466
     7  Na  -0.253104   0.188983
 Sum of Mulliken charges =  -0.00000   1.00000

 Dipole moment (field-independent basis, Debye):
    X=             -0.4641    Y=             -0.0556    Z=              0.2005  Tot=              0.5086
 Quadrupole moment (field-independent basis, Debye-Ang):
   XX=            -55.9190   YY=            -62.8238   ZZ=            -74.5257
   XY=             -0.6459   XZ=              0.5315   YZ=             -1.1585

 Normal termination of Gaussian 16 at Fri Dec  8 04:11:47 2023.
