 Gaussian 16, Revision B.01,
 Gaussian 16:  ES64L-G16RevB.01 20-Dec-2017

 -------------------------
 #P B3LYP/6-311+g(d) force
 -------------------------

 -----
 DPGEN
 -----
 Symbolic Z-matrix:
 Charge =  0 Multiplicity = 2

                         Standard orientation:
 ---------------------------------------------------------------------
 Center     Atomic      Atomic             Coordinates (Angstroms)
 Number     Number       Type             X           Y           Z
 ---------------------------------------------------------------------
      1         11           0        1.385242   -2.503758   -1.558400
      2         11           0        5.137958   -0.439229    1.874440
      3         11           0        3.019002    0.249431   -0.632652
      4         11           0        0.616875    3.245711   -1.052317
      5         11           0       -0.128591   -0.116783   -0.091924
      6         11           0       -3.940587    0.141179    1.847899
      7         11           0       -6.089899   -0.576550   -0.387047
 ---------------------------------------------------------------------

 SCF Done:  E(UB3LYP) =  -1136.10275850     A.U. after   23 cycles

 The electronic state is 2-A.
 Alpha  occ. eigenvalues --  -38.44947 -38.44818 -38.44504 -38.44235 -38.44037
 Alpha  occ. eigenvalues --  -38.43723 -38.43442  -2.20804  -2.20582  -2.20282
 Alpha  occ. eigenvalues --   -2.20103  -2.19829  -2.19613  -2.19227  -1.14469
 Alpha  occ. eigenvalues --   -1.14443  -1.14408  -1.14251  -1.14245  -1.14242
 Alpha  occ. eigenvalues --   -1.13946  -1.13933  -1.13910  -1.13796  -1.13783
 Alpha  occ. eigenvalues --   -1.13727  -1.13484  -1.13470  -1.13452  -1.13320
 Alpha  occ. eigenvalues --   -1.13302  -1.13203  -1.12888  -1.12886  -1.12845
 Alpha  occ. eigenvalues --   -0.16695  -0.13451  -0.11860  -0.11414
 Alpha virt. eigenvalues --   -0.06776  -0.05019  -0.04939  -0.03308  -0.02929
 Alpha virt. eigenvalues --   -0.02438  -0.02166  -0.01568  -0.01188  -0.00925
 Alpha virt. eigenvalues --   -0.00653  -0.00492   0.00121   0.00418   0.00483

  Beta  occ. eigenvalues --  -38.44857 -38.44826 -38.44501 -38.44228 -38.43960
  Beta  occ. eigenvalues --  -38.43714 -38.43402  -2.20638  -2.20597  -2.20275
  Beta  occ. eigenvalues --   -2.20096  -2.19685  -2.19601  -2.19152  -1.14348
  Beta  occ. eigenvalues --   -1.14333  -1.14301  -1.14260  -1.14255  -1.14252
  Beta  occ. eigenvalues --   -1.13941  -1.13930  -1.13910  -1.13798  -1.13775
  Beta  occ. eigenvalues --   -1.13688  -1.13384  -1.13373  -1.13361  -1.13318
  Beta  occ. eigenvalues --   -1.13256  -1.13192  -1.12837  -1.12833  -1.12797
  Beta  occ. eigenvalues --   -0.15985  -0.13430  -0.10732
  Beta virt. eigenvalues --   -0.08096  -0.06725  -0.04813  -0.04397  -0.03055
  Beta virt. eigenvalues --   -0.02739  -0.02248  -0.01678  -0.01368  -0.00946
  Beta virt. eigenvalues --   -0.00704  -0.00393  -0.00273   0.00181   0.00481

 Mulliken charges and spin densities:
               1          2
     1  Na   0.909712   0.261082
     2  Na   0.373108   0.353636
     3  Na   0.087172   0.227019
     4  Na   0.195778   0.231593
     5  Na  -1.523660  -0.047351
     6  Na  -0.222381   0.010854
     7  Na   0.180272  -0.036832
 Sum of Mulliken charges =  -0.00000   1.00000

 Dipole moment (field-independent basis, Debye):
    X=             -1.4474    Y=             -0.7693    Z=             -0.4799  Tot=              1.7079
 Quadrupole moment (field-independent basis, Debye-Ang):
   XX=            -66.3216   YY=            -68.3929   ZZ=            -62.9157
   XY=              1.8412   XZ=              4.8906   YZ=              2.7930

 Normal termination of Gaussian 16 at Tue Nov 28 19:10:04 2023.
