 Gaussian 16, Revision B.01,
 Gaussian 16:  ES64L-G16RevB.01 20-Dec-2017

 -------------------------
 #P B3LYP/6-311+g(d) force
 -------------------------

 -----
 DPGEN
 -----
 Symbolic Z-matrix:
 Charge =  0 Multiplicity = 2

                         Standard orientation:
 ---------------------------------------------------------------------
 Center     Atomic      Atomic             Coordinates (Angstroms)
 Number     Number       Type             X           Y           Z
 ---------------------------------------------------------------------
      1         11           0       -1.525069    1.615124    0.929926
      2         11           0        1.818941    2.221246   -0.866904
      3         11           0        2.599046   -1.657629   -0.504769
      4         11           0       -0.030926   -0.527675   -1.718031
      5         11           0        1.543345    0.459138    1.720113
      6         11           0       -0.767004   -1.975196    1.114033
      7         11           0       -3.638333   -0.135008   -0.674368
 ---------------------------------------------------------------------

 SCF Done:  E(UB3LYP) =  -1136.13161299     A.U. after   21 cycles

 The electronic state is 2-A.
 Alpha  occ. eigenvalues --  -38.44494 -38.43753 -38.43707 -38.43529 -38.43442
 Alpha  occ. eigenvalues --  -38.43242 -38.43170  -2.20310  -2.19666  -2.19630
 Alpha  occ. eigenvalues --   -2.19415  -2.19409  -2.19130  -2.19035  -1.13991
 Alpha  occ. eigenvalues --   -1.13968  -1.13935  -1.13421  -1.13353  -1.13320
 Alpha  occ. eigenvalues --   -1.13303  -1.13237  -1.13218  -1.13141  -1.13085
 Alpha  occ. eigenvalues --   -1.13080  -1.13066  -1.13022  -1.12990  -1.12823
 Alpha  occ. eigenvalues --   -1.12801  -1.12741  -1.12708  -1.12691  -1.12648
 Alpha  occ. eigenvalues --   -0.18956  -0.13528  -0.11584  -0.11511
 Alpha virt. eigenvalues --   -0.06121  -0.04795  -0.04186  -0.03251  -0.02960
 Alpha virt. eigenvalues --   -0.02767  -0.01871  -0.00798  -0.00597   0.00178
 Alpha virt. eigenvalues --    0.00263   0.00361   0.00504   0.00812   0.00886

  Beta  occ. eigenvalues --  -38.44487 -38.43745 -38.43646 -38.43494 -38.43385
  Beta  occ. eigenvalues --  -38.43226 -38.43152  -2.20297  -2.19619  -2.19555
  Beta  occ. eigenvalues --   -2.19349  -2.19314  -2.19104  -2.19003  -1.13985
  Beta  occ. eigenvalues --   -1.13952  -1.13928  -1.13378  -1.13308  -1.13273
  Beta  occ. eigenvalues --   -1.13232  -1.13212  -1.13164  -1.13081  -1.13028
  Beta  occ. eigenvalues --   -1.13012  -1.12992  -1.12966  -1.12939  -1.12800
  Beta  occ. eigenvalues --   -1.12759  -1.12729  -1.12675  -1.12670  -1.12619
  Beta  occ. eigenvalues --   -0.18154  -0.13331  -0.11329
  Beta virt. eigenvalues --   -0.07524  -0.05964  -0.04725  -0.03739  -0.02997
  Beta virt. eigenvalues --   -0.02303  -0.01771  -0.01744  -0.00760  -0.00263
  Beta virt. eigenvalues --    0.00212   0.00283   0.00378   0.00660   0.00861

 Mulliken charges and spin densities:
               1          2
     1  Na  -0.345998   0.064491
     2  Na  -0.148138  -0.018553
     3  Na   0.272706  -0.062150
     4  Na  -0.234352   0.601366
     5  Na   0.361332   0.369380
     6  Na  -0.243259   0.105812
     7  Na   0.337710  -0.060347
 Sum of Mulliken charges =  -0.00000   1.00000

 Dipole moment (field-independent basis, Debye):
    X=             -0.4713    Y=             -0.3046    Z=             -0.2306  Tot=              0.6067
 Quadrupole moment (field-independent basis, Debye-Ang):
   XX=            -52.6770   YY=            -72.9240   ZZ=            -67.9508
   XY=             -0.0150   XZ=              0.6241   YZ=             -1.9057

 Normal termination of Gaussian 16 at Wed Nov 29 17:28:36 2023.
