 Gaussian 16, Revision B.01,
 Gaussian 16:  ES64L-G16RevB.01 20-Dec-2017

 -------------------------
 #P B3LYP/6-311+g(d) force
 -------------------------

 -----
 DPGEN
 -----
 Symbolic Z-matrix:
 Charge =  0 Multiplicity = 2

                         Standard orientation:
 ---------------------------------------------------------------------
 Center     Atomic      Atomic             Coordinates (Angstroms)
 Number     Number       Type             X           Y           Z
 ---------------------------------------------------------------------
      1         11           0        2.286653   -2.152541    0.662197
      2         11           0        1.978130    1.429088    0.642890
      3         11           0       -0.757648    3.035807   -0.232691
      4         11           0        4.711177   -0.271759   -0.762686
      5         11           0       -3.397952   -2.461307   -0.338989
      6         11           0       -3.920334    0.764552    0.163758
      7         11           0       -0.900027   -0.343840   -0.134479
 ---------------------------------------------------------------------

 SCF Done:  E(UB3LYP) =  -1136.12575510     A.U. after   21 cycles

 The electronic state is 2-A.
 Alpha  occ. eigenvalues --  -38.44489 -38.44275 -38.44254 -38.44057 -38.43583
 Alpha  occ. eigenvalues --  -38.43048 -38.42952  -2.20339  -2.20091  -2.20066
 Alpha  occ. eigenvalues --   -2.19924  -2.19422  -2.19018  -2.18791  -1.14019
 Alpha  occ. eigenvalues --   -1.14001  -1.13953  -1.13766  -1.13752  -1.13751
 Alpha  occ. eigenvalues --   -1.13731  -1.13720  -1.13700  -1.13626  -1.13616
 Alpha  occ. eigenvalues --   -1.13529  -1.13074  -1.13064  -1.13031  -1.12719
 Alpha  occ. eigenvalues --   -1.12683  -1.12651  -1.12457  -1.12446  -1.12438
 Alpha  occ. eigenvalues --   -0.17281  -0.14540  -0.12031  -0.10262
 Alpha virt. eigenvalues --   -0.06536  -0.05182  -0.04639  -0.03689  -0.02724
 Alpha virt. eigenvalues --   -0.02254  -0.01605  -0.01337  -0.01146  -0.00739
 Alpha virt. eigenvalues --   -0.00126   0.00182   0.00447   0.00505   0.00678

  Beta  occ. eigenvalues --  -38.44447 -38.44279 -38.44237 -38.44049 -38.43503
  Beta  occ. eigenvalues --  -38.43005 -38.42953  -2.20259  -2.20100  -2.20040
  Beta  occ. eigenvalues --   -2.19913  -2.19272  -2.18945  -2.18793  -1.13968
  Beta  occ. eigenvalues --   -1.13946  -1.13899  -1.13770  -1.13757  -1.13738
  Beta  occ. eigenvalues --   -1.13713  -1.13712  -1.13648  -1.13619  -1.13583
  Beta  occ. eigenvalues --   -1.13522  -1.12969  -1.12960  -1.12938  -1.12675
  Beta  occ. eigenvalues --   -1.12605  -1.12596  -1.12459  -1.12442  -1.12437
  Beta  occ. eigenvalues --   -0.16707  -0.14080  -0.11858
  Beta virt. eigenvalues --   -0.06732  -0.06221  -0.04784  -0.04527  -0.03218
  Beta virt. eigenvalues --   -0.02509  -0.01673  -0.01532  -0.01300  -0.00903
  Beta virt. eigenvalues --   -0.00367   0.00233   0.00326   0.00551   0.00670

 Mulliken charges and spin densities:
               1          2
     1  Na  -0.072755   0.018254
     2  Na   0.597830   0.215948
     3  Na   0.596958  -0.060365
     4  Na   0.555284   0.418382
     5  Na   0.613873   0.032636
     6  Na   0.790846   0.261614
     7  Na  -3.082036   0.113531
 Sum of Mulliken charges =  -0.00000   1.00000

 Dipole moment (field-independent basis, Debye):
    X=             -1.0590    Y=             -0.5355    Z=              0.1206  Tot=              1.1929
 Quadrupole moment (field-independent basis, Debye-Ang):
   XX=            -65.1990   YY=            -61.1688   ZZ=            -70.3576
   XY=             -0.2106   XZ=              0.3136   YZ=              0.2716

 Normal termination of Gaussian 16 at Wed Nov 29 16:52:42 2023.
