 Gaussian 16, Revision B.01,
 Gaussian 16:  ES64L-G16RevB.01 20-Dec-2017

 -------------------------
 #P B3LYP/6-311+g(d) force
 -------------------------

 -----
 DPGEN
 -----
 Symbolic Z-matrix:
 Charge =  0 Multiplicity = 2

                         Standard orientation:
 ---------------------------------------------------------------------
 Center     Atomic      Atomic             Coordinates (Angstroms)
 Number     Number       Type             X           Y           Z
 ---------------------------------------------------------------------
      1         11           0       -1.630566   -1.556661   -0.458847
      2         11           0        5.304530   -0.365535   -0.084956
      3         11           0       -4.507508   -1.077404   -0.425869
      4         11           0       -2.808195    1.973058   -0.414272
      5         11           0        2.569366    1.420626   -1.380548
      6         11           0       -0.484125    1.446439    2.026972
      7         11           0        1.556499   -1.840523    0.737520
 ---------------------------------------------------------------------

 SCF Done:  E(UB3LYP) =  -1136.10901104     A.U. after   29 cycles

 The electronic state is 2-A.
 Alpha  occ. eigenvalues --  -38.46012 -38.44967 -38.44674 -38.44423 -38.43767
 Alpha  occ. eigenvalues --  -38.42942 -38.42682  -2.21757  -2.20780  -2.20500
 Alpha  occ. eigenvalues --   -2.20183  -2.19676  -2.18726  -2.18550  -1.15446
 Alpha  occ. eigenvalues --   -1.15403  -1.15363  -1.14464  -1.14408  -1.14388
 Alpha  occ. eigenvalues --   -1.14186  -1.14155  -1.14096  -1.13856  -1.13850
 Alpha  occ. eigenvalues --   -1.13812  -1.13395  -1.13337  -1.13300  -1.12406
 Alpha  occ. eigenvalues --   -1.12390  -1.12370  -1.12242  -1.12186  -1.12176
 Alpha  occ. eigenvalues --   -0.16892  -0.14138  -0.11737  -0.10740
 Alpha virt. eigenvalues --   -0.06841  -0.05565  -0.04492  -0.03449  -0.03005
 Alpha virt. eigenvalues --   -0.02697  -0.01791  -0.01701  -0.01274  -0.00639
 Alpha virt. eigenvalues --   -0.00412   0.00032   0.00311   0.00481   0.00531

  Beta  occ. eigenvalues --  -38.45983 -38.44883 -38.44625 -38.44415 -38.43723
  Beta  occ. eigenvalues --  -38.42944 -38.42680  -2.21703  -2.20628  -2.20408
  Beta  occ. eigenvalues --   -2.20171  -2.19599  -2.18732  -2.18545  -1.15407
  Beta  occ. eigenvalues --   -1.15368  -1.15323  -1.14356  -1.14311  -1.14267
  Beta  occ. eigenvalues --   -1.14123  -1.14098  -1.14025  -1.13848  -1.13838
  Beta  occ. eigenvalues --   -1.13803  -1.13339  -1.13255  -1.13253  -1.12413
  Beta  occ. eigenvalues --   -1.12384  -1.12370  -1.12238  -1.12183  -1.12167
  Beta  occ. eigenvalues --   -0.16123  -0.13808  -0.10572
  Beta virt. eigenvalues --   -0.07915  -0.06636  -0.05138  -0.04212  -0.03060
  Beta virt. eigenvalues --   -0.02687  -0.02204  -0.01612  -0.01463  -0.01043
  Beta virt. eigenvalues --   -0.00348  -0.00287   0.00125   0.00369   0.00562

 Mulliken charges and spin densities:
               1          2
     1  Na  -0.719535   0.236027
     2  Na   0.456895   0.035003
     3  Na   0.751789   0.087049
     4  Na   0.066722   0.316278
     5  Na  -0.227605   0.149004
     6  Na  -0.130624   0.038182
     7  Na  -0.197643   0.138457
 Sum of Mulliken charges =  -0.00000   1.00000

 Dipole moment (field-independent basis, Debye):
    X=              1.4364    Y=              0.6901    Z=             -0.1986  Tot=              1.6059
 Quadrupole moment (field-independent basis, Debye-Ang):
   XX=            -64.4853   YY=            -70.1000   ZZ=            -68.0518
   XY=             -6.8261   XZ=              1.5154   YZ=             -7.7841

 Normal termination of Gaussian 16 at Mon Dec  4 03:06:22 2023.
