 Gaussian 16, Revision B.01,
 Gaussian 16:  ES64L-G16RevB.01 20-Dec-2017

 -------------------------
 #P B3LYP/6-311+g(d) force
 -------------------------

 -----
 DPGEN
 -----
 Symbolic Z-matrix:
 Charge =  0 Multiplicity = 2

                         Standard orientation:
 ---------------------------------------------------------------------
 Center     Atomic      Atomic             Coordinates (Angstroms)
 Number     Number       Type             X           Y           Z
 ---------------------------------------------------------------------
      1         11           0       -0.069300    0.123214   -1.609596
      2         11           0       -3.029482    0.493996   -0.139591
      3         11           0        0.321495   -0.322592    2.044490
      4         11           0        2.675553    1.483190   -0.516626
      5         11           0        2.336446   -2.217439    0.016348
      6         11           0       -1.729756   -2.484789   -0.208883
      7         11           0       -0.504956    2.924421    0.413858
 ---------------------------------------------------------------------

 SCF Done:  E(UB3LYP) =  -1136.13862857     A.U. after   19 cycles

 The electronic state is 2-A.
 Alpha  occ. eigenvalues --  -38.43900 -38.43892 -38.43724 -38.43660 -38.43599
 Alpha  occ. eigenvalues --  -38.43325 -38.43192  -2.19727  -2.19702  -2.19585
 Alpha  occ. eigenvalues --   -2.19504  -2.19475  -2.19167  -2.19163  -1.13428
 Alpha  occ. eigenvalues --   -1.13388  -1.13378  -1.13364  -1.13353  -1.13332
 Alpha  occ. eigenvalues --   -1.13291  -1.13259  -1.13232  -1.13182  -1.13163
 Alpha  occ. eigenvalues --   -1.13138  -1.13117  -1.13101  -1.13091  -1.12863
 Alpha  occ. eigenvalues --   -1.12831  -1.12828  -1.12804  -1.12798  -1.12778
 Alpha  occ. eigenvalues --   -0.18489  -0.13002  -0.12418  -0.10717
 Alpha virt. eigenvalues --   -0.05518  -0.05272  -0.04782  -0.03153  -0.02978
 Alpha virt. eigenvalues --   -0.02508  -0.01451  -0.01261  -0.00436  -0.00374
 Alpha virt. eigenvalues --   -0.00003   0.00354   0.00803   0.00842   0.00890

  Beta  occ. eigenvalues --  -38.43898 -38.43876 -38.43721 -38.43655 -38.43508
  Beta  occ. eigenvalues --  -38.43316 -38.43133  -2.19704  -2.19699  -2.19582
  Beta  occ. eigenvalues --   -2.19498  -2.19307  -2.19149  -2.19060  -1.13401
  Beta  occ. eigenvalues --   -1.13374  -1.13358  -1.13350  -1.13347  -1.13324
  Beta  occ. eigenvalues --   -1.13288  -1.13256  -1.13215  -1.13169  -1.13148
  Beta  occ. eigenvalues --   -1.13111  -1.13029  -1.12988  -1.12967  -1.12834
  Beta  occ. eigenvalues --   -1.12803  -1.12790  -1.12768  -1.12717  -1.12712
  Beta  occ. eigenvalues --   -0.17784  -0.12735  -0.12193
  Beta virt. eigenvalues --   -0.06846  -0.05506  -0.05200  -0.04725  -0.02406
  Beta virt. eigenvalues --   -0.02224  -0.01499  -0.01349  -0.01166  -0.00475
  Beta virt. eigenvalues --   -0.00402   0.00131   0.00387   0.00833   0.00875

 Mulliken charges and spin densities:
               1          2
     1  Na  -0.120419   0.368217
     2  Na   0.140206   0.000340
     3  Na  -0.431264   0.750443
     4  Na   0.142300   0.007914
     5  Na   0.080377  -0.102185
     6  Na   0.122902  -0.083123
     7  Na   0.065899   0.058394
 Sum of Mulliken charges =  -0.00000   1.00000

 Dipole moment (field-independent basis, Debye):
    X=              0.1613    Y=             -0.1651    Z=              0.0929  Tot=              0.2488
 Quadrupole moment (field-independent basis, Debye-Ang):
   XX=            -57.7318   YY=            -61.1334   ZZ=            -74.4883
   XY=             -0.3962   XZ=             -1.0105   YZ=              1.0539

 Normal termination of Gaussian 16 at Fri Dec  8 05:19:11 2023.
