 Gaussian 16, Revision B.01,
 Gaussian 16:  ES64L-G16RevB.01 20-Dec-2017

 -------------------------
 #P B3LYP/6-311+g(d) force
 -------------------------

 -----
 DPGEN
 -----
 Symbolic Z-matrix:
 Charge =  0 Multiplicity = 2

                         Standard orientation:
 ---------------------------------------------------------------------
 Center     Atomic      Atomic             Coordinates (Angstroms)
 Number     Number       Type             X           Y           Z
 ---------------------------------------------------------------------
      1         11           0       -2.597756   -2.863417    0.370490
      2         11           0        1.217522   -3.007340    0.287085
      3         11           0        3.462254   -1.611595   -1.150835
      4         11           0        3.260172    1.547617    1.368226
      5         11           0        1.054029    2.947256   -0.649717
      6         11           0       -2.305266    3.288617   -0.055962
      7         11           0       -4.090955   -0.301138   -0.169289
 ---------------------------------------------------------------------

 SCF Done:  E(UB3LYP) =  -1136.10810947     A.U. after   19 cycles

 The electronic state is 2-A.
 Alpha  occ. eigenvalues --  -38.44851 -38.44827 -38.44584 -38.44436 -38.44289
 Alpha  occ. eigenvalues --  -38.44005 -38.43883  -2.20662  -2.20618  -2.20389
 Alpha  occ. eigenvalues --   -2.20246  -2.20074  -2.19825  -2.19677  -1.14387
 Alpha  occ. eigenvalues --   -1.14326  -1.14315  -1.14282  -1.14282  -1.14255
 Alpha  occ. eigenvalues --   -1.14044  -1.14035  -1.14005  -1.13907  -1.13894
 Alpha  occ. eigenvalues --   -1.13875  -1.13757  -1.13750  -1.13720  -1.13489
 Alpha  occ. eigenvalues --   -1.13471  -1.13458  -1.13326  -1.13314  -1.13304
 Alpha  occ. eigenvalues --   -0.15713  -0.13839  -0.13424  -0.10724
 Alpha virt. eigenvalues --   -0.07156  -0.05485  -0.03944  -0.03380  -0.03041
 Alpha virt. eigenvalues --   -0.02662  -0.02505  -0.01889  -0.01214  -0.00941
 Alpha virt. eigenvalues --   -0.00324  -0.00060   0.00254   0.00418   0.00629

  Beta  occ. eigenvalues --  -38.44828 -38.44819 -38.44504 -38.44414 -38.44291
  Beta  occ. eigenvalues --  -38.43975 -38.43809  -2.20623  -2.20609  -2.20240
  Beta  occ. eigenvalues --   -2.20208  -2.20085  -2.19772  -2.19538  -1.14349
  Beta  occ. eigenvalues --   -1.14308  -1.14292  -1.14281  -1.14247  -1.14235
  Beta  occ. eigenvalues --   -1.13946  -1.13931  -1.13905  -1.13880  -1.13871
  Beta  occ. eigenvalues --   -1.13838  -1.13769  -1.13763  -1.13677  -1.13452
  Beta  occ. eigenvalues --   -1.13436  -1.13420  -1.13231  -1.13224  -1.13212
  Beta  occ. eigenvalues --   -0.15224  -0.13156  -0.12641
  Beta virt. eigenvalues --   -0.07547  -0.07293  -0.05096  -0.03640  -0.03060
  Beta virt. eigenvalues --   -0.02700  -0.02398  -0.02180  -0.01677  -0.01081
  Beta virt. eigenvalues --   -0.00649  -0.00128   0.00200   0.00330   0.00444

 Mulliken charges and spin densities:
               1          2
     1  Na   0.423772   0.111467
     2  Na  -0.559217   0.099910
     3  Na   0.585087   0.050113
     4  Na   0.213914   0.374617
     5  Na  -0.466533  -0.044147
     6  Na   0.129702   0.375649
     7  Na  -0.326725   0.032390
 Sum of Mulliken charges =  -0.00000   1.00000

 Dipole moment (field-independent basis, Debye):
    X=              0.7602    Y=             -0.4345    Z=              0.0226  Tot=              0.8759
 Quadrupole moment (field-independent basis, Debye-Ang):
   XX=            -60.9385   YY=            -73.2903   ZZ=            -67.9592
   XY=             -1.4978   XZ=             -1.2405   YZ=             -1.7866

 Normal termination of Gaussian 16 at Sun Dec  3 16:44:20 2023.
