 Gaussian 16, Revision B.01,
 Gaussian 16:  ES64L-G16RevB.01 20-Dec-2017

 -------------------------
 #P B3LYP/6-311+g(d) force
 -------------------------

 -----
 DPGEN
 -----
 Symbolic Z-matrix:
 Charge =  0 Multiplicity = 2

                         Standard orientation:
 ---------------------------------------------------------------------
 Center     Atomic      Atomic             Coordinates (Angstroms)
 Number     Number       Type             X           Y           Z
 ---------------------------------------------------------------------
      1         11           0        0.357189   -1.461575    0.849350
      2         11           0        2.191470   -1.147688   -1.281689
      3         11           0        2.844125    0.201540    1.528556
      4         11           0        1.902803    1.683819   -0.993634
      5         11           0       -0.602352    1.249426    0.306746
      6         11           0       -2.106007   -0.966500   -0.662668
      7         11           0       -4.587228    0.440977    0.253340
 ---------------------------------------------------------------------

 SCF Done:  E(UB3LYP) =  -1136.08122960     A.U. after   30 cycles

 The electronic state is 2-A.
 Alpha  occ. eigenvalues --  -38.46108 -38.45463 -38.44965 -38.44315 -38.44041
 Alpha  occ. eigenvalues --  -38.42987 -38.42607  -2.21901  -2.21479  -2.20990
 Alpha  occ. eigenvalues --   -2.20303  -2.20058  -2.19024  -2.18731  -1.15609
 Alpha  occ. eigenvalues --   -1.15548  -1.15521  -1.15239  -1.15169  -1.15115
 Alpha  occ. eigenvalues --   -1.14719  -1.14671  -1.14606  -1.13982  -1.13958
 Alpha  occ. eigenvalues --   -1.13902  -1.13824  -1.13687  -1.13646  -1.12716
 Alpha  occ. eigenvalues --   -1.12691  -1.12609  -1.12429  -1.12387  -1.12336
 Alpha  occ. eigenvalues --   -0.20002  -0.15009  -0.11232  -0.10890
 Alpha virt. eigenvalues --   -0.08318  -0.04696  -0.03939  -0.03707  -0.02920
 Alpha virt. eigenvalues --   -0.01975  -0.01954  -0.01473  -0.00879  -0.00210
 Alpha virt. eigenvalues --    0.00029   0.00299   0.00350   0.00675   0.00803

  Beta  occ. eigenvalues --  -38.46106 -38.45449 -38.44921 -38.44238 -38.44032
  Beta  occ. eigenvalues --  -38.42953 -38.42582  -2.21898  -2.21458  -2.20914
  Beta  occ. eigenvalues --   -2.20163  -2.20044  -2.18967  -2.18692  -1.15608
  Beta  occ. eigenvalues --   -1.15546  -1.15519  -1.15232  -1.15125  -1.15091
  Beta  occ. eigenvalues --   -1.14676  -1.14601  -1.14528  -1.13895  -1.13847
  Beta  occ. eigenvalues --   -1.13816  -1.13800  -1.13678  -1.13621  -1.12682
  Beta  occ. eigenvalues --   -1.12655  -1.12530  -1.12408  -1.12370  -1.12245
  Beta  occ. eigenvalues --   -0.19219  -0.14837  -0.10768
  Beta virt. eigenvalues --   -0.08106  -0.06942  -0.04570  -0.03651  -0.03476
  Beta virt. eigenvalues --   -0.02791  -0.01375  -0.01200  -0.00989  -0.00574
  Beta virt. eigenvalues --   -0.00103   0.00048   0.00306   0.00489   0.00746

 Mulliken charges and spin densities:
               1          2
     1  Na   0.400674  -0.058540
     2  Na  -0.371925   0.414785
     3  Na  -0.033645   0.162567
     4  Na   0.875995   0.025178
     5  Na  -1.346687   0.442073
     6  Na   0.190522  -0.015456
     7  Na   0.285067   0.029392
 Sum of Mulliken charges =  -0.00000   1.00000

 Dipole moment (field-independent basis, Debye):
    X=             -1.5396    Y=             -0.4037    Z=             -0.0836  Tot=              1.5938
 Quadrupole moment (field-independent basis, Debye-Ang):
   XX=            -41.9010   YY=            -79.2948   ZZ=            -70.6701
   XY=             -3.3949   XZ=             -1.7501   YZ=              2.9416

 Normal termination of Gaussian 16 at Fri Dec  8 18:54:39 2023.
