 Gaussian 16, Revision B.01,
 Gaussian 16:  ES64L-G16RevB.01 20-Dec-2017

 -------------------------
 #P B3LYP/6-311+g(d) force
 -------------------------

 -----
 DPGEN
 -----
 Symbolic Z-matrix:
 Charge =  0 Multiplicity = 2

                         Standard orientation:
 ---------------------------------------------------------------------
 Center     Atomic      Atomic             Coordinates (Angstroms)
 Number     Number       Type             X           Y           Z
 ---------------------------------------------------------------------
      1         11           0       -3.417337   -0.230263   -0.249706
      2         11           0        0.369715   -0.332241    2.261732
      3         11           0       -0.510582   -2.941473    0.318392
      4         11           0       -0.263099   -0.089435   -1.396085
      5         11           0        2.853862   -1.242599   -1.072455
      6         11           0        2.315485    2.149817    0.369197
      7         11           0       -1.348044    2.686195   -0.231074
 ---------------------------------------------------------------------

 SCF Done:  E(UB3LYP) =  -1136.13402785     A.U. after   19 cycles

 The electronic state is 2-A.
 Alpha  occ. eigenvalues --  -38.44234 -38.44067 -38.44055 -38.43689 -38.43526
 Alpha  occ. eigenvalues --  -38.43458 -38.43157  -2.20031  -2.19905  -2.19880
 Alpha  occ. eigenvalues --   -2.19486  -2.19353  -2.19289  -2.19143  -1.13715
 Alpha  occ. eigenvalues --   -1.13689  -1.13661  -1.13566  -1.13562  -1.13536
 Alpha  occ. eigenvalues --   -1.13524  -1.13514  -1.13503  -1.13162  -1.13143
 Alpha  occ. eigenvalues --   -1.13131  -1.13081  -1.13020  -1.12981  -1.12965
 Alpha  occ. eigenvalues --   -1.12961  -1.12911  -1.12829  -1.12778  -1.12765
 Alpha  occ. eigenvalues --   -0.18084  -0.12811  -0.12265  -0.10991
 Alpha virt. eigenvalues --   -0.05706  -0.05148  -0.04739  -0.03124  -0.02999
 Alpha virt. eigenvalues --   -0.02711  -0.01715  -0.01153  -0.00518  -0.00366
 Alpha virt. eigenvalues --   -0.00045   0.00306   0.00746   0.00829   0.00859

  Beta  occ. eigenvalues --  -38.44233 -38.44024 -38.43954 -38.43684 -38.43526
  Beta  occ. eigenvalues --  -38.43452 -38.43118  -2.20031  -2.19802  -2.19719
  Beta  occ. eigenvalues --   -2.19480  -2.19355  -2.19280  -2.19073  -1.13708
  Beta  occ. eigenvalues --   -1.13690  -1.13660  -1.13501  -1.13463  -1.13452
  Beta  occ. eigenvalues --   -1.13438  -1.13411  -1.13385  -1.13146  -1.13141
  Beta  occ. eigenvalues --   -1.13121  -1.13076  -1.13017  -1.12977  -1.12960
  Beta  occ. eigenvalues --   -1.12933  -1.12906  -1.12774  -1.12737  -1.12709
  Beta  occ. eigenvalues --   -0.17428  -0.12517  -0.12047
  Beta virt. eigenvalues --   -0.07110  -0.05650  -0.05003  -0.04636  -0.02526
  Beta virt. eigenvalues --   -0.02277  -0.01774  -0.01566  -0.01044  -0.00488
  Beta virt. eigenvalues --   -0.00358   0.00099   0.00362   0.00831   0.00846

 Mulliken charges and spin densities:
               1          2
     1  Na   0.091543  -0.006394
     2  Na  -0.337136   0.604108
     3  Na   0.153630   0.067078
     4  Na  -0.091916   0.104176
     5  Na   0.119197   0.152986
     6  Na   0.040649   0.071766
     7  Na   0.024034   0.006279
 Sum of Mulliken charges =  -0.00000   1.00000

 Dipole moment (field-independent basis, Debye):
    X=             -0.1931    Y=             -0.1103    Z=              0.2568  Tot=              0.3397
 Quadrupole moment (field-independent basis, Debye-Ang):
   XX=            -56.4850   YY=            -63.5489   ZZ=            -73.3040
   XY=              0.8427   XZ=             -1.3439   YZ=              1.0687

 Normal termination of Gaussian 16 at Thu Dec  7 03:15:12 2023.
