 Gaussian 16, Revision B.01,
 Gaussian 16:  ES64L-G16RevB.01 20-Dec-2017

 -------------------------
 #P B3LYP/6-311+g(d) force
 -------------------------

 -----
 DPGEN
 -----
 Symbolic Z-matrix:
 Charge =  0 Multiplicity = 2

                         Standard orientation:
 ---------------------------------------------------------------------
 Center     Atomic      Atomic             Coordinates (Angstroms)
 Number     Number       Type             X           Y           Z
 ---------------------------------------------------------------------
      1         11           0        0.941816    2.744636   -0.475213
      2         11           0       -2.572189   -1.716559   -0.049973
      3         11           0        0.912362   -2.573728    0.109513
      4         11           0        3.234086   -0.174928    0.175943
      5         11           0        0.212483   -0.277135   -1.684865
      6         11           0        0.049211    0.538286    1.893959
      7         11           0       -2.777769    1.459429    0.030637
 ---------------------------------------------------------------------

 SCF Done:  E(UB3LYP) =  -1136.13620543     A.U. after   19 cycles

 The electronic state is 2-A.
 Alpha  occ. eigenvalues --  -38.44454 -38.44080 -38.43703 -38.43408 -38.43313
 Alpha  occ. eigenvalues --  -38.43164 -38.43132  -2.20286  -2.19914  -2.19552
 Alpha  occ. eigenvalues --   -2.19316  -2.19161  -2.19154  -2.19036  -1.13954
 Alpha  occ. eigenvalues --   -1.13951  -1.13924  -1.13605  -1.13581  -1.13550
 Alpha  occ. eigenvalues --   -1.13223  -1.13208  -1.13196  -1.13003  -1.12962
 Alpha  occ. eigenvalues --   -1.12941  -1.12931  -1.12870  -1.12816  -1.12789
 Alpha  occ. eigenvalues --   -1.12782  -1.12750  -1.12685  -1.12662  -1.12647
 Alpha  occ. eigenvalues --   -0.18759  -0.13284  -0.12337  -0.10617
 Alpha virt. eigenvalues --   -0.06000  -0.05145  -0.04443  -0.03225  -0.02873
 Alpha virt. eigenvalues --   -0.02347  -0.01793  -0.01047  -0.00409  -0.00230
 Alpha virt. eigenvalues --   -0.00007   0.00357   0.00793   0.00861   0.00908

  Beta  occ. eigenvalues --  -38.44449 -38.44078 -38.43701 -38.43330 -38.43298
  Beta  occ. eigenvalues --  -38.43124 -38.43092  -2.20279  -2.19912  -2.19552
  Beta  occ. eigenvalues --   -2.19173  -2.19138  -2.19034  -2.19015  -1.13949
  Beta  occ. eigenvalues --   -1.13925  -1.13921  -1.13608  -1.13562  -1.13549
  Beta  occ. eigenvalues --   -1.13219  -1.13203  -1.13187  -1.12915  -1.12885
  Beta  occ. eigenvalues --   -1.12863  -1.12827  -1.12824  -1.12776  -1.12769
  Beta  occ. eigenvalues --   -1.12711  -1.12669  -1.12658  -1.12637  -1.12603
  Beta  occ. eigenvalues --   -0.18036  -0.13065  -0.12082
  Beta virt. eigenvalues --   -0.06723  -0.05945  -0.05148  -0.04395  -0.02463
  Beta virt. eigenvalues --   -0.02105  -0.01696  -0.01310  -0.00985  -0.00452
  Beta virt. eigenvalues --   -0.00271   0.00135   0.00383   0.00838   0.00862

 Mulliken charges and spin densities:
               1          2
     1  Na   0.036256  -0.100120
     2  Na   0.030839  -0.070866
     3  Na   0.176031  -0.027824
     4  Na   0.241905  -0.007728
     5  Na  -0.234563   0.581450
     6  Na  -0.435235   0.686157
     7  Na   0.184766  -0.061070
 Sum of Mulliken charges =  -0.00000   1.00000

 Dipole moment (field-independent basis, Debye):
    X=              0.1508    Y=              0.1766    Z=              0.1338  Tot=              0.2679
 Quadrupole moment (field-independent basis, Debye-Ang):
   XX=            -53.5230   YY=            -64.5560   ZZ=            -74.9051
   XY=             -0.0025   XZ=              0.5175   YZ=             -1.6484

 Normal termination of Gaussian 16 at Thu Dec  7 13:11:11 2023.
