 Gaussian 16, Revision B.01,
 Gaussian 16:  ES64L-G16RevB.01 20-Dec-2017

 -------------------------
 #P B3LYP/6-311+g(d) force
 -------------------------

 -----
 DPGEN
 -----
 Symbolic Z-matrix:
 Charge =  0 Multiplicity = 2

                         Standard orientation:
 ---------------------------------------------------------------------
 Center     Atomic      Atomic             Coordinates (Angstroms)
 Number     Number       Type             X           Y           Z
 ---------------------------------------------------------------------
      1         11           0        1.850901    1.654318   -0.521044
      2         11           0       -1.226503   -0.297892    0.917625
      3         11           0       -1.690095   -2.818446   -0.533886
      4         11           0        1.904488   -1.779044    0.238704
      5         11           0        4.627164    0.029307    0.028465
      6         11           0       -4.073917    0.174259   -0.156777
      7         11           0       -1.392038    3.037496    0.026913
 ---------------------------------------------------------------------

 SCF Done:  E(UB3LYP) =  -1136.12735906     A.U. after   19 cycles

 The electronic state is 2-A.
 Alpha  occ. eigenvalues --  -38.44054 -38.44022 -38.44003 -38.43931 -38.43751
 Alpha  occ. eigenvalues --  -38.43480 -38.43273  -2.19909  -2.19860  -2.19849
 Alpha  occ. eigenvalues --   -2.19789  -2.19618  -2.19478  -2.19080  -1.13637
 Alpha  occ. eigenvalues --   -1.13605  -1.13551  -1.13550  -1.13540  -1.13524
 Alpha  occ. eigenvalues --   -1.13502  -1.13494  -1.13487  -1.13475  -1.13463
 Alpha  occ. eigenvalues --   -1.13407  -1.13260  -1.13251  -1.13220  -1.13160
 Alpha  occ. eigenvalues --   -1.13145  -1.13074  -1.12757  -1.12739  -1.12718
 Alpha  occ. eigenvalues --   -0.17560  -0.14517  -0.12330  -0.10498
 Alpha virt. eigenvalues --   -0.06039  -0.05212  -0.04681  -0.03616  -0.02788
 Alpha virt. eigenvalues --   -0.02129  -0.01855  -0.01174  -0.00851  -0.00618
 Alpha virt. eigenvalues --   -0.00177   0.00034   0.00612   0.00643   0.00725

  Beta  occ. eigenvalues --  -38.44026 -38.43987 -38.43970 -38.43913 -38.43684
  Beta  occ. eigenvalues --  -38.43460 -38.43268  -2.19870  -2.19826  -2.19762
  Beta  occ. eigenvalues --   -2.19751  -2.19492  -2.19450  -2.19074  -1.13641
  Beta  occ. eigenvalues --   -1.13535  -1.13534  -1.13529  -1.13508  -1.13471
  Beta  occ. eigenvalues --   -1.13457  -1.13449  -1.13440  -1.13429  -1.13393
  Beta  occ. eigenvalues --   -1.13357  -1.13175  -1.13164  -1.13147  -1.13145
  Beta  occ. eigenvalues --   -1.13075  -1.13058  -1.12756  -1.12736  -1.12697
  Beta  occ. eigenvalues --   -0.16950  -0.13840  -0.11961
  Beta virt. eigenvalues --   -0.07077  -0.05924  -0.05073  -0.04242  -0.03020
  Beta virt. eigenvalues --   -0.02494  -0.01810  -0.01526  -0.00995  -0.00662
  Beta virt. eigenvalues --   -0.00366   0.00042   0.00334   0.00732   0.00747

 Mulliken charges and spin densities:
               1          2
     1  Na  -0.504248   0.113266
     2  Na  -0.639680   0.043075
     3  Na   0.115866   0.012934
     4  Na  -0.140862   0.037601
     5  Na   0.525249   0.371644
     6  Na   0.313919   0.449262
     7  Na   0.329756  -0.027783
 Sum of Mulliken charges =  -0.00000   1.00000

 Dipole moment (field-independent basis, Debye):
    X=              0.1175    Y=             -0.3426    Z=             -0.4473  Tot=              0.5756
 Quadrupole moment (field-independent basis, Debye-Ang):
   XX=            -63.6944   YY=            -64.5917   ZZ=            -69.2714
   XY=             -0.2619   XZ=              2.1257   YZ=              0.7711

 Normal termination of Gaussian 16 at Wed Nov 29 01:05:27 2023.
