 Gaussian 16, Revision B.01,
 Gaussian 16:  ES64L-G16RevB.01 20-Dec-2017

 -------------------------
 #P B3LYP/6-311+g(d) force
 -------------------------

 -----
 DPGEN
 -----
 Symbolic Z-matrix:
 Charge =  0 Multiplicity = 2

                         Standard orientation:
 ---------------------------------------------------------------------
 Center     Atomic      Atomic             Coordinates (Angstroms)
 Number     Number       Type             X           Y           Z
 ---------------------------------------------------------------------
      1         11           0        1.248207    2.345920    0.290598
      2         11           0       -2.039759    2.177357   -0.556619
      3         11           0       -3.274524   -0.819559   -1.166814
      4         11           0       -1.308860   -0.094054    1.760115
      5         11           0        2.090323   -0.675368    1.414232
      6         11           0       -0.389490   -2.682102   -0.105123
      7         11           0        3.674102   -0.252195   -1.636389
 ---------------------------------------------------------------------

 SCF Done:  E(UB3LYP) =  -1136.12899565     A.U. after   20 cycles

 The electronic state is 2-A.
 Alpha  occ. eigenvalues --  -38.44685 -38.44156 -38.44153 -38.43659 -38.43594
 Alpha  occ. eigenvalues --  -38.43500 -38.43231  -2.20477  -2.20074  -2.19993
 Alpha  occ. eigenvalues --   -2.19537  -2.19417  -2.19319  -2.19091  -1.14127
 Alpha  occ. eigenvalues --   -1.14113  -1.14090  -1.13767  -1.13731  -1.13701
 Alpha  occ. eigenvalues --   -1.13662  -1.13640  -1.13613  -1.13241  -1.13204
 Alpha  occ. eigenvalues --   -1.13181  -1.13105  -1.13089  -1.13034  -1.12999
 Alpha  occ. eigenvalues --   -1.12991  -1.12946  -1.12765  -1.12760  -1.12723
 Alpha  occ. eigenvalues --   -0.17836  -0.13863  -0.11873  -0.11131
 Alpha virt. eigenvalues --   -0.05795  -0.05336  -0.05018  -0.03665  -0.02690
 Alpha virt. eigenvalues --   -0.02599  -0.01593  -0.00732  -0.00516  -0.00373
 Alpha virt. eigenvalues --   -0.00331   0.00275   0.00338   0.00462   0.00505

  Beta  occ. eigenvalues --  -38.44598 -38.44111 -38.44110 -38.43642 -38.43592
  Beta  occ. eigenvalues --  -38.43501 -38.43226  -2.20315  -2.19992  -2.19913
  Beta  occ. eigenvalues --   -2.19515  -2.19416  -2.19323  -2.19083  -1.14016
  Beta  occ. eigenvalues --   -1.14002  -1.13984  -1.13715  -1.13656  -1.13640
  Beta  occ. eigenvalues --   -1.13605  -1.13586  -1.13559  -1.13227  -1.13192
  Beta  occ. eigenvalues --   -1.13124  -1.13105  -1.13078  -1.13026  -1.13003
  Beta  occ. eigenvalues --   -1.12980  -1.12947  -1.12763  -1.12756  -1.12702
  Beta  occ. eigenvalues --   -0.17237  -0.13250  -0.11757
  Beta virt. eigenvalues --   -0.07554  -0.05540  -0.05028  -0.04553  -0.03589
  Beta virt. eigenvalues --   -0.02191  -0.01845  -0.01387  -0.00584  -0.00364
  Beta virt. eigenvalues --   -0.00223  -0.00178   0.00457   0.00498   0.00561

 Mulliken charges and spin densities:
               1          2
     1  Na  -0.731982   0.074485
     2  Na  -0.002862   0.034103
     3  Na   0.018575   0.254105
     4  Na   0.741257   0.168415
     5  Na   0.624409  -0.013759
     6  Na  -0.616865   0.040744
     7  Na  -0.032533   0.441907
 Sum of Mulliken charges =  -0.00000   1.00000

 Dipole moment (field-independent basis, Debye):
    X=             -0.0730    Y=             -0.2690    Z=             -0.3877  Tot=              0.4775
 Quadrupole moment (field-independent basis, Debye-Ang):
   XX=            -62.0371   YY=            -71.2382   ZZ=            -65.1064
   XY=              0.4343   XZ=             -0.1404   YZ=              1.1871

 Normal termination of Gaussian 16 at Wed Nov 29 03:09:09 2023.
