 Gaussian 16, Revision B.01,
 Gaussian 16:  ES64L-G16RevB.01 20-Dec-2017

 -------------------------
 #P B3LYP/6-311+g(d) force
 -------------------------

 -----
 DPGEN
 -----
 Symbolic Z-matrix:
 Charge =  0 Multiplicity = 2

                         Standard orientation:
 ---------------------------------------------------------------------
 Center     Atomic      Atomic             Coordinates (Angstroms)
 Number     Number       Type             X           Y           Z
 ---------------------------------------------------------------------
      1         11           0       -0.047806    2.544558   -0.756043
      2         11           0       -0.315276   -0.240034    2.062080
      3         11           0        2.786477   -1.637749    0.538194
      4         11           0        3.022883    1.960598   -0.070534
      5         11           0       -2.282102   -1.676550    0.015642
      6         11           0       -3.681880    1.107478   -0.068954
      7         11           0        0.517705   -2.058302   -1.720385
 ---------------------------------------------------------------------

 SCF Done:  E(UB3LYP) =  -1136.11934242     A.U. after   21 cycles

 The electronic state is 2-A.
 Alpha  occ. eigenvalues --  -38.45165 -38.44620 -38.44181 -38.44157 -38.44132
 Alpha  occ. eigenvalues --  -38.43763 -38.43541  -2.20954  -2.20426  -2.20034
 Alpha  occ. eigenvalues --   -2.20025  -2.19952  -2.19555  -2.19389  -1.14650
 Alpha  occ. eigenvalues --   -1.14607  -1.14587  -1.14112  -1.14082  -1.14072
 Alpha  occ. eigenvalues --   -1.13788  -1.13694  -1.13674  -1.13664  -1.13647
 Alpha  occ. eigenvalues --   -1.13641  -1.13619  -1.13613  -1.13594  -1.13228
 Alpha  occ. eigenvalues --   -1.13228  -1.13178  -1.13046  -1.13029  -1.13018
 Alpha  occ. eigenvalues --   -0.17666  -0.13584  -0.12230  -0.10542
 Alpha virt. eigenvalues --   -0.06869  -0.06043  -0.03774  -0.03679  -0.03181
 Alpha virt. eigenvalues --   -0.02355  -0.02199  -0.01689  -0.00691  -0.00184
 Alpha virt. eigenvalues --   -0.00060   0.00211   0.00324   0.00605   0.00681

  Beta  occ. eigenvalues --  -38.45166 -38.44618 -38.44160 -38.44120 -38.44084
  Beta  occ. eigenvalues --  -38.43751 -38.43482  -2.20956  -2.20426  -2.20008
  Beta  occ. eigenvalues --   -2.19958  -2.19856  -2.19533  -2.19279  -1.14653
  Beta  occ. eigenvalues --   -1.14599  -1.14589  -1.14104  -1.14078  -1.14065
  Beta  occ. eigenvalues --   -1.13733  -1.13661  -1.13648  -1.13643  -1.13614
  Beta  occ. eigenvalues --   -1.13595  -1.13557  -1.13543  -1.13500  -1.13214
  Beta  occ. eigenvalues --   -1.13206  -1.13165  -1.12969  -1.12954  -1.12944
  Beta  occ. eigenvalues --   -0.17014  -0.13467  -0.11938
  Beta virt. eigenvalues --   -0.06834  -0.06693  -0.05969  -0.03559  -0.03015
  Beta virt. eigenvalues --   -0.02556  -0.02178  -0.01642  -0.01449  -0.00688
  Beta virt. eigenvalues --   -0.00083   0.00098   0.00271   0.00519   0.00697

 Mulliken charges and spin densities:
               1          2
     1  Na  -0.283862   0.227069
     2  Na  -0.021144   0.240922
     3  Na   0.041438   0.243248
     4  Na  -0.006640  -0.078571
     5  Na  -0.060625   0.618073
     6  Na   0.220334  -0.221171
     7  Na   0.110498  -0.029569
 Sum of Mulliken charges =  -0.00000   1.00000

 Dipole moment (field-independent basis, Debye):
    X=             -0.2919    Y=              0.1922    Z=              0.1753  Tot=              0.3910
 Quadrupole moment (field-independent basis, Debye-Ang):
   XX=            -49.5485   YY=            -72.4296   ZZ=            -74.6478
   XY=             -3.2059   XZ=              1.7419   YZ=             -0.4683

 Normal termination of Gaussian 16 at Sun Dec  3 23:30:23 2023.
