 Gaussian 16, Revision B.01,
 Gaussian 16:  ES64L-G16RevB.01 20-Dec-2017

 -------------------------
 #P B3LYP/6-311+g(d) force
 -------------------------

 -----
 DPGEN
 -----
 Symbolic Z-matrix:
 Charge =  0 Multiplicity = 2

                         Standard orientation:
 ---------------------------------------------------------------------
 Center     Atomic      Atomic             Coordinates (Angstroms)
 Number     Number       Type             X           Y           Z
 ---------------------------------------------------------------------
      1         11           0        2.792644    0.693099    0.009026
      2         11           0       -0.232286   -0.575952    1.914850
      3         11           0       -0.469912    0.423619   -1.718370
      4         11           0       -3.207579    1.049287   -0.136421
      5         11           0        0.662286    3.231866    0.329541
      6         11           0        2.146613   -2.293315   -0.447613
      7         11           0       -1.691767   -2.528603    0.048987
 ---------------------------------------------------------------------

 SCF Done:  E(UB3LYP) =  -1136.13200522     A.U. after   20 cycles

 The electronic state is 2-A.
 Alpha  occ. eigenvalues --  -38.44500 -38.44119 -38.43842 -38.43622 -38.43600
 Alpha  occ. eigenvalues --  -38.43469 -38.43455  -2.20294  -2.19962  -2.19640
 Alpha  occ. eigenvalues --   -2.19498  -2.19464  -2.19357  -2.19348  -1.13986
 Alpha  occ. eigenvalues --   -1.13949  -1.13923  -1.13698  -1.13622  -1.13570
 Alpha  occ. eigenvalues --   -1.13316  -1.13304  -1.13282  -1.13213  -1.13164
 Alpha  occ. eigenvalues --   -1.13130  -1.13119  -1.13110  -1.13085  -1.13037
 Alpha  occ. eigenvalues --   -1.13011  -1.13004  -1.12988  -1.12978  -1.12964
 Alpha  occ. eigenvalues --   -0.18239  -0.13069  -0.12470  -0.10484
 Alpha virt. eigenvalues --   -0.06053  -0.05223  -0.04789  -0.03169  -0.03004
 Alpha virt. eigenvalues --   -0.02304  -0.01664  -0.01364  -0.00593  -0.00417
 Alpha virt. eigenvalues --   -0.00021   0.00334   0.00729   0.00825   0.00864

  Beta  occ. eigenvalues --  -38.44494 -38.44110 -38.43835 -38.43609 -38.43519
  Beta  occ. eigenvalues --  -38.43463 -38.43395  -2.20286  -2.19951  -2.19628
  Beta  occ. eigenvalues --   -2.19441  -2.19348  -2.19341  -2.19247  -1.13970
  Beta  occ. eigenvalues --   -1.13937  -1.13920  -1.13675  -1.13595  -1.13568
  Beta  occ. eigenvalues --   -1.13310  -1.13282  -1.13275  -1.13201  -1.13090
  Beta  occ. eigenvalues --   -1.13078  -1.13061  -1.13021  -1.13003  -1.13000
  Beta  occ. eigenvalues --   -1.12985  -1.12960  -1.12949  -1.12907  -1.12905
  Beta  occ. eigenvalues --   -0.17572  -0.12782  -0.12226
  Beta virt. eigenvalues --   -0.06768  -0.05952  -0.05054  -0.04790  -0.02427
  Beta virt. eigenvalues --   -0.02303  -0.01588  -0.01343  -0.01264  -0.00600
  Beta virt. eigenvalues --   -0.00461   0.00126   0.00387   0.00746   0.00892

 Mulliken charges and spin densities:
               1          2
     1  Na  -0.002873  -0.006684
     2  Na  -0.213168   0.635507
     3  Na  -0.067158   0.556883
     4  Na   0.052830  -0.148609
     5  Na  -0.027350  -0.034075
     6  Na   0.015166   0.058498
     7  Na   0.242552  -0.061520
 Sum of Mulliken charges =  -0.00000   1.00000

 Dipole moment (field-independent basis, Debye):
    X=             -0.7207    Y=              0.0279    Z=              0.0536  Tot=              0.7232
 Quadrupole moment (field-independent basis, Debye-Ang):
   XX=            -58.9491   YY=            -60.0595   ZZ=            -75.0697
   XY=             -0.8487   XZ=             -0.6239   YZ=              2.6816

 Normal termination of Gaussian 16 at Thu Dec  7 09:46:27 2023.
