 Gaussian 16, Revision B.01,
 Gaussian 16:  ES64L-G16RevB.01 20-Dec-2017

 -------------------------
 #P B3LYP/6-311+g(d) force
 -------------------------

 -----
 DPGEN
 -----
 Symbolic Z-matrix:
 Charge =  0 Multiplicity = 2

                         Standard orientation:
 ---------------------------------------------------------------------
 Center     Atomic      Atomic             Coordinates (Angstroms)
 Number     Number       Type             X           Y           Z
 ---------------------------------------------------------------------
      1         11           0        4.306196   -1.258097   -0.595199
      2         11           0       -2.754990    2.043062   -0.491788
      3         11           0        2.782018    1.505986   -0.177027
      4         11           0        0.141727    3.863129    0.602186
      5         11           0       -1.647571   -3.740965    0.181938
      6         11           0       -4.203450   -0.621228   -0.224878
      7         11           0        1.376071   -1.791887    0.704767
 ---------------------------------------------------------------------

 SCF Done:  E(UB3LYP) =  -1136.11613476     A.U. after   20 cycles

 The electronic state is 2-A.
 Alpha  occ. eigenvalues --  -38.44929 -38.44883 -38.44567 -38.44245 -38.44185
 Alpha  occ. eigenvalues --  -38.44049 -38.43405  -2.20734  -2.20705  -2.20431
 Alpha  occ. eigenvalues --   -2.20061  -2.20001  -2.19818  -2.19198  -1.14438
 Alpha  occ. eigenvalues --   -1.14426  -1.14399  -1.14391  -1.14359  -1.14329
 Alpha  occ. eigenvalues --   -1.14082  -1.14066  -1.14039  -1.13838  -1.13715
 Alpha  occ. eigenvalues --   -1.13677  -1.13664  -1.13648  -1.13582  -1.13482
 Alpha  occ. eigenvalues --   -1.13464  -1.13448  -1.12859  -1.12844  -1.12840
 Alpha  occ. eigenvalues --   -0.16313  -0.14209  -0.12918  -0.10931
 Alpha virt. eigenvalues --   -0.06615  -0.05565  -0.04277  -0.03375  -0.03064
 Alpha virt. eigenvalues --   -0.02459  -0.02276  -0.01755  -0.01602  -0.00644
 Alpha virt. eigenvalues --   -0.00275   0.00020   0.00280   0.00583   0.00640

  Beta  occ. eigenvalues --  -38.44911 -38.44866 -38.44524 -38.44198 -38.44158
  Beta  occ. eigenvalues --  -38.44000 -38.43371  -2.20705  -2.20680  -2.20351
  Beta  occ. eigenvalues --   -2.19979  -2.19956  -2.19730  -2.19135  -1.14419
  Beta  occ. eigenvalues --   -1.14411  -1.14384  -1.14379  -1.14308  -1.14281
  Beta  occ. eigenvalues --   -1.14025  -1.14011  -1.13989  -1.13770  -1.13666
  Beta  occ. eigenvalues --   -1.13637  -1.13624  -1.13614  -1.13515  -1.13423
  Beta  occ. eigenvalues --   -1.13400  -1.13387  -1.12817  -1.12804  -1.12794
  Beta  occ. eigenvalues --   -0.15885  -0.13474  -0.12139
  Beta virt. eigenvalues --   -0.07684  -0.06686  -0.05180  -0.04064  -0.03027
  Beta virt. eigenvalues --   -0.02672  -0.02127  -0.02087  -0.01549  -0.01342
  Beta virt. eigenvalues --   -0.00361   0.00051   0.00238   0.00387   0.00610

 Mulliken charges and spin densities:
               1          2
     1  Na   1.174099   0.219888
     2  Na   0.004565   0.085738
     3  Na  -0.283238   0.224736
     4  Na  -0.074485   0.085588
     5  Na   0.349564   0.161370
     6  Na  -0.184300   0.094708
     7  Na  -0.986205   0.127971
 Sum of Mulliken charges =  -0.00000   1.00000

 Dipole moment (field-independent basis, Debye):
    X=              1.5597    Y=             -0.7336    Z=             -0.2666  Tot=              1.7441
 Quadrupole moment (field-independent basis, Debye-Ang):
   XX=            -57.8216   YY=            -67.0721   ZZ=            -72.2856
   XY=              0.6675   XZ=             -1.9823   YZ=              1.3887

 Normal termination of Gaussian 16 at Sun Dec  3 16:19:57 2023.
