 Gaussian 16, Revision B.01,
 Gaussian 16:  ES64L-G16RevB.01 20-Dec-2017

 -------------------------
 #P B3LYP/6-311+g(d) force
 -------------------------

 -----
 DPGEN
 -----
 Symbolic Z-matrix:
 Charge =  0 Multiplicity = 2

                         Standard orientation:
 ---------------------------------------------------------------------
 Center     Atomic      Atomic             Coordinates (Angstroms)
 Number     Number       Type             X           Y           Z
 ---------------------------------------------------------------------
      1         11           0        3.259976   -0.674231    0.459403
      2         11           0       -2.768565   -1.191597    0.043169
      3         11           0       -0.146247   -0.114440    1.874282
      4         11           0        0.369878   -2.395551   -0.469752
      5         11           0       -2.100752    2.005830    0.352939
      6         11           0       -0.372112    0.086379   -1.776543
      7         11           0        1.757823    2.283609   -0.483497
 ---------------------------------------------------------------------

 SCF Done:  E(UB3LYP) =  -1136.13231608     A.U. after   20 cycles

 The electronic state is 2-A.
 Alpha  occ. eigenvalues --  -38.44305 -38.43897 -38.43754 -38.43466 -38.43430
 Alpha  occ. eigenvalues --  -38.43403 -38.42813  -2.20116  -2.19813  -2.19707
 Alpha  occ. eigenvalues --   -2.19499  -2.19292  -2.19261  -2.18765  -1.13786
 Alpha  occ. eigenvalues --   -1.13771  -1.13762  -1.13515  -1.13490  -1.13449
 Alpha  occ. eigenvalues --   -1.13387  -1.13351  -1.13314  -1.13234  -1.13143
 Alpha  occ. eigenvalues --   -1.13115  -1.12967  -1.12951  -1.12942  -1.12917
 Alpha  occ. eigenvalues --   -1.12910  -1.12885  -1.12474  -1.12417  -1.12350
 Alpha  occ. eigenvalues --   -0.19181  -0.13421  -0.12094  -0.11193
 Alpha virt. eigenvalues --   -0.05874  -0.05115  -0.03968  -0.03430  -0.02856
 Alpha virt. eigenvalues --   -0.02721  -0.01741  -0.00946  -0.00226   0.00023
 Alpha virt. eigenvalues --    0.00120   0.00346   0.00775   0.00897   0.00904

  Beta  occ. eigenvalues --  -38.44300 -38.43889 -38.43677 -38.43421 -38.43394
  Beta  occ. eigenvalues --  -38.43380 -38.42798  -2.20108  -2.19803  -2.19565
  Beta  occ. eigenvalues --   -2.19344  -2.19279  -2.19247  -2.18743  -1.13772
  Beta  occ. eigenvalues --   -1.13762  -1.13758  -1.13506  -1.13463  -1.13428
  Beta  occ. eigenvalues --   -1.13299  -1.13251  -1.13210  -1.13130  -1.13046
  Beta  occ. eigenvalues --   -1.13015  -1.12946  -1.12931  -1.12910  -1.12899
  Beta  occ. eigenvalues --   -1.12890  -1.12878  -1.12451  -1.12377  -1.12333
  Beta  occ. eigenvalues --   -0.18432  -0.13166  -0.11790
  Beta virt. eigenvalues --   -0.07253  -0.05778  -0.05107  -0.03926  -0.02713
  Beta virt. eigenvalues --   -0.02067  -0.01674  -0.01609  -0.00889  -0.00184
  Beta virt. eigenvalues --    0.00070   0.00118   0.00372   0.00844   0.00905

 Mulliken charges and spin densities:
               1          2
     1  Na  -0.060671   0.010894
     2  Na   0.318953  -0.046180
     3  Na  -0.407523   0.647628
     4  Na   0.238651   0.001722
     5  Na   0.020820  -0.043840
     6  Na  -0.064918   0.497176
     7  Na  -0.045313  -0.067399
 Sum of Mulliken charges =  -0.00000   1.00000

 Dipole moment (field-independent basis, Debye):
    X=              0.0802    Y=              0.0284    Z=              0.2877  Tot=              0.3000
 Quadrupole moment (field-independent basis, Debye-Ang):
   XX=            -53.4179   YY=            -68.1278   ZZ=            -72.2164
   XY=              0.0363   XZ=              0.2697   YZ=             -0.1751

 Normal termination of Gaussian 16 at Thu Dec  7 02:17:19 2023.
