 Gaussian 16, Revision B.01,
 Gaussian 16:  ES64L-G16RevB.01 20-Dec-2017

 -------------------------
 #P B3LYP/6-311+g(d) force
 -------------------------

 -----
 DPGEN
 -----
 Symbolic Z-matrix:
 Charge =  0 Multiplicity = 2

                         Standard orientation:
 ---------------------------------------------------------------------
 Center     Atomic      Atomic             Coordinates (Angstroms)
 Number     Number       Type             X           Y           Z
 ---------------------------------------------------------------------
      1         11           0       -0.641018    2.720283   -0.394056
      2         11           0       -4.010194   -0.814418   -0.634463
      3         11           0       -1.539859   -0.102239    1.636696
      4         11           0       -0.514855   -0.410469   -1.422037
      5         11           0        1.867053    1.055214    1.314482
      6         11           0        3.536476   -0.300965   -1.258227
      7         11           0        1.302396   -2.147406    0.757605
 ---------------------------------------------------------------------

 SCF Done:  E(UB3LYP) =  -1136.12463110     A.U. after   25 cycles

 The electronic state is 2-A.
 Alpha  occ. eigenvalues --  -38.44585 -38.44585 -38.44300 -38.43701 -38.43519
 Alpha  occ. eigenvalues --  -38.43516 -38.42434  -2.20403  -2.20365  -2.20216
 Alpha  occ. eigenvalues --   -2.19623  -2.19426  -2.19403  -2.18284  -1.14076
 Alpha  occ. eigenvalues --   -1.14047  -1.14044  -1.14019  -1.14017  -1.13998
 Alpha  occ. eigenvalues --   -1.13952  -1.13882  -1.13808  -1.13335  -1.13266
 Alpha  occ. eigenvalues --   -1.13225  -1.13149  -1.13102  -1.13087  -1.13065
 Alpha  occ. eigenvalues --   -1.13027  -1.12995  -1.11978  -1.11928  -1.11913
 Alpha  occ. eigenvalues --   -0.18562  -0.13668  -0.11235  -0.11062
 Alpha virt. eigenvalues --   -0.06975  -0.04876  -0.04241  -0.03123  -0.02747
 Alpha virt. eigenvalues --   -0.02479  -0.02249  -0.01256  -0.00589  -0.00117
 Alpha virt. eigenvalues --    0.00096   0.00145   0.00299   0.00758   0.00851

  Beta  occ. eigenvalues --  -38.44576 -38.44542 -38.44270 -38.43654 -38.43498
  Beta  occ. eigenvalues --  -38.43485 -38.42425  -2.20349  -2.20322  -2.20165
  Beta  occ. eigenvalues --   -2.19540  -2.19394  -2.19351  -2.18270  -1.14031
  Beta  occ. eigenvalues --   -1.14021  -1.14004  -1.13987  -1.13985  -1.13968
  Beta  occ. eigenvalues --   -1.13900  -1.13844  -1.13770  -1.13281  -1.13186
  Beta  occ. eigenvalues --   -1.13167  -1.13116  -1.13060  -1.13048  -1.13037
  Beta  occ. eigenvalues --   -1.12987  -1.12946  -1.11962  -1.11916  -1.11901
  Beta  occ. eigenvalues --   -0.17799  -0.13417  -0.10966
  Beta virt. eigenvalues --   -0.07347  -0.06727  -0.04443  -0.04024  -0.02948
  Beta virt. eigenvalues --   -0.02475  -0.01953  -0.01521  -0.00935  -0.00450
  Beta virt. eigenvalues --   -0.00051   0.00136   0.00271   0.00395   0.00832

 Mulliken charges and spin densities:
               1          2
     1  Na  -0.391215   0.021208
     2  Na   0.212690   0.121795
     3  Na   0.172123   0.061959
     4  Na  -0.325239   0.208275
     5  Na   0.314173   0.105097
     6  Na   0.087761   0.154853
     7  Na  -0.070293   0.326813
 Sum of Mulliken charges =  -0.00000   1.00000

 Dipole moment (field-independent basis, Debye):
    X=             -0.1033    Y=             -0.0651    Z=             -0.1279  Tot=              0.1769
 Quadrupole moment (field-independent basis, Debye-Ang):
   XX=            -51.1751   YY=            -74.8915   ZZ=            -67.1697
   XY=              0.3623   XZ=             -0.7148   YZ=             -1.1416

 Normal termination of Gaussian 16 at Tue Dec  5 16:12:03 2023.
