 Gaussian 16, Revision B.01,
 Gaussian 16:  ES64L-G16RevB.01 20-Dec-2017

 -------------------------
 #P B3LYP/6-311+g(d) force
 -------------------------

 -----
 DPGEN
 -----
 Symbolic Z-matrix:
 Charge =  0 Multiplicity = 2

                         Standard orientation:
 ---------------------------------------------------------------------
 Center     Atomic      Atomic             Coordinates (Angstroms)
 Number     Number       Type             X           Y           Z
 ---------------------------------------------------------------------
      1         11           0        2.777581   -1.834676   -1.297591
      2         11           0       -6.397241   -0.045969    0.183076
      3         11           0       -0.230279    1.557083   -0.524327
      4         11           0        4.201908   -0.467487    1.705510
      5         11           0        3.233325    2.419579   -0.392976
      6         11           0       -3.402529    0.309381    0.366963
      7         11           0       -0.182764   -1.937910   -0.040656
 ---------------------------------------------------------------------

 SCF Done:  E(UB3LYP) =  -1136.11110543     A.U. after   23 cycles

 The electronic state is 2-A.
 Alpha  occ. eigenvalues --  -38.45283 -38.44973 -38.44868 -38.44174 -38.43985
 Alpha  occ. eigenvalues --  -38.43351 -38.43282  -2.21038  -2.20806  -2.20678
 Alpha  occ. eigenvalues --   -2.19999  -2.19774  -2.19192  -2.19107  -1.14718
 Alpha  occ. eigenvalues --   -1.14693  -1.14665  -1.14476  -1.14451  -1.14411
 Alpha  occ. eigenvalues --   -1.14356  -1.14339  -1.14298  -1.13681  -1.13625
 Alpha  occ. eigenvalues --   -1.13625  -1.13446  -1.13445  -1.13387  -1.12881
 Alpha  occ. eigenvalues --   -1.12866  -1.12832  -1.12786  -1.12780  -1.12740
 Alpha  occ. eigenvalues --   -0.16811  -0.14042  -0.12001  -0.11403
 Alpha virt. eigenvalues --   -0.06981  -0.05273  -0.04469  -0.03475  -0.03281
 Alpha virt. eigenvalues --   -0.02283  -0.01966  -0.01679  -0.01625  -0.00631
 Alpha virt. eigenvalues --   -0.00340  -0.00230   0.00294   0.00383   0.00460

  Beta  occ. eigenvalues --  -38.45272 -38.44886 -38.44846 -38.44107 -38.43948
  Beta  occ. eigenvalues --  -38.43353 -38.43284  -2.21018  -2.20648  -2.20637
  Beta  occ. eigenvalues --   -2.19876  -2.19707  -2.19202  -2.19111  -1.14703
  Beta  occ. eigenvalues --   -1.14673  -1.14656  -1.14373  -1.14353  -1.14323
  Beta  occ. eigenvalues --   -1.14312  -1.14279  -1.14274  -1.13600  -1.13542
  Beta  occ. eigenvalues --   -1.13542  -1.13404  -1.13390  -1.13335  -1.12882
  Beta  occ. eigenvalues --   -1.12877  -1.12802  -1.12794  -1.12786  -1.12729
  Beta  occ. eigenvalues --   -0.16122  -0.13491  -0.11104
  Beta virt. eigenvalues --   -0.08506  -0.06585  -0.04869  -0.04073  -0.03170
  Beta virt. eigenvalues --   -0.03019  -0.01990  -0.01762  -0.01371  -0.01243
  Beta virt. eigenvalues --   -0.00497  -0.00303   0.00029   0.00377   0.00500

 Mulliken charges and spin densities:
               1          2
     1  Na   0.250031   0.298804
     2  Na   0.762753   0.085034
     3  Na  -0.865600   0.508386
     4  Na  -0.029753   0.078238
     5  Na   0.503389  -0.120525
     6  Na  -0.341131   0.346833
     7  Na  -0.279689  -0.196770
 Sum of Mulliken charges =  -0.00000   1.00000

 Dipole moment (field-independent basis, Debye):
    X=              1.2737    Y=             -0.6263    Z=              0.1023  Tot=              1.4230
 Quadrupole moment (field-independent basis, Debye-Ang):
   XX=            -62.2140   YY=            -72.0064   ZZ=            -65.4164
   XY=             -2.1949   XZ=              0.7371   YZ=             -2.8940

 Normal termination of Gaussian 16 at Sun Dec  3 20:04:52 2023.
