 Gaussian 16, Revision B.01,
 Gaussian 16:  ES64L-G16RevB.01 20-Dec-2017

 -------------------------
 #P B3LYP/6-311+g(d) force
 -------------------------

 -----
 DPGEN
 -----
 Symbolic Z-matrix:
 Charge =  0 Multiplicity = 2

                         Standard orientation:
 ---------------------------------------------------------------------
 Center     Atomic      Atomic             Coordinates (Angstroms)
 Number     Number       Type             X           Y           Z
 ---------------------------------------------------------------------
      1         11           0        3.279028   -0.461474   -0.243549
      2         11           0        0.446706   -0.449510    1.847229
      3         11           0        0.281427   -2.562601   -0.195166
      4         11           0       -2.267712    2.037269    0.298847
      5         11           0        1.223464    2.522939    0.075251
      6         11           0       -2.723528   -1.492774   -0.075384
      7         11           0       -0.239384    0.406152   -1.707229
 ---------------------------------------------------------------------

 SCF Done:  E(UB3LYP) =  -1136.13558290     A.U. after   19 cycles

 The electronic state is 2-A.
 Alpha  occ. eigenvalues --  -38.44254 -38.43792 -38.43715 -38.43477 -38.43372
 Alpha  occ. eigenvalues --  -38.43197 -38.43137  -2.20063  -2.19647  -2.19556
 Alpha  occ. eigenvalues --   -2.19353  -2.19326  -2.19142  -2.19120  -1.13734
 Alpha  occ. eigenvalues --   -1.13715  -1.13711  -1.13334  -1.13305  -1.13302
 Alpha  occ. eigenvalues --   -1.13241  -1.13216  -1.13192  -1.13124  -1.13086
 Alpha  occ. eigenvalues --   -1.13028  -1.12963  -1.12955  -1.12914  -1.12832
 Alpha  occ. eigenvalues --   -1.12781  -1.12776  -1.12737  -1.12733  -1.12725
 Alpha  occ. eigenvalues --   -0.18917  -0.13037  -0.12671  -0.10590
 Alpha virt. eigenvalues --   -0.05763  -0.05210  -0.04512  -0.03122  -0.02983
 Alpha virt. eigenvalues --   -0.02279  -0.01712  -0.01075  -0.00273  -0.00149
 Alpha virt. eigenvalues --   -0.00008   0.00346   0.00793   0.00883   0.00913

  Beta  occ. eigenvalues --  -38.44250 -38.43789 -38.43710 -38.43470 -38.43292
  Beta  occ. eigenvalues --  -38.43184 -38.43068  -2.20059  -2.19645  -2.19548
  Beta  occ. eigenvalues --   -2.19343  -2.19181  -2.19123  -2.18994  -1.13719
  Beta  occ. eigenvalues --   -1.13713  -1.13704  -1.13333  -1.13305  -1.13280
  Beta  occ. eigenvalues --   -1.13232  -1.13193  -1.13190  -1.13071  -1.13047
  Beta  occ. eigenvalues --   -1.12992  -1.12956  -1.12864  -1.12813  -1.12790
  Beta  occ. eigenvalues --   -1.12732  -1.12712  -1.12703  -1.12650  -1.12636
  Beta  occ. eigenvalues --   -0.18181  -0.12820  -0.12418
  Beta virt. eigenvalues --   -0.06693  -0.05709  -0.05208  -0.04461  -0.02383
  Beta virt. eigenvalues --   -0.02170  -0.01624  -0.01262  -0.01013  -0.00319
  Beta virt. eigenvalues --   -0.00188   0.00135   0.00371   0.00846   0.00873

 Mulliken charges and spin densities:
               1          2
     1  Na   0.134021  -0.080466
     2  Na  -0.476796   0.709202
     3  Na   0.376477  -0.042512
     4  Na   0.055242  -0.037517
     5  Na   0.128430  -0.088239
     6  Na   0.091400  -0.066732
     7  Na  -0.308773   0.606264
 Sum of Mulliken charges =  -0.00000   1.00000

 Dipole moment (field-independent basis, Debye):
    X=              0.1404    Y=              0.1289    Z=              0.0462  Tot=              0.1962
 Quadrupole moment (field-independent basis, Debye-Ang):
   XX=            -53.5524   YY=            -64.5383   ZZ=            -74.6724
   XY=             -0.0668   XZ=             -1.6277   YZ=              1.8182

 Normal termination of Gaussian 16 at Fri Dec  8 06:52:45 2023.
