 Gaussian 16, Revision B.01,
 Gaussian 16:  ES64L-G16RevB.01 20-Dec-2017

 -------------------------
 #P B3LYP/6-311+g(d) force
 -------------------------

 -----
 DPGEN
 -----
 Symbolic Z-matrix:
 Charge =  0 Multiplicity = 2

                         Standard orientation:
 ---------------------------------------------------------------------
 Center     Atomic      Atomic             Coordinates (Angstroms)
 Number     Number       Type             X           Y           Z
 ---------------------------------------------------------------------
      1         11           0       -3.070549    0.906918   -0.591229
      2         11           0       -2.427079   -2.308241    0.324068
      3         11           0       -0.109429    2.812239   -0.121879
      4         11           0       -0.021308   -0.248134   -1.339149
      5         11           0        0.105742   -0.031858    2.249234
      6         11           0        2.568645   -2.151394   -0.598403
      7         11           0        2.953978    1.020469    0.077358
 ---------------------------------------------------------------------

 SCF Done:  E(UB3LYP) =  -1136.13272558     A.U. after   20 cycles

 The electronic state is 2-A.
 Alpha  occ. eigenvalues --  -38.44277 -38.44215 -38.44063 -38.43893 -38.43699
 Alpha  occ. eigenvalues --  -38.43317 -38.42650  -2.20130  -2.20057  -2.19907
 Alpha  occ. eigenvalues --   -2.19693  -2.19532  -2.19296  -2.18513  -1.13807
 Alpha  occ. eigenvalues --   -1.13800  -1.13768  -1.13743  -1.13713  -1.13685
 Alpha  occ. eigenvalues --   -1.13568  -1.13537  -1.13512  -1.13357  -1.13347
 Alpha  occ. eigenvalues --   -1.13344  -1.13216  -1.13180  -1.13170  -1.13000
 Alpha  occ. eigenvalues --   -1.12945  -1.12918  -1.12204  -1.12175  -1.12146
 Alpha  occ. eigenvalues --   -0.18333  -0.13530  -0.11832  -0.10826
 Alpha virt. eigenvalues --   -0.05896  -0.05619  -0.04341  -0.03279  -0.02677
 Alpha virt. eigenvalues --   -0.02588  -0.01902  -0.01247  -0.00602  -0.00247
 Alpha virt. eigenvalues --   -0.00074   0.00295   0.00657   0.00793   0.00858

  Beta  occ. eigenvalues --  -38.44274 -38.44199 -38.43953 -38.43888 -38.43687
  Beta  occ. eigenvalues --  -38.43280 -38.42648  -2.20127  -2.20029  -2.19704
  Beta  occ. eigenvalues --   -2.19687  -2.19510  -2.19231  -2.18512  -1.13802
  Beta  occ. eigenvalues --   -1.13794  -1.13754  -1.13716  -1.13691  -1.13667
  Beta  occ. eigenvalues --   -1.13433  -1.13400  -1.13365  -1.13351  -1.13342
  Beta  occ. eigenvalues --   -1.13328  -1.13194  -1.13168  -1.13147  -1.12946
  Beta  occ. eigenvalues --   -1.12897  -1.12870  -1.12203  -1.12170  -1.12128
  Beta  occ. eigenvalues --   -0.17657  -0.13288  -0.11596
  Beta virt. eigenvalues --   -0.06954  -0.05803  -0.05482  -0.04241  -0.02655
  Beta virt. eigenvalues --   -0.01960  -0.01777  -0.01618  -0.01122  -0.00602
  Beta virt. eigenvalues --   -0.00257   0.00098   0.00349   0.00753   0.00802

 Mulliken charges and spin densities:
               1          2
     1  Na   0.330923   0.028929
     2  Na   0.017773   0.108298
     3  Na  -0.033821   0.059492
     4  Na  -0.353087  -0.037397
     5  Na  -0.498410   0.661904
     6  Na   0.261840   0.113814
     7  Na   0.274782   0.064961
 Sum of Mulliken charges =  -0.00000   1.00000

 Dipole moment (field-independent basis, Debye):
    X=             -0.0325    Y=             -0.1409    Z=              0.2562  Tot=              0.2942
 Quadrupole moment (field-independent basis, Debye-Ang):
   XX=            -54.3092   YY=            -65.2476   ZZ=            -74.1871
   XY=              0.6595   XZ=              0.6277   YZ=             -0.4499

 Normal termination of Gaussian 16 at Thu Dec  7 16:40:45 2023.
