 Gaussian 16, Revision B.01,
 Gaussian 16:  ES64L-G16RevB.01 20-Dec-2017

 -------------------------
 #P B3LYP/6-311+g(d) force
 -------------------------

 -----
 DPGEN
 -----
 Symbolic Z-matrix:
 Charge =  0 Multiplicity = 2

                         Standard orientation:
 ---------------------------------------------------------------------
 Center     Atomic      Atomic             Coordinates (Angstroms)
 Number     Number       Type             X           Y           Z
 ---------------------------------------------------------------------
      1         11           0       -0.299199    0.310472   -1.652742
      2         11           0       -0.187911    3.239688    0.432262
      3         11           0       -3.385815    0.189364   -0.253868
      4         11           0        2.708386    1.211042   -0.626123
      5         11           0        2.391188   -2.240888    0.120874
      6         11           0        0.029249    0.014127    2.038754
      7         11           0       -1.255898   -2.723805   -0.059157
 ---------------------------------------------------------------------

 SCF Done:  E(UB3LYP) =  -1136.13673276     A.U. after   19 cycles

 The electronic state is 2-A.
 Alpha  occ. eigenvalues --  -38.44140 -38.43879 -38.43832 -38.43754 -38.43720
 Alpha  occ. eigenvalues --  -38.43604 -38.43375  -2.19933  -2.19677  -2.19650
 Alpha  occ. eigenvalues --   -2.19613  -2.19559  -2.19400  -2.19298  -1.13614
 Alpha  occ. eigenvalues --   -1.13585  -1.13573  -1.13351  -1.13338  -1.13337
 Alpha  occ. eigenvalues --   -1.13330  -1.13322  -1.13280  -1.13268  -1.13262
 Alpha  occ. eigenvalues --   -1.13245  -1.13221  -1.13213  -1.13179  -1.13074
 Alpha  occ. eigenvalues --   -1.13052  -1.13048  -1.12981  -1.12932  -1.12921
 Alpha  occ. eigenvalues --   -0.18093  -0.12791  -0.12364  -0.10665
 Alpha virt. eigenvalues --   -0.05676  -0.05244  -0.05018  -0.03095  -0.02927
 Alpha virt. eigenvalues --   -0.02538  -0.01575  -0.01389  -0.00582  -0.00493
 Alpha virt. eigenvalues --   -0.00029   0.00333   0.00768   0.00800   0.00828

  Beta  occ. eigenvalues --  -38.44135 -38.43868 -38.43829 -38.43701 -38.43663
  Beta  occ. eigenvalues --  -38.43605 -38.43318  -2.19927  -2.19660  -2.19647
  Beta  occ. eigenvalues --   -2.19526  -2.19444  -2.19404  -2.19194  -1.13600
  Beta  occ. eigenvalues --   -1.13580  -1.13568  -1.13332  -1.13329  -1.13320
  Beta  occ. eigenvalues --   -1.13315  -1.13308  -1.13264  -1.13230  -1.13187
  Beta  occ. eigenvalues --   -1.13168  -1.13158  -1.13130  -1.13098  -1.13071
  Beta  occ. eigenvalues --   -1.13054  -1.13042  -1.12908  -1.12860  -1.12843
  Beta  occ. eigenvalues --   -0.17395  -0.12533  -0.12155
  Beta virt. eigenvalues --   -0.06831  -0.05645  -0.05112  -0.04967  -0.02377
  Beta virt. eigenvalues --   -0.02250  -0.01551  -0.01464  -0.01268  -0.00587
  Beta virt. eigenvalues --   -0.00530   0.00110   0.00374   0.00782   0.00833

 Mulliken charges and spin densities:
               1          2
     1  Na   0.057688   0.392373
     2  Na  -0.014840  -0.004469
     3  Na   0.117745  -0.072345
     4  Na   0.184750   0.054659
     5  Na  -0.073892  -0.047963
     6  Na  -0.260485   0.736456
     7  Na  -0.010966  -0.058711
 Sum of Mulliken charges =  -0.00000   1.00000

 Dipole moment (field-independent basis, Debye):
    X=             -0.3448    Y=              0.1286    Z=              0.1112  Tot=              0.3844
 Quadrupole moment (field-independent basis, Debye-Ang):
   XX=            -58.3282   YY=            -59.9707   ZZ=            -74.9185
   XY=             -0.7035   XZ=             -0.7901   YZ=              0.5195

 Normal termination of Gaussian 16 at Thu Dec  7 19:46:49 2023.
