 Gaussian 16, Revision B.01,
 Gaussian 16:  ES64L-G16RevB.01 20-Dec-2017

 -------------------------
 #P B3LYP/6-311+g(d) force
 -------------------------

 -----
 DPGEN
 -----
 Symbolic Z-matrix:
 Charge =  0 Multiplicity = 2

                         Standard orientation:
 ---------------------------------------------------------------------
 Center     Atomic      Atomic             Coordinates (Angstroms)
 Number     Number       Type             X           Y           Z
 ---------------------------------------------------------------------
      1         11           0       -0.418607   -1.496635   -1.371905
      2         11           0        1.120515    2.233189   -0.205671
      3         11           0       -4.554546   -0.720293   -0.302132
      4         11           0        3.613043    0.435168   -0.926239
      5         11           0       -0.174843   -0.054296    1.998002
      6         11           0       -2.297943    1.379957    0.043008
      7         11           0        2.712381   -1.777089    0.764937
 ---------------------------------------------------------------------

 SCF Done:  E(UB3LYP) =  -1136.11190671     A.U. after   28 cycles

 The electronic state is 2-A.
 Alpha  occ. eigenvalues --  -38.45894 -38.44530 -38.44331 -38.44288 -38.44010
 Alpha  occ. eigenvalues --  -38.43529 -38.42764  -2.21621  -2.20350  -2.20229
 Alpha  occ. eigenvalues --   -2.20194  -2.19888  -2.19448  -2.18651  -1.15338
 Alpha  occ. eigenvalues --   -1.15320  -1.15233  -1.14037  -1.13988  -1.13952
 Alpha  occ. eigenvalues --   -1.13949  -1.13904  -1.13885  -1.13842  -1.13831
 Alpha  occ. eigenvalues --   -1.13808  -1.13530  -1.13520  -1.13502  -1.13146
 Alpha  occ. eigenvalues --   -1.13129  -1.13060  -1.12327  -1.12318  -1.12279
 Alpha  occ. eigenvalues --   -0.18225  -0.14524  -0.11445  -0.11086
 Alpha virt. eigenvalues --   -0.07400  -0.05226  -0.04445  -0.03198  -0.03152
 Alpha virt. eigenvalues --   -0.02541  -0.02232  -0.01580  -0.00860  -0.00286
 Alpha virt. eigenvalues --   -0.00142   0.00056   0.00276   0.00543   0.00764

  Beta  occ. eigenvalues --  -38.45942 -38.44462 -38.44264 -38.44218 -38.43972
  Beta  occ. eigenvalues --  -38.43523 -38.42733  -2.21713  -2.20225  -2.20107
  Beta  occ. eigenvalues --   -2.20066  -2.19823  -2.19443  -2.18598  -1.15394
  Beta  occ. eigenvalues --   -1.15374  -1.15306  -1.13950  -1.13901  -1.13874
  Beta  occ. eigenvalues --   -1.13860  -1.13824  -1.13802  -1.13745  -1.13741
  Beta  occ. eigenvalues --   -1.13729  -1.13487  -1.13467  -1.13437  -1.13142
  Beta  occ. eigenvalues --   -1.13122  -1.13032  -1.12293  -1.12288  -1.12215
  Beta  occ. eigenvalues --   -0.17693  -0.13764  -0.11108
  Beta virt. eigenvalues --   -0.07604  -0.07293  -0.04808  -0.03749  -0.03154
  Beta virt. eigenvalues --   -0.03091  -0.02134  -0.01713  -0.01267  -0.00489
  Beta virt. eigenvalues --   -0.00085  -0.00010   0.00106   0.00388   0.00706

 Mulliken charges and spin densities:
               1          2
     1  Na  -0.295246  -0.332145
     2  Na  -0.445593   0.145510
     3  Na   0.366422   0.200276
     4  Na   0.247520   0.416156
     5  Na   0.042884   0.210884
     6  Na  -0.075844   0.208243
     7  Na   0.159855   0.151075
 Sum of Mulliken charges =  -0.00000   1.00000

 Dipole moment (field-independent basis, Debye):
    X=             -0.4014    Y=             -0.5936    Z=              0.3242  Tot=              0.7865
 Quadrupole moment (field-independent basis, Debye-Ang):
   XX=            -62.4075   YY=            -75.0614   ZZ=            -65.6800
   XY=              0.1401   XZ=             -0.6348   YZ=             -1.8533

 Normal termination of Gaussian 16 at Thu Dec  7 11:59:24 2023.
