 Gaussian 16, Revision B.01,
 Gaussian 16:  ES64L-G16RevB.01 20-Dec-2017

 -------------------------
 #P B3LYP/6-311+g(d) force
 -------------------------

 -----
 DPGEN
 -----
 Symbolic Z-matrix:
 Charge =  0 Multiplicity = 2

                         Standard orientation:
 ---------------------------------------------------------------------
 Center     Atomic      Atomic             Coordinates (Angstroms)
 Number     Number       Type             X           Y           Z
 ---------------------------------------------------------------------
      1         11           0       -3.385480   -0.823383   -1.470819
      2         11           0        1.603192   -2.704597    0.665089
      3         11           0       -2.048855    2.079574    0.855640
      4         11           0       -1.239771   -1.025348    1.779818
      5         11           0        1.657399    2.667294    0.142037
      6         11           0       -0.208848   -0.213586   -1.258346
      7         11           0        3.622361    0.020046   -0.713419
 ---------------------------------------------------------------------

 SCF Done:  E(UB3LYP) =  -1136.12879361     A.U. after   20 cycles

 The electronic state is 2-A.
 Alpha  occ. eigenvalues --  -38.44592 -38.44386 -38.44028 -38.43924 -38.43824
 Alpha  occ. eigenvalues --  -38.43363 -38.43269  -2.20424  -2.20180  -2.19945
 Alpha  occ. eigenvalues --   -2.19756  -2.19705  -2.19152  -2.19077  -1.14100
 Alpha  occ. eigenvalues --   -1.14057  -1.14029  -1.13861  -1.13831  -1.13812
 Alpha  occ. eigenvalues --   -1.13672  -1.13590  -1.13572  -1.13460  -1.13408
 Alpha  occ. eigenvalues --   -1.13382  -1.13376  -1.13340  -1.13306  -1.12833
 Alpha  occ. eigenvalues --   -1.12825  -1.12789  -1.12750  -1.12738  -1.12716
 Alpha  occ. eigenvalues --   -0.17860  -0.13560  -0.11834  -0.11088
 Alpha virt. eigenvalues --   -0.06151  -0.05438  -0.04883  -0.03138  -0.02667
 Alpha virt. eigenvalues --   -0.02429  -0.02166  -0.01180  -0.00752  -0.00336
 Alpha virt. eigenvalues --   -0.00227   0.00206   0.00413   0.00571   0.00779

  Beta  occ. eigenvalues --  -38.44511 -38.44377 -38.44002 -38.43893 -38.43768
  Beta  occ. eigenvalues --  -38.43370 -38.43262  -2.20275  -2.20163  -2.19900
  Beta  occ. eigenvalues --   -2.19701  -2.19602  -2.19167  -2.19065  -1.13989
  Beta  occ. eigenvalues --   -1.13955  -1.13932  -1.13848  -1.13818  -1.13804
  Beta  occ. eigenvalues --   -1.13627  -1.13566  -1.13527  -1.13407  -1.13368
  Beta  occ. eigenvalues --   -1.13339  -1.13316  -1.13264  -1.13232  -1.12844
  Beta  occ. eigenvalues --   -1.12836  -1.12790  -1.12739  -1.12731  -1.12702
  Beta  occ. eigenvalues --   -0.17273  -0.13226  -0.11576
  Beta virt. eigenvalues --   -0.07330  -0.05899  -0.05318  -0.04479  -0.02889
  Beta virt. eigenvalues --   -0.02182  -0.01997  -0.01518  -0.01055  -0.00496
  Beta virt. eigenvalues --   -0.00220  -0.00084   0.00281   0.00579   0.00712

 Mulliken charges and spin densities:
               1          2
     1  Na   0.149183   0.176069
     2  Na  -0.363719   0.039308
     3  Na   0.019980   0.182011
     4  Na   0.174430   0.342925
     5  Na  -0.224885  -0.044280
     6  Na  -0.656619   0.314768
     7  Na   0.901630  -0.010801
 Sum of Mulliken charges =  -0.00000   1.00000

 Dipole moment (field-independent basis, Debye):
    X=             -0.3482    Y=             -0.1175    Z=              0.1483  Tot=              0.3963
 Quadrupole moment (field-independent basis, Debye-Ang):
   XX=            -52.8679   YY=            -69.9194   ZZ=            -71.7853
   XY=             -1.7412   XZ=             -1.1336   YZ=              1.1397

 Normal termination of Gaussian 16 at Tue Dec  5 18:54:26 2023.
