 Gaussian 16, Revision B.01,
 Gaussian 16:  ES64L-G16RevB.01 20-Dec-2017

 -------------------------
 #P B3LYP/6-311+g(d) force
 -------------------------

 -----
 DPGEN
 -----
 Symbolic Z-matrix:
 Charge =  0 Multiplicity = 2

                         Standard orientation:
 ---------------------------------------------------------------------
 Center     Atomic      Atomic             Coordinates (Angstroms)
 Number     Number       Type             X           Y           Z
 ---------------------------------------------------------------------
      1         11           0       -0.663903   -2.313167    1.589743
      2         11           0        0.897575    2.464402   -1.127906
      3         11           0        2.833029   -1.067677   -1.195428
      4         11           0       -1.824016    2.461608    0.758289
      5         11           0       -3.553803   -0.756021   -0.540882
      6         11           0        2.331944    0.452184    2.093784
      7         11           0       -0.020825   -1.241328   -1.577601
 ---------------------------------------------------------------------

 SCF Done:  E(UB3LYP) =  -1136.12032529     A.U. after   19 cycles

 The electronic state is 2-A.
 Alpha  occ. eigenvalues --  -38.44905 -38.44664 -38.44503 -38.44104 -38.43713
 Alpha  occ. eigenvalues --  -38.43645 -38.43634  -2.20684  -2.20439  -2.20257
 Alpha  occ. eigenvalues --   -2.19965  -2.19629  -2.19429  -2.19417  -1.14341
 Alpha  occ. eigenvalues --   -1.14316  -1.14306  -1.14115  -1.14107  -1.14047
 Alpha  occ. eigenvalues --   -1.13945  -1.13909  -1.13890  -1.13780  -1.13585
 Alpha  occ. eigenvalues --   -1.13578  -1.13282  -1.13264  -1.13234  -1.13143
 Alpha  occ. eigenvalues --   -1.13105  -1.13092  -1.13073  -1.13059  -1.13023
 Alpha  occ. eigenvalues --   -0.17378  -0.12796  -0.11864  -0.11509
 Alpha virt. eigenvalues --   -0.06223  -0.05325  -0.04572  -0.03534  -0.03191
 Alpha virt. eigenvalues --   -0.03080  -0.01698  -0.00994  -0.00633  -0.00333
 Alpha virt. eigenvalues --   -0.00015   0.00137   0.00309   0.00468   0.00724

  Beta  occ. eigenvalues --  -38.44823 -38.44629 -38.44506 -38.44079 -38.43664
  Beta  occ. eigenvalues --  -38.43648 -38.43626  -2.20531  -2.20373  -2.20263
  Beta  occ. eigenvalues --   -2.19924  -2.19543  -2.19423  -2.19416  -1.14233
  Beta  occ. eigenvalues --   -1.14215  -1.14198  -1.14074  -1.14057  -1.13995
  Beta  occ. eigenvalues --   -1.13945  -1.13913  -1.13895  -1.13732  -1.13554
  Beta  occ. eigenvalues --   -1.13542  -1.13230  -1.13206  -1.13157  -1.13141
  Beta  occ. eigenvalues --   -1.13092  -1.13085  -1.13070  -1.13062  -1.13020
  Beta  occ. eigenvalues --   -0.16692  -0.12605  -0.11752
  Beta virt. eigenvalues --   -0.07586  -0.06004  -0.05186  -0.04119  -0.03282
  Beta virt. eigenvalues --   -0.02670  -0.02178  -0.01583  -0.00808  -0.00453
  Beta virt. eigenvalues --   -0.00165   0.00050   0.00279   0.00390   0.00563

 Mulliken charges and spin densities:
               1          2
     1  Na  -0.551896   0.251686
     2  Na  -0.435754   0.022049
     3  Na   0.296558  -0.027769
     4  Na  -0.109639   0.000982
     5  Na   0.441386  -0.070905
     6  Na  -0.007896   0.519815
     7  Na   0.367241   0.304142
 Sum of Mulliken charges =  -0.00000   1.00000

 Dipole moment (field-independent basis, Debye):
    X=             -0.0747    Y=             -0.3956    Z=              0.3916  Tot=              0.5617
 Quadrupole moment (field-independent basis, Debye-Ang):
   XX=            -57.2409   YY=            -73.2772   ZZ=            -66.7047
   XY=              1.1856   XZ=             -0.0621   YZ=             -0.6816

 Normal termination of Gaussian 16 at Sun Dec  3 21:21:13 2023.
