 Gaussian 16, Revision B.01,
 Gaussian 16:  ES64L-G16RevB.01 20-Dec-2017

 -------------------------
 #P B3LYP/6-311+g(d) force
 -------------------------

 -----
 DPGEN
 -----
 Symbolic Z-matrix:
 Charge =  0 Multiplicity = 2

                         Standard orientation:
 ---------------------------------------------------------------------
 Center     Atomic      Atomic             Coordinates (Angstroms)
 Number     Number       Type             X           Y           Z
 ---------------------------------------------------------------------
      1         11           0        0.919816    2.508410    0.291968
      2         11           0       -2.115828    2.858313   -0.526971
      3         11           0       -3.173254   -0.877724   -0.900610
      4         11           0       -0.937433   -0.382281    1.550844
      5         11           0        2.525826   -0.467816    1.247139
      6         11           0       -1.187962   -3.145489   -0.127990
      7         11           0        3.968836   -0.493414   -1.534378
 ---------------------------------------------------------------------

 SCF Done:  E(UB3LYP) =  -1136.12382555     A.U. after   19 cycles

 The electronic state is 2-A.
 Alpha  occ. eigenvalues --  -38.44476 -38.44276 -38.44200 -38.43936 -38.43905
 Alpha  occ. eigenvalues --  -38.43396 -38.43385  -2.20317  -2.20134  -2.20028
 Alpha  occ. eigenvalues --   -2.19825  -2.19759  -2.19248  -2.19210  -1.14025
 Alpha  occ. eigenvalues --   -1.13986  -1.13960  -1.13805  -1.13788  -1.13729
 Alpha  occ. eigenvalues --   -1.13714  -1.13700  -1.13665  -1.13511  -1.13477
 Alpha  occ. eigenvalues --   -1.13436  -1.13421  -1.13390  -1.13382  -1.12916
 Alpha  occ. eigenvalues --   -1.12916  -1.12901  -1.12883  -1.12864  -1.12850
 Alpha  occ. eigenvalues --   -0.17404  -0.13844  -0.12533  -0.10623
 Alpha virt. eigenvalues --   -0.06076  -0.05368  -0.04667  -0.04081  -0.02662
 Alpha virt. eigenvalues --   -0.02183  -0.01553  -0.01242  -0.00993  -0.00600
 Alpha virt. eigenvalues --   -0.00203   0.00300   0.00348   0.00491   0.00590

  Beta  occ. eigenvalues --  -38.44475 -38.44244 -38.44198 -38.43850 -38.43850
  Beta  occ. eigenvalues --  -38.43388 -38.43375  -2.20316  -2.20073  -2.20026
  Beta  occ. eigenvalues --   -2.19728  -2.19598  -2.19239  -2.19196  -1.14021
  Beta  occ. eigenvalues --   -1.13971  -1.13959  -1.13764  -1.13750  -1.13714
  Beta  occ. eigenvalues --   -1.13687  -1.13678  -1.13675  -1.13450  -1.13389
  Beta  occ. eigenvalues --   -1.13365  -1.13319  -1.13280  -1.13274  -1.12918
  Beta  occ. eigenvalues --   -1.12909  -1.12875  -1.12851  -1.12839  -1.12837
  Beta  occ. eigenvalues --   -0.16845  -0.13379  -0.12266
  Beta virt. eigenvalues --   -0.07115  -0.05896  -0.05027  -0.04163  -0.03932
  Beta virt. eigenvalues --   -0.02326  -0.01529  -0.01407  -0.01056  -0.00944
  Beta virt. eigenvalues --   -0.00440   0.00083   0.00436   0.00557   0.00645

 Mulliken charges and spin densities:
               1          2
     1  Na  -0.322143   0.063091
     2  Na  -0.038419   0.098880
     3  Na  -0.191761   0.317878
     4  Na   0.772574  -0.036605
     5  Na   0.008265   0.057877
     6  Na  -0.148544   0.062109
     7  Na  -0.079971   0.436771
 Sum of Mulliken charges =  -0.00000   1.00000

 Dipole moment (field-independent basis, Debye):
    X=             -0.7677    Y=             -0.6455    Z=             -0.3185  Tot=              1.0524
 Quadrupole moment (field-independent basis, Debye-Ang):
   XX=            -68.5262   YY=            -63.0124   ZZ=            -68.7412
   XY=              1.3446   XZ=              0.8175   YZ=              0.7417

 Normal termination of Gaussian 16 at Tue Nov 28 23:27:57 2023.
