 Gaussian 16, Revision B.01,
 Gaussian 16:  ES64L-G16RevB.01 20-Dec-2017

 -------------------------
 #P B3LYP/6-311+g(d) force
 -------------------------

 -----
 DPGEN
 -----
 Symbolic Z-matrix:
 Charge =  0 Multiplicity = 2

                         Standard orientation:
 ---------------------------------------------------------------------
 Center     Atomic      Atomic             Coordinates (Angstroms)
 Number     Number       Type             X           Y           Z
 ---------------------------------------------------------------------
      1         11           0        4.318996   -0.924787   -0.630172
      2         11           0       -0.381086    2.633635   -0.773191
      3         11           0       -1.751167    0.825225    1.722354
      4         11           0       -2.474394    0.065421   -1.892770
      5         11           0        0.463162   -0.984070   -0.830035
      6         11           0       -2.000899   -2.615940    0.847747
      7         11           0        1.825387    1.000515    1.556066
 ---------------------------------------------------------------------

 SCF Done:  E(UB3LYP) =  -1136.12883955     A.U. after   22 cycles

 The electronic state is 2-A.
 Alpha  occ. eigenvalues --  -38.44432 -38.44324 -38.44050 -38.43957 -38.43498
 Alpha  occ. eigenvalues --  -38.43374 -38.43134  -2.20294  -2.20068  -2.19934
 Alpha  occ. eigenvalues --   -2.19791  -2.19400  -2.19195  -2.18993  -1.13989
 Alpha  occ. eigenvalues --   -1.13934  -1.13886  -1.13742  -1.13737  -1.13686
 Alpha  occ. eigenvalues --   -1.13620  -1.13588  -1.13543  -1.13501  -1.13463
 Alpha  occ. eigenvalues --   -1.13375  -1.13121  -1.13080  -1.13002  -1.12861
 Alpha  occ. eigenvalues --   -1.12856  -1.12816  -1.12669  -1.12655  -1.12629
 Alpha  occ. eigenvalues --   -0.18245  -0.12928  -0.11726  -0.11491
 Alpha virt. eigenvalues --   -0.06314  -0.04760  -0.04634  -0.03108  -0.02995
 Alpha virt. eigenvalues --   -0.02665  -0.02043  -0.01094  -0.00848  -0.00118
 Alpha virt. eigenvalues --    0.00086   0.00203   0.00340   0.00642   0.00815

  Beta  occ. eigenvalues --  -38.44369 -38.44317 -38.43993 -38.43933 -38.43481
  Beta  occ. eigenvalues --  -38.43354 -38.43123  -2.20178  -2.20056  -2.19831
  Beta  occ. eigenvalues --   -2.19750  -2.19371  -2.19158  -2.18977  -1.13902
  Beta  occ. eigenvalues --   -1.13862  -1.13800  -1.13733  -1.13728  -1.13679
  Beta  occ. eigenvalues --   -1.13544  -1.13513  -1.13477  -1.13462  -1.13433
  Beta  occ. eigenvalues --   -1.13335  -1.13079  -1.13056  -1.12988  -1.12836
  Beta  occ. eigenvalues --   -1.12818  -1.12794  -1.12657  -1.12649  -1.12591
  Beta  occ. eigenvalues --   -0.17484  -0.12703  -0.11431
  Beta virt. eigenvalues --   -0.07688  -0.06062  -0.04490  -0.04348  -0.02785
  Beta virt. eigenvalues --   -0.02471  -0.02116  -0.01646  -0.00962  -0.00484
  Beta virt. eigenvalues --   -0.00063   0.00203   0.00276   0.00412   0.00741

 Mulliken charges and spin densities:
               1          2
     1  Na   0.136619  -0.021001
     2  Na   0.070401   0.041252
     3  Na   0.128794   0.466252
     4  Na   0.212139   0.228691
     5  Na  -0.539049   0.330752
     6  Na  -0.018658  -0.046082
     7  Na   0.009754   0.000135
 Sum of Mulliken charges =  -0.00000   1.00000

 Dipole moment (field-independent basis, Debye):
    X=             -0.1760    Y=              0.2655    Z=             -0.0218  Tot=              0.3192
 Quadrupole moment (field-independent basis, Debye-Ang):
   XX=            -55.9807   YY=            -70.6860   ZZ=            -66.2276
   XY=              0.2069   XZ=             -0.0992   YZ=             -1.1902

 Normal termination of Gaussian 16 at Tue Dec  5 23:50:44 2023.
