 Gaussian 16, Revision B.01,
 Gaussian 16:  ES64L-G16RevB.01 20-Dec-2017

 -------------------------
 #P B3LYP/6-311+g(d) force
 -------------------------

 -----
 DPGEN
 -----
 Symbolic Z-matrix:
 Charge =  0 Multiplicity = 2

                         Standard orientation:
 ---------------------------------------------------------------------
 Center     Atomic      Atomic             Coordinates (Angstroms)
 Number     Number       Type             X           Y           Z
 ---------------------------------------------------------------------
      1         11           0       -0.775958   -2.469541   -0.331759
      2         11           0        0.033414    0.633813    0.419493
      3         11           0        3.089028   -0.092687   -1.102862
      4         11           0        2.336758   -2.100772    1.273171
      5         11           0        2.513113    2.860522   -0.159111
      6         11           0       -3.479911    1.743257    0.813489
      7         11           0       -3.716444   -0.574591   -0.912421
 ---------------------------------------------------------------------

 SCF Done:  E(UB3LYP) =  -1136.11662839     A.U. after   27 cycles

 The electronic state is 2-A.
 Alpha  occ. eigenvalues --  -38.45105 -38.44930 -38.44740 -38.43457 -38.43316
 Alpha  occ. eigenvalues --  -38.43159 -38.43066  -2.20986  -2.20786  -2.20621
 Alpha  occ. eigenvalues --   -2.19335  -2.19167  -2.19034  -2.18936  -1.14671
 Alpha  occ. eigenvalues --   -1.14654  -1.14621  -1.14517  -1.14447  -1.14410
 Alpha  occ. eigenvalues --   -1.14351  -1.14282  -1.14233  -1.13011  -1.12954
 Alpha  occ. eigenvalues --   -1.12947  -1.12832  -1.12816  -1.12807  -1.12707
 Alpha  occ. eigenvalues --   -1.12691  -1.12650  -1.12623  -1.12602  -1.12528
 Alpha  occ. eigenvalues --   -0.17643  -0.14642  -0.12268  -0.09842
 Alpha virt. eigenvalues --   -0.07150  -0.05348  -0.04328  -0.03599  -0.02973
 Alpha virt. eigenvalues --   -0.02479  -0.01676  -0.01349  -0.00811  -0.00567
 Alpha virt. eigenvalues --   -0.00248   0.00133   0.00336   0.00539   0.00568

  Beta  occ. eigenvalues --  -38.45093 -38.44916 -38.44738 -38.43391 -38.43301
  Beta  occ. eigenvalues --  -38.43113 -38.43018  -2.20969  -2.20769  -2.20618
  Beta  occ. eigenvalues --   -2.19213  -2.19140  -2.18949  -2.18850  -1.14655
  Beta  occ. eigenvalues --   -1.14648  -1.14584  -1.14482  -1.14444  -1.14364
  Beta  occ. eigenvalues --   -1.14337  -1.14288  -1.14235  -1.12932  -1.12871
  Beta  occ. eigenvalues --   -1.12865  -1.12817  -1.12798  -1.12785  -1.12641
  Beta  occ. eigenvalues --   -1.12633  -1.12600  -1.12566  -1.12544  -1.12458
  Beta  occ. eigenvalues --   -0.17326  -0.14007  -0.11853
  Beta virt. eigenvalues --   -0.06999  -0.06378  -0.05129  -0.04033  -0.03456
  Beta virt. eigenvalues --   -0.02506  -0.02082  -0.01512  -0.00983  -0.00773
  Beta virt. eigenvalues --   -0.00208   0.00015   0.00300   0.00462   0.00641

 Mulliken charges and spin densities:
               1          2
     1  Na   0.015646   0.202056
     2  Na  -2.114497  -0.062648
     3  Na   1.151871   0.128785
     4  Na   0.783925   0.359999
     5  Na   0.141885  -0.022167
     6  Na  -0.254417   0.344324
     7  Na   0.275586   0.049652
 Sum of Mulliken charges =  -0.00000   1.00000

 Dipole moment (field-independent basis, Debye):
    X=              0.5276    Y=             -0.1782    Z=             -0.5938  Tot=              0.8141
 Quadrupole moment (field-independent basis, Debye-Ang):
   XX=            -63.8630   YY=            -72.0449   ZZ=            -65.8595
   XY=              5.2723   XZ=              0.5755   YZ=              3.0697

 Normal termination of Gaussian 16 at Tue Dec  5 13:24:10 2023.
