 Gaussian 16, Revision B.01,
 Gaussian 16:  ES64L-G16RevB.01 20-Dec-2017

 -------------------------
 #P B3LYP/6-311+g(d) force
 -------------------------

 -----
 DPGEN
 -----
 Symbolic Z-matrix:
 Charge =  0 Multiplicity = 2

                         Standard orientation:
 ---------------------------------------------------------------------
 Center     Atomic      Atomic             Coordinates (Angstroms)
 Number     Number       Type             X           Y           Z
 ---------------------------------------------------------------------
      1         11           0        3.223304    0.755631   -0.467249
      2         11           0        0.105476    3.107819   -0.033507
      3         11           0       -2.839263    1.310600    0.055978
      4         11           0        2.138733   -2.446897   -0.013636
      5         11           0        0.372807   -0.122278    2.177147
      6         11           0       -2.602776   -2.358401   -0.091416
      7         11           0       -0.398280   -0.246474   -1.627316
 ---------------------------------------------------------------------

 SCF Done:  E(UB3LYP) =  -1136.13256856     A.U. after   20 cycles

 The electronic state is 2-A.
 Alpha  occ. eigenvalues --  -38.44396 -38.44208 -38.44134 -38.44036 -38.43757
 Alpha  occ. eigenvalues --  -38.43618 -38.43202  -2.20187  -2.20034  -2.19933
 Alpha  occ. eigenvalues --   -2.19815  -2.19588  -2.19509  -2.19006  -1.13859
 Alpha  occ. eigenvalues --   -1.13841  -1.13833  -1.13729  -1.13702  -1.13655
 Alpha  occ. eigenvalues --   -1.13602  -1.13594  -1.13574  -1.13492  -1.13469
 Alpha  occ. eigenvalues --   -1.13462  -1.13247  -1.13215  -1.13205  -1.13199
 Alpha  occ. eigenvalues --   -1.13153  -1.13126  -1.12676  -1.12669  -1.12656
 Alpha  occ. eigenvalues --   -0.17824  -0.13165  -0.11991  -0.10462
 Alpha virt. eigenvalues --   -0.05934  -0.05691  -0.04803  -0.03295  -0.02654
 Alpha virt. eigenvalues --   -0.02541  -0.01750  -0.01375  -0.00879  -0.00594
 Alpha virt. eigenvalues --   -0.00057   0.00314   0.00688   0.00743   0.00819

  Beta  occ. eigenvalues --  -38.44383 -38.44206 -38.44131 -38.44038 -38.43652
  Beta  occ. eigenvalues --  -38.43570 -38.43201  -2.20165  -2.20032  -2.19931
  Beta  occ. eigenvalues --   -2.19821  -2.19421  -2.19394  -2.19007  -1.13831
  Beta  occ. eigenvalues --   -1.13826  -1.13820  -1.13723  -1.13688  -1.13658
  Beta  occ. eigenvalues --   -1.13595  -1.13581  -1.13571  -1.13487  -1.13471
  Beta  occ. eigenvalues --   -1.13465  -1.13141  -1.13110  -1.13091  -1.13081
  Beta  occ. eigenvalues --   -1.13065  -1.13060  -1.12673  -1.12661  -1.12654
  Beta  occ. eigenvalues --   -0.17142  -0.12970  -0.11824
  Beta virt. eigenvalues --   -0.06593  -0.05894  -0.05576  -0.04757  -0.02563
  Beta virt. eigenvalues --   -0.01986  -0.01666  -0.01505  -0.01267  -0.00929
  Beta virt. eigenvalues --   -0.00614   0.00116   0.00369   0.00743   0.00789

 Mulliken charges and spin densities:
               1          2
     1  Na   0.054305   0.061881
     2  Na  -0.080085  -0.027091
     3  Na   0.115580  -0.026344
     4  Na   0.124468  -0.046601
     5  Na  -0.373851   0.757420
     6  Na   0.095457  -0.090955
     7  Na   0.064127   0.371691
 Sum of Mulliken charges =  -0.00000   1.00000

 Dipole moment (field-independent basis, Debye):
    X=              0.0116    Y=             -0.3106    Z=              0.0001  Tot=              0.3108
 Quadrupole moment (field-independent basis, Debye-Ang):
   XX=            -55.6611   YY=            -62.0789   ZZ=            -76.0612
   XY=              0.4648   XZ=             -1.9120   YZ=             -0.3515

 Normal termination of Gaussian 16 at Wed Dec  6 01:20:25 2023.
