 Gaussian 16, Revision B.01,
 Gaussian 16:  ES64L-G16RevB.01 20-Dec-2017

 -------------------------
 #P B3LYP/6-311+g(d) force
 -------------------------

 -----
 DPGEN
 -----
 Symbolic Z-matrix:
 Charge =  0 Multiplicity = 2

                         Standard orientation:
 ---------------------------------------------------------------------
 Center     Atomic      Atomic             Coordinates (Angstroms)
 Number     Number       Type             X           Y           Z
 ---------------------------------------------------------------------
      1         11           0        0.522388    0.724953   -0.265927
      2         11           0        3.461801    2.368514    0.204226
      3         11           0        0.405871   -2.443078    0.065881
      4         11           0        3.179837   -1.312414   -0.540446
      5         11           0       -3.099298    1.980725    0.097541
      6         11           0       -2.834886   -0.474197   -1.787608
      7         11           0       -1.635713   -0.844504    2.226331
 ---------------------------------------------------------------------

 SCF Done:  E(UB3LYP) =  -1136.11960186     A.U. after   23 cycles

 The electronic state is 2-A.
 Alpha  occ. eigenvalues --  -38.44765 -38.44660 -38.44610 -38.44068 -38.43795
 Alpha  occ. eigenvalues --  -38.43488 -38.42540  -2.20619  -2.20501  -2.20424
 Alpha  occ. eigenvalues --   -2.19917  -2.19716  -2.19274  -2.18459  -1.14317
 Alpha  occ. eigenvalues --   -1.14286  -1.14226  -1.14225  -1.14157  -1.14118
 Alpha  occ. eigenvalues --   -1.14084  -1.14067  -1.14029  -1.13578  -1.13549
 Alpha  occ. eigenvalues --   -1.13529  -1.13430  -1.13409  -1.13326  -1.12941
 Alpha  occ. eigenvalues --   -1.12939  -1.12903  -1.12156  -1.12118  -1.12098
 Alpha  occ. eigenvalues --   -0.17887  -0.14139  -0.11599  -0.10751
 Alpha virt. eigenvalues --   -0.06565  -0.06021  -0.03926  -0.03494  -0.02825
 Alpha virt. eigenvalues --   -0.02369  -0.02255  -0.01336  -0.00892  -0.00545
 Alpha virt. eigenvalues --    0.00014   0.00191   0.00329   0.00488   0.00613

  Beta  occ. eigenvalues --  -38.44748 -38.44614 -38.44593 -38.43976 -38.43785
  Beta  occ. eigenvalues --  -38.43482 -38.42534  -2.20590  -2.20438  -2.20375
  Beta  occ. eigenvalues --   -2.19745  -2.19701  -2.19263  -2.18453  -1.14298
  Beta  occ. eigenvalues --   -1.14265  -1.14200  -1.14183  -1.14103  -1.14064
  Beta  occ. eigenvalues --   -1.14063  -1.14025  -1.13988  -1.13460  -1.13435
  Beta  occ. eigenvalues --   -1.13413  -1.13403  -1.13385  -1.13323  -1.12931
  Beta  occ. eigenvalues --   -1.12930  -1.12897  -1.12155  -1.12113  -1.12065
  Beta  occ. eigenvalues --   -0.17329  -0.13792  -0.11318
  Beta virt. eigenvalues --   -0.07171  -0.06230  -0.05723  -0.03796  -0.03025
  Beta virt. eigenvalues --   -0.02354  -0.02120  -0.01707  -0.01096  -0.00768
  Beta virt. eigenvalues --   -0.00207   0.00099   0.00251   0.00465   0.00626

 Mulliken charges and spin densities:
               1          2
     1  Na  -2.554943   0.591291
     2  Na   0.308265  -0.132116
     3  Na   0.578481   0.131362
     4  Na   0.545199  -0.076503
     5  Na   0.622462   0.071544
     6  Na   0.600843   0.170680
     7  Na  -0.100308   0.243742
 Sum of Mulliken charges =  -0.00000   1.00000

 Dipole moment (field-independent basis, Debye):
    X=             -0.3480    Y=             -0.1670    Z=              0.1467  Tot=              0.4129
 Quadrupole moment (field-independent basis, Debye-Ang):
   XX=            -55.2890   YY=            -67.7937   ZZ=            -71.9943
   XY=             -3.1803   XZ=             -1.6689   YZ=              3.4169

 Normal termination of Gaussian 16 at Tue Dec  5 21:49:35 2023.
