 Gaussian 16, Revision B.01,
 Gaussian 16:  ES64L-G16RevB.01 20-Dec-2017

 -------------------------
 #P B3LYP/6-311+g(d) force
 -------------------------

 -----
 DPGEN
 -----
 Symbolic Z-matrix:
 Charge =  0 Multiplicity = 2

                         Standard orientation:
 ---------------------------------------------------------------------
 Center     Atomic      Atomic             Coordinates (Angstroms)
 Number     Number       Type             X           Y           Z
 ---------------------------------------------------------------------
      1         11           0       -3.211463   -1.564669   -0.052592
      2         11           0        3.146536    1.431988    0.432366
      3         11           0        0.214527    2.228643   -0.808194
      4         11           0        2.804702   -2.100171   -0.183607
      5         11           0        0.062134   -0.715297    1.678112
      6         11           0       -0.219677   -0.800014   -1.523765
      7         11           0       -2.796759    1.519520    0.457679
 ---------------------------------------------------------------------

 SCF Done:  E(UB3LYP) =  -1136.12211005     A.U. after   25 cycles

 The electronic state is 2-A.
 Alpha  occ. eigenvalues --  -38.44751 -38.44736 -38.44541 -38.44402 -38.44198
 Alpha  occ. eigenvalues --  -38.43035 -38.42316  -2.20568  -2.20553  -2.20396
 Alpha  occ. eigenvalues --   -2.20257  -2.19996  -2.19003  -2.18227  -1.14264
 Alpha  occ. eigenvalues --   -1.14231  -1.14224  -1.14217  -1.14208  -1.14185
 Alpha  occ. eigenvalues --   -1.14128  -1.14039  -1.13996  -1.13923  -1.13907
 Alpha  occ. eigenvalues --   -1.13895  -1.13668  -1.13653  -1.13641  -1.12710
 Alpha  occ. eigenvalues --   -1.12644  -1.12598  -1.11920  -1.11871  -1.11864
 Alpha  occ. eigenvalues --   -0.18501  -0.13981  -0.11562  -0.10356
 Alpha virt. eigenvalues --   -0.06858  -0.06164  -0.03634  -0.03436  -0.02667
 Alpha virt. eigenvalues --   -0.02440  -0.02146  -0.01589  -0.00669  -0.00200
 Alpha virt. eigenvalues --    0.00098   0.00189   0.00466   0.00587   0.00677

  Beta  occ. eigenvalues --  -38.44738 -38.44731 -38.44502 -38.44387 -38.44198
  Beta  occ. eigenvalues --  -38.42947 -38.42292  -2.20563  -2.20530  -2.20327
  Beta  occ. eigenvalues --   -2.20232  -2.19999  -2.18843  -2.18188  -1.14263
  Beta  occ. eigenvalues --   -1.14210  -1.14204  -1.14200  -1.14198  -1.14169
  Beta  occ. eigenvalues --   -1.14073  -1.13988  -1.13944  -1.13907  -1.13884
  Beta  occ. eigenvalues --   -1.13865  -1.13667  -1.13648  -1.13638  -1.12603
  Beta  occ. eigenvalues --   -1.12522  -1.12487  -1.11888  -1.11849  -1.11814
  Beta  occ. eigenvalues --   -0.17818  -0.13687  -0.11383
  Beta virt. eigenvalues --   -0.06778  -0.06499  -0.06109  -0.03450  -0.02883
  Beta virt. eigenvalues --   -0.02436  -0.01914  -0.01615  -0.01109  -0.00670
  Beta virt. eigenvalues --    0.00011   0.00131   0.00232   0.00541   0.00664

 Mulliken charges and spin densities:
               1          2
     1  Na   0.503441   0.143869
     2  Na  -0.039245   0.000938
     3  Na   0.033930   0.037645
     4  Na   0.331526   0.047182
     5  Na  -0.400205   0.385442
     6  Na  -0.412741   0.348879
     7  Na  -0.016704   0.036046
 Sum of Mulliken charges =  -0.00000   1.00000

 Dipole moment (field-independent basis, Debye):
    X=             -0.0501    Y=             -0.5298    Z=              0.2810  Tot=              0.6018
 Quadrupole moment (field-independent basis, Debye-Ang):
   XX=            -47.6670   YY=            -70.2471   ZZ=            -74.7987
   XY=              0.3308   XZ=             -0.0348   YZ=              1.3895

 Normal termination of Gaussian 16 at Thu Dec  7 22:28:46 2023.
