 Gaussian 16, Revision B.01,
 Gaussian 16:  ES64L-G16RevB.01 20-Dec-2017

 -------------------------
 #P B3LYP/6-311+g(d) force
 -------------------------

 -----
 DPGEN
 -----
 Symbolic Z-matrix:
 Charge =  0 Multiplicity = 2

                         Standard orientation:
 ---------------------------------------------------------------------
 Center     Atomic      Atomic             Coordinates (Angstroms)
 Number     Number       Type             X           Y           Z
 ---------------------------------------------------------------------
      1         11           0       -0.251106    0.013824   -1.640334
      2         11           0        2.093622   -2.327904   -0.131794
      3         11           0       -0.604860   -1.866705    1.723757
      4         11           0       -3.472593   -1.058776   -0.644707
      5         11           0        1.052821    2.385539    0.774714
      6         11           0       -2.297036    2.141497    0.322662
      7         11           0        3.479152    0.712524   -0.404298
 ---------------------------------------------------------------------

 SCF Done:  E(UB3LYP) =  -1136.12654955     A.U. after   21 cycles

 The electronic state is 2-A.
 Alpha  occ. eigenvalues --  -38.44658 -38.44513 -38.44487 -38.44123 -38.43754
 Alpha  occ. eigenvalues --  -38.43448 -38.43095  -2.20462  -2.20348  -2.20341
 Alpha  occ. eigenvalues --   -2.19947  -2.19588  -2.19279  -2.18951  -1.14130
 Alpha  occ. eigenvalues --   -1.14109  -1.14104  -1.14039  -1.14026  -1.14004
 Alpha  occ. eigenvalues --   -1.14000  -1.13986  -1.13952  -1.13623  -1.13615
 Alpha  occ. eigenvalues --   -1.13579  -1.13267  -1.13259  -1.13238  -1.12936
 Alpha  occ. eigenvalues --   -1.12912  -1.12903  -1.12618  -1.12607  -1.12601
 Alpha  occ. eigenvalues --   -0.17844  -0.13741  -0.12263  -0.10263
 Alpha virt. eigenvalues --   -0.06708  -0.05877  -0.04028  -0.03475  -0.03141
 Alpha virt. eigenvalues --   -0.02365  -0.01938  -0.01440  -0.00761  -0.00235
 Alpha virt. eigenvalues --   -0.00064   0.00193   0.00396   0.00670   0.00727

  Beta  occ. eigenvalues --  -38.44632 -38.44502 -38.44448 -38.44111 -38.43753
  Beta  occ. eigenvalues --  -38.43377 -38.43077  -2.20415  -2.20328  -2.20272
  Beta  occ. eigenvalues --   -2.19929  -2.19592  -2.19147  -2.18919  -1.14093
  Beta  occ. eigenvalues --   -1.14075  -1.14067  -1.14014  -1.13992  -1.13981
  Beta  occ. eigenvalues --   -1.13966  -1.13961  -1.13896  -1.13614  -1.13596
  Beta  occ. eigenvalues --   -1.13549  -1.13269  -1.13259  -1.13215  -1.12848
  Beta  occ. eigenvalues --   -1.12821  -1.12811  -1.12599  -1.12585  -1.12566
  Beta  occ. eigenvalues --   -0.17308  -0.13457  -0.11846
  Beta virt. eigenvalues --   -0.06815  -0.06504  -0.05836  -0.03687  -0.02973
  Beta virt. eigenvalues --   -0.02514  -0.02121  -0.01432  -0.01235  -0.00717
  Beta virt. eigenvalues --   -0.00050   0.00050   0.00258   0.00557   0.00720

 Mulliken charges and spin densities:
               1          2
     1  Na  -0.365008   0.025145
     2  Na   0.149126   0.102759
     3  Na  -0.368818   0.361486
     4  Na   0.430815   0.162134
     5  Na  -0.202828   0.110603
     6  Na  -0.035483   0.125619
     7  Na   0.392196   0.112255
 Sum of Mulliken charges =  -0.00000   1.00000

 Dipole moment (field-independent basis, Debye):
    X=             -0.3650    Y=             -0.0903    Z=             -0.1801  Tot=              0.4169
 Quadrupole moment (field-independent basis, Debye-Ang):
   XX=            -50.6380   YY=            -71.2712   ZZ=            -73.8169
   XY=              0.1844   XZ=             -1.3412   YZ=              1.5817

 Normal termination of Gaussian 16 at Thu Dec  7 02:24:50 2023.
