 Gaussian 16, Revision B.01,
 Gaussian 16:  ES64L-G16RevB.01 20-Dec-2017

 -------------------------
 #P B3LYP/6-311+g(d) force
 -------------------------

 -----
 DPGEN
 -----
 Symbolic Z-matrix:
 Charge =  0 Multiplicity = 2

                         Standard orientation:
 ---------------------------------------------------------------------
 Center     Atomic      Atomic             Coordinates (Angstroms)
 Number     Number       Type             X           Y           Z
 ---------------------------------------------------------------------
      1         11           0        2.399399   -0.723012   -1.649882
      2         11           0       -0.169067   -2.291497   -1.190271
      3         11           0       -2.290796    1.769927   -1.626696
      4         11           0        0.140112   -1.180842    2.093657
      5         11           0        2.872757    1.178234    0.885258
      6         11           0       -2.982572   -0.711966    0.946085
      7         11           0        0.030166    1.959156    0.541848
 ---------------------------------------------------------------------

 SCF Done:  E(UB3LYP) =  -1136.12396599     A.U. after   21 cycles

 The electronic state is 2-A.
 Alpha  occ. eigenvalues --  -38.44518 -38.44466 -38.44198 -38.44032 -38.43772
 Alpha  occ. eigenvalues --  -38.43296 -38.43079  -2.20342  -2.20325  -2.20072
 Alpha  occ. eigenvalues --   -2.19855  -2.19663  -2.19148  -2.18993  -1.14054
 Alpha  occ. eigenvalues --   -1.14004  -1.13980  -1.13971  -1.13956  -1.13929
 Alpha  occ. eigenvalues --   -1.13777  -1.13714  -1.13702  -1.13534  -1.13494
 Alpha  occ. eigenvalues --   -1.13473  -1.13390  -1.13305  -1.13286  -1.12842
 Alpha  occ. eigenvalues --   -1.12799  -1.12771  -1.12679  -1.12658  -1.12621
 Alpha  occ. eigenvalues --   -0.18232  -0.13374  -0.12003  -0.11836
 Alpha virt. eigenvalues --   -0.05876  -0.04798  -0.04621  -0.03651  -0.03464
 Alpha virt. eigenvalues --   -0.02867  -0.01604  -0.00713  -0.00495   0.00020
 Alpha virt. eigenvalues --    0.00158   0.00290   0.00471   0.00568   0.00837

  Beta  occ. eigenvalues --  -38.44508 -38.44391 -38.44154 -38.43983 -38.43765
  Beta  occ. eigenvalues --  -38.43277 -38.43070  -2.20310  -2.20204  -2.19991
  Beta  occ. eigenvalues --   -2.19764  -2.19650  -2.19117  -2.18982  -1.14006
  Beta  occ. eigenvalues --   -1.13977  -1.13939  -1.13915  -1.13879  -1.13839
  Beta  occ. eigenvalues --   -1.13713  -1.13663  -1.13649  -1.13472  -1.13430
  Beta  occ. eigenvalues --   -1.13414  -1.13379  -1.13289  -1.13274  -1.12818
  Beta  occ. eigenvalues --   -1.12774  -1.12738  -1.12657  -1.12630  -1.12618
  Beta  occ. eigenvalues --   -0.17527  -0.13097  -0.11551
  Beta virt. eigenvalues --   -0.08170  -0.05764  -0.04366  -0.04175  -0.03386
  Beta virt. eigenvalues --   -0.02901  -0.02143  -0.01570  -0.00421  -0.00319
  Beta virt. eigenvalues --    0.00186   0.00271   0.00357   0.00465   0.00732

 Mulliken charges and spin densities:
               1          2
     1  Na  -0.234779   0.004688
     2  Na  -0.091940   0.258292
     3  Na   0.394612   0.188524
     4  Na  -0.165753   0.328803
     5  Na   0.952511  -0.018581
     6  Na   0.251957   0.011546
     7  Na  -1.106608   0.226727
 Sum of Mulliken charges =  -0.00000   1.00000

 Dipole moment (field-independent basis, Debye):
    X=             -0.2667    Y=             -0.3096    Z=              0.1076  Tot=              0.4225
 Quadrupole moment (field-independent basis, Debye-Ang):
   XX=            -56.9959   YY=            -76.3745   ZZ=            -64.1795
   XY=              2.2796   XZ=              0.9750   YZ=             -2.2823

 Normal termination of Gaussian 16 at Mon Dec  4 04:53:33 2023.
