 Gaussian 16, Revision B.01,
 Gaussian 16:  ES64L-G16RevB.01 20-Dec-2017

 -------------------------
 #P B3LYP/6-311+g(d) force
 -------------------------

 -----
 DPGEN
 -----
 Symbolic Z-matrix:
 Charge =  0 Multiplicity = 2

                         Standard orientation:
 ---------------------------------------------------------------------
 Center     Atomic      Atomic             Coordinates (Angstroms)
 Number     Number       Type             X           Y           Z
 ---------------------------------------------------------------------
      1         11           0       -3.015912   -1.333520   -0.121629
      2         11           0       -2.044359    2.401257    0.147315
      3         11           0       -0.106839    0.393247   -1.638639
      4         11           0        3.129087   -0.931653    0.093405
      5         11           0        1.979020    2.229453   -0.071328
      6         11           0       -0.174278   -0.186302    1.872030
      7         11           0        0.233280   -2.572481   -0.281154
 ---------------------------------------------------------------------

 SCF Done:  E(UB3LYP) =  -1136.13624377     A.U. after   19 cycles

 The electronic state is 2-A.
 Alpha  occ. eigenvalues --  -38.44343 -38.44062 -38.43875 -38.43767 -38.43293
 Alpha  occ. eigenvalues --  -38.43032 -38.42963  -2.20151  -2.19895  -2.19689
 Alpha  occ. eigenvalues --   -2.19614  -2.19218  -2.19014  -2.18878  -1.13823
 Alpha  occ. eigenvalues --   -1.13805  -1.13795  -1.13568  -1.13553  -1.13551
 Alpha  occ. eigenvalues --   -1.13374  -1.13355  -1.13322  -1.13315  -1.13272
 Alpha  occ. eigenvalues --   -1.13233  -1.12919  -1.12853  -1.12823  -1.12709
 Alpha  occ. eigenvalues --   -1.12666  -1.12629  -1.12555  -1.12535  -1.12490
 Alpha  occ. eigenvalues --   -0.18722  -0.13145  -0.12365  -0.10456
 Alpha virt. eigenvalues --   -0.05861  -0.05608  -0.04302  -0.03100  -0.02766
 Alpha virt. eigenvalues --   -0.02266  -0.01809  -0.01336  -0.00468  -0.00189
 Alpha virt. eigenvalues --   -0.00002   0.00332   0.00734   0.00819   0.00912

  Beta  occ. eigenvalues --  -38.44340 -38.44060 -38.43871 -38.43762 -38.43208
  Beta  occ. eigenvalues --  -38.42963 -38.42950  -2.20149  -2.19896  -2.19684
  Beta  occ. eigenvalues --   -2.19608  -2.19061  -2.18889  -2.18860  -1.13807
  Beta  occ. eigenvalues --   -1.13800  -1.13795  -1.13571  -1.13553  -1.13533
  Beta  occ. eigenvalues --   -1.13366  -1.13336  -1.13318  -1.13307  -1.13251
  Beta  occ. eigenvalues --   -1.13234  -1.12816  -1.12744  -1.12710  -1.12633
  Beta  occ. eigenvalues --   -1.12582  -1.12540  -1.12525  -1.12488  -1.12475
  Beta  occ. eigenvalues --   -0.17993  -0.12929  -0.12112
  Beta virt. eigenvalues --   -0.06555  -0.05827  -0.05596  -0.04287  -0.02346
  Beta virt. eigenvalues --   -0.01990  -0.01716  -0.01288  -0.01211  -0.00525
  Beta virt. eigenvalues --   -0.00222   0.00137   0.00355   0.00780   0.00811

 Mulliken charges and spin densities:
               1          2
     1  Na   0.159398  -0.085022
     2  Na   0.030098  -0.149369
     3  Na  -0.268174   0.550805
     4  Na   0.072072  -0.009768
     5  Na   0.243571  -0.096655
     6  Na  -0.476657   0.791819
     7  Na   0.239692  -0.001809
 Sum of Mulliken charges =  -0.00000   1.00000

 Dipole moment (field-independent basis, Debye):
    X=             -0.2580    Y=              0.1531    Z=              0.1213  Tot=              0.3236
 Quadrupole moment (field-independent basis, Debye-Ang):
   XX=            -51.8622   YY=            -63.9028   ZZ=            -75.9636
   XY=              0.0254   XZ=              0.3182   YZ=              1.2168

 Normal termination of Gaussian 16 at Sat Dec  9 06:08:52 2023.
