 Gaussian 16, Revision B.01,
 Gaussian 16:  ES64L-G16RevB.01 20-Dec-2017

 -------------------------
 #P B3LYP/6-311+g(d) force
 -------------------------

 -----
 DPGEN
 -----
 Symbolic Z-matrix:
 Charge =  0 Multiplicity = 2

                         Standard orientation:
 ---------------------------------------------------------------------
 Center     Atomic      Atomic             Coordinates (Angstroms)
 Number     Number       Type             X           Y           Z
 ---------------------------------------------------------------------
      1         11           0       -0.745714   -1.061877   -1.737769
      2         11           0       -1.126180   -0.572694    1.657906
      3         11           0        1.904371    0.795845    1.743614
      4         11           0       -0.724994    2.473769   -0.396409
      5         11           0       -3.828598   -0.305894   -0.026987
      6         11           0        2.490955    0.799296   -1.349548
      7         11           0        2.030161   -2.128446    0.109194
 ---------------------------------------------------------------------

 SCF Done:  E(UB3LYP) =  -1136.12869897     A.U. after   23 cycles

 The electronic state is 2-A.
 Alpha  occ. eigenvalues --  -38.44966 -38.44334 -38.43979 -38.43870 -38.43739
 Alpha  occ. eigenvalues --  -38.42935 -38.42793  -2.20770  -2.20219  -2.19899
 Alpha  occ. eigenvalues --   -2.19733  -2.19656  -2.18745  -2.18670  -1.14466
 Alpha  occ. eigenvalues --   -1.14413  -1.14403  -1.13921  -1.13879  -1.13822
 Alpha  occ. eigenvalues --   -1.13595  -1.13555  -1.13513  -1.13423  -1.13387
 Alpha  occ. eigenvalues --   -1.13339  -1.13334  -1.13315  -1.13249  -1.12439
 Alpha  occ. eigenvalues --   -1.12413  -1.12359  -1.12344  -1.12330  -1.12317
 Alpha  occ. eigenvalues --   -0.18653  -0.13736  -0.11775  -0.11027
 Alpha virt. eigenvalues --   -0.06527  -0.04756  -0.04466  -0.03273  -0.02953
 Alpha virt. eigenvalues --   -0.02642  -0.02175  -0.00773  -0.00528  -0.00088
 Alpha virt. eigenvalues --    0.00226   0.00281   0.00348   0.00780   0.00862

  Beta  occ. eigenvalues --  -38.44967 -38.44301 -38.43922 -38.43827 -38.43693
  Beta  occ. eigenvalues --  -38.42922 -38.42788  -2.20772  -2.20159  -2.19795
  Beta  occ. eigenvalues --   -2.19655  -2.19573  -2.18722  -2.18664  -1.14460
  Beta  occ. eigenvalues --   -1.14414  -1.14404  -1.13881  -1.13827  -1.13780
  Beta  occ. eigenvalues --   -1.13528  -1.13465  -1.13443  -1.13373  -1.13320
  Beta  occ. eigenvalues --   -1.13281  -1.13267  -1.13258  -1.13186  -1.12420
  Beta  occ. eigenvalues --   -1.12384  -1.12346  -1.12345  -1.12319  -1.12292
  Beta  occ. eigenvalues --   -0.17851  -0.13608  -0.10832
  Beta virt. eigenvalues --   -0.07725  -0.06367  -0.04438  -0.04067  -0.03032
  Beta virt. eigenvalues --   -0.02271  -0.02102  -0.01821  -0.00497  -0.00332
  Beta virt. eigenvalues --   -0.00047   0.00288   0.00331   0.00422   0.00865

 Mulliken charges and spin densities:
               1          2
     1  Na  -0.227474   0.327569
     2  Na  -0.246079   0.193901
     3  Na   0.340927   0.150922
     4  Na  -0.469945   0.045580
     5  Na   0.394334  -0.002982
     6  Na   0.154900   0.257348
     7  Na   0.053337   0.027661
 Sum of Mulliken charges =  -0.00000   1.00000

 Dipole moment (field-independent basis, Debye):
    X=             -0.9308    Y=              0.0417    Z=             -0.2150  Tot=              0.9563
 Quadrupole moment (field-independent basis, Debye-Ang):
   XX=            -50.1648   YY=            -77.1214   ZZ=            -66.6345
   XY=              0.1307   XZ=              0.4252   YZ=             -2.5241

 Normal termination of Gaussian 16 at Thu Dec  7 02:26:15 2023.
