 Gaussian 16, Revision B.01,
 Gaussian 16:  ES64L-G16RevB.01 20-Dec-2017

 -------------------------
 #P B3LYP/6-311+g(d) force
 -------------------------

 -----
 DPGEN
 -----
 Symbolic Z-matrix:
 Charge =  0 Multiplicity = 2

                         Standard orientation:
 ---------------------------------------------------------------------
 Center     Atomic      Atomic             Coordinates (Angstroms)
 Number     Number       Type             X           Y           Z
 ---------------------------------------------------------------------
      1         11           0       -2.070253   -2.388780    0.074267
      2         11           0        1.807573   -2.239614   -0.492143
      3         11           0        0.196152   -0.136872    2.325098
      4         11           0        3.138805    0.811317   -0.015593
      5         11           0        0.042464    2.910757   -0.207692
      6         11           0       -0.097635   -0.134618   -1.519311
      7         11           0       -3.017106    1.177810   -0.164625
 ---------------------------------------------------------------------

 SCF Done:  E(UB3LYP) =  -1136.13556649     A.U. after   19 cycles

 The electronic state is 2-A.
 Alpha  occ. eigenvalues --  -38.44090 -38.44087 -38.44048 -38.43724 -38.43596
 Alpha  occ. eigenvalues --  -38.43248 -38.43189  -2.19905  -2.19895  -2.19878
 Alpha  occ. eigenvalues --   -2.19530  -2.19472  -2.19188  -2.19080  -1.13575
 Alpha  occ. eigenvalues --   -1.13573  -1.13572  -1.13556  -1.13554  -1.13531
 Alpha  occ. eigenvalues --   -1.13526  -1.13506  -1.13492  -1.13241  -1.13210
 Alpha  occ. eigenvalues --   -1.13194  -1.13168  -1.13115  -1.13077  -1.12874
 Alpha  occ. eigenvalues --   -1.12844  -1.12802  -1.12748  -1.12739  -1.12703
 Alpha  occ. eigenvalues --   -0.18337  -0.12973  -0.12251  -0.10871
 Alpha virt. eigenvalues --   -0.05691  -0.05381  -0.04555  -0.03163  -0.02862
 Alpha virt. eigenvalues --   -0.02806  -0.01613  -0.01190  -0.00451  -0.00390
 Alpha virt. eigenvalues --   -0.00046   0.00333   0.00737   0.00851   0.00876

  Beta  occ. eigenvalues --  -38.44089 -38.44085 -38.43936 -38.43723 -38.43582
  Beta  occ. eigenvalues --  -38.43244 -38.43138  -2.19905  -2.19894  -2.19671
  Beta  occ. eigenvalues --   -2.19530  -2.19450  -2.19095  -2.19076  -1.13575
  Beta  occ. eigenvalues --   -1.13564  -1.13559  -1.13553  -1.13549  -1.13532
  Beta  occ. eigenvalues --   -1.13388  -1.13363  -1.13345  -1.13217  -1.13201
  Beta  occ. eigenvalues --   -1.13180  -1.13170  -1.13085  -1.13064  -1.12821
  Beta  occ. eigenvalues --   -1.12790  -1.12737  -1.12729  -1.12713  -1.12700
  Beta  occ. eigenvalues --   -0.17633  -0.12780  -0.12043
  Beta virt. eigenvalues --   -0.06863  -0.05639  -0.05378  -0.04506  -0.02425
  Beta virt. eigenvalues --   -0.02075  -0.01715  -0.01521  -0.01120  -0.00504
  Beta virt. eigenvalues --   -0.00424   0.00125   0.00371   0.00820   0.00842

 Mulliken charges and spin densities:
               1          2
     1  Na   0.115901   0.000765
     2  Na   0.395074   0.045144
     3  Na  -0.672015   0.811915
     4  Na   0.151133   0.029039
     5  Na   0.091899  -0.012661
     6  Na  -0.184861   0.147487
     7  Na   0.102869  -0.021690
 Sum of Mulliken charges =  -0.00000   1.00000

 Dipole moment (field-independent basis, Debye):
    X=             -0.0644    Y=             -0.0275    Z=              0.2398  Tot=              0.2498
 Quadrupole moment (field-independent basis, Debye-Ang):
   XX=            -55.3761   YY=            -63.8996   ZZ=            -74.3927
   XY=              0.7891   XZ=             -0.5300   YZ=              0.0309

 Normal termination of Gaussian 16 at Fri Dec  8 07:48:51 2023.
