 Gaussian 16, Revision B.01,
 Gaussian 16:  ES64L-G16RevB.01 20-Dec-2017

 -------------------------
 #P B3LYP/6-311+g(d) force
 -------------------------

 -----
 DPGEN
 -----
 Symbolic Z-matrix:
 Charge =  0 Multiplicity = 2

                         Standard orientation:
 ---------------------------------------------------------------------
 Center     Atomic      Atomic             Coordinates (Angstroms)
 Number     Number       Type             X           Y           Z
 ---------------------------------------------------------------------
      1         11           0        2.384565   -1.951519   -0.000007
      2         11           0       -0.869140    2.996982    0.058535
      3         11           0        2.703703    1.312059   -0.605202
      4         11           0       -1.248364   -2.701417   -0.071049
      5         11           0        0.536305    0.273953    2.189085
      6         11           0       -3.514844   -0.054244   -0.123966
      7         11           0        0.007775    0.124186   -1.447395
 ---------------------------------------------------------------------

 SCF Done:  E(UB3LYP) =  -1136.13415476     A.U. after   20 cycles

 The electronic state is 2-A.
 Alpha  occ. eigenvalues --  -38.44528 -38.43991 -38.43694 -38.43664 -38.43629
 Alpha  occ. eigenvalues --  -38.43431 -38.43168  -2.20297  -2.19873  -2.19553
 Alpha  occ. eigenvalues --   -2.19517  -2.19429  -2.19252  -2.19162  -1.13976
 Alpha  occ. eigenvalues --   -1.13949  -1.13937  -1.13601  -1.13521  -1.13489
 Alpha  occ. eigenvalues --   -1.13216  -1.13192  -1.13186  -1.13178  -1.13160
 Alpha  occ. eigenvalues --   -1.13154  -1.13117  -1.13093  -1.13060  -1.12955
 Alpha  occ. eigenvalues --   -1.12920  -1.12876  -1.12845  -1.12800  -1.12778
 Alpha  occ. eigenvalues --   -0.18341  -0.13020  -0.12259  -0.10661
 Alpha virt. eigenvalues --   -0.05981  -0.05257  -0.04700  -0.03029  -0.02764
 Alpha virt. eigenvalues --   -0.02597  -0.01745  -0.01210  -0.00633  -0.00445
 Alpha virt. eigenvalues --   -0.00038   0.00313   0.00740   0.00808   0.00871

  Beta  occ. eigenvalues --  -38.44530 -38.43968 -38.43659 -38.43627 -38.43589
  Beta  occ. eigenvalues --  -38.43429 -38.43119  -2.20301  -2.19835  -2.19510
  Beta  occ. eigenvalues --   -2.19428  -2.19358  -2.19251  -2.19075  -1.13972
  Beta  occ. eigenvalues --   -1.13952  -1.13941  -1.13567  -1.13483  -1.13458
  Beta  occ. eigenvalues --   -1.13186  -1.13164  -1.13143  -1.13116  -1.13086
  Beta  occ. eigenvalues --   -1.13072  -1.13063  -1.13050  -1.13017  -1.12948
  Beta  occ. eigenvalues --   -1.12910  -1.12876  -1.12785  -1.12733  -1.12715
  Beta  occ. eigenvalues --   -0.17635  -0.12815  -0.12057
  Beta virt. eigenvalues --   -0.06674  -0.05936  -0.05230  -0.04641  -0.02365
  Beta virt. eigenvalues --   -0.02034  -0.01681  -0.01469  -0.01135  -0.00644
  Beta virt. eigenvalues --   -0.00488   0.00142   0.00368   0.00798   0.00821

 Mulliken charges and spin densities:
               1          2
     1  Na   0.227629   0.079816
     2  Na  -0.015802  -0.053689
     3  Na   0.478527   0.085327
     4  Na  -0.014767  -0.034487
     5  Na  -0.540709   0.770294
     6  Na  -0.004230  -0.040132
     7  Na  -0.130649   0.192870
 Sum of Mulliken charges =  -0.00000   1.00000

 Dipole moment (field-independent basis, Debye):
    X=             -0.2030    Y=              0.1494    Z=              0.1794  Tot=              0.3094
 Quadrupole moment (field-independent basis, Debye-Ang):
   XX=            -54.7833   YY=            -62.8619   ZZ=            -75.3385
   XY=             -1.1576   XZ=             -1.0479   YZ=             -0.4124

 Normal termination of Gaussian 16 at Fri Dec  8 07:00:00 2023.
