 Gaussian 16, Revision B.01,
 Gaussian 16:  ES64L-G16RevB.01 20-Dec-2017

 -------------------------
 #P B3LYP/6-311+g(d) force
 -------------------------

 -----
 DPGEN
 -----
 Symbolic Z-matrix:
 Charge =  0 Multiplicity = 2

                         Standard orientation:
 ---------------------------------------------------------------------
 Center     Atomic      Atomic             Coordinates (Angstroms)
 Number     Number       Type             X           Y           Z
 ---------------------------------------------------------------------
      1         11           0        1.317526    2.122163    0.944335
      2         11           0       -1.179424   -0.274676    1.692705
      3         11           0        3.772259    0.032779   -1.247889
      4         11           0        2.066927   -1.738640    1.275035
      5         11           0       -3.741246   -1.500340   -0.522322
      6         11           0       -2.550917    1.985818   -0.538932
      7         11           0        0.314874   -0.627104   -1.602931
 ---------------------------------------------------------------------

 SCF Done:  E(UB3LYP) =  -1136.12178766     A.U. after   26 cycles

 The electronic state is 2-A.
 Alpha  occ. eigenvalues --  -38.45056 -38.44591 -38.44542 -38.44430 -38.43845
 Alpha  occ. eigenvalues --  -38.43643 -38.42664  -2.20865  -2.20389  -2.20354
 Alpha  occ. eigenvalues --   -2.20272  -2.19618  -2.19543  -2.18472  -1.14581
 Alpha  occ. eigenvalues --   -1.14532  -1.14469  -1.14081  -1.14047  -1.14023
 Alpha  occ. eigenvalues --   -1.13999  -1.13988  -1.13984  -1.13952  -1.13911
 Alpha  occ. eigenvalues --   -1.13884  -1.13303  -1.13283  -1.13258  -1.13248
 Alpha  occ. eigenvalues --   -1.13187  -1.13147  -1.12151  -1.12147  -1.12100
 Alpha  occ. eigenvalues --   -0.17976  -0.13966  -0.11323  -0.10529
 Alpha virt. eigenvalues --   -0.06728  -0.05759  -0.04797  -0.03042  -0.02750
 Alpha virt. eigenvalues --   -0.02439  -0.02250  -0.01280  -0.01147  -0.00415
 Alpha virt. eigenvalues --    0.00087   0.00166   0.00294   0.00453   0.00493

  Beta  occ. eigenvalues --  -38.45034 -38.44566 -38.44506 -38.44374 -38.43854
  Beta  occ. eigenvalues --  -38.43594 -38.42658  -2.20828  -2.20341  -2.20288
  Beta  occ. eigenvalues --   -2.20172  -2.19636  -2.19455  -2.18463  -1.14539
  Beta  occ. eigenvalues --   -1.14503  -1.14441  -1.14045  -1.14017  -1.13972
  Beta  occ. eigenvalues --   -1.13956  -1.13950  -1.13942  -1.13880  -1.13844
  Beta  occ. eigenvalues --   -1.13799  -1.13312  -1.13293  -1.13268  -1.13192
  Beta  occ. eigenvalues --   -1.13100  -1.13089  -1.12146  -1.12122  -1.12098
  Beta  occ. eigenvalues --   -0.17255  -0.13752  -0.10418
  Beta virt. eigenvalues --   -0.07457  -0.06517  -0.05419  -0.04408  -0.02796
  Beta virt. eigenvalues --   -0.02489  -0.01787  -0.01780  -0.01091  -0.00798
  Beta virt. eigenvalues --   -0.00269   0.00123   0.00255   0.00369   0.00526

 Mulliken charges and spin densities:
               1          2
     1  Na  -0.471075   0.081965
     2  Na   0.165869   0.361067
     3  Na   0.503443   0.170408
     4  Na   0.019340   0.072484
     5  Na   0.173025  -0.095168
     6  Na   0.154632   0.093777
     7  Na  -0.545235   0.315467
 Sum of Mulliken charges =  -0.00000   1.00000

 Dipole moment (field-independent basis, Debye):
    X=              0.3587    Y=              0.1606    Z=             -0.2688  Tot=              0.4762
 Quadrupole moment (field-independent basis, Debye-Ang):
   XX=            -51.7881   YY=            -73.8942   ZZ=            -70.0817
   XY=             -1.1251   XZ=              1.3210   YZ=             -5.8470

 Normal termination of Gaussian 16 at Thu Dec  7 08:33:17 2023.
