 Gaussian 16, Revision B.01,
 Gaussian 16:  ES64L-G16RevB.01 20-Dec-2017

 -------------------------
 #P B3LYP/6-311+g(d) force
 -------------------------

 -----
 DPGEN
 -----
 Symbolic Z-matrix:
 Charge =  0 Multiplicity = 2

                         Standard orientation:
 ---------------------------------------------------------------------
 Center     Atomic      Atomic             Coordinates (Angstroms)
 Number     Number       Type             X           Y           Z
 ---------------------------------------------------------------------
      1         11           0        1.813363    2.970486   -0.888182
      2         11           0        3.134671   -2.596950   -0.313557
      3         11           0       -3.198296   -2.219423    0.570052
      4         11           0       -4.105074    0.749770   -0.062917
      5         11           0       -0.228079   -2.896602   -0.605889
      6         11           0       -1.320562    3.352379    0.202292
      7         11           0        3.903977    0.640340    1.098202
 ---------------------------------------------------------------------

 SCF Done:  E(UB3LYP) =  -1136.10875003     A.U. after   23 cycles

 The electronic state is 2-A.
 Alpha  occ. eigenvalues --  -38.45001 -38.44902 -38.44787 -38.44646 -38.44204
 Alpha  occ. eigenvalues --  -38.44114 -38.43816  -2.20765  -2.20670  -2.20587
 Alpha  occ. eigenvalues --   -2.20468  -2.19985  -2.19908  -2.19634  -1.14447
 Alpha  occ. eigenvalues --   -1.14439  -1.14408  -1.14347  -1.14341  -1.14309
 Alpha  occ. eigenvalues --   -1.14289  -1.14245  -1.14224  -1.14138  -1.14125
 Alpha  occ. eigenvalues --   -1.14091  -1.13649  -1.13642  -1.13620  -1.13560
 Alpha  occ. eigenvalues --   -1.13543  -1.13536  -1.13292  -1.13280  -1.13268
 Alpha  occ. eigenvalues --   -0.15733  -0.13987  -0.13378  -0.10491
 Alpha virt. eigenvalues --   -0.07752  -0.05039  -0.04300  -0.03523  -0.03348
 Alpha virt. eigenvalues --   -0.02488  -0.02271  -0.01828  -0.01258  -0.00898
 Alpha virt. eigenvalues --   -0.00209  -0.00033   0.00083   0.00319   0.00705

  Beta  occ. eigenvalues --  -38.45000 -38.44890 -38.44748 -38.44640 -38.44171
  Beta  occ. eigenvalues --  -38.44036 -38.43766  -2.20769  -2.20653  -2.20517
  Beta  occ. eigenvalues --   -2.20462  -2.19926  -2.19763  -2.19540  -1.14455
  Beta  occ. eigenvalues --   -1.14443  -1.14373  -1.14339  -1.14332  -1.14266
  Beta  occ. eigenvalues --   -1.14240  -1.14199  -1.14174  -1.14131  -1.14124
  Beta  occ. eigenvalues --   -1.14056  -1.13610  -1.13603  -1.13570  -1.13460
  Beta  occ. eigenvalues --   -1.13446  -1.13439  -1.13230  -1.13217  -1.13205
  Beta  occ. eigenvalues --   -0.15252  -0.13241  -0.12704
  Beta virt. eigenvalues --   -0.07924  -0.07335  -0.04583  -0.03976  -0.03215
  Beta virt. eigenvalues --   -0.02880  -0.02217  -0.02113  -0.01764  -0.01128
  Beta virt. eigenvalues --   -0.00537  -0.00061   0.00128   0.00262   0.00415

 Mulliken charges and spin densities:
               1          2
     1  Na  -0.091291   0.038502
     2  Na   0.292497  -0.014319
     3  Na   0.272787   0.082069
     4  Na   0.113622   0.187193
     5  Na  -0.480122   0.185767
     6  Na  -0.098722   0.123504
     7  Na  -0.008771   0.397285
 Sum of Mulliken charges =  -0.00000   1.00000

 Dipole moment (field-independent basis, Debye):
    X=             -0.2979    Y=              0.0608    Z=             -0.0297  Tot=              0.3055
 Quadrupole moment (field-independent basis, Debye-Ang):
   XX=            -62.6868   YY=            -67.8329   ZZ=            -70.3628
   XY=             -2.3145   XZ=             -2.2404   YZ=             -1.0032

 Normal termination of Gaussian 16 at Sun Dec  3 15:16:39 2023.
