 Gaussian 16, Revision B.01,
 Gaussian 16:  ES64L-G16RevB.01 20-Dec-2017

 -------------------------
 #P B3LYP/6-311+g(d) force
 -------------------------

 -----
 DPGEN
 -----
 Symbolic Z-matrix:
 Charge =  0 Multiplicity = 2

                         Standard orientation:
 ---------------------------------------------------------------------
 Center     Atomic      Atomic             Coordinates (Angstroms)
 Number     Number       Type             X           Y           Z
 ---------------------------------------------------------------------
      1         11           0       -2.274305   -0.545631    1.114797
      2         11           0       -3.289476    2.408110   -0.411601
      3         11           0        3.027925    0.785887    0.117007
      4         11           0       -4.551495   -2.379601   -0.189776
      5         11           0        6.303147   -0.826684    0.094742
      6         11           0       -0.056285    1.993892    0.027086
      7         11           0        0.840488   -1.435973   -0.752255
 ---------------------------------------------------------------------

 SCF Done:  E(UB3LYP) =  -1136.11309990     A.U. after   23 cycles

 The electronic state is 2-A.
 Alpha  occ. eigenvalues --  -38.45593 -38.45076 -38.44242 -38.44177 -38.43714
 Alpha  occ. eigenvalues --  -38.43668 -38.43084  -2.21411  -2.20862  -2.20088
 Alpha  occ. eigenvalues --   -2.20002  -2.19540  -2.19480  -2.18974  -1.15077
 Alpha  occ. eigenvalues --   -1.15053  -1.15032  -1.14497  -1.14496  -1.14467
 Alpha  occ. eigenvalues --   -1.13773  -1.13766  -1.13734  -1.13659  -1.13645
 Alpha  occ. eigenvalues --   -1.13629  -1.13253  -1.13229  -1.13188  -1.13145
 Alpha  occ. eigenvalues --   -1.13139  -1.13087  -1.12662  -1.12658  -1.12601
 Alpha  occ. eigenvalues --   -0.17226  -0.14149  -0.11793  -0.11302
 Alpha virt. eigenvalues --   -0.06636  -0.05724  -0.04577  -0.03391  -0.02910
 Alpha virt. eigenvalues --   -0.02754  -0.01796  -0.01547  -0.01321  -0.01078
 Alpha virt. eigenvalues --   -0.00276  -0.00036   0.00026   0.00331   0.00617

  Beta  occ. eigenvalues --  -38.45538 -38.44959 -38.44243 -38.44127 -38.43734
  Beta  occ. eigenvalues --  -38.43661 -38.43081  -2.21309  -2.20644  -2.20098
  Beta  occ. eigenvalues --   -2.19909  -2.19529  -2.19517  -2.18973  -1.15008
  Beta  occ. eigenvalues --   -1.14983  -1.14960  -1.14349  -1.14347  -1.14322
  Beta  occ. eigenvalues --   -1.13785  -1.13778  -1.13694  -1.13596  -1.13585
  Beta  occ. eigenvalues --   -1.13564  -1.13257  -1.13216  -1.13177  -1.13168
  Beta  occ. eigenvalues --   -1.13159  -1.13103  -1.12664  -1.12663  -1.12570
  Beta  occ. eigenvalues --   -0.16701  -0.13502  -0.11131
  Beta virt. eigenvalues --   -0.08130  -0.06321  -0.05456  -0.04119  -0.03176
  Beta virt. eigenvalues --   -0.02656  -0.02396  -0.01436  -0.01276  -0.00967
  Beta virt. eigenvalues --   -0.00654  -0.00209   0.00052   0.00159   0.00417

 Mulliken charges and spin densities:
               1          2
     1  Na   0.023861  -0.149981
     2  Na   0.394183   0.243566
     3  Na  -0.374318   0.252038
     4  Na  -0.002146  -0.058322
     5  Na   0.420497   0.423430
     6  Na  -0.396159   0.024072
     7  Na  -0.065916   0.265197
 Sum of Mulliken charges =  -0.00000   1.00000

 Dipole moment (field-independent basis, Debye):
    X=              0.4385    Y=             -0.1542    Z=             -0.7628  Tot=              0.8933
 Quadrupole moment (field-independent basis, Debye-Ang):
   XX=            -59.6559   YY=            -71.0640   ZZ=            -69.8252
   XY=             -3.8680   XZ=              3.7671   YZ=              2.3766

 Normal termination of Gaussian 16 at Tue Nov 28 23:56:28 2023.
