 Gaussian 16, Revision B.01,
 Gaussian 16:  ES64L-G16RevB.01 20-Dec-2017

 -------------------------
 #P B3LYP/6-311+g(d) force
 -------------------------

 -----
 DPGEN
 -----
 Symbolic Z-matrix:
 Charge =  0 Multiplicity = 2

                         Standard orientation:
 ---------------------------------------------------------------------
 Center     Atomic      Atomic             Coordinates (Angstroms)
 Number     Number       Type             X           Y           Z
 ---------------------------------------------------------------------
      1         11           0        2.697663   -0.296658   -0.241520
      2         11           0        3.126042    3.150440    0.117067
      3         11           0       -3.898256    0.588959    0.138691
      4         11           0        5.342508   -2.592807   -0.126109
      5         11           0       -6.281812   -1.088070   -0.286721
      6         11           0       -0.364450    1.604978   -0.207376
      7         11           0       -0.621695   -1.366842    0.605967
 ---------------------------------------------------------------------

 SCF Done:  E(UB3LYP) =  -1136.10948375     A.U. after   25 cycles

 The electronic state is 2-A.
 Alpha  occ. eigenvalues --  -38.45833 -38.45827 -38.44279 -38.43842 -38.43736
 Alpha  occ. eigenvalues --  -38.43673 -38.43275  -2.21672  -2.21635  -2.20143
 Alpha  occ. eigenvalues --   -2.19666  -2.19528  -2.19486  -2.19123  -1.15332
 Alpha  occ. eigenvalues --   -1.15322  -1.15281  -1.15273  -1.15263  -1.15242
 Alpha  occ. eigenvalues --   -1.13838  -1.13823  -1.13768  -1.13450  -1.13302
 Alpha  occ. eigenvalues --   -1.13301  -1.13195  -1.13181  -1.13151  -1.13149
 Alpha  occ. eigenvalues --   -1.13123  -1.13104  -1.12832  -1.12824  -1.12722
 Alpha  occ. eigenvalues --   -0.17210  -0.14158  -0.12074  -0.11361
 Alpha virt. eigenvalues --   -0.06894  -0.05622  -0.04224  -0.04113  -0.03035
 Alpha virt. eigenvalues --   -0.02617  -0.01798  -0.01518  -0.01414  -0.00996
 Alpha virt. eigenvalues --   -0.00599  -0.00408   0.00008   0.00387   0.00545

  Beta  occ. eigenvalues --  -38.45763 -38.45718 -38.44282 -38.43815 -38.43725
  Beta  occ. eigenvalues --  -38.43673 -38.43269  -2.21554  -2.21422  -2.20153
  Beta  occ. eigenvalues --   -2.19618  -2.19529  -2.19466  -2.19116  -1.15253
  Beta  occ. eigenvalues --   -1.15242  -1.15197  -1.15129  -1.15120  -1.15096
  Beta  occ. eigenvalues --   -1.13838  -1.13834  -1.13753  -1.13423  -1.13271
  Beta  occ. eigenvalues --   -1.13268  -1.13196  -1.13180  -1.13138  -1.13135
  Beta  occ. eigenvalues --   -1.13108  -1.13086  -1.12824  -1.12792  -1.12720
  Beta  occ. eigenvalues --   -0.16584  -0.13534  -0.11000
  Beta virt. eigenvalues --   -0.08651  -0.06609  -0.05022  -0.03972  -0.03802
  Beta virt. eigenvalues --   -0.02560  -0.02386  -0.01460  -0.01436  -0.01082
  Beta virt. eigenvalues --   -0.00760  -0.00279  -0.00229   0.00159   0.00463

 Mulliken charges and spin densities:
               1          2
     1  Na  -1.642296   0.138255
     2  Na   1.579083   0.326272
     3  Na  -0.900315   0.195040
     4  Na  -0.586714  -0.020654
     5  Na   0.938017  -0.012066
     6  Na   0.394145   0.160403
     7  Na   0.218080   0.212751
 Sum of Mulliken charges =  -0.00000   1.00000

 Dipole moment (field-independent basis, Debye):
    X=             -0.0365    Y=              0.8038    Z=              0.4506  Tot=              0.9222
 Quadrupole moment (field-independent basis, Debye-Ang):
   XX=            -73.6752   YY=            -58.4870   ZZ=            -73.6474
   XY=              8.2343   XZ=              1.6201   YZ=             -1.1731

 Normal termination of Gaussian 16 at Wed Nov 29 00:44:41 2023.
