 Gaussian 16, Revision B.01,
 Gaussian 16:  ES64L-G16RevB.01 20-Dec-2017

 -------------------------
 #P B3LYP/6-311+g(d) force
 -------------------------

 -----
 DPGEN
 -----
 Symbolic Z-matrix:
 Charge =  0 Multiplicity = 2

                         Standard orientation:
 ---------------------------------------------------------------------
 Center     Atomic      Atomic             Coordinates (Angstroms)
 Number     Number       Type             X           Y           Z
 ---------------------------------------------------------------------
      1         11           0        0.862841   -1.020379    1.634214
      2         11           0       -0.025039   -0.045928   -1.647142
      3         11           0       -2.201748   -2.045979    0.492406
      4         11           0        2.428224    1.953006    0.000586
      5         11           0       -1.067034    2.043396    1.026227
      6         11           0       -3.697722    0.394118   -0.851617
      7         11           0        3.700478   -1.278234   -0.654673
 ---------------------------------------------------------------------

 SCF Done:  E(UB3LYP) =  -1136.12539939     A.U. after   25 cycles

 The electronic state is 2-A.
 Alpha  occ. eigenvalues --  -38.45314 -38.44659 -38.44293 -38.43906 -38.43480
 Alpha  occ. eigenvalues --  -38.43460 -38.42746  -2.21153  -2.20499  -2.20087
 Alpha  occ. eigenvalues --   -2.19735  -2.19352  -2.19338  -2.18593  -1.14870
 Alpha  occ. eigenvalues --   -1.14800  -1.14768  -1.14172  -1.14147  -1.14124
 Alpha  occ. eigenvalues --   -1.13757  -1.13744  -1.13717  -1.13427  -1.13401
 Alpha  occ. eigenvalues --   -1.13353  -1.13062  -1.13007  -1.12999  -1.12994
 Alpha  occ. eigenvalues --   -1.12974  -1.12955  -1.12275  -1.12255  -1.12220
 Alpha  occ. eigenvalues --   -0.18274  -0.14132  -0.11116  -0.10878
 Alpha virt. eigenvalues --   -0.06931  -0.05531  -0.04396  -0.03097  -0.02875
 Alpha virt. eigenvalues --   -0.02527  -0.02163  -0.01239  -0.00859  -0.00381
 Alpha virt. eigenvalues --    0.00062   0.00188   0.00346   0.00598   0.00712

  Beta  occ. eigenvalues --  -38.45293 -38.44624 -38.44271 -38.43902 -38.43466
  Beta  occ. eigenvalues --  -38.43385 -38.42726  -2.21115  -2.20433  -2.20047
  Beta  occ. eigenvalues --   -2.19730  -2.19316  -2.19219  -2.18558  -1.14830
  Beta  occ. eigenvalues --   -1.14779  -1.14737  -1.14130  -1.14097  -1.14079
  Beta  occ. eigenvalues --   -1.13731  -1.13709  -1.13692  -1.13419  -1.13400
  Beta  occ. eigenvalues --   -1.13337  -1.13004  -1.12988  -1.12963  -1.12935
  Beta  occ. eigenvalues --   -1.12873  -1.12863  -1.12252  -1.12214  -1.12197
  Beta  occ. eigenvalues --   -0.17613  -0.13771  -0.10818
  Beta virt. eigenvalues --   -0.07266  -0.06646  -0.05513  -0.03829  -0.02922
  Beta virt. eigenvalues --   -0.02553  -0.01952  -0.01440  -0.01203  -0.00576
  Beta virt. eigenvalues --   -0.00262   0.00128   0.00195   0.00472   0.00677

 Mulliken charges and spin densities:
               1          2
     1  Na   0.037613   0.292641
     2  Na  -0.386307   0.144120
     3  Na  -0.258474   0.055142
     4  Na   0.222260   0.055342
     5  Na  -0.414650   0.050287
     6  Na   0.631320   0.269376
     7  Na   0.168238   0.133092
 Sum of Mulliken charges =  -0.00000   1.00000

 Dipole moment (field-independent basis, Debye):
    X=              0.0766    Y=              0.1862    Z=             -0.3774  Tot=              0.4277
 Quadrupole moment (field-independent basis, Debye-Ang):
   XX=            -51.0368   YY=            -75.2255   ZZ=            -69.3414
   XY=             -0.3445   XZ=             -0.0616   YZ=              0.5369

 Normal termination of Gaussian 16 at Fri Dec  8 03:07:19 2023.
