 Gaussian 16, Revision B.01,
 Gaussian 16:  ES64L-G16RevB.01 20-Dec-2017

 -------------------------
 #P B3LYP/6-311+g(d) force
 -------------------------

 -----
 DPGEN
 -----
 Symbolic Z-matrix:
 Charge =  0 Multiplicity = 2

                         Standard orientation:
 ---------------------------------------------------------------------
 Center     Atomic      Atomic             Coordinates (Angstroms)
 Number     Number       Type             X           Y           Z
 ---------------------------------------------------------------------
      1         11           0       -3.042101   -2.246220    0.296846
      2         11           0        3.313477   -1.743146   -0.497900
      3         11           0        0.490243   -0.358948   -1.497096
      4         11           0        0.067425   -0.500059    1.716660
      5         11           0        2.676150    1.192397    0.514112
      6         11           0       -3.209950    1.015298   -0.561950
      7         11           0       -0.295244    2.640678    0.029327
 ---------------------------------------------------------------------

 SCF Done:  E(UB3LYP) =  -1136.12434745     A.U. after   24 cycles

 The electronic state is 2-A.
 Alpha  occ. eigenvalues --  -38.44556 -38.44492 -38.44275 -38.43971 -38.43917
 Alpha  occ. eigenvalues --  -38.43873 -38.42283  -2.20410  -2.20375  -2.20213
 Alpha  occ. eigenvalues --   -2.19825  -2.19817  -2.19655  -2.18174  -1.14145
 Alpha  occ. eigenvalues --   -1.14064  -1.14051  -1.14030  -1.14016  -1.14012
 Alpha  occ. eigenvalues --   -1.13891  -1.13875  -1.13857  -1.13521  -1.13490
 Alpha  occ. eigenvalues --   -1.13473  -1.13452  -1.13437  -1.13416  -1.13324
 Alpha  occ. eigenvalues --   -1.13318  -1.13295  -1.11852  -1.11845  -1.11821
 Alpha  occ. eigenvalues --   -0.18580  -0.14018  -0.11676  -0.10534
 Alpha virt. eigenvalues --   -0.06679  -0.05837  -0.04224  -0.03204  -0.02518
 Alpha virt. eigenvalues --   -0.02399  -0.02206  -0.01446  -0.00686  -0.00230
 Alpha virt. eigenvalues --   -0.00068   0.00161   0.00538   0.00640   0.00710

  Beta  occ. eigenvalues --  -38.44534 -38.44451 -38.44258 -38.43956 -38.43871
  Beta  occ. eigenvalues --  -38.43832 -38.42279  -2.20338  -2.20334  -2.20187
  Beta  occ. eigenvalues --   -2.19798  -2.19663  -2.19652  -2.18173  -1.14085
  Beta  occ. eigenvalues --   -1.14022  -1.14016  -1.14000  -1.13982  -1.13961
  Beta  occ. eigenvalues --   -1.13869  -1.13859  -1.13813  -1.13474  -1.13446
  Beta  occ. eigenvalues --   -1.13429  -1.13417  -1.13336  -1.13324  -1.13309
  Beta  occ. eigenvalues --   -1.13302  -1.13281  -1.11856  -1.11848  -1.11784
  Beta  occ. eigenvalues --   -0.17923  -0.13755  -0.11382
  Beta virt. eigenvalues --   -0.06882  -0.06497  -0.05624  -0.03947  -0.02805
  Beta virt. eigenvalues --   -0.02347  -0.01797  -0.01586  -0.01083  -0.00669
  Beta virt. eigenvalues --   -0.00048  -0.00001   0.00214   0.00632   0.00721

 Mulliken charges and spin densities:
               1          2
     1  Na   0.038896  -0.049137
     2  Na   0.256002   0.074980
     3  Na  -0.460497   0.403234
     4  Na  -0.363100   0.383589
     5  Na   0.692870   0.169235
     6  Na   0.101826   0.082905
     7  Na  -0.265998  -0.064805
 Sum of Mulliken charges =  -0.00000   1.00000

 Dipole moment (field-independent basis, Debye):
    X=              0.2922    Y=             -0.1459    Z=              0.0941  Tot=              0.3399
 Quadrupole moment (field-independent basis, Debye-Ang):
   XX=            -52.4354   YY=            -68.0978   ZZ=            -74.4601
   XY=             -0.1738   XZ=              2.3060   YZ=              0.5066

 Normal termination of Gaussian 16 at Tue Dec  5 18:56:59 2023.
