 Gaussian 16, Revision B.01,
 Gaussian 16:  ES64L-G16RevB.01 20-Dec-2017

 -------------------------
 #P B3LYP/6-311+g(d) force
 -------------------------

 -----
 DPGEN
 -----
 Symbolic Z-matrix:
 Charge =  0 Multiplicity = 2

                         Standard orientation:
 ---------------------------------------------------------------------
 Center     Atomic      Atomic             Coordinates (Angstroms)
 Number     Number       Type             X           Y           Z
 ---------------------------------------------------------------------
      1         11           0        0.631803   -1.790128    0.868524
      2         11           0        4.254127   -2.244424   -0.021550
      3         11           0        2.278590    0.185386   -1.035865
      4         11           0        1.614482    3.606041    0.363002
      5         11           0       -0.716682    1.313345   -0.444143
      6         11           0       -3.035219   -0.002054    1.182978
      7         11           0       -5.027101   -1.068167   -0.912947
 ---------------------------------------------------------------------

 SCF Done:  E(UB3LYP) =  -1136.11872560     A.U. after   21 cycles

 The electronic state is 2-A.
 Alpha  occ. eigenvalues --  -38.44307 -38.44126 -38.44014 -38.44005 -38.43804
 Alpha  occ. eigenvalues --  -38.43795 -38.43671  -2.20153  -2.19950  -2.19913
 Alpha  occ. eigenvalues --   -2.19821  -2.19672  -2.19592  -2.19590  -1.13878
 Alpha  occ. eigenvalues --   -1.13829  -1.13727  -1.13648  -1.13635  -1.13599
 Alpha  occ. eigenvalues --   -1.13581  -1.13578  -1.13528  -1.13479  -1.13467
 Alpha  occ. eigenvalues --   -1.13427  -1.13410  -1.13316  -1.13304  -1.13293
 Alpha  occ. eigenvalues --   -1.13261  -1.13253  -1.13243  -1.13220  -1.13141
 Alpha  occ. eigenvalues --   -0.17350  -0.14012  -0.12281  -0.10489
 Alpha virt. eigenvalues --   -0.06244  -0.05735  -0.04378  -0.03490  -0.02819
 Alpha virt. eigenvalues --   -0.02299  -0.02076  -0.01423  -0.00847  -0.00560
 Alpha virt. eigenvalues --   -0.00363   0.00187   0.00245   0.00429   0.00681

  Beta  occ. eigenvalues --  -38.44256 -38.44045 -38.43996 -38.43987 -38.43805
  Beta  occ. eigenvalues --  -38.43771 -38.43660  -2.20060  -2.19899  -2.19799
  Beta  occ. eigenvalues --   -2.19769  -2.19682  -2.19575  -2.19546  -1.13821
  Beta  occ. eigenvalues --   -1.13770  -1.13647  -1.13615  -1.13587  -1.13548
  Beta  occ. eigenvalues --   -1.13509  -1.13479  -1.13475  -1.13443  -1.13436
  Beta  occ. eigenvalues --   -1.13421  -1.13390  -1.13322  -1.13293  -1.13255
  Beta  occ. eigenvalues --   -1.13243  -1.13222  -1.13213  -1.13188  -1.13120
  Beta  occ. eigenvalues --   -0.16776  -0.13509  -0.11933
  Beta virt. eigenvalues --   -0.07148  -0.05984  -0.05248  -0.04159  -0.03190
  Beta virt. eigenvalues --   -0.02530  -0.02167  -0.01802  -0.01005  -0.00582
  Beta virt. eigenvalues --   -0.00331  -0.00168   0.00363   0.00390   0.00577

 Mulliken charges and spin densities:
               1          2
     1  Na  -0.370163   0.186362
     2  Na   0.564195   0.149658
     3  Na  -0.296444   0.209560
     4  Na   0.666692   0.204762
     5  Na  -1.207698  -0.094386
     6  Na   0.763696  -0.083764
     7  Na  -0.120278   0.427808
 Sum of Mulliken charges =  -0.00000   1.00000

 Dipole moment (field-independent basis, Debye):
    X=              0.9144    Y=             -0.4415    Z=              0.5305  Tot=              1.1457
 Quadrupole moment (field-independent basis, Debye-Ang):
   XX=            -67.5483   YY=            -66.1147   ZZ=            -65.7978
   XY=             -1.0239   XZ=              2.7281   YZ=              2.4519

 Normal termination of Gaussian 16 at Wed Nov 29 00:10:58 2023.
