 Gaussian 16, Revision B.01,
 Gaussian 16:  ES64L-G16RevB.01 20-Dec-2017

 -------------------------
 #P B3LYP/6-311+g(d) force
 -------------------------

 -----
 DPGEN
 -----
 Symbolic Z-matrix:
 Charge =  0 Multiplicity = 2

                         Standard orientation:
 ---------------------------------------------------------------------
 Center     Atomic      Atomic             Coordinates (Angstroms)
 Number     Number       Type             X           Y           Z
 ---------------------------------------------------------------------
      1         11           0        2.769125    1.708496   -0.102908
      2         11           0        0.580863   -0.665641   -1.547786
      3         11           0        0.053725   -0.554806    1.826711
      4         11           0        3.718934   -1.452474    0.326752
      5         11           0       -0.814961    2.098801   -0.554219
      6         11           0       -2.854776   -1.871472   -0.674274
      7         11           0       -3.452909    0.737095    0.725724
 ---------------------------------------------------------------------

 SCF Done:  E(UB3LYP) =  -1136.11603393     A.U. after   39 cycles

 The electronic state is 2-A.
 Alpha  occ. eigenvalues --  -38.45375 -38.44820 -38.44738 -38.44290 -38.44085
 Alpha  occ. eigenvalues --  -38.43809 -38.42293  -2.21187  -2.20695  -2.20573
 Alpha  occ. eigenvalues --   -2.20073  -2.19915  -2.19729  -2.18190  -1.14895
 Alpha  occ. eigenvalues --   -1.14831  -1.14781  -1.14387  -1.14352  -1.14326
 Alpha  occ. eigenvalues --   -1.14256  -1.14234  -1.14192  -1.13759  -1.13746
 Alpha  occ. eigenvalues --   -1.13716  -1.13599  -1.13564  -1.13555  -1.13432
 Alpha  occ. eigenvalues --   -1.13365  -1.13328  -1.11883  -1.11854  -1.11828
 Alpha  occ. eigenvalues --   -0.18446  -0.14322  -0.11123  -0.10689
 Alpha virt. eigenvalues --   -0.07388  -0.05905  -0.04241  -0.03100  -0.02994
 Alpha virt. eigenvalues --   -0.02387  -0.02263  -0.01635  -0.00774  -0.00410
 Alpha virt. eigenvalues --    0.00049   0.00115   0.00362   0.00515   0.00628

  Beta  occ. eigenvalues --  -38.45311 -38.44798 -38.44725 -38.44320 -38.44082
  Beta  occ. eigenvalues --  -38.43726 -38.42284  -2.21069  -2.20653  -2.20547
  Beta  occ. eigenvalues --   -2.20131  -2.19912  -2.19579  -2.18178  -1.14806
  Beta  occ. eigenvalues --   -1.14749  -1.14692  -1.14365  -1.14323  -1.14290
  Beta  occ. eigenvalues --   -1.14232  -1.14214  -1.14185  -1.13797  -1.13780
  Beta  occ. eigenvalues --   -1.13751  -1.13599  -1.13556  -1.13537  -1.13338
  Beta  occ. eigenvalues --   -1.13251  -1.13206  -1.11877  -1.11827  -1.11810
  Beta  occ. eigenvalues --   -0.17725  -0.14327  -0.10811
  Beta virt. eigenvalues --   -0.07237  -0.06853  -0.05752  -0.03718  -0.02918
  Beta virt. eigenvalues --   -0.02856  -0.01741  -0.01583  -0.01141  -0.00666
  Beta virt. eigenvalues --   -0.00344   0.00046   0.00151   0.00492   0.00582

 Mulliken charges and spin densities:
               1          2
     1  Na   0.218907   0.068764
     2  Na  -0.184589   0.622461
     3  Na  -0.521501   0.513693
     4  Na   0.357241  -0.220755
     5  Na  -0.499123  -0.108236
     6  Na  -0.209426  -0.101882
     7  Na   0.838491   0.225956
 Sum of Mulliken charges =  -0.00000   1.00000

 Dipole moment (field-independent basis, Debye):
    X=              0.4722    Y=              0.1888    Z=              0.3166  Tot=              0.5990
 Quadrupole moment (field-independent basis, Debye-Ang):
   XX=            -50.7701   YY=            -72.4547   ZZ=            -73.2961
   XY=              0.9773   XZ=             -0.4003   YZ=              1.3701

 Normal termination of Gaussian 16 at Tue Dec  5 13:38:58 2023.
