 Gaussian 16, Revision B.01,
 Gaussian 16:  ES64L-G16RevB.01 20-Dec-2017

 -------------------------
 #P B3LYP/6-311+g(d) force
 -------------------------

 -----
 DPGEN
 -----
 Symbolic Z-matrix:
 Charge =  0 Multiplicity = 2

                         Standard orientation:
 ---------------------------------------------------------------------
 Center     Atomic      Atomic             Coordinates (Angstroms)
 Number     Number       Type             X           Y           Z
 ---------------------------------------------------------------------
      1         11           0        1.966093   -1.201000   -0.461643
      2         11           0       -0.743205   -1.308639   -0.651643
      3         11           0       -3.220653   -0.098275    0.033257
      4         11           0       -0.874746    1.462459    0.385557
      5         11           0        0.641765    0.762881   -1.738843
      6         11           0        1.803558    1.233998    0.685957
      7         11           0        0.427188   -0.851422    1.747357
 ---------------------------------------------------------------------

 SCF Done:  E(UB3LYP) =  -1136.03719766     A.U. after   24 cycles

 The electronic state is 2-A.
 Alpha  occ. eigenvalues --  -38.45090 -38.44726 -38.44531 -38.44513 -38.44447
 Alpha  occ. eigenvalues --  -38.43955 -38.43550  -2.21049  -2.21026  -2.20864
 Alpha  occ. eigenvalues --   -2.20786  -2.20691  -2.20314  -2.19859  -1.15250
 Alpha  occ. eigenvalues --   -1.14923  -1.14876  -1.14849  -1.14820  -1.14733
 Alpha  occ. eigenvalues --   -1.14688  -1.14671  -1.14609  -1.14438  -1.14346
 Alpha  occ. eigenvalues --   -1.14291  -1.14189  -1.14130  -1.14086  -1.13916
 Alpha  occ. eigenvalues --   -1.13844  -1.13784  -1.13514  -1.13451  -1.13385
 Alpha  occ. eigenvalues --   -0.22296  -0.14394  -0.13288  -0.11865
 Alpha virt. eigenvalues --   -0.06220  -0.04104  -0.03882  -0.03630  -0.02786
 Alpha virt. eigenvalues --   -0.02714  -0.01590  -0.00393  -0.00141   0.00238
 Alpha virt. eigenvalues --    0.00631   0.00859   0.00968   0.01037   0.01114

  Beta  occ. eigenvalues --  -38.45094 -38.44649 -38.44489 -38.44479 -38.44376
  Beta  occ. eigenvalues --  -38.43910 -38.43517  -2.21035  -2.20921  -2.20789
  Beta  occ. eigenvalues --   -2.20726  -2.20570  -2.20239  -2.19807  -1.15199
  Beta  occ. eigenvalues --   -1.14834  -1.14826  -1.14799  -1.14766  -1.14709
  Beta  occ. eigenvalues --   -1.14622  -1.14605  -1.14582  -1.14369  -1.14250
  Beta  occ. eigenvalues --   -1.14223  -1.14131  -1.14043  -1.14008  -1.13868
  Beta  occ. eigenvalues --   -1.13768  -1.13706  -1.13487  -1.13365  -1.13340
  Beta  occ. eigenvalues --   -0.21369  -0.14152  -0.11706
  Beta virt. eigenvalues --   -0.08557  -0.06112  -0.03716  -0.03382  -0.03210
  Beta virt. eigenvalues --   -0.02098  -0.01826  -0.01510  -0.00186  -0.00070
  Beta virt. eigenvalues --    0.00284   0.00667   0.00949   0.01015   0.01097

 Mulliken charges and spin densities:
               1          2
     1  Na   0.346232  -0.154237
     2  Na  -0.410789   0.198071
     3  Na  -0.294020  -0.121946
     4  Na  -0.177783   0.161311
     5  Na   0.309774   0.325982
     6  Na   0.071198   0.171527
     7  Na   0.155388   0.419292
 Sum of Mulliken charges =  -0.00000   1.00000

 Dipole moment (field-independent basis, Debye):
    X=             -0.8138    Y=              0.0060    Z=              0.1485  Tot=              0.8272
 Quadrupole moment (field-independent basis, Debye-Ang):
   XX=            -54.3179   YY=            -77.3756   ZZ=            -65.4358
   XY=              0.1110   XZ=             -0.3190   YZ=              3.1942

 Normal termination of Gaussian 16 at Sat Dec  9 06:56:57 2023.
