 Gaussian 16, Revision B.01,
 Gaussian 16:  ES64L-G16RevB.01 20-Dec-2017

 -------------------------
 #P B3LYP/6-311+g(d) force
 -------------------------

 -----
 DPGEN
 -----
 Symbolic Z-matrix:
 Charge =  0 Multiplicity = 2

                         Standard orientation:
 ---------------------------------------------------------------------
 Center     Atomic      Atomic             Coordinates (Angstroms)
 Number     Number       Type             X           Y           Z
 ---------------------------------------------------------------------
      1         11           0       -0.217015   -0.171859   -1.600861
      2         11           0       -1.316357    1.954091    0.022033
      3         11           0        0.235396    0.302606    1.873471
      4         11           0        2.416128   -0.910355   -0.133354
      5         11           0        1.619527    1.684823   -0.329149
      6         11           0       -0.135829   -2.232265    0.215973
      7         11           0       -2.601850   -0.627040   -0.048114
 ---------------------------------------------------------------------

 SCF Done:  E(UB3LYP) =  -1136.08966728     A.U. after   19 cycles

 The electronic state is 2-A.
 Alpha  occ. eigenvalues --  -38.43952 -38.43909 -38.43855 -38.43843 -38.43608
 Alpha  occ. eigenvalues --  -38.43318 -38.43250  -2.20222  -2.20102  -2.19939
 Alpha  occ. eigenvalues --   -2.19906  -2.19747  -2.19437  -2.19375  -1.14075
 Alpha  occ. eigenvalues --   -1.14037  -1.13972  -1.13854  -1.13830  -1.13770
 Alpha  occ. eigenvalues --   -1.13736  -1.13637  -1.13590  -1.13563  -1.13526
 Alpha  occ. eigenvalues --   -1.13496  -1.13400  -1.13330  -1.13249  -1.13088
 Alpha  occ. eigenvalues --   -1.13059  -1.13026  -1.12998  -1.12984  -1.12940
 Alpha  occ. eigenvalues --   -0.21474  -0.13906  -0.12958  -0.12096
 Alpha virt. eigenvalues --   -0.05238  -0.04389  -0.04116  -0.03646  -0.03139
 Alpha virt. eigenvalues --   -0.02783  -0.01098  -0.00528  -0.00063   0.00356
 Alpha virt. eigenvalues --    0.00698   0.00756   0.01029   0.01141   0.01173

  Beta  occ. eigenvalues --  -38.43856 -38.43847 -38.43831 -38.43826 -38.43589
  Beta  occ. eigenvalues --  -38.43304 -38.43235  -2.20074  -2.19931  -2.19920
  Beta  occ. eigenvalues --   -2.19896  -2.19720  -2.19419  -2.19354  -1.14004
  Beta  occ. eigenvalues --   -1.13965  -1.13880  -1.13805  -1.13739  -1.13670
  Beta  occ. eigenvalues --   -1.13631  -1.13620  -1.13561  -1.13531  -1.13470
  Beta  occ. eigenvalues --   -1.13438  -1.13372  -1.13250  -1.13240  -1.13077
  Beta  occ. eigenvalues --   -1.13015  -1.12994  -1.12985  -1.12934  -1.12913
  Beta  occ. eigenvalues --   -0.20646  -0.13544  -0.12611
  Beta virt. eigenvalues --   -0.07897  -0.05247  -0.04380  -0.04096  -0.02701
  Beta virt. eigenvalues --   -0.02244  -0.01661  -0.01021  -0.00485   0.00085
  Beta virt. eigenvalues --    0.00390   0.00674   0.00726   0.01063   0.01146

 Mulliken charges and spin densities:
               1          2
     1  Na  -0.440460   0.284996
     2  Na   0.295066   0.056488
     3  Na  -0.472790   0.511810
     4  Na   0.063078  -0.012687
     5  Na   0.239469   0.045471
     6  Na   0.260641   0.106223
     7  Na   0.054996   0.007699
 Sum of Mulliken charges =  -0.00000   1.00000

 Dipole moment (field-independent basis, Debye):
    X=             -0.0751    Y=             -0.0321    Z=              0.3422  Tot=              0.3518
 Quadrupole moment (field-independent basis, Debye-Ang):
   XX=            -59.7028   YY=            -68.5454   ZZ=            -69.2314
   XY=             -0.1275   XZ=             -0.7440   YZ=             -0.7547

 Normal termination of Gaussian 16 at Thu Dec  7 14:40:04 2023.
