 Gaussian 16, Revision B.01,
 Gaussian 16:  ES64L-G16RevB.01 20-Dec-2017

 -------------------------
 #P B3LYP/6-311+g(d) force
 -------------------------

 -----
 DPGEN
 -----
 Symbolic Z-matrix:
 Charge =  0 Multiplicity = 2

                         Standard orientation:
 ---------------------------------------------------------------------
 Center     Atomic      Atomic             Coordinates (Angstroms)
 Number     Number       Type             X           Y           Z
 ---------------------------------------------------------------------
      1         11           0        2.511873    2.754282   -0.648875
      2         11           0       -3.257374    1.035323    1.156715
      3         11           0        3.530947   -0.739187    0.572668
      4         11           0        0.843535   -2.570195   -1.053390
      5         11           0        0.064353   -0.797861    2.124212
      6         11           0       -1.196193    1.596247   -0.956702
      7         11           0       -2.497142   -1.278609   -1.194627
 ---------------------------------------------------------------------

 SCF Done:  E(UB3LYP) =  -1136.11889272     A.U. after   21 cycles

 The electronic state is 2-A.
 Alpha  occ. eigenvalues --  -38.44960 -38.44794 -38.44776 -38.44164 -38.44015
 Alpha  occ. eigenvalues --  -38.43591 -38.43456  -2.20718  -2.20647  -2.20587
 Alpha  occ. eigenvalues --   -2.20041  -2.19898  -2.19385  -2.19201  -1.14412
 Alpha  occ. eigenvalues --   -1.14374  -1.14358  -1.14344  -1.14288  -1.14274
 Alpha  occ. eigenvalues --   -1.14258  -1.14236  -1.14192  -1.13767  -1.13684
 Alpha  occ. eigenvalues --   -1.13658  -1.13581  -1.13555  -1.13496  -1.13062
 Alpha  occ. eigenvalues --   -1.13051  -1.13020  -1.12877  -1.12857  -1.12844
 Alpha  occ. eigenvalues --   -0.17714  -0.13664  -0.11595  -0.11049
 Alpha virt. eigenvalues --   -0.06563  -0.05620  -0.05129  -0.03526  -0.02829
 Alpha virt. eigenvalues --   -0.02396  -0.02099  -0.01184  -0.00887  -0.00381
 Alpha virt. eigenvalues --   -0.00274   0.00174   0.00259   0.00464   0.00636

  Beta  occ. eigenvalues --  -38.44962 -38.44746 -38.44720 -38.44122 -38.43996
  Beta  occ. eigenvalues --  -38.43579 -38.43450  -2.20721  -2.20592  -2.20450
  Beta  occ. eigenvalues --   -2.19966  -2.19865  -2.19365  -2.19189  -1.14408
  Beta  occ. eigenvalues --   -1.14376  -1.14348  -1.14324  -1.14255  -1.14216
  Beta  occ. eigenvalues --   -1.14167  -1.14145  -1.14087  -1.13714  -1.13627
  Beta  occ. eigenvalues --   -1.13602  -1.13536  -1.13532  -1.13473  -1.13048
  Beta  occ. eigenvalues --   -1.13040  -1.12992  -1.12868  -1.12848  -1.12837
  Beta  occ. eigenvalues --   -0.17041  -0.13586  -0.11234
  Beta virt. eigenvalues --   -0.07409  -0.06295  -0.05513  -0.04535  -0.03189
  Beta virt. eigenvalues --   -0.02259  -0.01991  -0.01717  -0.01046  -0.00669
  Beta virt. eigenvalues --   -0.00301  -0.00125   0.00309   0.00330   0.00602

 Mulliken charges and spin densities:
               1          2
     1  Na  -0.125281  -0.032545
     2  Na   0.699016   0.152170
     3  Na   0.338315   0.056823
     4  Na  -0.149429   0.033927
     5  Na  -0.339045   0.395973
     6  Na  -0.522785   0.291845
     7  Na   0.099208   0.101807
 Sum of Mulliken charges =  -0.00000   1.00000

 Dipole moment (field-independent basis, Debye):
    X=             -0.5940    Y=             -0.6766    Z=              0.6048  Tot=              1.0846
 Quadrupole moment (field-independent basis, Debye-Ang):
   XX=            -52.5394   YY=            -73.8183   ZZ=            -70.9692
   XY=             -3.9825   XZ=             -0.6820   YZ=              1.6862

 Normal termination of Gaussian 16 at Sun Dec  3 14:49:30 2023.
