 Gaussian 16, Revision B.01,
 Gaussian 16:  ES64L-G16RevB.01 20-Dec-2017

 -------------------------
 #P B3LYP/6-311+g(d) force
 -------------------------

 -----
 DPGEN
 -----
 Symbolic Z-matrix:
 Charge =  0 Multiplicity = 2

                         Standard orientation:
 ---------------------------------------------------------------------
 Center     Atomic      Atomic             Coordinates (Angstroms)
 Number     Number       Type             X           Y           Z
 ---------------------------------------------------------------------
      1         11           0        1.497477   -2.378661   -0.573328
      2         11           0       -2.808083    1.761567   -0.116039
      3         11           0        3.470049   -0.026775   -0.113658
      4         11           0       -2.853175   -1.912003   -0.355794
      5         11           0       -0.173333   -0.602077    2.266218
      6         11           0        1.152396    2.742488   -0.007798
      7         11           0       -0.285331    0.415462   -1.099602
 ---------------------------------------------------------------------

 SCF Done:  E(UB3LYP) =  -1136.12460108     A.U. after   20 cycles

 The electronic state is 2-A.
 Alpha  occ. eigenvalues --  -38.44620 -38.44593 -38.44404 -38.43525 -38.43500
 Alpha  occ. eigenvalues --  -38.43441 -38.43179  -2.20442  -2.20417  -2.20184
 Alpha  occ. eigenvalues --   -2.19370  -2.19358  -2.19287  -2.19222  -1.14167
 Alpha  occ. eigenvalues --   -1.14108  -1.14096  -1.14075  -1.14049  -1.14049
 Alpha  occ. eigenvalues --   -1.13860  -1.13832  -1.13827  -1.13128  -1.13060
 Alpha  occ. eigenvalues --   -1.13031  -1.13014  -1.12996  -1.12982  -1.12976
 Alpha  occ. eigenvalues --   -1.12937  -1.12903  -1.12885  -1.12856  -1.12790
 Alpha  occ. eigenvalues --   -0.18227  -0.13469  -0.11987  -0.10355
 Alpha virt. eigenvalues --   -0.06202  -0.05907  -0.04203  -0.03087  -0.02687
 Alpha virt. eigenvalues --   -0.02168  -0.02099  -0.01562  -0.00759  -0.00332
 Alpha virt. eigenvalues --   -0.00064   0.00235   0.00632   0.00742   0.00833

  Beta  occ. eigenvalues --  -38.44614 -38.44588 -38.44398 -38.43488 -38.43439
  Beta  occ. eigenvalues --  -38.43406 -38.43154  -2.20434  -2.20409  -2.20174
  Beta  occ. eigenvalues --   -2.19338  -2.19285  -2.19182  -2.19150  -1.14160
  Beta  occ. eigenvalues --   -1.14102  -1.14079  -1.14058  -1.14044  -1.14044
  Beta  occ. eigenvalues --   -1.13844  -1.13828  -1.13816  -1.13116  -1.13044
  Beta  occ. eigenvalues --   -1.12998  -1.12961  -1.12921  -1.12900  -1.12887
  Beta  occ. eigenvalues --   -1.12840  -1.12834  -1.12828  -1.12824  -1.12768
  Beta  occ. eigenvalues --   -0.17586  -0.13216  -0.11812
  Beta virt. eigenvalues --   -0.06443  -0.06068  -0.05871  -0.04157  -0.02438
  Beta virt. eigenvalues --   -0.02019  -0.01869  -0.01512  -0.01207  -0.00754
  Beta virt. eigenvalues --   -0.00331   0.00149   0.00311   0.00711   0.00761

 Mulliken charges and spin densities:
               1          2
     1  Na   0.298215   0.102551
     2  Na   0.235651   0.074575
     3  Na   0.165203   0.047693
     4  Na   0.187101   0.020076
     5  Na  -0.540941   0.665373
     6  Na   0.293252   0.044568
     7  Na  -0.638481   0.045165
 Sum of Mulliken charges =  -0.00000   1.00000

 Dipole moment (field-independent basis, Debye):
    X=             -0.3512    Y=              0.0526    Z=              0.2508  Tot=              0.4347
 Quadrupole moment (field-independent basis, Debye-Ang):
   XX=            -50.7878   YY=            -64.9728   ZZ=            -76.5438
   XY=              1.0624   XZ=              0.2885   YZ=              2.2494

 Normal termination of Gaussian 16 at Thu Dec  7 03:52:36 2023.
