 Gaussian 16, Revision B.01,
 Gaussian 16:  ES64L-G16RevB.01 20-Dec-2017

 -------------------------
 #P B3LYP/6-311+g(d) force
 -------------------------

 -----
 DPGEN
 -----
 Symbolic Z-matrix:
 Charge =  0 Multiplicity = 2

                         Standard orientation:
 ---------------------------------------------------------------------
 Center     Atomic      Atomic             Coordinates (Angstroms)
 Number     Number       Type             X           Y           Z
 ---------------------------------------------------------------------
      1         11           0       -4.163265    0.926471    0.877650
      2         11           0        3.882807   -2.099412   -0.450141
      3         11           0       -0.183092   -2.851735   -0.562979
      4         11           0       -3.707708   -2.273974    0.197990
      5         11           0        4.018063    0.483191    1.200888
      6         11           0       -1.479627    2.692962   -1.050744
      7         11           0        1.632822    3.122496   -0.212663
 ---------------------------------------------------------------------

 SCF Done:  E(UB3LYP) =  -1136.10695663     A.U. after   20 cycles

 The electronic state is 2-A.
 Alpha  occ. eigenvalues --  -38.44878 -38.44755 -38.44722 -38.44444 -38.44406
 Alpha  occ. eigenvalues --  -38.44301 -38.44094  -2.20666  -2.20566  -2.20492
 Alpha  occ. eigenvalues --   -2.20213  -2.20181  -2.20111  -2.19879  -1.14413
 Alpha  occ. eigenvalues --   -1.14328  -1.14310  -1.14216  -1.14199  -1.14176
 Alpha  occ. eigenvalues --   -1.14170  -1.14165  -1.14148  -1.13870  -1.13860
 Alpha  occ. eigenvalues --   -1.13859  -1.13855  -1.13831  -1.13817  -1.13760
 Alpha  occ. eigenvalues --   -1.13742  -1.13740  -1.13544  -1.13535  -1.13511
 Alpha  occ. eigenvalues --   -0.15560  -0.14142  -0.12902  -0.10789
 Alpha virt. eigenvalues --   -0.07581  -0.04875  -0.04737  -0.03601  -0.03360
 Alpha virt. eigenvalues --   -0.02517  -0.02060  -0.01677  -0.01202  -0.00944
 Alpha virt. eigenvalues --   -0.00694  -0.00105   0.00035   0.00281   0.00641

  Beta  occ. eigenvalues --  -38.44875 -38.44728 -38.44722 -38.44398 -38.44352
  Beta  occ. eigenvalues --  -38.44232 -38.44074  -2.20665  -2.20511  -2.20505
  Beta  occ. eigenvalues --   -2.20172  -2.20043  -2.19982  -2.19843  -1.14391
  Beta  occ. eigenvalues --   -1.14330  -1.14299  -1.14193  -1.14181  -1.14175
  Beta  occ. eigenvalues --   -1.14159  -1.14131  -1.14120  -1.13851  -1.13849
  Beta  occ. eigenvalues --   -1.13806  -1.13755  -1.13744  -1.13704  -1.13672
  Beta  occ. eigenvalues --   -1.13660  -1.13653  -1.13520  -1.13512  -1.13479
  Beta  occ. eigenvalues --   -0.15039  -0.13565  -0.12220
  Beta virt. eigenvalues --   -0.07662  -0.07554  -0.04541  -0.04178  -0.03418
  Beta virt. eigenvalues --   -0.02956  -0.02295  -0.01920  -0.01589  -0.00904
  Beta virt. eigenvalues --   -0.00664  -0.00545   0.00067   0.00247   0.00348

 Mulliken charges and spin densities:
               1          2
     1  Na  -0.035306   0.335011
     2  Na   0.114268   0.018183
     3  Na  -0.251863   0.462029
     4  Na   0.313293  -0.062134
     5  Na  -0.021433   0.169388
     6  Na  -0.161669   0.013907
     7  Na   0.042711   0.063616
 Sum of Mulliken charges =  -0.00000   1.00000

 Dipole moment (field-independent basis, Debye):
    X=              0.5120    Y=             -0.1778    Z=              0.1574  Tot=              0.5644
 Quadrupole moment (field-independent basis, Debye-Ang):
   XX=            -61.6875   YY=            -68.9055   ZZ=            -70.0602
   XY=              0.6782   XZ=              0.3274   YZ=              3.1392

 Normal termination of Gaussian 16 at Sun Dec  3 18:18:58 2023.
