 Gaussian 16, Revision B.01,
 Gaussian 16:  ES64L-G16RevB.01 20-Dec-2017

 -------------------------
 #P B3LYP/6-311+g(d) force
 -------------------------

 -----
 DPGEN
 -----
 Symbolic Z-matrix:
 Charge =  0 Multiplicity = 2

                         Standard orientation:
 ---------------------------------------------------------------------
 Center     Atomic      Atomic             Coordinates (Angstroms)
 Number     Number       Type             X           Y           Z
 ---------------------------------------------------------------------
      1         11           0        2.527845    1.518752    0.128960
      2         11           0        2.657857   -1.660869   -0.406630
      3         11           0       -0.119178    0.195731    1.960073
      4         11           0       -0.409441   -0.333208   -1.928870
      5         11           0       -0.953518   -2.522180    0.600600
      6         11           0       -3.137831    0.139110   -0.221979
      7         11           0       -0.565734    2.662664   -0.132153
 ---------------------------------------------------------------------

 SCF Done:  E(UB3LYP) =  -1136.13732024     A.U. after   19 cycles

 The electronic state is 2-A.
 Alpha  occ. eigenvalues --  -38.44141 -38.43791 -38.43716 -38.43672 -38.43528
 Alpha  occ. eigenvalues --  -38.43320 -38.42941  -2.19994  -2.19715  -2.19664
 Alpha  occ. eigenvalues --   -2.19495  -2.19397  -2.19202  -2.18832  -1.13693
 Alpha  occ. eigenvalues --   -1.13649  -1.13628  -1.13386  -1.13353  -1.13342
 Alpha  occ. eigenvalues --   -1.13332  -1.13320  -1.13281  -1.13201  -1.13160
 Alpha  occ. eigenvalues --   -1.13129  -1.13063  -1.13059  -1.13022  -1.12896
 Alpha  occ. eigenvalues --   -1.12857  -1.12808  -1.12516  -1.12503  -1.12452
 Alpha  occ. eigenvalues --   -0.18852  -0.13149  -0.12300  -0.11272
 Alpha virt. eigenvalues --   -0.05672  -0.04908  -0.04362  -0.03411  -0.03071
 Alpha virt. eigenvalues --   -0.02915  -0.01546  -0.00857  -0.00221  -0.00033
 Alpha virt. eigenvalues --   -0.00002   0.00368   0.00839   0.00915   0.00931

  Beta  occ. eigenvalues --  -38.44134 -38.43716 -38.43668 -38.43628 -38.43526
  Beta  occ. eigenvalues --  -38.43300 -38.42935  -2.19985  -2.19577  -2.19503
  Beta  occ. eigenvalues --   -2.19487  -2.19397  -2.19170  -2.18825  -1.13674
  Beta  occ. eigenvalues --   -1.13634  -1.13619  -1.13298  -1.13258  -1.13237
  Beta  occ. eigenvalues --   -1.13229  -1.13202  -1.13199  -1.13170  -1.13140
  Beta  occ. eigenvalues --   -1.13125  -1.13060  -1.13048  -1.13017  -1.12864
  Beta  occ. eigenvalues --   -1.12813  -1.12791  -1.12514  -1.12480  -1.12442
  Beta  occ. eigenvalues --   -0.18099  -0.12908  -0.12036
  Beta virt. eigenvalues --   -0.07328  -0.05599  -0.04905  -0.04303  -0.02646
  Beta virt. eigenvalues --   -0.02300  -0.01845  -0.01449  -0.00796  -0.00189
  Beta virt. eigenvalues --   -0.00079   0.00092   0.00397   0.00897   0.00919

 Mulliken charges and spin densities:
               1          2
     1  Na   0.008567  -0.051608
     2  Na   0.012012  -0.040337
     3  Na  -0.209162   0.537275
     4  Na  -0.424937   0.678584
     5  Na   0.151426   0.002434
     6  Na   0.365698  -0.049294
     7  Na   0.096395  -0.077055
 Sum of Mulliken charges =  -0.00000   1.00000

 Dipole moment (field-independent basis, Debye):
    X=             -0.3028    Y=             -0.1088    Z=             -0.0910  Tot=              0.3344
 Quadrupole moment (field-independent basis, Debye-Ang):
   XX=            -57.1492   YY=            -66.4864   ZZ=            -71.4343
   XY=             -0.3794   XZ=             -0.3588   YZ=             -0.6822

 Normal termination of Gaussian 16 at Tue Dec  5 16:34:57 2023.
