 Gaussian 16, Revision B.01,
 Gaussian 16:  ES64L-G16RevB.01 20-Dec-2017

 -------------------------
 #P B3LYP/6-311+g(d) force
 -------------------------

 -----
 DPGEN
 -----
 Symbolic Z-matrix:
 Charge =  0 Multiplicity = 2

                         Standard orientation:
 ---------------------------------------------------------------------
 Center     Atomic      Atomic             Coordinates (Angstroms)
 Number     Number       Type             X           Y           Z
 ---------------------------------------------------------------------
      1         11           0        0.144570    0.228820    1.993728
      2         11           0       -0.262989   -0.175168   -1.739759
      3         11           0       -2.258049   -2.234243    0.469325
      4         11           0       -2.522725    0.826369   -0.314657
      5         11           0        1.916684   -2.445902   -0.351236
      6         11           0        3.155613    0.692869    0.055117
      7         11           0       -0.173105    3.107254   -0.112518
 ---------------------------------------------------------------------

 SCF Done:  E(UB3LYP) =  -1136.13284345     A.U. after   20 cycles

 The electronic state is 2-A.
 Alpha  occ. eigenvalues --  -38.44255 -38.43847 -38.43722 -38.43617 -38.43602
 Alpha  occ. eigenvalues --  -38.43490 -38.43303  -2.20053  -2.19660  -2.19604
 Alpha  occ. eigenvalues --   -2.19575  -2.19469  -2.19455  -2.19139  -1.13732
 Alpha  occ. eigenvalues --   -1.13714  -1.13694  -1.13470  -1.13347  -1.13318
 Alpha  occ. eigenvalues --   -1.13292  -1.13281  -1.13236  -1.13225  -1.13213
 Alpha  occ. eigenvalues --   -1.13200  -1.13153  -1.13111  -1.13094  -1.13088
 Alpha  occ. eigenvalues --   -1.13056  -1.13029  -1.12805  -1.12797  -1.12781
 Alpha  occ. eigenvalues --   -0.18588  -0.13133  -0.12286  -0.10868
 Alpha virt. eigenvalues --   -0.05623  -0.05071  -0.04798  -0.03320  -0.02914
 Alpha virt. eigenvalues --   -0.02596  -0.01456  -0.01217  -0.00436  -0.00208
 Alpha virt. eigenvalues --   -0.00008   0.00361   0.00782   0.00854   0.00913

  Beta  occ. eigenvalues --  -38.44255 -38.43839 -38.43637 -38.43607 -38.43530
  Beta  occ. eigenvalues --  -38.43475 -38.43302  -2.20055  -2.19648  -2.19466
  Beta  occ. eigenvalues --   -2.19446  -2.19440  -2.19426  -2.19139  -1.13723
  Beta  occ. eigenvalues --   -1.13714  -1.13695  -1.13406  -1.13328  -1.13301
  Beta  occ. eigenvalues --   -1.13288  -1.13187  -1.13178  -1.13130  -1.13122
  Beta  occ. eigenvalues --   -1.13107  -1.13091  -1.13079  -1.13065  -1.13053
  Beta  occ. eigenvalues --   -1.13014  -1.12989  -1.12805  -1.12792  -1.12769
  Beta  occ. eigenvalues --   -0.17850  -0.12895  -0.12053
  Beta virt. eigenvalues --   -0.06977  -0.05579  -0.04976  -0.04766  -0.02544
  Beta virt. eigenvalues --   -0.02194  -0.01590  -0.01340  -0.01133  -0.00470
  Beta virt. eigenvalues --   -0.00239   0.00120   0.00385   0.00803   0.00905

 Mulliken charges and spin densities:
               1          2
     1  Na  -0.355644   0.733177
     2  Na  -0.076255   0.409582
     3  Na  -0.040879   0.016626
     4  Na   0.597700   0.152458
     5  Na  -0.004083  -0.074758
     6  Na  -0.041027  -0.106572
     7  Na  -0.079812  -0.130513
 Sum of Mulliken charges =  -0.00000   1.00000

 Dipole moment (field-independent basis, Debye):
    X=              0.5159    Y=             -0.1335    Z=              0.1721  Tot=              0.5600
 Quadrupole moment (field-independent basis, Debye-Ang):
   XX=            -59.5453   YY=            -60.8031   ZZ=            -73.7578
   XY=              1.6464   XZ=             -0.8352   YZ=             -1.0720

 Normal termination of Gaussian 16 at Tue Dec  5 10:03:18 2023.
