 Gaussian 16, Revision B.01,
 Gaussian 16:  ES64L-G16RevB.01 20-Dec-2017

 -------------------------
 #P B3LYP/6-311+g(d) force
 -------------------------

 -----
 DPGEN
 -----
 Symbolic Z-matrix:
 Charge =  0 Multiplicity = 2

                         Standard orientation:
 ---------------------------------------------------------------------
 Center     Atomic      Atomic             Coordinates (Angstroms)
 Number     Number       Type             X           Y           Z
 ---------------------------------------------------------------------
      1         11           0        0.076368    0.553166    2.074805
      2         11           0        2.218781   -1.848879    0.157341
      3         11           0        2.793012    0.933816   -0.496801
      4         11           0       -1.401330   -2.828143   -0.041514
      5         11           0       -0.600997    3.064269   -0.199505
      6         11           0       -2.941373    0.232945   -0.173787
      7         11           0       -0.144461   -0.107174   -1.320540
 ---------------------------------------------------------------------

 SCF Done:  E(UB3LYP) =  -1136.13338848     A.U. after   19 cycles

 The electronic state is 2-A.
 Alpha  occ. eigenvalues --  -38.43999 -38.43810 -38.43652 -38.43633 -38.43552
 Alpha  occ. eigenvalues --  -38.43397 -38.42792  -2.19874  -2.19718  -2.19557
 Alpha  occ. eigenvalues --   -2.19467  -2.19387  -2.19290  -2.18878  -1.13609
 Alpha  occ. eigenvalues --   -1.13531  -1.13530  -1.13478  -1.13383  -1.13337
 Alpha  occ. eigenvalues --   -1.13216  -1.13193  -1.13149  -1.13142  -1.13138
 Alpha  occ. eigenvalues --   -1.13104  -1.13075  -1.13042  -1.13025  -1.12961
 Alpha  occ. eigenvalues --   -1.12912  -1.12899  -1.12561  -1.12538  -1.12489
 Alpha  occ. eigenvalues --   -0.18897  -0.13262  -0.12551  -0.10558
 Alpha virt. eigenvalues --   -0.05481  -0.05063  -0.04996  -0.03126  -0.02788
 Alpha virt. eigenvalues --   -0.02317  -0.01384  -0.01329  -0.00339  -0.00316
 Alpha virt. eigenvalues --    0.00013   0.00349   0.00837   0.00871   0.00897

  Beta  occ. eigenvalues --  -38.43992 -38.43796 -38.43646 -38.43629 -38.43552
  Beta  occ. eigenvalues --  -38.43297 -38.42743  -2.19863  -2.19695  -2.19551
  Beta  occ. eigenvalues --   -2.19462  -2.19389  -2.19106  -2.18792  -1.13598
  Beta  occ. eigenvalues --   -1.13522  -1.13506  -1.13475  -1.13356  -1.13308
  Beta  occ. eigenvalues --   -1.13213  -1.13163  -1.13143  -1.13137  -1.13111
  Beta  occ. eigenvalues --   -1.13103  -1.13073  -1.13038  -1.13022  -1.12839
  Beta  occ. eigenvalues --   -1.12784  -1.12768  -1.12488  -1.12473  -1.12427
  Beta  occ. eigenvalues --   -0.18184  -0.13003  -0.12340
  Beta virt. eigenvalues --   -0.06618  -0.05467  -0.05004  -0.04958  -0.02330
  Beta virt. eigenvalues --   -0.02066  -0.01306  -0.01274  -0.01250  -0.00369
  Beta virt. eigenvalues --   -0.00333   0.00173   0.00394   0.00851   0.00900

 Mulliken charges and spin densities:
               1          2
     1  Na  -0.596498   0.728519
     2  Na   0.264327   0.103028
     3  Na   0.325699   0.038121
     4  Na   0.163057   0.030578
     5  Na   0.242724  -0.035549
     6  Na   0.311286   0.001621
     7  Na  -0.710595   0.133682
 Sum of Mulliken charges =  -0.00000   1.00000

 Dipole moment (field-independent basis, Debye):
    X=             -0.1817    Y=              0.1418    Z=              0.2289  Tot=              0.3248
 Quadrupole moment (field-independent basis, Debye-Ang):
   XX=            -58.5779   YY=            -58.7206   ZZ=            -75.5058
   XY=              0.0103   XZ=             -0.4779   YZ=             -1.8007

 Normal termination of Gaussian 16 at Thu Dec  7 02:02:40 2023.
