 Gaussian 16, Revision B.01,
 Gaussian 16:  ES64L-G16RevB.01 20-Dec-2017

 -------------------------
 #P B3LYP/6-311+g(d) force
 -------------------------

 -----
 DPGEN
 -----
 Symbolic Z-matrix:
 Charge =  0 Multiplicity = 2

                         Standard orientation:
 ---------------------------------------------------------------------
 Center     Atomic      Atomic             Coordinates (Angstroms)
 Number     Number       Type             X           Y           Z
 ---------------------------------------------------------------------
      1         11           0       -2.542157    2.473322   -0.454888
      2         11           0        0.136777    0.804484    0.265686
      3         11           0        3.871388    1.262706    0.792024
      4         11           0       -1.847289   -1.253869   -2.050201
      5         11           0        0.585094   -2.493668    0.823890
      6         11           0       -2.140001   -0.482616    2.388390
      7         11           0        1.936188   -0.310359   -1.764900
 ---------------------------------------------------------------------

 SCF Done:  E(UB3LYP) =  -1136.11890640     A.U. after   23 cycles

 The electronic state is 2-A.
 Alpha  occ. eigenvalues --  -38.44941 -38.44935 -38.44263 -38.44136 -38.43330
 Alpha  occ. eigenvalues --  -38.43102 -38.42861  -2.20746  -2.20725  -2.20140
 Alpha  occ. eigenvalues --   -2.19899  -2.19153  -2.18898  -2.18876  -1.14431
 Alpha  occ. eigenvalues --   -1.14394  -1.14381  -1.14362  -1.14341  -1.14333
 Alpha  occ. eigenvalues --   -1.13922  -1.13782  -1.13707  -1.13573  -1.13564
 Alpha  occ. eigenvalues --   -1.13516  -1.12857  -1.12794  -1.12789  -1.12635
 Alpha  occ. eigenvalues --   -1.12618  -1.12552  -1.12537  -1.12508  -1.12448
 Alpha  occ. eigenvalues --   -0.17896  -0.12905  -0.11835  -0.11044
 Alpha virt. eigenvalues --   -0.06054  -0.05146  -0.04662  -0.03144  -0.02896
 Alpha virt. eigenvalues --   -0.02509  -0.01975  -0.01274  -0.00922  -0.00001
 Alpha virt. eigenvalues --    0.00147   0.00218   0.00373   0.00572   0.00737

  Beta  occ. eigenvalues --  -38.44868 -38.44867 -38.44243 -38.44134 -38.43320
  Beta  occ. eigenvalues --  -38.43096 -38.42846  -2.20612  -2.20600  -2.20105
  Beta  occ. eigenvalues --   -2.19894  -2.19136  -2.18889  -2.18854  -1.14332
  Beta  occ. eigenvalues --   -1.14297  -1.14295  -1.14281  -1.14247  -1.14241
  Beta  occ. eigenvalues --   -1.13899  -1.13758  -1.13670  -1.13568  -1.13561
  Beta  occ. eigenvalues --   -1.13512  -1.12846  -1.12782  -1.12762  -1.12612
  Beta  occ. eigenvalues --   -1.12575  -1.12539  -1.12527  -1.12501  -1.12437
  Beta  occ. eigenvalues --   -0.17141  -0.12653  -0.10877
  Beta virt. eigenvalues --   -0.07979  -0.05722  -0.04702  -0.04453  -0.02726
  Beta virt. eigenvalues --   -0.02368  -0.02136  -0.01665  -0.01055  -0.00619
  Beta virt. eigenvalues --    0.00069   0.00256   0.00288   0.00456   0.00645

 Mulliken charges and spin densities:
               1          2
     1  Na   0.410332  -0.067371
     2  Na  -1.299524   0.662527
     3  Na   0.183705  -0.141529
     4  Na   0.245491   0.360911
     5  Na  -0.028111  -0.027771
     6  Na   0.076069   0.167727
     7  Na   0.412038   0.045506
 Sum of Mulliken charges =  -0.00000   1.00000

 Dipole moment (field-independent basis, Debye):
    X=             -0.1895    Y=             -0.8588    Z=              0.0930  Tot=              0.8843
 Quadrupole moment (field-independent basis, Debye-Ang):
   XX=            -56.9891   YY=            -73.7114   ZZ=            -61.3763
   XY=              1.3806   XZ=              1.9318   YZ=              0.0425

 Normal termination of Gaussian 16 at Thu Dec  7 13:33:35 2023.
