 Gaussian 16, Revision B.01,
 Gaussian 16:  ES64L-G16RevB.01 20-Dec-2017

 -------------------------
 #P B3LYP/6-311+g(d) force
 -------------------------

 -----
 DPGEN
 -----
 Symbolic Z-matrix:
 Charge =  0 Multiplicity = 2

                         Standard orientation:
 ---------------------------------------------------------------------
 Center     Atomic      Atomic             Coordinates (Angstroms)
 Number     Number       Type             X           Y           Z
 ---------------------------------------------------------------------
      1         11           0       -2.374961    1.801806    0.905369
      2         11           0       -0.000701    0.553812   -1.878424
      3         11           0        1.313739    2.489023   -0.644012
      4         11           0        3.116987   -0.405606    0.870487
      5         11           0       -2.730270   -1.422097   -0.353581
      6         11           0        0.688998   -2.348311   -0.951251
      7         11           0       -0.013793   -0.668627    2.051413
 ---------------------------------------------------------------------

 SCF Done:  E(UB3LYP) =  -1136.12571617     A.U. after   21 cycles

 The electronic state is 2-A.
 Alpha  occ. eigenvalues --  -38.44253 -38.44125 -38.44032 -38.43968 -38.43860
 Alpha  occ. eigenvalues --  -38.43443 -38.43347  -2.20128  -2.20039  -2.19947
 Alpha  occ. eigenvalues --   -2.19778  -2.19686  -2.19333  -2.19238  -1.13949
 Alpha  occ. eigenvalues --   -1.13802  -1.13775  -1.13761  -1.13677  -1.13622
 Alpha  occ. eigenvalues --   -1.13612  -1.13584  -1.13576  -1.13460  -1.13438
 Alpha  occ. eigenvalues --   -1.13401  -1.13363  -1.13342  -1.13320  -1.13043
 Alpha  occ. eigenvalues --   -1.12974  -1.12933  -1.12909  -1.12839  -1.12806
 Alpha  occ. eigenvalues --   -0.18563  -0.12951  -0.12032  -0.11899
 Alpha virt. eigenvalues --   -0.05491  -0.05028  -0.04104  -0.03610  -0.03422
 Alpha virt. eigenvalues --   -0.03160  -0.01510  -0.00854  -0.00326   0.00079
 Alpha virt. eigenvalues --    0.00204   0.00357   0.00758   0.00784   0.00889

  Beta  occ. eigenvalues --  -38.44186 -38.44104 -38.43961 -38.43945 -38.43858
  Beta  occ. eigenvalues --  -38.43412 -38.43340  -2.20004  -2.19912  -2.19908
  Beta  occ. eigenvalues --   -2.19737  -2.19685  -2.19279  -2.19228  -1.13858
  Beta  occ. eigenvalues --   -1.13724  -1.13688  -1.13669  -1.13593  -1.13579
  Beta  occ. eigenvalues --   -1.13561  -1.13549  -1.13525  -1.13422  -1.13416
  Beta  occ. eigenvalues --   -1.13373  -1.13354  -1.13344  -1.13306  -1.12996
  Beta  occ. eigenvalues --   -1.12936  -1.12891  -1.12875  -1.12825  -1.12804
  Beta  occ. eigenvalues --   -0.17802  -0.12672  -0.11766
  Beta virt. eigenvalues --   -0.07984  -0.05326  -0.04893  -0.03907  -0.03087
  Beta virt. eigenvalues --   -0.02743  -0.02192  -0.01371  -0.00739  -0.00213
  Beta virt. eigenvalues --    0.00135   0.00229   0.00392   0.00835   0.00883

 Mulliken charges and spin densities:
               1          2
     1  Na  -0.102341   0.103405
     2  Na  -0.034385   0.209513
     3  Na   0.141582   0.053767
     4  Na   0.022117   0.081585
     5  Na   0.042573  -0.086989
     6  Na   0.192035   0.121156
     7  Na  -0.261581   0.517563
 Sum of Mulliken charges =  -0.00000   1.00000

 Dipole moment (field-independent basis, Debye):
    X=             -0.1606    Y=             -0.2982    Z=              0.5702  Tot=              0.6632
 Quadrupole moment (field-independent basis, Debye-Ang):
   XX=            -58.0706   YY=            -69.1917   ZZ=            -68.7439
   XY=             -0.0613   XZ=              1.0595   YZ=              3.8735

 Normal termination of Gaussian 16 at Fri Dec  8 19:42:57 2023.
