 Gaussian 16, Revision B.01,
 Gaussian 16:  ES64L-G16RevB.01 20-Dec-2017

 -------------------------
 #P B3LYP/6-311+g(d) force
 -------------------------

 -----
 DPGEN
 -----
 Symbolic Z-matrix:
 Charge =  0 Multiplicity = 2

                         Standard orientation:
 ---------------------------------------------------------------------
 Center     Atomic      Atomic             Coordinates (Angstroms)
 Number     Number       Type             X           Y           Z
 ---------------------------------------------------------------------
      1         11           0        1.529391   -2.368285   -0.145132
      2         11           0        0.496160    0.048196    1.945643
      3         11           0       -0.143469    0.006987   -1.796660
      4         11           0        3.024114    0.727956   -0.202409
      5         11           0       -1.929587   -2.149435    0.157657
      6         11           0        0.004777    2.807752    0.012428
      7         11           0       -2.981385    0.926829    0.028473
 ---------------------------------------------------------------------

 SCF Done:  E(UB3LYP) =  -1136.14057829     A.U. after   17 cycles

 The electronic state is 2-A.
 Alpha  occ. eigenvalues --  -38.44049 -38.43883 -38.43467 -38.43349 -38.43290
 Alpha  occ. eigenvalues --  -38.43257 -38.43190  -2.19898  -2.19727  -2.19396
 Alpha  occ. eigenvalues --   -2.19257  -2.19221  -2.19147  -2.19056  -1.13573
 Alpha  occ. eigenvalues --   -1.13563  -1.13536  -1.13407  -1.13393  -1.13372
 Alpha  occ. eigenvalues --   -1.13073  -1.13038  -1.13016  -1.12957  -1.12926
 Alpha  occ. eigenvalues --   -1.12902  -1.12883  -1.12868  -1.12854  -1.12810
 Alpha  occ. eigenvalues --   -1.12804  -1.12766  -1.12730  -1.12725  -1.12674
 Alpha  occ. eigenvalues --   -0.18928  -0.13161  -0.12468  -0.10858
 Alpha virt. eigenvalues --   -0.05673  -0.05015  -0.04556  -0.03280  -0.02919
 Alpha virt. eigenvalues --   -0.02593  -0.01521  -0.00974  -0.00255  -0.00167
 Alpha virt. eigenvalues --   -0.00022   0.00375   0.00828   0.00917   0.00933

  Beta  occ. eigenvalues --  -38.44043 -38.43882 -38.43381 -38.43345 -38.43248
  Beta  occ. eigenvalues --  -38.43214 -38.43184  -2.19891  -2.19728  -2.19240
  Beta  occ. eigenvalues --   -2.19216  -2.19137  -2.19118  -2.19048  -1.13567
  Beta  occ. eigenvalues --   -1.13536  -1.13534  -1.13410  -1.13379  -1.13370
  Beta  occ. eigenvalues --   -1.12975  -1.12931  -1.12915  -1.12899  -1.12875
  Beta  occ. eigenvalues --   -1.12853  -1.12851  -1.12834  -1.12787  -1.12772
  Beta  occ. eigenvalues --   -1.12764  -1.12751  -1.12718  -1.12687  -1.12673
  Beta  occ. eigenvalues --   -0.18178  -0.12936  -0.12210
  Beta virt. eigenvalues --   -0.06930  -0.05628  -0.05028  -0.04521  -0.02486
  Beta virt. eigenvalues --   -0.02105  -0.01531  -0.01435  -0.00913  -0.00309
  Beta virt. eigenvalues --   -0.00226   0.00118   0.00391   0.00881   0.00905

 Mulliken charges and spin densities:
               1          2
     1  Na   0.239910  -0.051248
     2  Na  -0.479148   0.756886
     3  Na  -0.326302   0.641240
     4  Na   0.276804  -0.084283
     5  Na   0.102944  -0.058854
     6  Na   0.126956  -0.132419
     7  Na   0.058835  -0.071322
 Sum of Mulliken charges =  -0.00000   1.00000

 Dipole moment (field-independent basis, Debye):
    X=              0.1293    Y=              0.1259    Z=              0.0453  Tot=              0.1861
 Quadrupole moment (field-independent basis, Debye-Ang):
   XX=            -56.0765   YY=            -64.2444   ZZ=            -73.4903
   XY=              0.0513   XZ=             -1.3906   YZ=             -0.1598

 Normal termination of Gaussian 16 at Thu Dec  7 19:01:31 2023.
