 Gaussian 16, Revision B.01,
 Gaussian 16:  ES64L-G16RevB.01 20-Dec-2017

 -------------------------
 #P B3LYP/6-311+g(d) force
 -------------------------

 -----
 DPGEN
 -----
 Symbolic Z-matrix:
 Charge =  0 Multiplicity = 2

                         Standard orientation:
 ---------------------------------------------------------------------
 Center     Atomic      Atomic             Coordinates (Angstroms)
 Number     Number       Type             X           Y           Z
 ---------------------------------------------------------------------
      1         11           0        1.506760    1.045611   -1.141341
      2         11           0       -0.879345    3.437750   -0.353431
      3         11           0        3.534396   -0.288574    0.833575
      4         11           0        1.018057   -2.266338   -0.856877
      5         11           0       -0.185814    0.251210    1.374155
      6         11           0       -2.670416    0.701846    0.216691
      7         11           0       -2.323638   -2.881506   -0.072773
 ---------------------------------------------------------------------

 SCF Done:  E(UB3LYP) =  -1136.12424670     A.U. after   20 cycles

 The electronic state is 2-A.
 Alpha  occ. eigenvalues --  -38.44210 -38.44144 -38.43871 -38.43807 -38.43746
 Alpha  occ. eigenvalues --  -38.43740 -38.43559  -2.20062  -2.20059  -2.19861
 Alpha  occ. eigenvalues --   -2.19602  -2.19593  -2.19585  -2.19510  -1.13992
 Alpha  occ. eigenvalues --   -1.13752  -1.13701  -1.13699  -1.13690  -1.13640
 Alpha  occ. eigenvalues --   -1.13567  -1.13446  -1.13420  -1.13310  -1.13282
 Alpha  occ. eigenvalues --   -1.13268  -1.13261  -1.13255  -1.13244  -1.13233
 Alpha  occ. eigenvalues --   -1.13218  -1.13203  -1.13183  -1.13165  -1.13086
 Alpha  occ. eigenvalues --   -0.18394  -0.13624  -0.12783  -0.09898
 Alpha virt. eigenvalues --   -0.05971  -0.05413  -0.05388  -0.03194  -0.02705
 Alpha virt. eigenvalues --   -0.02038  -0.01535  -0.01449  -0.00672  -0.00501
 Alpha virt. eigenvalues --   -0.00060   0.00270   0.00662   0.00722   0.00773

  Beta  occ. eigenvalues --  -38.44179 -38.44127 -38.43820 -38.43810 -38.43730
  Beta  occ. eigenvalues --  -38.43706 -38.43525  -2.20033  -2.20003  -2.19770
  Beta  occ. eigenvalues --   -2.19602  -2.19557  -2.19540  -2.19451  -1.13951
  Beta  occ. eigenvalues --   -1.13714  -1.13664  -1.13655  -1.13647  -1.13629
  Beta  occ. eigenvalues --   -1.13497  -1.13391  -1.13363  -1.13282  -1.13268
  Beta  occ. eigenvalues --   -1.13258  -1.13238  -1.13233  -1.13215  -1.13213
  Beta  occ. eigenvalues --   -1.13193  -1.13165  -1.13144  -1.13105  -1.13042
  Beta  occ. eigenvalues --   -0.17849  -0.13354  -0.12455
  Beta virt. eigenvalues --   -0.06424  -0.05756  -0.05283  -0.05042  -0.02628
  Beta virt. eigenvalues --   -0.02232  -0.01809  -0.01377  -0.00895  -0.00665
  Beta virt. eigenvalues --   -0.00272   0.00159   0.00365   0.00749   0.00763

 Mulliken charges and spin densities:
               1          2
     1  Na  -0.201413   0.339201
     2  Na   0.169722   0.119002
     3  Na   0.341452   0.088101
     4  Na  -0.344639   0.190624
     5  Na  -0.067540   0.164025
     6  Na   0.091310   0.102353
     7  Na   0.011108  -0.003307
 Sum of Mulliken charges =  -0.00000   1.00000

 Dipole moment (field-independent basis, Debye):
    X=              0.1687    Y=              0.1279    Z=              0.0706  Tot=              0.2231
 Quadrupole moment (field-independent basis, Debye-Ang):
   XX=            -55.5393   YY=            -61.0368   ZZ=            -76.3270
   XY=             -1.0038   XZ=              1.9939   YZ=             -0.6156

 Normal termination of Gaussian 16 at Tue Dec  5 13:32:07 2023.
