 Gaussian 16, Revision B.01,
 Gaussian 16:  ES64L-G16RevB.01 20-Dec-2017

 -------------------------
 #P B3LYP/6-311+g(d) force
 -------------------------

 -----
 DPGEN
 -----
 Symbolic Z-matrix:
 Charge =  0 Multiplicity = 2

                         Standard orientation:
 ---------------------------------------------------------------------
 Center     Atomic      Atomic             Coordinates (Angstroms)
 Number     Number       Type             X           Y           Z
 ---------------------------------------------------------------------
      1         11           0        1.901928    2.794497   -0.126657
      2         11           0       -0.730192   -3.509513    0.309615
      3         11           0        4.871283   -0.321747    0.579008
      4         11           0       -3.854265    1.561045    0.553467
      5         11           0        2.544939   -1.887766   -0.672979
      6         11           0       -1.114076    3.770040   -0.332494
      7         11           0       -3.619617   -2.406556   -0.309960
 ---------------------------------------------------------------------

 SCF Done:  E(UB3LYP) =  -1136.10818203     A.U. after   20 cycles

 The electronic state is 2-A.
 Alpha  occ. eigenvalues --  -38.45055 -38.45024 -38.44816 -38.44615 -38.44388
 Alpha  occ. eigenvalues --  -38.43961 -38.43710  -2.20818  -2.20816  -2.20609
 Alpha  occ. eigenvalues --   -2.20429  -2.20165  -2.19771  -2.19507  -1.14513
 Alpha  occ. eigenvalues --   -1.14502  -1.14493  -1.14482  -1.14477  -1.14465
 Alpha  occ. eigenvalues --   -1.14273  -1.14267  -1.14225  -1.14076  -1.14071
 Alpha  occ. eigenvalues --   -1.14052  -1.13820  -1.13803  -1.13781  -1.13421
 Alpha  occ. eigenvalues --   -1.13419  -1.13414  -1.13186  -1.13178  -1.13156
 Alpha  occ. eigenvalues --   -0.15514  -0.13791  -0.13503  -0.10823
 Alpha virt. eigenvalues --   -0.07474  -0.05181  -0.04464  -0.03263  -0.03225
 Alpha virt. eigenvalues --   -0.02594  -0.02356  -0.02153  -0.01417  -0.00674
 Alpha virt. eigenvalues --   -0.00366  -0.00088   0.00063   0.00311   0.00416

  Beta  occ. eigenvalues --  -38.45070 -38.45020 -38.44754 -38.44577 -38.44298
  Beta  occ. eigenvalues --  -38.43922 -38.43710  -2.20848  -2.20814  -2.20497
  Beta  occ. eigenvalues --   -2.20360  -2.19997  -2.19698  -2.19515  -1.14523
  Beta  occ. eigenvalues --   -1.14516  -1.14501  -1.14479  -1.14464  -1.14463
  Beta  occ. eigenvalues --   -1.14198  -1.14194  -1.14138  -1.14027  -1.14023
  Beta  occ. eigenvalues --   -1.14009  -1.13705  -1.13691  -1.13671  -1.13377
  Beta  occ. eigenvalues --   -1.13369  -1.13365  -1.13190  -1.13188  -1.13127
  Beta  occ. eigenvalues --   -0.15052  -0.13205  -0.12865
  Beta virt. eigenvalues --   -0.07585  -0.07354  -0.04791  -0.04194  -0.02929
  Beta virt. eigenvalues --   -0.02802  -0.02370  -0.02135  -0.01991  -0.01334
  Beta virt. eigenvalues --   -0.00336  -0.00117   0.00101   0.00218   0.00407

 Mulliken charges and spin densities:
               1          2
     1  Na  -0.112022   0.338808
     2  Na  -0.094768   0.152016
     3  Na   0.531213   0.175374
     4  Na  -0.023158   0.460884
     5  Na  -0.498195   0.069068
     6  Na   0.097641  -0.145088
     7  Na   0.099289  -0.051062
 Sum of Mulliken charges =  -0.00000   1.00000

 Dipole moment (field-independent basis, Debye):
    X=              1.0607    Y=             -0.4644    Z=              0.0722  Tot=              1.1602
 Quadrupole moment (field-independent basis, Debye-Ang):
   XX=            -57.3047   YY=            -70.5323   ZZ=            -72.1020
   XY=              3.8088   XZ=              3.5397   YZ=              1.0508

 Normal termination of Gaussian 16 at Sun Dec  3 13:16:50 2023.
