 Gaussian 16, Revision B.01,
 Gaussian 16:  ES64L-G16RevB.01 20-Dec-2017

 -------------------------
 #P B3LYP/6-311+g(d) force
 -------------------------

 -----
 DPGEN
 -----
 Symbolic Z-matrix:
 Charge =  0 Multiplicity = 2

                         Standard orientation:
 ---------------------------------------------------------------------
 Center     Atomic      Atomic             Coordinates (Angstroms)
 Number     Number       Type             X           Y           Z
 ---------------------------------------------------------------------
      1         11           0        0.358682    2.707334    0.261398
      2         11           0       -2.230371   -1.758165   -0.509393
      3         11           0       -2.845300    1.281444    0.151966
      4         11           0        0.153072    0.361005   -1.771182
      5         11           0        3.318992    0.403699   -0.048872
      6         11           0        1.213623   -2.154840   -0.358751
      7         11           0        0.031302   -0.840476    2.274833
 ---------------------------------------------------------------------

 SCF Done:  E(UB3LYP) =  -1136.13296783     A.U. after   20 cycles

 The electronic state is 2-A.
 Alpha  occ. eigenvalues --  -38.44442 -38.44177 -38.43896 -38.43605 -38.43426
 Alpha  occ. eigenvalues --  -38.43137 -38.42988  -2.20251  -2.20036  -2.19735
 Alpha  occ. eigenvalues --   -2.19591  -2.19311  -2.18987  -2.18940  -1.13925
 Alpha  occ. eigenvalues --   -1.13911  -1.13890  -1.13706  -1.13664  -1.13645
 Alpha  occ. eigenvalues --   -1.13431  -1.13395  -1.13378  -1.13300  -1.13274
 Alpha  occ. eigenvalues --   -1.13192  -1.12980  -1.12968  -1.12945  -1.12686
 Alpha  occ. eigenvalues --   -1.12648  -1.12635  -1.12613  -1.12596  -1.12540
 Alpha  occ. eigenvalues --   -0.18770  -0.13158  -0.12191  -0.11270
 Alpha virt. eigenvalues --   -0.05989  -0.04841  -0.04133  -0.03392  -0.03306
 Alpha virt. eigenvalues --   -0.02800  -0.01747  -0.00823  -0.00127  -0.00110
 Alpha virt. eigenvalues --    0.00023   0.00351   0.00808   0.00825   0.00935

  Beta  occ. eigenvalues --  -38.44442 -38.44079 -38.43894 -38.43541 -38.43416
  Beta  occ. eigenvalues --  -38.43132 -38.42974  -2.20253  -2.19855  -2.19734
  Beta  occ. eigenvalues --   -2.19476  -2.19295  -2.18979  -2.18920  -1.13923
  Beta  occ. eigenvalues --   -1.13902  -1.13894  -1.13587  -1.13536  -1.13518
  Beta  occ. eigenvalues --   -1.13431  -1.13382  -1.13377  -1.13226  -1.13186
  Beta  occ. eigenvalues --   -1.13109  -1.12968  -1.12949  -1.12923  -1.12677
  Beta  occ. eigenvalues --   -1.12629  -1.12622  -1.12594  -1.12553  -1.12533
  Beta  occ. eigenvalues --   -0.18010  -0.12971  -0.11959
  Beta virt. eigenvalues --   -0.07275  -0.05939  -0.04832  -0.04020  -0.02645
  Beta virt. eigenvalues --   -0.02481  -0.01790  -0.01665  -0.00766  -0.00147
  Beta virt. eigenvalues --   -0.00031   0.00085   0.00378   0.00884   0.00926

 Mulliken charges and spin densities:
               1          2
     1  Na   0.042230   0.061461
     2  Na   0.322258   0.034495
     3  Na  -0.016615   0.016671
     4  Na  -0.223818   0.264551
     5  Na   0.132322  -0.039911
     6  Na   0.526894   0.044628
     7  Na  -0.783270   0.618105
 Sum of Mulliken charges =  -0.00000   1.00000

 Dipole moment (field-independent basis, Debye):
    X=              0.2554    Y=              0.1113    Z=              0.3278  Tot=              0.4301
 Quadrupole moment (field-independent basis, Debye-Ang):
   XX=            -54.9582   YY=            -69.4530   ZZ=            -70.5378
   XY=              0.7295   XZ=              0.2471   YZ=              1.9957

 Normal termination of Gaussian 16 at Fri Dec  8 07:17:17 2023.
