 Gaussian 16, Revision B.01,
 Gaussian 16:  ES64L-G16RevB.01 20-Dec-2017

 -------------------------
 #P B3LYP/6-311+g(d) force
 -------------------------

 -----
 DPGEN
 -----
 Symbolic Z-matrix:
 Charge =  0 Multiplicity = 2

                         Standard orientation:
 ---------------------------------------------------------------------
 Center     Atomic      Atomic             Coordinates (Angstroms)
 Number     Number       Type             X           Y           Z
 ---------------------------------------------------------------------
      1         11           0        2.072402    1.623880   -0.185078
      2         11           0       -0.697809    0.399685    1.544630
      3         11           0       -2.130692   -2.336004   -0.013964
      4         11           0        2.363270   -1.255105    0.786864
      5         11           0        4.855642   -0.652798   -1.025193
      6         11           0       -4.690314   -0.688092   -0.886773
      7         11           0       -1.772499    2.908435   -0.220486
 ---------------------------------------------------------------------

 SCF Done:  E(UB3LYP) =  -1136.11905722     A.U. after   19 cycles

 The electronic state is 2-A.
 Alpha  occ. eigenvalues --  -38.44860 -38.44246 -38.44137 -38.43993 -38.43901
 Alpha  occ. eigenvalues --  -38.43592 -38.43480  -2.20705  -2.20156  -2.19971
 Alpha  occ. eigenvalues --   -2.19788  -2.19698  -2.19407  -2.19384  -1.14463
 Alpha  occ. eigenvalues --   -1.14402  -1.14269  -1.13849  -1.13829  -1.13801
 Alpha  occ. eigenvalues --   -1.13619  -1.13618  -1.13573  -1.13455  -1.13441
 Alpha  occ. eigenvalues --   -1.13425  -1.13383  -1.13354  -1.13307  -1.13102
 Alpha  occ. eigenvalues --   -1.13077  -1.13062  -1.13044  -1.13037  -1.12993
 Alpha  occ. eigenvalues --   -0.17297  -0.14195  -0.11712  -0.10968
 Alpha virt. eigenvalues --   -0.06163  -0.05457  -0.04776  -0.03637  -0.02666
 Alpha virt. eigenvalues --   -0.02406  -0.02220  -0.01343  -0.00699  -0.00555
 Alpha virt. eigenvalues --   -0.00255   0.00055   0.00220   0.00365   0.00586

  Beta  occ. eigenvalues --  -38.44859 -38.44219 -38.44101 -38.43957 -38.43862
  Beta  occ. eigenvalues --  -38.43589 -38.43444  -2.20704  -2.20112  -2.19903
  Beta  occ. eigenvalues --   -2.19719  -2.19624  -2.19404  -2.19323  -1.14451
  Beta  occ. eigenvalues --   -1.14403  -1.14266  -1.13827  -1.13798  -1.13737
  Beta  occ. eigenvalues --   -1.13571  -1.13569  -1.13526  -1.13414  -1.13395
  Beta  occ. eigenvalues --   -1.13376  -1.13335  -1.13303  -1.13256  -1.13092
  Beta  occ. eigenvalues --   -1.13077  -1.13025  -1.13008  -1.12991  -1.12932
  Beta  occ. eigenvalues --   -0.16627  -0.13821  -0.11498
  Beta virt. eigenvalues --   -0.07494  -0.05880  -0.04873  -0.04403  -0.03470
  Beta virt. eigenvalues --   -0.02377  -0.02189  -0.01666  -0.01247  -0.00516
  Beta virt. eigenvalues --   -0.00243  -0.00135   0.00220   0.00364   0.00452

 Mulliken charges and spin densities:
               1          2
     1  Na  -0.340582   0.123505
     2  Na   0.055073  -0.041525
     3  Na   0.020307   0.098405
     4  Na  -0.290792   0.100925
     5  Na   0.575354   0.193029
     6  Na   0.011414   0.210461
     7  Na  -0.030775   0.315200
 Sum of Mulliken charges =  -0.00000   1.00000

 Dipole moment (field-independent basis, Debye):
    X=              1.1002    Y=              0.3262    Z=             -0.4409  Tot=              1.2293
 Quadrupole moment (field-independent basis, Debye-Ang):
   XX=            -59.0270   YY=            -69.1195   ZZ=            -69.3514
   XY=             -5.4295   XZ=             -0.9961   YZ=             -2.2536

 Normal termination of Gaussian 16 at Wed Nov 29 01:18:48 2023.
