 Gaussian 16, Revision B.01,
 Gaussian 16:  ES64L-G16RevB.01 20-Dec-2017

 -------------------------
 #P B3LYP/6-311+g(d) force
 -------------------------

 -----
 DPGEN
 -----
 Symbolic Z-matrix:
 Charge =  0 Multiplicity = 2

                         Standard orientation:
 ---------------------------------------------------------------------
 Center     Atomic      Atomic             Coordinates (Angstroms)
 Number     Number       Type             X           Y           Z
 ---------------------------------------------------------------------
      1         11           0       -2.845028    2.091072   -0.303774
      2         11           0       -1.234921   -0.004578    1.866680
      3         11           0       -2.614534   -2.538788   -0.617139
      4         11           0        3.361777   -0.409074   -0.965080
      5         11           0        2.314985   -0.479209    1.645233
      6         11           0        0.209764   -1.182239   -0.964222
      7         11           0        0.807957    2.522815   -0.661698
 ---------------------------------------------------------------------

 SCF Done:  E(UB3LYP) =  -1136.12168148     A.U. after   22 cycles

 The electronic state is 2-A.
 Alpha  occ. eigenvalues --  -38.44613 -38.44360 -38.44307 -38.43980 -38.43888
 Alpha  occ. eigenvalues --  -38.43401 -38.43227  -2.20524  -2.20237  -2.20132
 Alpha  occ. eigenvalues --   -2.19764  -2.19758  -2.19213  -2.19179  -1.14367
 Alpha  occ. eigenvalues --   -1.14176  -1.14122  -1.13879  -1.13848  -1.13819
 Alpha  occ. eigenvalues --   -1.13816  -1.13786  -1.13764  -1.13465  -1.13458
 Alpha  occ. eigenvalues --   -1.13436  -1.13395  -1.13367  -1.13364  -1.12947
 Alpha  occ. eigenvalues --   -1.12883  -1.12864  -1.12846  -1.12828  -1.12759
 Alpha  occ. eigenvalues --   -0.18308  -0.13704  -0.11611  -0.11054
 Alpha virt. eigenvalues --   -0.06413  -0.05444  -0.04723  -0.03375  -0.02452
 Alpha virt. eigenvalues --   -0.02432  -0.02143  -0.01164  -0.00797  -0.00210
 Alpha virt. eigenvalues --    0.00138   0.00218   0.00389   0.00607   0.00767

  Beta  occ. eigenvalues --  -38.44597 -38.44362 -38.44251 -38.43964 -38.43829
  Beta  occ. eigenvalues --  -38.43390 -38.43200  -2.20495  -2.20136  -2.20135
  Beta  occ. eigenvalues --   -2.19734  -2.19652  -2.19193  -2.19132  -1.14335
  Beta  occ. eigenvalues --   -1.14148  -1.14099  -1.13817  -1.13807  -1.13789
  Beta  occ. eigenvalues --   -1.13780  -1.13767  -1.13743  -1.13435  -1.13412
  Beta  occ. eigenvalues --   -1.13393  -1.13346  -1.13304  -1.13293  -1.12924
  Beta  occ. eigenvalues --   -1.12849  -1.12840  -1.12821  -1.12794  -1.12732
  Beta  occ. eigenvalues --   -0.17594  -0.13603  -0.11394
  Beta virt. eigenvalues --   -0.07132  -0.06271  -0.05235  -0.04147  -0.03152
  Beta virt. eigenvalues --   -0.02116  -0.01980  -0.01564  -0.01078  -0.00398
  Beta virt. eigenvalues --   -0.00105   0.00193   0.00275   0.00563   0.00681

 Mulliken charges and spin densities:
               1          2
     1  Na   0.045803  -0.074958
     2  Na   0.232072   0.287215
     3  Na   0.534064  -0.025191
     4  Na   1.631296   0.195258
     5  Na  -0.130992   0.071150
     6  Na  -1.957968   0.429667
     7  Na  -0.354275   0.116858
 Sum of Mulliken charges =  -0.00000   1.00000

 Dipole moment (field-independent basis, Debye):
    X=              0.2337    Y=              0.3528    Z=             -0.0812  Tot=              0.4309
 Quadrupole moment (field-independent basis, Debye-Ang):
   XX=            -50.0237   YY=            -73.5722   ZZ=            -70.6474
   XY=             -0.2673   XZ=             -0.9175   YZ=             -0.7764

 Normal termination of Gaussian 16 at Tue Dec  5 22:10:28 2023.
