 Gaussian 16, Revision B.01,
 Gaussian 16:  ES64L-G16RevB.01 20-Dec-2017

 -------------------------
 #P B3LYP/6-311+g(d) force
 -------------------------

 -----
 DPGEN
 -----
 Symbolic Z-matrix:
 Charge =  0 Multiplicity = 2

                         Standard orientation:
 ---------------------------------------------------------------------
 Center     Atomic      Atomic             Coordinates (Angstroms)
 Number     Number       Type             X           Y           Z
 ---------------------------------------------------------------------
      1         11           0       -0.883892    2.002848    0.450015
      2         11           0        2.047689   -1.475427   -0.836881
      3         11           0       -0.677152   -1.788501    0.846622
      4         11           0        1.099792    0.033425    1.896331
      5         11           0        1.960639    1.423104   -0.491229
      6         11           0       -0.321806    0.042399   -1.533474
      7         11           0       -3.225269   -0.237847   -0.331384
 ---------------------------------------------------------------------

 SCF Done:  E(UB3LYP) =  -1136.10177163     A.U. after   22 cycles

 The electronic state is 2-A.
 Alpha  occ. eigenvalues --  -38.44381 -38.44172 -38.43838 -38.43570 -38.43428
 Alpha  occ. eigenvalues --  -38.43051 -38.42774  -2.20503  -2.20092  -2.20063
 Alpha  occ. eigenvalues --   -2.19620  -2.19546  -2.19118  -2.18821  -1.14282
 Alpha  occ. eigenvalues --   -1.14194  -1.14071  -1.13908  -1.13846  -1.13777
 Alpha  occ. eigenvalues --   -1.13723  -1.13698  -1.13673  -1.13389  -1.13262
 Alpha  occ. eigenvalues --   -1.13225  -1.13196  -1.13178  -1.13065  -1.12829
 Alpha  occ. eigenvalues --   -1.12770  -1.12671  -1.12543  -1.12476  -1.12390
 Alpha  occ. eigenvalues --   -0.20858  -0.13872  -0.12368  -0.12104
 Alpha virt. eigenvalues --   -0.05710  -0.04098  -0.03851  -0.03612  -0.03042
 Alpha virt. eigenvalues --   -0.02968  -0.01511  -0.00466  -0.00244   0.00301
 Alpha virt. eigenvalues --    0.00550   0.00797   0.00907   0.01020   0.01048

  Beta  occ. eigenvalues --  -38.44287 -38.44171 -38.43769 -38.43540 -38.43407
  Beta  occ. eigenvalues --  -38.43021 -38.42760  -2.20333  -2.20064  -2.19968
  Beta  occ. eigenvalues --   -2.19570  -2.19515  -2.19070  -2.18800  -1.14157
  Beta  occ. eigenvalues --   -1.14087  -1.13946  -1.13832  -1.13785  -1.13722
  Beta  occ. eigenvalues --   -1.13710  -1.13692  -1.13612  -1.13356  -1.13222
  Beta  occ. eigenvalues --   -1.13182  -1.13155  -1.13113  -1.13035  -1.12789
  Beta  occ. eigenvalues --   -1.12702  -1.12645  -1.12532  -1.12420  -1.12382
  Beta  occ. eigenvalues --   -0.20044  -0.13607  -0.11826
  Beta virt. eigenvalues --   -0.08060  -0.05617  -0.04096  -0.03524  -0.03042
  Beta virt. eigenvalues --   -0.02201  -0.01935  -0.01401  -0.00425  -0.00028
  Beta virt. eigenvalues --    0.00333   0.00583   0.00789   0.00974   0.01053

 Mulliken charges and spin densities:
               1          2
     1  Na  -0.548178   0.110834
     2  Na   0.067640  -0.005591
     3  Na  -0.367530   0.225543
     4  Na   0.360711   0.350986
     5  Na   0.328815   0.004714
     6  Na  -0.333078   0.376252
     7  Na   0.491620  -0.062738
 Sum of Mulliken charges =  -0.00000   1.00000

 Dipole moment (field-independent basis, Debye):
    X=             -0.4229    Y=             -0.1127    Z=              0.1197  Tot=              0.4538
 Quadrupole moment (field-independent basis, Debye-Ang):
   XX=            -54.9765   YY=            -73.2536   ZZ=            -67.0567
   XY=             -0.3164   XZ=             -0.6782   YZ=              1.0846

 Normal termination of Gaussian 16 at Fri Dec  8 18:46:54 2023.
