 Gaussian 16, Revision B.01,
 Gaussian 16:  ES64L-G16RevB.01 20-Dec-2017

 -------------------------
 #P B3LYP/6-311+g(d) force
 -------------------------

 -----
 DPGEN
 -----
 Symbolic Z-matrix:
 Charge =  0 Multiplicity = 2

                         Standard orientation:
 ---------------------------------------------------------------------
 Center     Atomic      Atomic             Coordinates (Angstroms)
 Number     Number       Type             X           Y           Z
 ---------------------------------------------------------------------
      1         11           0       -2.651504    1.480599    0.736837
      2         11           0        0.079754   -0.211756   -1.376397
      3         11           0        1.637784   -2.806512   -0.140046
      4         11           0        0.912283    2.919315   -0.642091
      5         11           0        2.815899    0.624963    0.051355
      6         11           0        0.057566   -0.552126    2.282965
      7         11           0       -2.851782   -1.454483   -0.912623
 ---------------------------------------------------------------------

 SCF Done:  E(UB3LYP) =  -1136.13097526     A.U. after   19 cycles

 The electronic state is 2-A.
 Alpha  occ. eigenvalues --  -38.44240 -38.44142 -38.44084 -38.43820 -38.43527
 Alpha  occ. eigenvalues --  -38.43110 -38.43037  -2.20080  -2.19969  -2.19890
 Alpha  occ. eigenvalues --   -2.19725  -2.19350  -2.19124  -2.18897  -1.13741
 Alpha  occ. eigenvalues --   -1.13720  -1.13685  -1.13664  -1.13621  -1.13605
 Alpha  occ. eigenvalues --   -1.13558  -1.13540  -1.13515  -1.13442  -1.13393
 Alpha  occ. eigenvalues --   -1.13348  -1.13047  -1.13005  -1.12989  -1.12810
 Alpha  occ. eigenvalues --   -1.12776  -1.12753  -1.12566  -1.12557  -1.12523
 Alpha  occ. eigenvalues --   -0.18320  -0.13163  -0.12103  -0.11128
 Alpha virt. eigenvalues --   -0.05512  -0.05354  -0.04539  -0.03436  -0.02863
 Alpha virt. eigenvalues --   -0.02785  -0.01495  -0.01246  -0.00464  -0.00107
 Alpha virt. eigenvalues --   -0.00007   0.00349   0.00768   0.00804   0.00831

  Beta  occ. eigenvalues --  -38.44141 -38.44117 -38.44071 -38.43815 -38.43528
  Beta  occ. eigenvalues --  -38.43062 -38.43033  -2.19924  -2.19897  -2.19867
  Beta  occ. eigenvalues --   -2.19720  -2.19355  -2.19039  -2.18893  -1.13627
  Beta  occ. eigenvalues --   -1.13619  -1.13596  -1.13590  -1.13574  -1.13554
  Beta  occ. eigenvalues --   -1.13527  -1.13520  -1.13496  -1.13437  -1.13380
  Beta  occ. eigenvalues --   -1.13340  -1.13042  -1.13007  -1.12985  -1.12740
  Beta  occ. eigenvalues --   -1.12713  -1.12700  -1.12563  -1.12545  -1.12514
  Beta  occ. eigenvalues --   -0.17634  -0.12934  -0.11898
  Beta virt. eigenvalues --   -0.07213  -0.05375  -0.05173  -0.04473  -0.02764
  Beta virt. eigenvalues --   -0.02231  -0.01818  -0.01404  -0.01120  -0.00402
  Beta virt. eigenvalues --   -0.00066   0.00113   0.00396   0.00828   0.00869

 Mulliken charges and spin densities:
               1          2
     1  Na  -0.019930   0.170082
     2  Na   0.002421  -0.011614
     3  Na  -0.077373   0.041213
     4  Na   0.001414   0.040509
     5  Na   0.452752   0.114881
     6  Na  -0.405662   0.570012
     7  Na   0.046378   0.074916
 Sum of Mulliken charges =  -0.00000   1.00000

 Dipole moment (field-independent basis, Debye):
    X=             -0.2688    Y=             -0.3250    Z=              0.3572  Tot=              0.5527
 Quadrupole moment (field-independent basis, Debye-Ang):
   XX=            -58.9588   YY=            -63.0609   ZZ=            -72.3442
   XY=             -1.4488   XZ=              0.6791   YZ=              1.5554

 Normal termination of Gaussian 16 at Thu Dec  7 13:25:13 2023.
