 Gaussian 16, Revision B.01,
 Gaussian 16:  ES64L-G16RevB.01 20-Dec-2017

 -------------------------
 #P B3LYP/6-311+g(d) force
 -------------------------

 -----
 DPGEN
 -----
 Symbolic Z-matrix:
 Charge =  0 Multiplicity = 2

                         Standard orientation:
 ---------------------------------------------------------------------
 Center     Atomic      Atomic             Coordinates (Angstroms)
 Number     Number       Type             X           Y           Z
 ---------------------------------------------------------------------
      1         11           0        3.259673    0.364812    0.267696
      2         11           0       -2.258186   -1.842569   -0.191399
      3         11           0        0.402948    2.974107   -0.307738
      4         11           0       -2.666793    1.251312    0.160785
      5         11           0       -0.155716   -0.102819    1.831842
      6         11           0        1.239758   -2.596321   -0.143898
      7         11           0        0.178316   -0.048522   -1.617288
 ---------------------------------------------------------------------

 SCF Done:  E(UB3LYP) =  -1136.13780062     A.U. after   19 cycles

 The electronic state is 2-A.
 Alpha  occ. eigenvalues --  -38.44341 -38.43631 -38.43460 -38.43424 -38.43410
 Alpha  occ. eigenvalues --  -38.43281 -38.42936  -2.20135  -2.19527  -2.19368
 Alpha  occ. eigenvalues --   -2.19307  -2.19243  -2.19233  -2.18951  -1.13811
 Alpha  occ. eigenvalues --   -1.13787  -1.13777  -1.13251  -1.13203  -1.13166
 Alpha  occ. eigenvalues --   -1.13059  -1.13031  -1.13024  -1.12992  -1.12976
 Alpha  occ. eigenvalues --   -1.12940  -1.12916  -1.12913  -1.12897  -1.12870
 Alpha  occ. eigenvalues --   -1.12851  -1.12840  -1.12630  -1.12576  -1.12561
 Alpha  occ. eigenvalues --   -0.18977  -0.13127  -0.12539  -0.10586
 Alpha virt. eigenvalues --   -0.05775  -0.04940  -0.04780  -0.03145  -0.02780
 Alpha virt. eigenvalues --   -0.02278  -0.01622  -0.01115  -0.00360  -0.00255
 Alpha virt. eigenvalues --    0.00027   0.00354   0.00809   0.00903   0.00909

  Beta  occ. eigenvalues --  -38.44337 -38.43624 -38.43452 -38.43416 -38.43403
  Beta  occ. eigenvalues --  -38.43199 -38.42865  -2.20130  -2.19518  -2.19358
  Beta  occ. eigenvalues --   -2.19297  -2.19232  -2.19084  -2.18822  -1.13792
  Beta  occ. eigenvalues --   -1.13784  -1.13775  -1.13248  -1.13185  -1.13142
  Beta  occ. eigenvalues --   -1.13048  -1.13014  -1.13000  -1.12974  -1.12945
  Beta  occ. eigenvalues --   -1.12924  -1.12907  -1.12882  -1.12867  -1.12816
  Beta  occ. eigenvalues --   -1.12749  -1.12731  -1.12543  -1.12483  -1.12467
  Beta  occ. eigenvalues --   -0.18250  -0.12876  -0.12262
  Beta virt. eigenvalues --   -0.06691  -0.05730  -0.04944  -0.04748  -0.02358
  Beta virt. eigenvalues --   -0.02018  -0.01523  -0.01246  -0.01038  -0.00394
  Beta virt. eigenvalues --   -0.00315   0.00152   0.00381   0.00835   0.00903

 Mulliken charges and spin densities:
               1          2
     1  Na  -0.049938  -0.056615
     2  Na   0.279346  -0.035775
     3  Na   0.003641  -0.092576
     4  Na   0.259432   0.010510
     5  Na  -0.399932   0.707383
     6  Na   0.196244  -0.084721
     7  Na  -0.288792   0.551794
 Sum of Mulliken charges =  -0.00000   1.00000

 Dipole moment (field-independent basis, Debye):
    X=              0.3611    Y=              0.0454    Z=              0.1379  Tot=              0.3892
 Quadrupole moment (field-independent basis, Debye-Ang):
   XX=            -55.2698   YY=            -61.7288   ZZ=            -75.3293
   XY=              0.3560   XZ=              0.9130   YZ=              0.2637

 Normal termination of Gaussian 16 at Thu Dec  7 11:02:55 2023.
