 Gaussian 16, Revision B.01,
 Gaussian 16:  ES64L-G16RevB.01 20-Dec-2017

 -------------------------
 #P B3LYP/6-311+g(d) force
 -------------------------

 -----
 DPGEN
 -----
 Symbolic Z-matrix:
 Charge =  0 Multiplicity = 2

                         Standard orientation:
 ---------------------------------------------------------------------
 Center     Atomic      Atomic             Coordinates (Angstroms)
 Number     Number       Type             X           Y           Z
 ---------------------------------------------------------------------
      1         11           0        0.182353   -2.157198    0.710482
      2         11           0        3.277961   -2.771345   -0.293219
      3         11           0        3.725018    0.699166   -0.502920
      4         11           0       -0.092078    0.903618   -0.330870
      5         11           0       -3.489847    0.143242    0.911794
      6         11           0        2.216116    3.232743    0.370141
      7         11           0       -5.819523   -0.050226   -0.865409
 ---------------------------------------------------------------------

 SCF Done:  E(UB3LYP) =  -1136.11993087     A.U. after   20 cycles

 The electronic state is 2-A.
 Alpha  occ. eigenvalues --  -38.44553 -38.44417 -38.44397 -38.44086 -38.43901
 Alpha  occ. eigenvalues --  -38.43577 -38.43524  -2.20392  -2.20274  -2.20264
 Alpha  occ. eigenvalues --   -2.19914  -2.19734  -2.19397  -2.19375  -1.14102
 Alpha  occ. eigenvalues --   -1.14011  -1.14008  -1.13962  -1.13956  -1.13947
 Alpha  occ. eigenvalues --   -1.13928  -1.13909  -1.13859  -1.13600  -1.13584
 Alpha  occ. eigenvalues --   -1.13523  -1.13413  -1.13398  -1.13369  -1.13055
 Alpha  occ. eigenvalues --   -1.13054  -1.13044  -1.13029  -1.13023  -1.13014
 Alpha  occ. eigenvalues --   -0.16931  -0.14229  -0.12326  -0.11450
 Alpha virt. eigenvalues --   -0.05641  -0.05263  -0.04942  -0.03832  -0.02935
 Alpha virt. eigenvalues --   -0.02271  -0.01843  -0.01653  -0.00935  -0.00619
 Alpha virt. eigenvalues --   -0.00273   0.00114   0.00118   0.00307   0.00744

  Beta  occ. eigenvalues --  -38.44473 -38.44374 -38.44343 -38.44062 -38.43903
  Beta  occ. eigenvalues --  -38.43550 -38.43521  -2.20244  -2.20194  -2.20170
  Beta  occ. eigenvalues --   -2.19873  -2.19746  -2.19371  -2.19346  -1.14009
  Beta  occ. eigenvalues --   -1.13910  -1.13907  -1.13902  -1.13897  -1.13882
  Beta  occ. eigenvalues --   -1.13874  -1.13844  -1.13787  -1.13568  -1.13559
  Beta  occ. eigenvalues --   -1.13487  -1.13416  -1.13412  -1.13330  -1.13036
  Beta  occ. eigenvalues --   -1.13021  -1.13018  -1.13013  -1.13009  -1.13001
  Beta  occ. eigenvalues --   -0.16263  -0.13406  -0.12239
  Beta virt. eigenvalues --   -0.08007  -0.05236  -0.04858  -0.04554  -0.03619
  Beta virt. eigenvalues --   -0.02634  -0.02005  -0.01680  -0.01328  -0.00809
  Beta virt. eigenvalues --   -0.00245  -0.00046   0.00230   0.00282   0.00452

 Mulliken charges and spin densities:
               1          2
     1  Na   0.016042   0.058497
     2  Na   0.227130   0.124651
     3  Na  -0.082671   0.339220
     4  Na  -1.482599  -0.009318
     5  Na   0.065498   0.026372
     6  Na   1.054168   0.113093
     7  Na   0.202433   0.347485
 Sum of Mulliken charges =  -0.00000   1.00000

 Dipole moment (field-independent basis, Debye):
    X=             -0.0198    Y=              0.1594    Z=             -0.1154  Tot=              0.1978
 Quadrupole moment (field-independent basis, Debye-Ang):
   XX=            -62.3749   YY=            -66.8127   ZZ=            -68.2768
   XY=              1.0341   XZ=              2.3698   YZ=              1.2237

 Normal termination of Gaussian 16 at Tue Nov 28 22:08:52 2023.
