 Gaussian 16, Revision B.01,
 Gaussian 16:  ES64L-G16RevB.01 20-Dec-2017

 -------------------------
 #P B3LYP/6-311+g(d) force
 -------------------------

 -----
 DPGEN
 -----
 Symbolic Z-matrix:
 Charge =  0 Multiplicity = 2

                         Standard orientation:
 ---------------------------------------------------------------------
 Center     Atomic      Atomic             Coordinates (Angstroms)
 Number     Number       Type             X           Y           Z
 ---------------------------------------------------------------------
      1         11           0        4.122198    0.285588   -0.859719
      2         11           0        2.816273   -2.557375    1.224680
      3         11           0       -0.282504   -3.181119   -0.470145
      4         11           0       -3.533943   -1.770188   -0.420390
      5         11           0       -1.052561    2.920564    0.414575
      6         11           0       -4.192633    1.138468    0.209452
      7         11           0        2.123170    3.164062   -0.098453
 ---------------------------------------------------------------------

 SCF Done:  E(UB3LYP) =  -1136.10739992     A.U. after   26 cycles

 The electronic state is 2-A.
 Alpha  occ. eigenvalues --  -38.45464 -38.45025 -38.44627 -38.44597 -38.44096
 Alpha  occ. eigenvalues --  -38.44024 -38.43845  -2.21193  -2.20836  -2.20406
 Alpha  occ. eigenvalues --   -2.20394  -2.19894  -2.19865  -2.19637  -1.14882
 Alpha  occ. eigenvalues --   -1.14861  -1.14839  -1.14528  -1.14502  -1.14487
 Alpha  occ. eigenvalues --   -1.14067  -1.14063  -1.14060  -1.14049  -1.14030
 Alpha  occ. eigenvalues --   -1.14028  -1.13562  -1.13562  -1.13535  -1.13530
 Alpha  occ. eigenvalues --   -1.13503  -1.13492  -1.13294  -1.13290  -1.13259
 Alpha  occ. eigenvalues --   -0.15727  -0.14033  -0.13345  -0.10564
 Alpha virt. eigenvalues --   -0.07912  -0.05070  -0.04095  -0.03613  -0.03463
 Alpha virt. eigenvalues --   -0.02517  -0.02385  -0.01604  -0.01186  -0.00806
 Alpha virt. eigenvalues --   -0.00603  -0.00224   0.00242   0.00366   0.00635

  Beta  occ. eigenvalues --  -38.45483 -38.45007 -38.44565 -38.44554 -38.44085
  Beta  occ. eigenvalues --  -38.43977 -38.43784  -2.21231  -2.20810  -2.20318
  Beta  occ. eigenvalues --   -2.20289  -2.19880  -2.19780  -2.19523  -1.14911
  Beta  occ. eigenvalues --   -1.14890  -1.14841  -1.14498  -1.14492  -1.14437
  Beta  occ. eigenvalues --   -1.14011  -1.14010  -1.13986  -1.13973  -1.13960
  Beta  occ. eigenvalues --   -1.13951  -1.13558  -1.13551  -1.13497  -1.13468
  Beta  occ. eigenvalues --   -1.13445  -1.13435  -1.13216  -1.13213  -1.13186
  Beta  occ. eigenvalues --   -0.15174  -0.13404  -0.12645
  Beta virt. eigenvalues --   -0.08014  -0.07376  -0.04676  -0.03661  -0.03354
  Beta virt. eigenvalues --   -0.03086  -0.02282  -0.02151  -0.01532  -0.01041
  Beta virt. eigenvalues --   -0.00453  -0.00432  -0.00027   0.00298   0.00456

 Mulliken charges and spin densities:
               1          2
     1  Na  -0.090676   0.361040
     2  Na   0.054082  -0.053669
     3  Na  -0.443844   0.277713
     4  Na   0.215123   0.089373
     5  Na  -0.137131   0.277932
     6  Na   0.314088   0.306815
     7  Na   0.088358  -0.259203
 Sum of Mulliken charges =  -0.00000   1.00000

 Dipole moment (field-independent basis, Debye):
    X=              0.2203    Y=             -0.2410    Z=              0.2641  Tot=              0.4199
 Quadrupole moment (field-independent basis, Debye-Ang):
   XX=            -63.0751   YY=            -68.9067   ZZ=            -69.2240
   XY=             -0.7271   XZ=              0.8006   YZ=             -1.2321

 Normal termination of Gaussian 16 at Sun Dec  3 19:49:29 2023.
