 Gaussian 16, Revision B.01,
 Gaussian 16:  ES64L-G16RevB.01 20-Dec-2017

 -------------------------
 #P B3LYP/6-311+g(d) force
 -------------------------

 -----
 DPGEN
 -----
 Symbolic Z-matrix:
 Charge =  0 Multiplicity = 2

                         Standard orientation:
 ---------------------------------------------------------------------
 Center     Atomic      Atomic             Coordinates (Angstroms)
 Number     Number       Type             X           Y           Z
 ---------------------------------------------------------------------
      1         11           0        2.882919    1.169260   -0.047944
      2         11           0        0.401021   -0.299763    2.097171
      3         11           0       -0.073898    3.070141   -0.037922
      4         11           0       -3.082761    0.803782   -0.124035
      5         11           0       -2.726366   -2.315562    0.060915
      6         11           0        2.800669   -2.447633   -0.437874
      7         11           0       -0.201584    0.019775   -1.510311
 ---------------------------------------------------------------------

 SCF Done:  E(UB3LYP) =  -1136.12849492     A.U. after   21 cycles

 The electronic state is 2-A.
 Alpha  occ. eigenvalues --  -38.44472 -38.44337 -38.44303 -38.44035 -38.43746
 Alpha  occ. eigenvalues --  -38.43722 -38.42960  -2.20298  -2.20160  -2.20139
 Alpha  occ. eigenvalues --   -2.19797  -2.19652  -2.19556  -2.18793  -1.13982
 Alpha  occ. eigenvalues --   -1.13974  -1.13917  -1.13902  -1.13843  -1.13815
 Alpha  occ. eigenvalues --   -1.13794  -1.13779  -1.13724  -1.13464  -1.13461
 Alpha  occ. eigenvalues --   -1.13430  -1.13358  -1.13284  -1.13282  -1.13220
 Alpha  occ. eigenvalues --   -1.13178  -1.13171  -1.12466  -1.12453  -1.12441
 Alpha  occ. eigenvalues --   -0.17956  -0.13522  -0.11819  -0.10277
 Alpha virt. eigenvalues --   -0.06143  -0.05874  -0.04669  -0.03314  -0.02590
 Alpha virt. eigenvalues --   -0.02224  -0.01936  -0.01484  -0.01034  -0.00501
 Alpha virt. eigenvalues --   -0.00056   0.00283   0.00641   0.00698   0.00782

  Beta  occ. eigenvalues --  -38.44467 -38.44339 -38.44299 -38.44024 -38.43699
  Beta  occ. eigenvalues --  -38.43621 -38.42958  -2.20292  -2.20155  -2.20142
  Beta  occ. eigenvalues --   -2.19778  -2.19568  -2.19368  -2.18793  -1.13973
  Beta  occ. eigenvalues --   -1.13952  -1.13915  -1.13904  -1.13832  -1.13803
  Beta  occ. eigenvalues --   -1.13790  -1.13774  -1.13726  -1.13450  -1.13438
  Beta  occ. eigenvalues --   -1.13419  -1.13292  -1.13225  -1.13219  -1.13094
  Beta  occ. eigenvalues --   -1.13044  -1.13041  -1.12463  -1.12453  -1.12426
  Beta  occ. eigenvalues --   -0.17292  -0.13327  -0.11623
  Beta virt. eigenvalues --   -0.06494  -0.06037  -0.05724  -0.04635  -0.02634
  Beta virt. eigenvalues --   -0.01942  -0.01763  -0.01458  -0.01232  -0.01064
  Beta virt. eigenvalues --   -0.00513   0.00129   0.00335   0.00698   0.00741

 Mulliken charges and spin densities:
               1          2
     1  Na   0.319531   0.090086
     2  Na  -0.430158   0.633327
     3  Na  -0.049636  -0.018865
     4  Na   0.234802   0.042333
     5  Na   0.050681  -0.028287
     6  Na  -0.076006   0.034142
     7  Na  -0.049215   0.247265
 Sum of Mulliken charges =  -0.00000   1.00000

 Dipole moment (field-independent basis, Debye):
    X=             -0.2369    Y=             -0.2271    Z=              0.0346  Tot=              0.3300
 Quadrupole moment (field-independent basis, Debye-Ang):
   XX=            -55.5371   YY=            -61.2225   ZZ=            -77.0760
   XY=              1.3249   XZ=             -0.8587   YZ=              0.9180

 Normal termination of Gaussian 16 at Thu Dec  7 03:53:37 2023.
