 Gaussian 16, Revision B.01,
 Gaussian 16:  ES64L-G16RevB.01 20-Dec-2017

 -------------------------
 #P B3LYP/6-311+g(d) force
 -------------------------

 -----
 DPGEN
 -----
 Symbolic Z-matrix:
 Charge =  0 Multiplicity = 2

                         Standard orientation:
 ---------------------------------------------------------------------
 Center     Atomic      Atomic             Coordinates (Angstroms)
 Number     Number       Type             X           Y           Z
 ---------------------------------------------------------------------
      1         11           0        0.337563    0.185660    2.043485
      2         11           0        0.834896    3.281692    0.098617
      3         11           0        0.691959    0.236868   -1.644115
      4         11           0        3.330152   -0.968323   -0.036331
      5         11           0        0.181545   -2.708127   -0.224054
      6         11           0       -2.886200   -1.717743    0.162569
      7         11           0       -2.489914    1.689973   -0.400171
 ---------------------------------------------------------------------

 SCF Done:  E(UB3LYP) =  -1136.13372424     A.U. after   19 cycles

 The electronic state is 2-A.
 Alpha  occ. eigenvalues --  -38.44365 -38.44178 -38.44080 -38.43664 -38.43616
 Alpha  occ. eigenvalues --  -38.43514 -38.43345  -2.20171  -2.19975  -2.19870
 Alpha  occ. eigenvalues --   -2.19536  -2.19470  -2.19330  -2.19267  -1.13849
 Alpha  occ. eigenvalues --   -1.13822  -1.13814  -1.13658  -1.13645  -1.13602
 Alpha  occ. eigenvalues --   -1.13544  -1.13530  -1.13508  -1.13250  -1.13210
 Alpha  occ. eigenvalues --   -1.13173  -1.13135  -1.13093  -1.13088  -1.12990
 Alpha  occ. eigenvalues --   -1.12985  -1.12974  -1.12947  -1.12916  -1.12877
 Alpha  occ. eigenvalues --   -0.18110  -0.12827  -0.12555  -0.10471
 Alpha virt. eigenvalues --   -0.06061  -0.05364  -0.04813  -0.03080  -0.02866
 Alpha virt. eigenvalues --   -0.02491  -0.01755  -0.01440  -0.00601  -0.00410
 Alpha virt. eigenvalues --   -0.00026   0.00318   0.00742   0.00796   0.00858

  Beta  occ. eigenvalues --  -38.44363 -38.44170 -38.44078 -38.43656 -38.43518
  Beta  occ. eigenvalues --  -38.43516 -38.43286  -2.20170  -2.19962  -2.19870
  Beta  occ. eigenvalues --   -2.19524  -2.19335  -2.19290  -2.19160  -1.13841
  Beta  occ. eigenvalues --   -1.13817  -1.13807  -1.13641  -1.13629  -1.13597
  Beta  occ. eigenvalues --   -1.13538  -1.13519  -1.13508  -1.13240  -1.13173
  Beta  occ. eigenvalues --   -1.13171  -1.13016  -1.12995  -1.12979  -1.12976
  Beta  occ. eigenvalues --   -1.12967  -1.12960  -1.12873  -1.12839  -1.12796
  Beta  occ. eigenvalues --   -0.17407  -0.12613  -0.12380
  Beta virt. eigenvalues --   -0.06593  -0.06042  -0.05240  -0.04781  -0.02329
  Beta virt. eigenvalues --   -0.02195  -0.01688  -0.01473  -0.01339  -0.00619
  Beta virt. eigenvalues --   -0.00435   0.00140   0.00363   0.00741   0.00820

 Mulliken charges and spin densities:
               1          2
     1  Na  -0.285711   0.718156
     2  Na   0.027239  -0.067969
     3  Na   0.146739   0.297210
     4  Na   0.253176  -0.037788
     5  Na   0.027552   0.090271
     6  Na  -0.141320  -0.045444
     7  Na  -0.027677   0.045563
 Sum of Mulliken charges =  -0.00000   1.00000

 Dipole moment (field-independent basis, Debye):
    X=              0.5290    Y=              0.3459    Z=              0.0675  Tot=              0.6356
 Quadrupole moment (field-independent basis, Debye-Ang):
   XX=            -56.4145   YY=            -60.7359   ZZ=            -76.0694
   XY=             -0.4299   XZ=              0.6064   YZ=             -0.1484

 Normal termination of Gaussian 16 at Thu Dec  7 13:39:54 2023.
