 Gaussian 16, Revision B.01,
 Gaussian 16:  ES64L-G16RevB.01 20-Dec-2017

 -------------------------
 #P B3LYP/6-311+g(d) force
 -------------------------

 -----
 DPGEN
 -----
 Symbolic Z-matrix:
 Charge =  0 Multiplicity = 2

                         Standard orientation:
 ---------------------------------------------------------------------
 Center     Atomic      Atomic             Coordinates (Angstroms)
 Number     Number       Type             X           Y           Z
 ---------------------------------------------------------------------
      1         11           0       -0.716977    3.096663   -0.341017
      2         11           0        1.610355   -0.441048    1.910216
      3         11           0       -3.283564   -0.799808   -1.616080
      4         11           0        4.133602   -0.210741   -1.200753
      5         11           0        0.569797    0.260089   -0.931176
      6         11           0       -0.789147   -2.553210    0.255177
      7         11           0       -1.524067    0.648054    1.923631
 ---------------------------------------------------------------------

 SCF Done:  E(UB3LYP) =  -1136.12112236     A.U. after   22 cycles

 The electronic state is 2-A.
 Alpha  occ. eigenvalues --  -38.44636 -38.44590 -38.44334 -38.44215 -38.43351
 Alpha  occ. eigenvalues --  -38.43246 -38.42726  -2.20408  -2.20352  -2.20219
 Alpha  occ. eigenvalues --   -2.20096  -2.19332  -2.19088  -2.18558  -1.14077
 Alpha  occ. eigenvalues --   -1.14045  -1.14026  -1.14017  -1.14007  -1.13962
 Alpha  occ. eigenvalues --   -1.13953  -1.13856  -1.13843  -1.13767  -1.13741
 Alpha  occ. eigenvalues --   -1.13704  -1.13072  -1.13008  -1.12930  -1.12784
 Alpha  occ. eigenvalues --   -1.12757  -1.12703  -1.12248  -1.12193  -1.12192
 Alpha  occ. eigenvalues --   -0.18166  -0.12730  -0.11760  -0.11476
 Alpha virt. eigenvalues --   -0.06332  -0.05049  -0.04252  -0.03163  -0.02858
 Alpha virt. eigenvalues --   -0.02551  -0.02077  -0.01316  -0.00692  -0.00117
 Alpha virt. eigenvalues --    0.00093   0.00149   0.00366   0.00564   0.00823

  Beta  occ. eigenvalues --  -38.44591 -38.44549 -38.44285 -38.44172 -38.43331
  Beta  occ. eigenvalues --  -38.43246 -38.42719  -2.20323  -2.20277  -2.20134
  Beta  occ. eigenvalues --   -2.20021  -2.19298  -2.19092  -2.18546  -1.14017
  Beta  occ. eigenvalues --   -1.13985  -1.13973  -1.13963  -1.13956  -1.13916
  Beta  occ. eigenvalues --   -1.13897  -1.13796  -1.13764  -1.13708  -1.13678
  Beta  occ. eigenvalues --   -1.13644  -1.13028  -1.12987  -1.12907  -1.12790
  Beta  occ. eigenvalues --   -1.12750  -1.12690  -1.12235  -1.12187  -1.12182
  Beta  occ. eigenvalues --   -0.17441  -0.12271  -0.11351
  Beta virt. eigenvalues --   -0.08049  -0.05920  -0.04597  -0.04140  -0.02941
  Beta virt. eigenvalues --   -0.02240  -0.02074  -0.01782  -0.00925  -0.00656
  Beta virt. eigenvalues --    0.00025   0.00192   0.00302   0.00439   0.00655

 Mulliken charges and spin densities:
               1          2
     1  Na  -0.090995   0.110556
     2  Na   0.289277   0.332470
     3  Na   0.053536   0.201885
     4  Na   0.286230   0.188823
     5  Na  -0.860717   0.074670
     6  Na  -0.070183   0.121912
     7  Na   0.392851  -0.030318
 Sum of Mulliken charges =  -0.00000   1.00000

 Dipole moment (field-independent basis, Debye):
    X=              0.0051    Y=             -0.1554    Z=              0.2181  Tot=              0.2679
 Quadrupole moment (field-independent basis, Debye-Ang):
   XX=            -55.2939   YY=            -73.2924   ZZ=            -63.6331
   XY=             -1.4352   XZ=              0.0371   YZ=             -1.7659

 Normal termination of Gaussian 16 at Tue Dec  5 13:43:25 2023.
