 Gaussian 16, Revision B.01,
 Gaussian 16:  ES64L-G16RevB.01 20-Dec-2017

 -------------------------
 #P B3LYP/6-311+g(d) force
 -------------------------

 -----
 DPGEN
 -----
 Symbolic Z-matrix:
 Charge =  0 Multiplicity = 2

                         Standard orientation:
 ---------------------------------------------------------------------
 Center     Atomic      Atomic             Coordinates (Angstroms)
 Number     Number       Type             X           Y           Z
 ---------------------------------------------------------------------
      1         11           0       -3.965522   -0.665422   -0.682046
      2         11           0        1.744840    1.357336   -1.502581
      3         11           0       -0.470128   -1.157825   -1.027207
      4         11           0       -0.842449    2.442622    0.131800
      5         11           0       -1.513876   -0.898356    1.632048
      6         11           0        3.390980   -1.768302   -0.220288
      7         11           0        1.656155    0.689946    1.668275
 ---------------------------------------------------------------------

 SCF Done:  E(UB3LYP) =  -1136.12415991     A.U. after   23 cycles

 The electronic state is 2-A.
 Alpha  occ. eigenvalues --  -38.44947 -38.44304 -38.44199 -38.43730 -38.43646
 Alpha  occ. eigenvalues --  -38.43420 -38.42438  -2.20741  -2.20227  -2.20127
 Alpha  occ. eigenvalues --   -2.19649  -2.19567  -2.19203  -2.18313  -1.14414
 Alpha  occ. eigenvalues --   -1.14394  -1.14370  -1.14144  -1.13884  -1.13810
 Alpha  occ. eigenvalues --   -1.13760  -1.13735  -1.13688  -1.13357  -1.13332
 Alpha  occ. eigenvalues --   -1.13258  -1.13248  -1.13201  -1.13149  -1.12880
 Alpha  occ. eigenvalues --   -1.12869  -1.12837  -1.11992  -1.11976  -1.11949
 Alpha  occ. eigenvalues --   -0.18618  -0.13723  -0.11245  -0.11225
 Alpha virt. eigenvalues --   -0.06664  -0.04770  -0.04485  -0.03158  -0.02794
 Alpha virt. eigenvalues --   -0.02411  -0.02304  -0.01102  -0.00726  -0.00030
 Alpha virt. eigenvalues --    0.00137   0.00357   0.00415   0.00672   0.00839

  Beta  occ. eigenvalues --  -38.44935 -38.44279 -38.44146 -38.43680 -38.43598
  Beta  occ. eigenvalues --  -38.43424 -38.42432  -2.20719  -2.20184  -2.20034
  Beta  occ. eigenvalues --   -2.19561  -2.19478  -2.19213  -2.18306  -1.14394
  Beta  occ. eigenvalues --   -1.14378  -1.14356  -1.14089  -1.13852  -1.13771
  Beta  occ. eigenvalues --   -1.13699  -1.13675  -1.13605  -1.13298  -1.13253
  Beta  occ. eigenvalues --   -1.13190  -1.13189  -1.13140  -1.13085  -1.12886
  Beta  occ. eigenvalues --   -1.12869  -1.12843  -1.11988  -1.11950  -1.11943
  Beta  occ. eigenvalues --   -0.17841  -0.13572  -0.11059
  Beta virt. eigenvalues --   -0.07266  -0.06409  -0.04751  -0.03898  -0.03063
  Beta virt. eigenvalues --   -0.02334  -0.01836  -0.01719  -0.00985  -0.00320
  Beta virt. eigenvalues --    0.00007   0.00176   0.00446   0.00535   0.00721

 Mulliken charges and spin densities:
               1          2
     1  Na   0.400348   0.038398
     2  Na   0.124972   0.180249
     3  Na  -0.389402   0.439034
     4  Na  -0.360441   0.080516
     5  Na  -0.013909   0.042245
     6  Na  -0.158138  -0.109657
     7  Na   0.396570   0.329215
 Sum of Mulliken charges =  -0.00000   1.00000

 Dipole moment (field-independent basis, Debye):
    X=             -1.1807    Y=              0.1462    Z=             -0.0909  Tot=              1.1932
 Quadrupole moment (field-independent basis, Debye-Ang):
   XX=            -50.5948   YY=            -74.3795   ZZ=            -68.2177
   XY=             -0.3695   XZ=              1.6202   YZ=             -0.5636

 Normal termination of Gaussian 16 at Thu Dec  7 13:31:25 2023.
