 Gaussian 16, Revision B.01,
 Gaussian 16:  ES64L-G16RevB.01 20-Dec-2017

 -------------------------
 #P B3LYP/6-311+g(d) force
 -------------------------

 -----
 DPGEN
 -----
 Symbolic Z-matrix:
 Charge =  0 Multiplicity = 2

                         Standard orientation:
 ---------------------------------------------------------------------
 Center     Atomic      Atomic             Coordinates (Angstroms)
 Number     Number       Type             X           Y           Z
 ---------------------------------------------------------------------
      1         11           0        2.321194   -1.930735    1.049080
      2         11           0       -1.156356   -0.686820    1.738645
      3         11           0        3.298661    0.223676   -1.475749
      4         11           0        1.099195    2.053769    0.857346
      5         11           0        0.138509   -0.411974   -1.131936
      6         11           0       -3.619824   -1.504449   -0.974080
      7         11           0       -2.081379    2.256533   -0.063306
 ---------------------------------------------------------------------

 SCF Done:  E(UB3LYP) =  -1136.12797973     A.U. after   23 cycles

 The electronic state is 2-A.
 Alpha  occ. eigenvalues --  -38.44204 -38.44057 -38.43874 -38.43855 -38.43843
 Alpha  occ. eigenvalues --  -38.43732 -38.42857  -2.20062  -2.19888  -2.19813
 Alpha  occ. eigenvalues --   -2.19767  -2.19627  -2.19564  -2.18739  -1.13752
 Alpha  occ. eigenvalues --   -1.13698  -1.13687  -1.13619  -1.13556  -1.13545
 Alpha  occ. eigenvalues --   -1.13513  -1.13461  -1.13449  -1.13410  -1.13386
 Alpha  occ. eigenvalues --   -1.13371  -1.13296  -1.13285  -1.13248  -1.13243
 Alpha  occ. eigenvalues --   -1.13225  -1.13186  -1.12436  -1.12403  -1.12355
 Alpha  occ. eigenvalues --   -0.18407  -0.13690  -0.11364  -0.11023
 Alpha virt. eigenvalues --   -0.05995  -0.05434  -0.04809  -0.03105  -0.02639
 Alpha virt. eigenvalues --   -0.02195  -0.02108  -0.01196  -0.00906  -0.00135
 Alpha virt. eigenvalues --    0.00173   0.00340   0.00393   0.00578   0.00588

  Beta  occ. eigenvalues --  -38.44157 -38.44025 -38.43825 -38.43823 -38.43822
  Beta  occ. eigenvalues --  -38.43731 -38.42849  -2.19974  -2.19831  -2.19780
  Beta  occ. eigenvalues --   -2.19676  -2.19572  -2.19564  -2.18728  -1.13686
  Beta  occ. eigenvalues --   -1.13644  -1.13628  -1.13564  -1.13521  -1.13501
  Beta  occ. eigenvalues --   -1.13456  -1.13438  -1.13407  -1.13368  -1.13323
  Beta  occ. eigenvalues --   -1.13293  -1.13255  -1.13246  -1.13244  -1.13221
  Beta  occ. eigenvalues --   -1.13209  -1.13184  -1.12431  -1.12372  -1.12350
  Beta  occ. eigenvalues --   -0.17725  -0.13373  -0.11052
  Beta virt. eigenvalues --   -0.07378  -0.05743  -0.05302  -0.04261  -0.02908
  Beta virt. eigenvalues --   -0.02176  -0.01873  -0.01489  -0.01100  -0.00521
  Beta virt. eigenvalues --   -0.00025   0.00230   0.00392   0.00485   0.00689

 Mulliken charges and spin densities:
               1          2
     1  Na  -0.088953   0.216846
     2  Na   0.161020   0.271105
     3  Na   1.205613   0.007854
     4  Na  -0.076412   0.056678
     5  Na  -1.541081   0.242213
     6  Na   0.257598   0.197456
     7  Na   0.082216   0.007847
 Sum of Mulliken charges =  -0.00000   1.00000

 Dipole moment (field-independent basis, Debye):
    X=              0.3977    Y=              0.1689    Z=              0.1639  Tot=              0.4621
 Quadrupole moment (field-independent basis, Debye-Ang):
   XX=            -52.7372   YY=            -72.8606   ZZ=            -67.8711
   XY=             -2.1854   XZ=              0.7024   YZ=             -1.5765

 Normal termination of Gaussian 16 at Tue Dec  5 12:04:23 2023.
