 Gaussian 16, Revision B.01,
 Gaussian 16:  ES64L-G16RevB.01 20-Dec-2017

 -------------------------
 #P B3LYP/6-311+g(d) force
 -------------------------

 -----
 DPGEN
 -----
 Symbolic Z-matrix:
 Charge =  0 Multiplicity = 2

                         Standard orientation:
 ---------------------------------------------------------------------
 Center     Atomic      Atomic             Coordinates (Angstroms)
 Number     Number       Type             X           Y           Z
 ---------------------------------------------------------------------
      1         11           0       -2.883652   -1.254619   -0.192612
      2         11           0        0.265452   -2.886357   -0.013481
      3         11           0       -2.144324    2.309713    0.015653
      4         11           0        0.148195   -0.026519   -1.689183
      5         11           0        2.864473   -0.776984    0.051876
      6         11           0        1.739798    2.488327   -0.251445
      7         11           0        0.010058    0.146437    2.079192
 ---------------------------------------------------------------------

 SCF Done:  E(UB3LYP) =  -1136.14028460     A.U. after   18 cycles

 The electronic state is 2-A.
 Alpha  occ. eigenvalues --  -38.43878 -38.43856 -38.43639 -38.43621 -38.43617
 Alpha  occ. eigenvalues --  -38.43257 -38.43217  -2.19676  -2.19666  -2.19516
 Alpha  occ. eigenvalues --   -2.19501  -2.19458  -2.19187  -2.19128  -1.13354
 Alpha  occ. eigenvalues --   -1.13349  -1.13340  -1.13326  -1.13322  -1.13292
 Alpha  occ. eigenvalues --   -1.13210  -1.13183  -1.13165  -1.13163  -1.13145
 Alpha  occ. eigenvalues --   -1.13138  -1.13127  -1.13105  -1.13077  -1.12886
 Alpha  occ. eigenvalues --   -1.12843  -1.12807  -1.12786  -1.12770  -1.12759
 Alpha  occ. eigenvalues --   -0.18609  -0.12858  -0.12532  -0.10770
 Alpha virt. eigenvalues --   -0.05487  -0.05242  -0.04805  -0.03111  -0.02945
 Alpha virt. eigenvalues --   -0.02626  -0.01371  -0.01216  -0.00469  -0.00332
 Alpha virt. eigenvalues --   -0.00017   0.00366   0.00819   0.00857   0.00896

  Beta  occ. eigenvalues --  -38.43877 -38.43853 -38.43615 -38.43610 -38.43542
  Beta  occ. eigenvalues --  -38.43252 -38.43151  -2.19676  -2.19663  -2.19494
  Beta  occ. eigenvalues --   -2.19449  -2.19337  -2.19122  -2.19067  -1.13350
  Beta  occ. eigenvalues --   -1.13335  -1.13328  -1.13325  -1.13320  -1.13294
  Beta  occ. eigenvalues --   -1.13197  -1.13163  -1.13132  -1.13125  -1.13093
  Beta  occ. eigenvalues --   -1.13075  -1.13059  -1.13013  -1.13003  -1.12838
  Beta  occ. eigenvalues --   -1.12774  -1.12765  -1.12757  -1.12720  -1.12708
  Beta  occ. eigenvalues --   -0.17868  -0.12636  -0.12297
  Beta virt. eigenvalues --   -0.06839  -0.05505  -0.05194  -0.04761  -0.02324
  Beta virt. eigenvalues --   -0.02165  -0.01562  -0.01281  -0.01137  -0.00526
  Beta virt. eigenvalues --   -0.00396   0.00124   0.00389   0.00846   0.00879

 Mulliken charges and spin densities:
               1          2
     1  Na   0.038355  -0.083902
     2  Na   0.151518  -0.041440
     3  Na   0.020179  -0.113211
     4  Na  -0.214927   0.520961
     5  Na   0.333853   0.016905
     6  Na   0.173104  -0.082619
     7  Na  -0.502083   0.783305
 Sum of Mulliken charges =  -0.00000   1.00000

 Dipole moment (field-independent basis, Debye):
    X=             -0.1374    Y=              0.1772    Z=              0.1181  Tot=              0.2534
 Quadrupole moment (field-independent basis, Debye-Ang):
   XX=            -58.0979   YY=            -61.0972   ZZ=            -74.3096
   XY=              0.0345   XZ=              0.3570   YZ=             -0.3790

 Normal termination of Gaussian 16 at Thu Dec  7 05:57:41 2023.
