 Gaussian 16, Revision B.01,
 Gaussian 16:  ES64L-G16RevB.01 20-Dec-2017

 -------------------------
 #P B3LYP/6-311+g(d) force
 -------------------------

 -----
 DPGEN
 -----
 Symbolic Z-matrix:
 Charge =  0 Multiplicity = 2

                         Standard orientation:
 ---------------------------------------------------------------------
 Center     Atomic      Atomic             Coordinates (Angstroms)
 Number     Number       Type             X           Y           Z
 ---------------------------------------------------------------------
      1         11           0       -0.830234   -0.152621    2.185961
      2         11           0        3.224801   -0.380672   -1.844478
      3         11           0        2.359102   -1.136329    1.651391
      4         11           0       -0.199544   -0.892267   -1.030719
      5         11           0       -3.783525   -1.740032   -0.728374
      6         11           0        1.364028    1.772994    0.116218
      7         11           0       -2.134629    2.528926   -0.349997
 ---------------------------------------------------------------------

 SCF Done:  E(UB3LYP) =  -1136.12253280     A.U. after   30 cycles

 The electronic state is 2-A.
 Alpha  occ. eigenvalues --  -38.45023 -38.44592 -38.43884 -38.43708 -38.43615
 Alpha  occ. eigenvalues --  -38.43514 -38.43477  -2.20806  -2.20458  -2.19804
 Alpha  occ. eigenvalues --   -2.19573  -2.19397  -2.19365  -2.19307  -1.14479
 Alpha  occ. eigenvalues --   -1.14431  -1.14426  -1.14140  -1.14113  -1.14061
 Alpha  occ. eigenvalues --   -1.13535  -1.13461  -1.13402  -1.13296  -1.13207
 Alpha  occ. eigenvalues --   -1.13185  -1.13116  -1.13090  -1.13036  -1.13031
 Alpha  occ. eigenvalues --   -1.13004  -1.12981  -1.12976  -1.12953  -1.12928
 Alpha  occ. eigenvalues --   -0.18334  -0.13281  -0.11967  -0.10971
 Alpha virt. eigenvalues --   -0.06080  -0.05513  -0.04847  -0.03305  -0.02646
 Alpha virt. eigenvalues --   -0.02259  -0.02121  -0.01381  -0.01046  -0.00069
 Alpha virt. eigenvalues --    0.00144   0.00204   0.00276   0.00424   0.00532

  Beta  occ. eigenvalues --  -38.44963 -38.44544 -38.43852 -38.43676 -38.43603
  Beta  occ. eigenvalues --  -38.43504 -38.43465  -2.20694  -2.20370  -2.19748
  Beta  occ. eigenvalues --   -2.19518  -2.19382  -2.19343  -2.19284  -1.14396
  Beta  occ. eigenvalues --   -1.14360  -1.14345  -1.14071  -1.14061  -1.13991
  Beta  occ. eigenvalues --   -1.13501  -1.13401  -1.13358  -1.13257  -1.13159
  Beta  occ. eigenvalues --   -1.13141  -1.13090  -1.13071  -1.13020  -1.13016
  Beta  occ. eigenvalues --   -1.12993  -1.12966  -1.12954  -1.12941  -1.12917
  Beta  occ. eigenvalues --   -0.17652  -0.12988  -0.10643
  Beta virt. eigenvalues --   -0.08119  -0.05878  -0.05121  -0.04540  -0.02780
  Beta virt. eigenvalues --   -0.02270  -0.01914  -0.01853  -0.01022  -0.00776
  Beta virt. eigenvalues --    0.00048   0.00207   0.00322   0.00423   0.00525

 Mulliken charges and spin densities:
               1          2
     1  Na   0.040488   0.221890
     2  Na   1.284669  -0.120034
     3  Na   0.213799   0.099543
     4  Na  -1.932391   0.292423
     5  Na   0.319690  -0.073942
     6  Na   0.037199   0.416284
     7  Na   0.036547   0.163835
 Sum of Mulliken charges =  -0.00000   1.00000

 Dipole moment (field-independent basis, Debye):
    X=              0.4695    Y=              0.7488    Z=              0.6862  Tot=              1.1189
 Quadrupole moment (field-independent basis, Debye-Ang):
   XX=            -54.9613   YY=            -67.7657   ZZ=            -72.1995
   XY=             -5.0086   XZ=             -0.9506   YZ=             -6.0059

 Normal termination of Gaussian 16 at Fri Dec  8 20:15:45 2023.
