 Gaussian 16, Revision B.01,
 Gaussian 16:  ES64L-G16RevB.01 20-Dec-2017

 -------------------------
 #P B3LYP/6-311+g(d) force
 -------------------------

 -----
 DPGEN
 -----
 Symbolic Z-matrix:
 Charge =  0 Multiplicity = 2

                         Standard orientation:
 ---------------------------------------------------------------------
 Center     Atomic      Atomic             Coordinates (Angstroms)
 Number     Number       Type             X           Y           Z
 ---------------------------------------------------------------------
      1         11           0        0.235920   -0.320790   -0.803559
      2         11           0        1.517970    0.099716    1.864177
      3         11           0        1.780325    2.747011   -0.742091
      4         11           0       -3.496541   -0.334106   -0.234462
      5         11           0        3.307841   -1.851690   -0.452398
      6         11           0       -1.571597   -3.028662    0.054474
      7         11           0       -1.773916    2.688522    0.313859
 ---------------------------------------------------------------------

 SCF Done:  E(UB3LYP) =  -1136.11958031     A.U. after   24 cycles

 The electronic state is 2-A.
 Alpha  occ. eigenvalues --  -38.45315 -38.44156 -38.44075 -38.44021 -38.43821
 Alpha  occ. eigenvalues --  -38.43515 -38.43273  -2.21079  -2.19968  -2.19901
 Alpha  occ. eigenvalues --   -2.19886  -2.19615  -2.19344  -2.19255  -1.14756
 Alpha  occ. eigenvalues --   -1.14737  -1.14721  -1.13651  -1.13650  -1.13636
 Alpha  occ. eigenvalues --   -1.13625  -1.13551  -1.13544  -1.13530  -1.13499
 Alpha  occ. eigenvalues --   -1.13479  -1.13291  -1.13280  -1.13246  -1.13012
 Alpha  occ. eigenvalues --   -1.13002  -1.12993  -1.12964  -1.12870  -1.12866
 Alpha  occ. eigenvalues --   -0.17681  -0.13396  -0.12482  -0.09422
 Alpha virt. eigenvalues --   -0.06939  -0.05589  -0.05047  -0.02844  -0.02515
 Alpha virt. eigenvalues --   -0.02329  -0.01837  -0.01493  -0.01162  -0.00793
 Alpha virt. eigenvalues --   -0.00051   0.00200   0.00458   0.00534   0.00731

  Beta  occ. eigenvalues --  -38.45326 -38.44150 -38.44060 -38.43954 -38.43804
  Beta  occ. eigenvalues --  -38.43460 -38.43252  -2.21101  -2.19960  -2.19861
  Beta  occ. eigenvalues --   -2.19777  -2.19586  -2.19243  -2.19219  -1.14760
  Beta  occ. eigenvalues --   -1.14754  -1.14729  -1.13647  -1.13631  -1.13601
  Beta  occ. eigenvalues --   -1.13567  -1.13533  -1.13519  -1.13485  -1.13441
  Beta  occ. eigenvalues --   -1.13392  -1.13272  -1.13256  -1.13214  -1.12948
  Beta  occ. eigenvalues --   -1.12938  -1.12922  -1.12898  -1.12857  -1.12833
  Beta  occ. eigenvalues --   -0.17197  -0.13097  -0.12164
  Beta virt. eigenvalues --   -0.06742  -0.05910  -0.05358  -0.04952  -0.02418
  Beta virt. eigenvalues --   -0.02225  -0.01975  -0.01561  -0.01107  -0.00932
  Beta virt. eigenvalues --   -0.00592   0.00150   0.00292   0.00583   0.00664

 Mulliken charges and spin densities:
               1          2
     1  Na  -0.238166   0.373826
     2  Na  -0.529516   0.340767
     3  Na   0.315845   0.186722
     4  Na   0.074868   0.058378
     5  Na   0.147606  -0.070036
     6  Na   0.197818   0.026779
     7  Na   0.031545   0.083564
 Sum of Mulliken charges =  -0.00000   1.00000

 Dipole moment (field-independent basis, Debye):
    X=              0.5502    Y=             -0.8434    Z=              0.0286  Tot=              1.0074
 Quadrupole moment (field-independent basis, Debye-Ang):
   XX=            -54.4466   YY=            -62.0861   ZZ=            -76.3344
   XY=             -3.5339   XZ=             -2.1670   YZ=              1.3177

 Normal termination of Gaussian 16 at Wed Nov 29 15:50:15 2023.
