 Gaussian 16, Revision B.01,
 Gaussian 16:  ES64L-G16RevB.01 20-Dec-2017

 -------------------------
 #P B3LYP/6-311+g(d) force
 -------------------------

 -----
 DPGEN
 -----
 Symbolic Z-matrix:
 Charge =  0 Multiplicity = 2

                         Standard orientation:
 ---------------------------------------------------------------------
 Center     Atomic      Atomic             Coordinates (Angstroms)
 Number     Number       Type             X           Y           Z
 ---------------------------------------------------------------------
      1         11           0       -2.877679    1.948468    0.006693
      2         11           0        3.776740    0.921725    0.799142
      3         11           0        0.319428    2.258564   -0.961739
      4         11           0       -2.782841   -1.794934    0.657542
      5         11           0       -0.269110   -0.348866    1.948882
      6         11           0        2.470780   -1.797488   -0.611033
      7         11           0       -0.637319   -1.187470   -1.839488
 ---------------------------------------------------------------------

 SCF Done:  E(UB3LYP) =  -1136.12345613     A.U. after   21 cycles

 The electronic state is 2-A.
 Alpha  occ. eigenvalues --  -38.44923 -38.44702 -38.44204 -38.44028 -38.43849
 Alpha  occ. eigenvalues --  -38.43725 -38.43169  -2.20756  -2.20481  -2.20017
 Alpha  occ. eigenvalues --   -2.19820  -2.19699  -2.19604  -2.18981  -1.14428
 Alpha  occ. eigenvalues --   -1.14403  -1.14386  -1.14148  -1.14137  -1.14114
 Alpha  occ. eigenvalues --   -1.13699  -1.13680  -1.13654  -1.13496  -1.13478
 Alpha  occ. eigenvalues --   -1.13466  -1.13381  -1.13372  -1.13329  -1.13274
 Alpha  occ. eigenvalues --   -1.13226  -1.13218  -1.12668  -1.12653  -1.12596
 Alpha  occ. eigenvalues --   -0.17849  -0.13552  -0.11472  -0.11213
 Alpha virt. eigenvalues --   -0.06559  -0.05741  -0.04099  -0.03337  -0.03085
 Alpha virt. eigenvalues --   -0.02669  -0.02205  -0.01452  -0.00549  -0.00366
 Alpha virt. eigenvalues --    0.00074   0.00178   0.00337   0.00580   0.00644

  Beta  occ. eigenvalues --  -38.44865 -38.44679 -38.44190 -38.44031 -38.43840
  Beta  occ. eigenvalues --  -38.43647 -38.43153  -2.20649  -2.20438  -2.19995
  Beta  occ. eigenvalues --   -2.19827  -2.19687  -2.19460  -2.18953  -1.14356
  Beta  occ. eigenvalues --   -1.14325  -1.14306  -1.14121  -1.14104  -1.14085
  Beta  occ. eigenvalues --   -1.13674  -1.13665  -1.13625  -1.13499  -1.13479
  Beta  occ. eigenvalues --   -1.13467  -1.13365  -1.13350  -1.13319  -1.13177
  Beta  occ. eigenvalues --   -1.13129  -1.13115  -1.12650  -1.12621  -1.12579
  Beta  occ. eigenvalues --   -0.17155  -0.13285  -0.11249
  Beta virt. eigenvalues --   -0.07452  -0.06306  -0.05663  -0.03629  -0.03134
  Beta virt. eigenvalues --   -0.02336  -0.02087  -0.01826  -0.01373  -0.00366
  Beta virt. eigenvalues --   -0.00240   0.00086   0.00256   0.00484   0.00690

 Mulliken charges and spin densities:
               1          2
     1  Na   0.004244  -0.040666
     2  Na   0.221528   0.179841
     3  Na  -0.353895  -0.046567
     4  Na   0.327387  -0.022048
     5  Na  -0.228516   0.463219
     6  Na  -0.116395  -0.033230
     7  Na   0.145647   0.499450
 Sum of Mulliken charges =  -0.00000   1.00000

 Dipole moment (field-independent basis, Debye):
    X=              0.0996    Y=             -0.1464    Z=              0.4378  Tot=              0.4722
 Quadrupole moment (field-independent basis, Debye-Ang):
   XX=            -51.4176   YY=            -73.9920   ZZ=            -70.7302
   XY=              1.5413   XZ=              0.8399   YZ=              1.8112

 Normal termination of Gaussian 16 at Sun Dec  3 13:53:30 2023.
