 Gaussian 16, Revision B.01,
 Gaussian 16:  ES64L-G16RevB.01 20-Dec-2017

 -------------------------
 #P B3LYP/6-311+g(d) force
 -------------------------

 -----
 DPGEN
 -----
 Symbolic Z-matrix:
 Charge =  0 Multiplicity = 2

                         Standard orientation:
 ---------------------------------------------------------------------
 Center     Atomic      Atomic             Coordinates (Angstroms)
 Number     Number       Type             X           Y           Z
 ---------------------------------------------------------------------
      1         11           0        1.675029   -2.007747   -1.040892
      2         11           0       -4.828860    0.096598   -0.060457
      3         11           0       -1.645292    2.403667   -0.245219
      4         11           0        4.958944    0.665450   -0.388078
      5         11           0        0.318466   -1.505253    2.099834
      6         11           0       -1.916533   -1.330695   -0.843302
      7         11           0        1.438247    1.677980    0.478113
 ---------------------------------------------------------------------

 SCF Done:  E(UB3LYP) =  -1136.11619840     A.U. after   23 cycles

 The electronic state is 2-A.
 Alpha  occ. eigenvalues --  -38.45508 -38.44802 -38.44343 -38.44199 -38.43900
 Alpha  occ. eigenvalues --  -38.43693 -38.42880  -2.21300  -2.20588  -2.20139
 Alpha  occ. eigenvalues --   -2.19974  -2.19727  -2.19504  -2.18712  -1.14963
 Alpha  occ. eigenvalues --   -1.14953  -1.14913  -1.14293  -1.14248  -1.14192
 Alpha  occ. eigenvalues --   -1.13801  -1.13795  -1.13755  -1.13627  -1.13615
 Alpha  occ. eigenvalues --   -1.13585  -1.13444  -1.13414  -1.13318  -1.13197
 Alpha  occ. eigenvalues --   -1.13175  -1.13113  -1.12411  -1.12382  -1.12342
 Alpha  occ. eigenvalues --   -0.17080  -0.13587  -0.11714  -0.11031
 Alpha virt. eigenvalues --   -0.07195  -0.05264  -0.04586  -0.03332  -0.03020
 Alpha virt. eigenvalues --   -0.02272  -0.02135  -0.01688  -0.01314  -0.00595
 Alpha virt. eigenvalues --   -0.00485   0.00042   0.00370   0.00541   0.00644

  Beta  occ. eigenvalues --  -38.45479 -38.44801 -38.44295 -38.44116 -38.43899
  Beta  occ. eigenvalues --  -38.43662 -38.42862  -2.21243  -2.20586  -2.20052
  Beta  occ. eigenvalues --   -2.19819  -2.19727  -2.19450  -2.18687  -1.14928
  Beta  occ. eigenvalues --   -1.14909  -1.14878  -1.14293  -1.14248  -1.14185
  Beta  occ. eigenvalues --   -1.13739  -1.13732  -1.13701  -1.13521  -1.13508
  Beta  occ. eigenvalues --   -1.13484  -1.13444  -1.13408  -1.13313  -1.13159
  Beta  occ. eigenvalues --   -1.13133  -1.13067  -1.12399  -1.12363  -1.12290
  Beta  occ. eigenvalues --   -0.16663  -0.12942  -0.11284
  Beta virt. eigenvalues --   -0.07714  -0.06849  -0.05077  -0.04072  -0.03148
  Beta virt. eigenvalues --   -0.02789  -0.02023  -0.01777  -0.01378  -0.00905
  Beta virt. eigenvalues --   -0.00351  -0.00331   0.00125   0.00513   0.00637

 Mulliken charges and spin densities:
               1          2
     1  Na   0.184273   0.144928
     2  Na   0.533711   0.185544
     3  Na   0.090398  -0.019838
     4  Na   0.236370   0.461519
     5  Na   0.348609   0.076240
     6  Na  -0.728659   0.050803
     7  Na  -0.664703   0.100804
 Sum of Mulliken charges =  -0.00000   1.00000

 Dipole moment (field-independent basis, Debye):
    X=             -0.6866    Y=             -1.1863    Z=              0.9023  Tot=              1.6410
 Quadrupole moment (field-independent basis, Debye-Ang):
   XX=            -62.4043   YY=            -75.9927   ZZ=            -62.3041
   XY=             -4.5712   XZ=             -2.0530   YZ=             -0.4261

 Normal termination of Gaussian 16 at Mon Dec  4 02:04:58 2023.
