 Gaussian 16, Revision B.01,
 Gaussian 16:  ES64L-G16RevB.01 20-Dec-2017

 -------------------------
 #P B3LYP/6-311+g(d) force
 -------------------------

 -----
 DPGEN
 -----
 Symbolic Z-matrix:
 Charge =  0 Multiplicity = 2

                         Standard orientation:
 ---------------------------------------------------------------------
 Center     Atomic      Atomic             Coordinates (Angstroms)
 Number     Number       Type             X           Y           Z
 ---------------------------------------------------------------------
      1         11           0       -0.177023   -2.051962    0.455686
      2         11           0       -3.312811   -3.201111   -0.347579
      3         11           0       -2.730120    0.443656   -0.574790
      4         11           0       -2.150665    4.018885   -0.260073
      5         11           0       -0.094988    1.200318    1.109931
      6         11           0        2.862495   -0.473135    0.345530
      7         11           0        5.603112    0.063349   -0.728706
 ---------------------------------------------------------------------

 SCF Done:  E(UB3LYP) =  -1136.12435549     A.U. after   19 cycles

 The electronic state is 2-A.
 Alpha  occ. eigenvalues --  -38.44466 -38.44287 -38.44281 -38.44279 -38.43867
 Alpha  occ. eigenvalues --  -38.43857 -38.42957  -2.20304  -2.20176  -2.20122
 Alpha  occ. eigenvalues --   -2.20053  -2.19751  -2.19660  -2.18842  -1.14063
 Alpha  occ. eigenvalues --   -1.14008  -1.13885  -1.13859  -1.13852  -1.13798
 Alpha  occ. eigenvalues --   -1.13753  -1.13736  -1.13735  -1.13722  -1.13719
 Alpha  occ. eigenvalues --   -1.13662  -1.13443  -1.13435  -1.13370  -1.13317
 Alpha  occ. eigenvalues --   -1.13312  -1.13268  -1.12527  -1.12514  -1.12502
 Alpha  occ. eigenvalues --   -0.17280  -0.13884  -0.12613  -0.11235
 Alpha virt. eigenvalues --   -0.06036  -0.05199  -0.04535  -0.03892  -0.02473
 Alpha virt. eigenvalues --   -0.02128  -0.01938  -0.01794  -0.01395  -0.00841
 Alpha virt. eigenvalues --   -0.00362   0.00060   0.00239   0.00551   0.00648

  Beta  occ. eigenvalues --  -38.44454 -38.44268 -38.44248 -38.44180 -38.43840
  Beta  occ. eigenvalues --  -38.43824 -38.42948  -2.20282  -2.20110  -2.20028
  Beta  occ. eigenvalues --   -2.19938  -2.19706  -2.19599  -2.18839  -1.14040
  Beta  occ. eigenvalues --   -1.13994  -1.13857  -1.13829  -1.13812  -1.13705
  Beta  occ. eigenvalues --   -1.13704  -1.13681  -1.13676  -1.13644  -1.13611
  Beta  occ. eigenvalues --   -1.13610  -1.13414  -1.13408  -1.13318  -1.13276
  Beta  occ. eigenvalues --   -1.13265  -1.13227  -1.12528  -1.12512  -1.12429
  Beta  occ. eigenvalues --   -0.16664  -0.12981  -0.12385
  Beta virt. eigenvalues --   -0.07830  -0.05854  -0.04926  -0.04101  -0.03626
  Beta virt. eigenvalues --   -0.02285  -0.01889  -0.01756  -0.01229  -0.01143
  Beta virt. eigenvalues --   -0.00557  -0.00066   0.00171   0.00405   0.00628

 Mulliken charges and spin densities:
               1          2
     1  Na  -0.360341  -0.079706
     2  Na   1.218357   0.153183
     3  Na  -0.515683   0.193840
     4  Na   0.755500   0.070112
     5  Na  -0.762795   0.065715
     6  Na  -0.088976   0.133423
     7  Na  -0.246063   0.463433
 Sum of Mulliken charges =  -0.00000   1.00000

 Dipole moment (field-independent basis, Debye):
    X=             -0.8921    Y=              0.5977    Z=             -0.1208  Tot=              1.0806
 Quadrupole moment (field-independent basis, Debye-Ang):
   XX=            -65.1278   YY=            -58.1093   ZZ=            -70.9098
   XY=              1.1387   XZ=             -0.2033   YZ=             -0.6454

 Normal termination of Gaussian 16 at Tue Nov 28 19:45:08 2023.
