 Gaussian 16, Revision B.01,
 Gaussian 16:  ES64L-G16RevB.01 20-Dec-2017

 -------------------------
 #P B3LYP/6-311+g(d) force
 -------------------------

 -----
 DPGEN
 -----
 Symbolic Z-matrix:
 Charge =  0 Multiplicity = 2

                         Standard orientation:
 ---------------------------------------------------------------------
 Center     Atomic      Atomic             Coordinates (Angstroms)
 Number     Number       Type             X           Y           Z
 ---------------------------------------------------------------------
      1         11           0        0.428587   -2.886570   -0.382833
      2         11           0       -2.665505   -3.026400    0.322748
      3         11           0       -3.273242    0.729507    0.854066
      4         11           0       -0.571344    0.637019   -1.131751
      5         11           0        2.804467    0.533521   -1.568065
      6         11           0       -1.353797    4.036564    0.209655
      7         11           0        4.630835   -0.023642    1.696179
 ---------------------------------------------------------------------

 SCF Done:  E(UB3LYP) =  -1136.11498896     A.U. after   21 cycles

 The electronic state is 2-A.
 Alpha  occ. eigenvalues --  -38.45367 -38.44779 -38.44636 -38.44099 -38.43856
 Alpha  occ. eigenvalues --  -38.43849 -38.43685  -2.21100  -2.20569  -2.20425
 Alpha  occ. eigenvalues --   -2.19884  -2.19710  -2.19660  -2.19455  -1.14780
 Alpha  occ. eigenvalues --   -1.14766  -1.14718  -1.14248  -1.14241  -1.14196
 Alpha  occ. eigenvalues --   -1.14125  -1.14106  -1.14008  -1.13522  -1.13520
 Alpha  occ. eigenvalues --   -1.13484  -1.13410  -1.13390  -1.13330  -1.13322
 Alpha  occ. eigenvalues --   -1.13315  -1.13297  -1.13139  -1.13114  -1.13109
 Alpha  occ. eigenvalues --   -0.16456  -0.13145  -0.12648  -0.10548
 Alpha virt. eigenvalues --   -0.06991  -0.05381  -0.04783  -0.03780  -0.02566
 Alpha virt. eigenvalues --   -0.02255  -0.01985  -0.01648  -0.01334  -0.00993
 Alpha virt. eigenvalues --   -0.00312   0.00119   0.00156   0.00259   0.00517

  Beta  occ. eigenvalues --  -38.45369 -38.44771 -38.44608 -38.43973 -38.43851
  Beta  occ. eigenvalues --  -38.43814 -38.43694  -2.21104  -2.20555  -2.20373
  Beta  occ. eigenvalues --   -2.19651  -2.19650  -2.19648  -2.19476  -1.14783
  Beta  occ. eigenvalues --   -1.14765  -1.14722  -1.14238  -1.14230  -1.14187
  Beta  occ. eigenvalues --   -1.14091  -1.14070  -1.13967  -1.13371  -1.13363
  Beta  occ. eigenvalues --   -1.13361  -1.13341  -1.13330  -1.13325  -1.13313
  Beta  occ. eigenvalues --   -1.13288  -1.13263  -1.13156  -1.13132  -1.13087
  Beta  occ. eigenvalues --   -0.16070  -0.12719  -0.12282
  Beta virt. eigenvalues --   -0.07033  -0.06685  -0.05191  -0.04281  -0.03596
  Beta virt. eigenvalues --   -0.02473  -0.01968  -0.01637  -0.01346  -0.01068
  Beta virt. eigenvalues --   -0.00875   0.00090   0.00206   0.00389   0.00525

 Mulliken charges and spin densities:
               1          2
     1  Na   0.135314   0.028970
     2  Na   0.031348   0.028113
     3  Na   0.621866   0.266360
     4  Na  -1.224541   0.031688
     5  Na   0.031999  -0.047036
     6  Na   0.456523  -0.003127
     7  Na  -0.052509   0.695033
 Sum of Mulliken charges =  -0.00000   1.00000

 Dipole moment (field-independent basis, Debye):
    X=             -1.4603    Y=              0.7657    Z=              0.1487  Tot=              1.6556
 Quadrupole moment (field-independent basis, Debye-Ang):
   XX=            -73.4579   YY=            -54.2276   ZZ=            -71.4520
   XY=             -0.9807   XZ=             -3.4943   YZ=              0.3824

 Normal termination of Gaussian 16 at Tue Nov 28 19:21:25 2023.
