 Gaussian 16, Revision B.01,
 Gaussian 16:  ES64L-G16RevB.01 20-Dec-2017

 -------------------------
 #P B3LYP/6-311+g(d) force
 -------------------------

 -----
 DPGEN
 -----
 Symbolic Z-matrix:
 Charge =  0 Multiplicity = 2

                         Standard orientation:
 ---------------------------------------------------------------------
 Center     Atomic      Atomic             Coordinates (Angstroms)
 Number     Number       Type             X           Y           Z
 ---------------------------------------------------------------------
      1         11           0       -0.200465    0.120546    2.079084
      2         11           0       -1.721449   -2.360225    0.297863
      3         11           0        1.903934   -2.341986   -0.303606
      4         11           0       -3.135580    0.768359   -0.450023
      5         11           0        0.264067    3.189049   -0.010881
      6         11           0        2.896863    0.685852    0.030126
      7         11           0       -0.007370   -0.061595   -1.642563
 ---------------------------------------------------------------------

 SCF Done:  E(UB3LYP) =  -1136.13830884     A.U. after   20 cycles

 The electronic state is 2-A.
 Alpha  occ. eigenvalues --  -38.44154 -38.43759 -38.43685 -38.43646 -38.43561
 Alpha  occ. eigenvalues --  -38.43324 -38.43252  -2.19960  -2.19620  -2.19561
 Alpha  occ. eigenvalues --   -2.19439  -2.19417  -2.19216  -2.19194  -1.13640
 Alpha  occ. eigenvalues --   -1.13611  -1.13597  -1.13314  -1.13292  -1.13259
 Alpha  occ. eigenvalues --   -1.13234  -1.13190  -1.13185  -1.13115  -1.13096
 Alpha  occ. eigenvalues --   -1.13092  -1.13083  -1.13080  -1.13044  -1.12935
 Alpha  occ. eigenvalues --   -1.12886  -1.12850  -1.12842  -1.12825  -1.12805
 Alpha  occ. eigenvalues --   -0.18512  -0.12994  -0.12357  -0.10787
 Alpha virt. eigenvalues --   -0.05664  -0.05034  -0.04864  -0.03217  -0.02883
 Alpha virt. eigenvalues --   -0.02599  -0.01503  -0.01211  -0.00441  -0.00352
 Alpha virt. eigenvalues --   -0.00012   0.00356   0.00803   0.00852   0.00881

  Beta  occ. eigenvalues --  -38.44143 -38.43756 -38.43647 -38.43589 -38.43551
  Beta  occ. eigenvalues --  -38.43318 -38.43192  -2.19941  -2.19617  -2.19442
  Beta  occ. eigenvalues --   -2.19403  -2.19384  -2.19188  -2.19106  -1.13615
  Beta  occ. eigenvalues --   -1.13594  -1.13587  -1.13312  -1.13277  -1.13249
  Beta  occ. eigenvalues --   -1.13132  -1.13106  -1.13104  -1.13083  -1.13081
  Beta  occ. eigenvalues --   -1.13066  -1.13058  -1.13038  -1.13023  -1.12897
  Beta  occ. eigenvalues --   -1.12844  -1.12818  -1.12808  -1.12765  -1.12741
  Beta  occ. eigenvalues --   -0.17790  -0.12745  -0.12136
  Beta virt. eigenvalues --   -0.06882  -0.05635  -0.04948  -0.04856  -0.02438
  Beta virt. eigenvalues --   -0.02149  -0.01564  -0.01394  -0.01129  -0.00485
  Beta virt. eigenvalues --   -0.00384   0.00123   0.00385   0.00828   0.00871

 Mulliken charges and spin densities:
               1          2
     1  Na  -0.393717   0.681215
     2  Na   0.235399   0.055226
     3  Na   0.224176   0.007759
     4  Na   0.030231  -0.060064
     5  Na  -0.037995  -0.105422
     6  Na   0.125176  -0.026127
     7  Na  -0.183269   0.447413
 Sum of Mulliken charges =  -0.00000   1.00000

 Dipole moment (field-independent basis, Debye):
    X=             -0.2572    Y=              0.1679    Z=              0.1083  Tot=              0.3257
 Quadrupole moment (field-independent basis, Debye-Ang):
   XX=            -58.0939   YY=            -61.1492   ZZ=            -74.2836
   XY=             -0.4483   XZ=              0.6229   YZ=             -0.4273

 Normal termination of Gaussian 16 at Thu Dec  7 03:05:33 2023.
