 Gaussian 16, Revision B.01,
 Gaussian 16:  ES64L-G16RevB.01 20-Dec-2017

 -------------------------
 #P B3LYP/6-311+g(d) force
 -------------------------

 -----
 DPGEN
 -----
 Symbolic Z-matrix:
 Charge =  0 Multiplicity = 2

                         Standard orientation:
 ---------------------------------------------------------------------
 Center     Atomic      Atomic             Coordinates (Angstroms)
 Number     Number       Type             X           Y           Z
 ---------------------------------------------------------------------
      1         11           0        0.003079    1.233436    0.449283
      2         11           0        6.848133    0.389539    0.319188
      3         11           0        3.550875    0.031570   -0.332282
      4         11           0        0.779694   -2.110721   -0.033402
      5         11           0       -2.662746   -1.080778   -0.866231
      6         11           0       -3.354700    2.167133   -0.494283
      7         11           0       -5.164334   -0.630178    0.957726
 ---------------------------------------------------------------------

 SCF Done:  E(UB3LYP) =  -1136.11758461     A.U. after   22 cycles

 The electronic state is 2-A.
 Alpha  occ. eigenvalues --  -38.44906 -38.44858 -38.44779 -38.44778 -38.44170
 Alpha  occ. eigenvalues --  -38.43095 -38.43025  -2.20752  -2.20688  -2.20669
 Alpha  occ. eigenvalues --   -2.20607  -2.19999  -2.18844  -2.18839  -1.14450
 Alpha  occ. eigenvalues --   -1.14441  -1.14413  -1.14369  -1.14341  -1.14329
 Alpha  occ. eigenvalues --   -1.14318  -1.14299  -1.14294  -1.14266  -1.14224
 Alpha  occ. eigenvalues --   -1.14216  -1.13668  -1.13651  -1.13624  -1.12543
 Alpha  occ. eigenvalues --   -1.12529  -1.12515  -1.12515  -1.12511  -1.12409
 Alpha  occ. eigenvalues --   -0.17545  -0.14190  -0.11771  -0.11078
 Alpha virt. eigenvalues --   -0.06804  -0.05798  -0.04970  -0.03432  -0.02929
 Alpha virt. eigenvalues --   -0.02606  -0.02025  -0.01452  -0.01031  -0.00799
 Alpha virt. eigenvalues --   -0.00552  -0.00300   0.00146   0.00238   0.00480

  Beta  occ. eigenvalues --  -38.44846 -38.44813 -38.44745 -38.44738 -38.44142
  Beta  occ. eigenvalues --  -38.43117 -38.43018  -2.20643  -2.20612  -2.20604
  Beta  occ. eigenvalues --   -2.20535  -2.19946  -2.18886  -2.18825  -1.14392
  Beta  occ. eigenvalues --   -1.14375  -1.14340  -1.14293  -1.14280  -1.14276
  Beta  occ. eigenvalues --   -1.14255  -1.14248  -1.14234  -1.14217  -1.14175
  Beta  occ. eigenvalues --   -1.14141  -1.13632  -1.13602  -1.13595  -1.12546
  Beta  occ. eigenvalues --   -1.12546  -1.12537  -1.12526  -1.12512  -1.12417
  Beta  occ. eigenvalues --   -0.16762  -0.14043  -0.11099
  Beta virt. eigenvalues --   -0.07755  -0.06518  -0.05354  -0.04627  -0.02915
  Beta virt. eigenvalues --   -0.02714  -0.02281  -0.01616  -0.01002  -0.00969
  Beta virt. eigenvalues --   -0.00684  -0.00346  -0.00140   0.00318   0.00364

 Mulliken charges and spin densities:
               1          2
     1  Na  -0.238412   0.373535
     2  Na   0.140492  -0.090962
     3  Na  -0.562442  -0.072853
     4  Na   0.248288   0.138140
     5  Na  -0.483192   0.394878
     6  Na   0.514376   0.195473
     7  Na   0.380890   0.061788
 Sum of Mulliken charges =  -0.00000   1.00000

 Dipole moment (field-independent basis, Debye):
    X=             -3.7173    Y=             -0.0788    Z=              0.4190  Tot=              3.7417
 Quadrupole moment (field-independent basis, Debye-Ang):
   XX=            -70.1542   YY=            -66.5932   ZZ=            -68.6586
   XY=             -3.1379   XZ=             -0.8950   YZ=             -0.0714

 Normal termination of Gaussian 16 at Tue Nov 28 21:39:57 2023.
