 Gaussian 16, Revision B.01,
 Gaussian 16:  ES64L-G16RevB.01 20-Dec-2017

 -------------------------
 #P B3LYP/6-311+g(d) force
 -------------------------

 -----
 DPGEN
 -----
 Symbolic Z-matrix:
 Charge =  0 Multiplicity = 2

                         Standard orientation:
 ---------------------------------------------------------------------
 Center     Atomic      Atomic             Coordinates (Angstroms)
 Number     Number       Type             X           Y           Z
 ---------------------------------------------------------------------
      1         11           0        1.951928   -2.127579   -0.550934
      2         11           0        0.724784   -0.181192    2.312939
      3         11           0        0.006943    2.665125   -0.895962
      4         11           0       -2.725016    1.190860    0.629603
      5         11           0        2.854103    0.947834    0.131366
      6         11           0       -0.518816   -0.517070   -1.682306
      7         11           0       -2.293927   -1.977978    0.055294
 ---------------------------------------------------------------------

 SCF Done:  E(UB3LYP) =  -1136.12867761     A.U. after   19 cycles

 The electronic state is 2-A.
 Alpha  occ. eigenvalues --  -38.44621 -38.44026 -38.43959 -38.43819 -38.43674
 Alpha  occ. eigenvalues --  -38.43574 -38.42878  -2.20465  -2.19871  -2.19825
 Alpha  occ. eigenvalues --   -2.19701  -2.19574  -2.19538  -2.18730  -1.14124
 Alpha  occ. eigenvalues --   -1.14099  -1.14083  -1.13580  -1.13538  -1.13527
 Alpha  occ. eigenvalues --   -1.13519  -1.13508  -1.13494  -1.13464  -1.13339
 Alpha  occ. eigenvalues --   -1.13318  -1.13292  -1.13209  -1.13184  -1.13168
 Alpha  occ. eigenvalues --   -1.13153  -1.13129  -1.12421  -1.12374  -1.12364
 Alpha  occ. eigenvalues --   -0.18600  -0.13446  -0.11969  -0.11479
 Alpha virt. eigenvalues --   -0.05575  -0.05356  -0.04047  -0.03885  -0.03151
 Alpha virt. eigenvalues --   -0.02962  -0.01367  -0.00908  -0.00223  -0.00074
 Alpha virt. eigenvalues --    0.00078   0.00405   0.00703   0.00812   0.00850

  Beta  occ. eigenvalues --  -38.44529 -38.44016 -38.43956 -38.43817 -38.43662
  Beta  occ. eigenvalues --  -38.43514 -38.42858  -2.20293  -2.19854  -2.19823
  Beta  occ. eigenvalues --   -2.19701  -2.19520  -2.19468  -2.18696  -1.14009
  Beta  occ. eigenvalues --   -1.13979  -1.13962  -1.13566  -1.13517  -1.13511
  Beta  occ. eigenvalues --   -1.13501  -1.13498  -1.13487  -1.13451  -1.13325
  Beta  occ. eigenvalues --   -1.13306  -1.13261  -1.13165  -1.13153  -1.13137
  Beta  occ. eigenvalues --   -1.13094  -1.13072  -1.12389  -1.12346  -1.12344
  Beta  occ. eigenvalues --   -0.17872  -0.13229  -0.11726
  Beta virt. eigenvalues --   -0.07585  -0.05383  -0.05274  -0.03958  -0.03144
  Beta virt. eigenvalues --   -0.02382  -0.02058  -0.01264  -0.00858  -0.00129
  Beta virt. eigenvalues --   -0.00035   0.00134   0.00442   0.00842   0.00888

 Mulliken charges and spin densities:
               1          2
     1  Na   0.043302  -0.047932
     2  Na  -0.376467   0.464708
     3  Na   0.015628   0.004773
     4  Na  -0.188997   0.197477
     5  Na   0.083894   0.177125
     6  Na   0.405288   0.138852
     7  Na   0.017352   0.064997
 Sum of Mulliken charges =  -0.00000   1.00000

 Dipole moment (field-independent basis, Debye):
    X=              0.0490    Y=             -0.2176    Z=              0.5866  Tot=              0.6276
 Quadrupole moment (field-independent basis, Debye-Ang):
   XX=            -58.4872   YY=            -68.4646   ZZ=            -69.6088
   XY=             -0.0484   XZ=             -2.5645   YZ=             -0.3892

 Normal termination of Gaussian 16 at Fri Dec  8 07:33:20 2023.
