 Gaussian 16, Revision B.01,
 Gaussian 16:  ES64L-G16RevB.01 20-Dec-2017

 -------------------------
 #P B3LYP/6-311+g(d) force
 -------------------------

 -----
 DPGEN
 -----
 Symbolic Z-matrix:
 Charge =  0 Multiplicity = 2

                         Standard orientation:
 ---------------------------------------------------------------------
 Center     Atomic      Atomic             Coordinates (Angstroms)
 Number     Number       Type             X           Y           Z
 ---------------------------------------------------------------------
      1         11           0       -2.071465   -1.603907   -1.754322
      2         11           0        3.394837    0.756082    0.666077
      3         11           0        1.019359    3.151722   -0.284342
      4         11           0        2.177066   -2.370998   -1.267020
      5         11           0       -1.941202    2.395570   -0.636439
      6         11           0       -2.656927   -0.326313    1.586352
      7         11           0        0.078333   -2.002155    1.689695
 ---------------------------------------------------------------------

 SCF Done:  E(UB3LYP) =  -1136.11846095     A.U. after   21 cycles

 The electronic state is 2-A.
 Alpha  occ. eigenvalues --  -38.44860 -38.44720 -38.44717 -38.44245 -38.44082
 Alpha  occ. eigenvalues --  -38.44028 -38.43707  -2.20630  -2.20473  -2.20467
 Alpha  occ. eigenvalues --   -2.20064  -2.19894  -2.19875  -2.19510  -1.14297
 Alpha  occ. eigenvalues --   -1.14268  -1.14257  -1.14150  -1.14145  -1.14136
 Alpha  occ. eigenvalues --   -1.14126  -1.14109  -1.14089  -1.13767  -1.13715
 Alpha  occ. eigenvalues --   -1.13697  -1.13609  -1.13567  -1.13539  -1.13530
 Alpha  occ. eigenvalues --   -1.13514  -1.13488  -1.13177  -1.13170  -1.13147
 Alpha  occ. eigenvalues --   -0.16816  -0.12998  -0.12767  -0.10861
 Alpha virt. eigenvalues --   -0.06701  -0.05909  -0.04569  -0.03685  -0.03013
 Alpha virt. eigenvalues --   -0.02647  -0.01445  -0.01200  -0.01088  -0.00629
 Alpha virt. eigenvalues --   -0.00334  -0.00078   0.00136   0.00445   0.00661

  Beta  occ. eigenvalues --  -38.44800 -38.44716 -38.44691 -38.44196 -38.44075
  Beta  occ. eigenvalues --  -38.43984 -38.43710  -2.20518  -2.20461  -2.20424
  Beta  occ. eigenvalues --   -2.19978  -2.19881  -2.19798  -2.19518  -1.14217
  Beta  occ. eigenvalues --   -1.14194  -1.14177  -1.14141  -1.14131  -1.14113
  Beta  occ. eigenvalues --   -1.14100  -1.14092  -1.14060  -1.13702  -1.13658
  Beta  occ. eigenvalues --   -1.13620  -1.13602  -1.13550  -1.13521  -1.13479
  Beta  occ. eigenvalues --   -1.13468  -1.13422  -1.13181  -1.13174  -1.13151
  Beta  occ. eigenvalues --   -0.16251  -0.12835  -0.12541
  Beta virt. eigenvalues --   -0.07209  -0.06358  -0.05795  -0.04020  -0.03485
  Beta virt. eigenvalues --   -0.02647  -0.01799  -0.01311  -0.01057  -0.01000
  Beta virt. eigenvalues --   -0.00563  -0.00050   0.00073   0.00310   0.00532

 Mulliken charges and spin densities:
               1          2
     1  Na  -0.272521   0.357830
     2  Na  -0.254405  -0.015999
     3  Na   0.232029  -0.042900
     4  Na   0.149929   0.184486
     5  Na  -0.179459   0.091060
     6  Na   0.274013   0.161354
     7  Na   0.050415   0.264170
 Sum of Mulliken charges =  -0.00000   1.00000

 Dipole moment (field-independent basis, Debye):
    X=              0.2148    Y=             -0.4372    Z=             -0.1680  Tot=              0.5153
 Quadrupole moment (field-independent basis, Debye-Ang):
   XX=            -59.7367   YY=            -69.1249   ZZ=            -70.8263
   XY=             -1.5326   XZ=              0.6639   YZ=              1.9575

 Normal termination of Gaussian 16 at Sun Dec  3 23:15:01 2023.
