 Gaussian 16, Revision B.01,
 Gaussian 16:  ES64L-G16RevB.01 20-Dec-2017

 -------------------------
 #P B3LYP/6-311+g(d) force
 -------------------------

 -----
 DPGEN
 -----
 Symbolic Z-matrix:
 Charge =  0 Multiplicity = 2

                         Standard orientation:
 ---------------------------------------------------------------------
 Center     Atomic      Atomic             Coordinates (Angstroms)
 Number     Number       Type             X           Y           Z
 ---------------------------------------------------------------------
      1         11           0        0.088202   -0.060775   -2.043277
      2         11           0       -0.122680   -1.798352    0.101919
      3         11           0       -2.545353   -0.848136    0.108933
      4         11           0       -1.413583    1.624743   -0.281254
      5         11           0       -0.052114    0.456963    2.094279
      6         11           0        1.508308    1.594616   -0.128623
      7         11           0        2.537221   -0.969058    0.148022
 ---------------------------------------------------------------------

 SCF Done:  E(UB3LYP) =  -1136.08060013     A.U. after   21 cycles

 The electronic state is 2-A.
 Alpha  occ. eigenvalues --  -38.44935 -38.44606 -38.44256 -38.43942 -38.43267
 Alpha  occ. eigenvalues --  -38.43264 -38.43234  -2.21093  -2.20694  -2.20333
 Alpha  occ. eigenvalues --   -2.19979  -2.19507  -2.19443  -2.19390  -1.14869
 Alpha  occ. eigenvalues --   -1.14763  -1.14678  -1.14441  -1.14337  -1.14308
 Alpha  occ. eigenvalues --   -1.14260  -1.14090  -1.13889  -1.13785  -1.13744
 Alpha  occ. eigenvalues --   -1.13566  -1.13244  -1.13138  -1.13092  -1.13081
 Alpha  occ. eigenvalues --   -1.13051  -1.13033  -1.13020  -1.12995  -1.12888
 Alpha  occ. eigenvalues --   -0.21594  -0.13937  -0.13026  -0.12197
 Alpha virt. eigenvalues --   -0.05297  -0.04180  -0.03973  -0.03936  -0.03242
 Alpha virt. eigenvalues --   -0.03087  -0.01141  -0.00379  -0.00263   0.00324
 Alpha virt. eigenvalues --    0.00757   0.00881   0.01078   0.01094   0.01109

  Beta  occ. eigenvalues --  -38.44831 -38.44511 -38.44250 -38.43937 -38.43246
  Beta  occ. eigenvalues --  -38.43241 -38.43218  -2.20906  -2.20523  -2.20326
  Beta  occ. eigenvalues --   -2.19972  -2.19475  -2.19415  -2.19366  -1.14754
  Beta  occ. eigenvalues --   -1.14619  -1.14544  -1.14340  -1.14274  -1.14198
  Beta  occ. eigenvalues --   -1.14175  -1.14087  -1.13845  -1.13783  -1.13743
  Beta  occ. eigenvalues --   -1.13527  -1.13230  -1.13100  -1.13038  -1.13023
  Beta  occ. eigenvalues --   -1.13012  -1.12998  -1.12989  -1.12955  -1.12880
  Beta  occ. eigenvalues --   -0.20660  -0.13586  -0.11897
  Beta virt. eigenvalues --   -0.08729  -0.05294  -0.04024  -0.03512  -0.03125
  Beta virt. eigenvalues --   -0.02542  -0.02240  -0.01062  -0.00263  -0.00116
  Beta virt. eigenvalues --    0.00349   0.00794   0.00887   0.01111   0.01143

 Mulliken charges and spin densities:
               1          2
     1  Na   0.268214   0.498078
     2  Na  -0.252993   0.075873
     3  Na   0.143744  -0.003554
     4  Na  -0.096901  -0.047715
     5  Na   0.019358   0.522174
     6  Na   0.016683  -0.052811
     7  Na  -0.098104   0.007955
 Sum of Mulliken charges =  -0.00000   1.00000

 Dipole moment (field-independent basis, Debye):
    X=              0.0849    Y=              0.0666    Z=              0.2231  Tot=              0.2478
 Quadrupole moment (field-independent basis, Debye-Ang):
   XX=            -59.8950   YY=            -75.2833   ZZ=            -63.2042
   XY=             -0.2996   XZ=              0.1516   YZ=             -1.6162

 Normal termination of Gaussian 16 at Fri Dec  8 17:42:08 2023.
