 Gaussian 16, Revision B.01,
 Gaussian 16:  ES64L-G16RevB.01 20-Dec-2017

 -------------------------
 #P B3LYP/6-311+g(d) force
 -------------------------

 -----
 DPGEN
 -----
 Symbolic Z-matrix:
 Charge =  0 Multiplicity = 2

                         Standard orientation:
 ---------------------------------------------------------------------
 Center     Atomic      Atomic             Coordinates (Angstroms)
 Number     Number       Type             X           Y           Z
 ---------------------------------------------------------------------
      1         11           0        4.251356   -1.960042    0.110593
      2         11           0       -2.348876   -3.221859    0.051023
      3         11           0        0.745595    4.019467   -0.573513
      4         11           0       -2.368503    2.400401    0.645170
      5         11           0       -4.104646   -0.335534   -0.273454
      6         11           0        1.060756   -2.683149   -0.218286
      7         11           0        2.764318    1.780716    0.258468
 ---------------------------------------------------------------------

 SCF Done:  E(UB3LYP) =  -1136.11590409     A.U. after   21 cycles

 The electronic state is 2-A.
 Alpha  occ. eigenvalues --  -38.45305 -38.44868 -38.44608 -38.44438 -38.43905
 Alpha  occ. eigenvalues --  -38.43806 -38.43795  -2.21085  -2.20652  -2.20395
 Alpha  occ. eigenvalues --   -2.20234  -2.19726  -2.19627  -2.19605  -1.14772
 Alpha  occ. eigenvalues --   -1.14757  -1.14709  -1.14325  -1.14319  -1.14267
 Alpha  occ. eigenvalues --   -1.14085  -1.14077  -1.14032  -1.13907  -1.13899
 Alpha  occ. eigenvalues --   -1.13880  -1.13400  -1.13376  -1.13358  -1.13278
 Alpha  occ. eigenvalues --   -1.13275  -1.13258  -1.13256  -1.13254  -1.13228
 Alpha  occ. eigenvalues --   -0.15779  -0.13852  -0.13687  -0.10860
 Alpha virt. eigenvalues --   -0.07110  -0.05070  -0.04316  -0.03366  -0.03057
 Alpha virt. eigenvalues --   -0.02487  -0.02322  -0.02157  -0.01746  -0.00339
 Alpha virt. eigenvalues --   -0.00294   0.00002   0.00347   0.00550   0.00597

  Beta  occ. eigenvalues --  -38.45279 -38.44816 -38.44593 -38.44427 -38.43883
  Beta  occ. eigenvalues --  -38.43748 -38.43748  -2.21042  -2.20559  -2.20375
  Beta  occ. eigenvalues --   -2.20219  -2.19688  -2.19521  -2.19515  -1.14743
  Beta  occ. eigenvalues --   -1.14732  -1.14655  -1.14264  -1.14258  -1.14188
  Beta  occ. eigenvalues --   -1.14077  -1.14069  -1.13972  -1.13901  -1.13892
  Beta  occ. eigenvalues --   -1.13839  -1.13363  -1.13351  -1.13335  -1.13206
  Beta  occ. eigenvalues --   -1.13200  -1.13197  -1.13193  -1.13189  -1.13170
  Beta  occ. eigenvalues --   -0.15255  -0.13216  -0.12958
  Beta virt. eigenvalues --   -0.07576  -0.07142  -0.04794  -0.03992  -0.02990
  Beta virt. eigenvalues --   -0.02554  -0.02323  -0.02092  -0.01959  -0.01563
  Beta virt. eigenvalues --   -0.00073   0.00033   0.00229   0.00451   0.00571

 Mulliken charges and spin densities:
               1          2
     1  Na   1.022695   0.305178
     2  Na   0.036712   0.044066
     3  Na   0.238920   0.042917
     4  Na  -0.278318   0.244820
     5  Na   0.053513   0.003310
     6  Na  -0.781582   0.206684
     7  Na  -0.291941   0.153024
 Sum of Mulliken charges =  -0.00000   1.00000

 Dipole moment (field-independent basis, Debye):
    X=              0.1777    Y=              0.6201    Z=              0.0140  Tot=              0.6452
 Quadrupole moment (field-independent basis, Debye-Ang):
   XX=            -60.4697   YY=            -66.0896   ZZ=            -72.4322
   XY=              0.9872   XZ=              1.5721   YZ=             -0.5580

 Normal termination of Gaussian 16 at Mon Dec  4 02:28:54 2023.
