 Gaussian 16, Revision B.01,
 Gaussian 16:  ES64L-G16RevB.01 20-Dec-2017

 -------------------------
 #P B3LYP/6-311+g(d) force
 -------------------------

 -----
 DPGEN
 -----
 Symbolic Z-matrix:
 Charge =  0 Multiplicity = 2

                         Standard orientation:
 ---------------------------------------------------------------------
 Center     Atomic      Atomic             Coordinates (Angstroms)
 Number     Number       Type             X           Y           Z
 ---------------------------------------------------------------------
      1         11           0        2.846508    1.281091   -0.042251
      2         11           0       -1.513379   -2.291167   -0.090857
      3         11           0        0.018115   -0.561271   -1.665370
      4         11           0       -0.128936    0.044419    2.044471
      5         11           0       -0.343091    2.928226   -0.349696
      6         11           0        2.420032   -1.873789    0.087197
      7         11           0       -3.299249    0.472491    0.016506
 ---------------------------------------------------------------------

 SCF Done:  E(UB3LYP) =  -1136.13142429     A.U. after   19 cycles

 The electronic state is 2-A.
 Alpha  occ. eigenvalues --  -38.44619 -38.44031 -38.43735 -38.43691 -38.43510
 Alpha  occ. eigenvalues --  -38.43505 -38.43198  -2.20425  -2.19869  -2.19603
 Alpha  occ. eigenvalues --   -2.19572  -2.19508  -2.19439  -2.19000  -1.14094
 Alpha  occ. eigenvalues --   -1.14091  -1.14066  -1.13563  -1.13535  -1.13513
 Alpha  occ. eigenvalues --   -1.13460  -1.13299  -1.13262  -1.13245  -1.13237
 Alpha  occ. eigenvalues --   -1.13204  -1.13185  -1.13139  -1.13093  -1.13065
 Alpha  occ. eigenvalues --   -1.13024  -1.12979  -1.12677  -1.12666  -1.12636
 Alpha  occ. eigenvalues --   -0.18688  -0.13394  -0.12149  -0.10745
 Alpha virt. eigenvalues --   -0.06112  -0.05173  -0.04408  -0.03376  -0.02842
 Alpha virt. eigenvalues --   -0.02466  -0.01843  -0.01034  -0.00384  -0.00283
 Alpha virt. eigenvalues --   -0.00026   0.00346   0.00753   0.00879   0.00890

  Beta  occ. eigenvalues --  -38.44618 -38.44030 -38.43731 -38.43597 -38.43498
  Beta  occ. eigenvalues --  -38.43439 -38.43192  -2.20426  -2.19868  -2.19599
  Beta  occ. eigenvalues --   -2.19440  -2.19400  -2.19370  -2.18992  -1.14096
  Beta  occ. eigenvalues --   -1.14074  -1.14069  -1.13565  -1.13515  -1.13514
  Beta  occ. eigenvalues --   -1.13407  -1.13286  -1.13240  -1.13229  -1.13140
  Beta  occ. eigenvalues --   -1.13086  -1.13064  -1.13056  -1.13048  -1.13015
  Beta  occ. eigenvalues --   -1.12980  -1.12921  -1.12666  -1.12651  -1.12633
  Beta  occ. eigenvalues --   -0.17952  -0.13180  -0.11912
  Beta virt. eigenvalues --   -0.06828  -0.06056  -0.05184  -0.04340  -0.02576
  Beta virt. eigenvalues --   -0.02050  -0.01745  -0.01457  -0.00991  -0.00424
  Beta virt. eigenvalues --   -0.00323   0.00127   0.00373   0.00809   0.00881

 Mulliken charges and spin densities:
               1          2
     1  Na  -0.054685  -0.048599
     2  Na   0.564638  -0.030156
     3  Na  -0.240982   0.536002
     4  Na  -0.506448   0.712943
     5  Na  -0.104529  -0.071774
     6  Na   0.349892  -0.040953
     7  Na  -0.007886  -0.057461
 Sum of Mulliken charges =  -0.00000   1.00000

 Dipole moment (field-independent basis, Debye):
    X=             -0.1937    Y=              0.0269    Z=              0.1956  Tot=              0.2766
 Quadrupole moment (field-independent basis, Debye-Ang):
   XX=            -53.0144   YY=            -66.3369   ZZ=            -74.4971
   XY=             -0.9144   XZ=              0.2614   YZ=             -1.2726

 Normal termination of Gaussian 16 at Tue Dec  5 21:35:31 2023.
