 Gaussian 16, Revision B.01,
 Gaussian 16:  ES64L-G16RevB.01 20-Dec-2017

 -------------------------
 #P B3LYP/6-311+g(d) force
 -------------------------

 -----
 DPGEN
 -----
 Symbolic Z-matrix:
 Charge =  0 Multiplicity = 2

                         Standard orientation:
 ---------------------------------------------------------------------
 Center     Atomic      Atomic             Coordinates (Angstroms)
 Number     Number       Type             X           Y           Z
 ---------------------------------------------------------------------
      1         11           0       -2.821182    2.084096    0.089814
      2         11           0        0.014030    0.149474   -1.613767
      3         11           0        1.972771    2.642249   -0.012875
      4         11           0        2.986742   -0.658340   -0.131894
      5         11           0        0.478057   -2.788118    0.192036
      6         11           0       -0.024317    0.092602    1.724366
      7         11           0       -2.606102   -1.521962   -0.247681
 ---------------------------------------------------------------------

 SCF Done:  E(UB3LYP) =  -1136.13504642     A.U. after   21 cycles

 The electronic state is 2-A.
 Alpha  occ. eigenvalues --  -38.44395 -38.44064 -38.44000 -38.43963 -38.43086
 Alpha  occ. eigenvalues --  -38.43057 -38.42873  -2.20162  -2.19935  -2.19819
 Alpha  occ. eigenvalues --   -2.19804  -2.19047  -2.19003  -2.18782  -1.13836
 Alpha  occ. eigenvalues --   -1.13818  -1.13806  -1.13617  -1.13598  -1.13581
 Alpha  occ. eigenvalues --   -1.13505  -1.13486  -1.13474  -1.13460  -1.13445
 Alpha  occ. eigenvalues --   -1.13443  -1.12787  -1.12683  -1.12673  -1.12666
 Alpha  occ. eigenvalues --   -1.12632  -1.12612  -1.12449  -1.12435  -1.12427
 Alpha  occ. eigenvalues --   -0.18682  -0.13255  -0.12270  -0.10213
 Alpha virt. eigenvalues --   -0.06079  -0.05521  -0.04537  -0.03084  -0.02585
 Alpha virt. eigenvalues --   -0.02072  -0.01776  -0.01427  -0.00715  -0.00330
 Alpha virt. eigenvalues --    0.00030   0.00329   0.00725   0.00794   0.00874

  Beta  occ. eigenvalues --  -38.44397 -38.44057 -38.43998 -38.43954 -38.43018
  Beta  occ. eigenvalues --  -38.42976 -38.42863  -2.20166  -2.19925  -2.19807
  Beta  occ. eigenvalues --   -2.19804  -2.18924  -2.18855  -2.18770  -1.13828
  Beta  occ. eigenvalues --   -1.13819  -1.13810  -1.13611  -1.13581  -1.13561
  Beta  occ. eigenvalues --   -1.13494  -1.13464  -1.13455  -1.13453  -1.13443
  Beta  occ. eigenvalues --   -1.13441  -1.12699  -1.12588  -1.12582  -1.12574
  Beta  occ. eigenvalues --   -1.12528  -1.12507  -1.12436  -1.12428  -1.12381
  Beta  occ. eigenvalues --   -0.17954  -0.13019  -0.12037
  Beta virt. eigenvalues --   -0.06336  -0.06075  -0.05453  -0.04540  -0.02320
  Beta virt. eigenvalues --   -0.01865  -0.01702  -0.01391  -0.01001  -0.00767
  Beta virt. eigenvalues --   -0.00360   0.00171   0.00365   0.00739   0.00837

 Mulliken charges and spin densities:
               1          2
     1  Na  -0.081096  -0.127506
     2  Na  -0.242733   0.481026
     3  Na  -0.021997  -0.135195
     4  Na   0.275566   0.036589
     5  Na   0.208546   0.045102
     6  Na  -0.360002   0.673209
     7  Na   0.221716   0.026775
 Sum of Mulliken charges =  -0.00000   1.00000

 Dipole moment (field-independent basis, Debye):
    X=             -0.1339    Y=              0.4714    Z=             -0.0043  Tot=              0.4901
 Quadrupole moment (field-independent basis, Debye-Ang):
   XX=            -53.7895   YY=            -59.8818   ZZ=            -77.3982
   XY=             -0.3142   XZ=              0.0896   YZ=              0.2688

 Normal termination of Gaussian 16 at Wed Dec  6 00:27:56 2023.
