 Gaussian 16, Revision B.01,
 Gaussian 16:  ES64L-G16RevB.01 20-Dec-2017

 -------------------------
 #P B3LYP/6-311+g(d) force
 -------------------------

 -----
 DPGEN
 -----
 Symbolic Z-matrix:
 Charge =  0 Multiplicity = 2

                         Standard orientation:
 ---------------------------------------------------------------------
 Center     Atomic      Atomic             Coordinates (Angstroms)
 Number     Number       Type             X           Y           Z
 ---------------------------------------------------------------------
      1         11           0       -0.994954   -2.359021    1.021982
      2         11           0       -1.407411    2.532370   -0.292332
      3         11           0        3.503021   -0.449566    0.625711
      4         11           0       -0.381433    1.072401    1.838864
      5         11           0        0.503459   -1.835108   -1.474986
      6         11           0       -3.447188   -0.319776   -0.649184
      7         11           0        2.224506    1.358699   -1.070055
 ---------------------------------------------------------------------

 SCF Done:  E(UB3LYP) =  -1136.11435231     A.U. after   21 cycles

 The electronic state is 2-A.
 Alpha  occ. eigenvalues --  -38.45409 -38.45139 -38.44161 -38.44103 -38.43528
 Alpha  occ. eigenvalues --  -38.43351 -38.43210  -2.21238  -2.20919  -2.20003
 Alpha  occ. eigenvalues --   -2.19992  -2.19450  -2.19231  -2.19089  -1.15030
 Alpha  occ. eigenvalues --   -1.14866  -1.14850  -1.14595  -1.14561  -1.14548
 Alpha  occ. eigenvalues --   -1.13742  -1.13688  -1.13676  -1.13635  -1.13600
 Alpha  occ. eigenvalues --   -1.13586  -1.13347  -1.13081  -1.13046  -1.12860
 Alpha  occ. eigenvalues --   -1.12832  -1.12820  -1.12782  -1.12729  -1.12703
 Alpha  occ. eigenvalues --   -0.17987  -0.13663  -0.12132  -0.10537
 Alpha virt. eigenvalues --   -0.06887  -0.05017  -0.04052  -0.03789  -0.03325
 Alpha virt. eigenvalues --   -0.02516  -0.02104  -0.00901  -0.00318  -0.00271
 Alpha virt. eigenvalues --   -0.00068   0.00238   0.00357   0.00750   0.00827

  Beta  occ. eigenvalues --  -38.45415 -38.45106 -38.44142 -38.44085 -38.43458
  Beta  occ. eigenvalues --  -38.43346 -38.43183  -2.21252  -2.20858  -2.19970
  Beta  occ. eigenvalues --   -2.19959  -2.19325  -2.19221  -2.19043  -1.15038
  Beta  occ. eigenvalues --   -1.14863  -1.14860  -1.14542  -1.14522  -1.14506
  Beta  occ. eigenvalues --   -1.13710  -1.13668  -1.13651  -1.13611  -1.13577
  Beta  occ. eigenvalues --   -1.13554  -1.13283  -1.12995  -1.12961  -1.12848
  Beta  occ. eigenvalues --   -1.12824  -1.12773  -1.12754  -1.12692  -1.12654
  Beta  occ. eigenvalues --   -0.17352  -0.13411  -0.12006
  Beta virt. eigenvalues --   -0.06869  -0.06650  -0.04915  -0.03889  -0.03199
  Beta virt. eigenvalues --   -0.02709  -0.02173  -0.01425  -0.00828  -0.00270
  Beta virt. eigenvalues --   -0.00149   0.00060   0.00383   0.00446   0.00795

 Mulliken charges and spin densities:
               1          2
     1  Na   0.043825   0.203152
     2  Na   0.261895   0.309364
     3  Na   0.304595  -0.045942
     4  Na  -0.160287   0.270246
     5  Na  -0.011292   0.169879
     6  Na  -0.134002   0.038313
     7  Na  -0.304735   0.054987
 Sum of Mulliken charges =  -0.00000   1.00000

 Dipole moment (field-independent basis, Debye):
    X=              0.4236    Y=             -0.3744    Z=             -0.1080  Tot=              0.5756
 Quadrupole moment (field-independent basis, Debye-Ang):
   XX=            -53.8230   YY=            -72.1587   ZZ=            -70.6273
   XY=             -0.4722   XZ=              3.2261   YZ=             -3.1099

 Normal termination of Gaussian 16 at Tue Dec  5 16:19:06 2023.
