 Gaussian 16, Revision B.01,
 Gaussian 16:  ES64L-G16RevB.01 20-Dec-2017

 -------------------------
 #P B3LYP/6-311+g(d) force
 -------------------------

 -----
 DPGEN
 -----
 Symbolic Z-matrix:
 Charge =  0 Multiplicity = 2

                         Standard orientation:
 ---------------------------------------------------------------------
 Center     Atomic      Atomic             Coordinates (Angstroms)
 Number     Number       Type             X           Y           Z
 ---------------------------------------------------------------------
      1         11           0       -0.305013    0.020327   -1.745681
      2         11           0       -1.773439    2.548926   -0.027251
      3         11           0       -3.146929   -0.625969    0.043834
      4         11           0       -0.336777   -2.595578    0.070558
      5         11           0        2.838164   -1.302330   -0.210516
      6         11           0        2.704035    1.989426    0.052568
      7         11           0        0.019959   -0.034802    1.816488
 ---------------------------------------------------------------------

 SCF Done:  E(UB3LYP) =  -1136.13399727     A.U. after   21 cycles

 The electronic state is 2-A.
 Alpha  occ. eigenvalues --  -38.44501 -38.44145 -38.44044 -38.43613 -38.43334
 Alpha  occ. eigenvalues --  -38.43331 -38.42648  -2.20353  -2.19933  -2.19891
 Alpha  occ. eigenvalues --   -2.19436  -2.19287  -2.19274  -2.18590  -1.14028
 Alpha  occ. eigenvalues --   -1.14013  -1.13993  -1.13634  -1.13603  -1.13577
 Alpha  occ. eigenvalues --   -1.13556  -1.13546  -1.13512  -1.13123  -1.13103
 Alpha  occ. eigenvalues --   -1.13073  -1.13005  -1.12957  -1.12922  -1.12907
 Alpha  occ. eigenvalues --   -1.12895  -1.12877  -1.12285  -1.12250  -1.12206
 Alpha  occ. eigenvalues --   -0.18758  -0.13459  -0.12055  -0.10541
 Alpha virt. eigenvalues --   -0.06089  -0.05528  -0.04214  -0.03298  -0.02604
 Alpha virt. eigenvalues --   -0.02347  -0.01883  -0.01182  -0.00602  -0.00211
 Alpha virt. eigenvalues --   -0.00009   0.00331   0.00729   0.00819   0.00907

  Beta  occ. eigenvalues --  -38.44495 -38.44147 -38.44040 -38.43610 -38.43257
  Beta  occ. eigenvalues --  -38.43249 -38.42637  -2.20347  -2.19938  -2.19885
  Beta  occ. eigenvalues --   -2.19433  -2.19150  -2.19120  -2.18575  -1.14018
  Beta  occ. eigenvalues --   -1.13996  -1.13984  -1.13638  -1.13592  -1.13582
  Beta  occ. eigenvalues --   -1.13545  -1.13531  -1.13513  -1.13115  -1.13084
  Beta  occ. eigenvalues --   -1.13072  -1.12912  -1.12858  -1.12822  -1.12796
  Beta  occ. eigenvalues --   -1.12795  -1.12766  -1.12278  -1.12205  -1.12191
  Beta  occ. eigenvalues --   -0.18013  -0.13248  -0.11803
  Beta virt. eigenvalues --   -0.06624  -0.06041  -0.05515  -0.04216  -0.02523
  Beta virt. eigenvalues --   -0.01843  -0.01795  -0.01330  -0.01074  -0.00658
  Beta virt. eigenvalues --   -0.00255   0.00136   0.00356   0.00790   0.00818

 Mulliken charges and spin densities:
               1          2
     1  Na  -0.271577   0.632175
     2  Na  -0.098452  -0.176191
     3  Na   0.356910  -0.008492
     4  Na   0.306348   0.001744
     5  Na   0.112104  -0.017156
     6  Na  -0.064892  -0.136700
     7  Na  -0.340442   0.704620
 Sum of Mulliken charges =  -0.00000   1.00000

 Dipole moment (field-independent basis, Debye):
    X=             -0.1008    Y=              0.2063    Z=              0.0069  Tot=              0.2297
 Quadrupole moment (field-independent basis, Debye-Ang):
   XX=            -52.4164   YY=            -64.5084   ZZ=            -75.6728
   XY=              0.4399   XZ=             -0.8264   YZ=              0.3304

 Normal termination of Gaussian 16 at Sat Dec  9 06:56:11 2023.
