 Gaussian 16, Revision B.01,
 Gaussian 16:  ES64L-G16RevB.01 20-Dec-2017

 -------------------------
 #P B3LYP/6-311+g(d) force
 -------------------------

 -----
 DPGEN
 -----
 Symbolic Z-matrix:
 Charge =  0 Multiplicity = 2

                         Standard orientation:
 ---------------------------------------------------------------------
 Center     Atomic      Atomic             Coordinates (Angstroms)
 Number     Number       Type             X           Y           Z
 ---------------------------------------------------------------------
      1         11           0        0.507249   -0.443278    2.258273
      2         11           0        3.225066    1.011797    0.433193
      3         11           0        0.149841    2.784275   -0.429129
      4         11           0        2.711915   -2.214024   -0.573944
      5         11           0       -0.050912   -0.236298   -1.997417
      6         11           0       -3.401295    1.151324    0.202649
      7         11           0       -3.141865   -2.053795    0.106375
 ---------------------------------------------------------------------

 SCF Done:  E(UB3LYP) =  -1136.11894194     A.U. after   23 cycles

 The electronic state is 2-A.
 Alpha  occ. eigenvalues --  -38.45223 -38.44981 -38.44966 -38.44504 -38.44133
 Alpha  occ. eigenvalues --  -38.43784 -38.42217  -2.20999  -2.20788  -2.20745
 Alpha  occ. eigenvalues --   -2.20325  -2.19911  -2.19583  -2.18032  -1.14658
 Alpha  occ. eigenvalues --   -1.14640  -1.14619  -1.14466  -1.14443  -1.14424
 Alpha  occ. eigenvalues --   -1.14420  -1.14412  -1.14377  -1.13999  -1.13963
 Alpha  occ. eigenvalues --   -1.13941  -1.13578  -1.13574  -1.13560  -1.13254
 Alpha  occ. eigenvalues --   -1.13243  -1.13222  -1.11721  -1.11696  -1.11674
 Alpha  occ. eigenvalues --   -0.17365  -0.13566  -0.11198  -0.11067
 Alpha virt. eigenvalues --   -0.06729  -0.05956  -0.04126  -0.03527  -0.03010
 Alpha virt. eigenvalues --   -0.02686  -0.02248  -0.01461  -0.00887  -0.00364
 Alpha virt. eigenvalues --   -0.00197   0.00184   0.00282   0.00513   0.00648

  Beta  occ. eigenvalues --  -38.45142 -38.44972 -38.44966 -38.44422 -38.44139
  Beta  occ. eigenvalues --  -38.43769 -38.42216  -2.20849  -2.20774  -2.20744
  Beta  occ. eigenvalues --   -2.20175  -2.19923  -2.19557  -2.18033  -1.14556
  Beta  occ. eigenvalues --   -1.14532  -1.14515  -1.14436  -1.14431  -1.14421
  Beta  occ. eigenvalues --   -1.14416  -1.14413  -1.14377  -1.13900  -1.13857
  Beta  occ. eigenvalues --   -1.13827  -1.13587  -1.13575  -1.13568  -1.13240
  Beta  occ. eigenvalues --   -1.13218  -1.13194  -1.11717  -1.11690  -1.11671
  Beta  occ. eigenvalues --   -0.16638  -0.13481  -0.10995
  Beta virt. eigenvalues --   -0.07223  -0.06383  -0.05947  -0.03887  -0.03087
  Beta virt. eigenvalues --   -0.02152  -0.02125  -0.01992  -0.01246  -0.00949
  Beta virt. eigenvalues --   -0.00295  -0.00070   0.00314   0.00467   0.00633

 Mulliken charges and spin densities:
               1          2
     1  Na  -0.087599   0.469106
     2  Na   0.293070   0.163416
     3  Na  -0.302790  -0.059833
     4  Na  -0.109663  -0.006555
     5  Na   0.201614   0.493125
     6  Na   0.003088   0.005561
     7  Na   0.002280  -0.064819
 Sum of Mulliken charges =  -0.00000   1.00000

 Dipole moment (field-independent basis, Debye):
    X=             -0.0435    Y=             -0.1752    Z=              0.4108  Tot=              0.4487
 Quadrupole moment (field-independent basis, Debye-Ang):
   XX=            -54.6466   YY=            -70.2847   ZZ=            -72.5999
   XY=             -0.0462   XZ=             -0.4143   YZ=              1.9134

 Normal termination of Gaussian 16 at Mon Dec  4 02:32:07 2023.
