 Gaussian 16, Revision B.01,
 Gaussian 16:  ES64L-G16RevB.01 20-Dec-2017

 -------------------------
 #P B3LYP/6-311+g(d) force
 -------------------------

 -----
 DPGEN
 -----
 Symbolic Z-matrix:
 Charge =  0 Multiplicity = 2

                         Standard orientation:
 ---------------------------------------------------------------------
 Center     Atomic      Atomic             Coordinates (Angstroms)
 Number     Number       Type             X           Y           Z
 ---------------------------------------------------------------------
      1         11           0        1.726555    2.668828    0.799166
      2         11           0       -0.401358   -0.482166    2.017797
      3         11           0        2.106373   -2.631438    0.463288
      4         11           0        2.555503    0.156989   -1.182135
      5         11           0       -1.270608    1.930686   -0.776755
      6         11           0       -0.890148   -1.189611   -1.555685
      7         11           0       -3.826316   -0.453287    0.234323
 ---------------------------------------------------------------------

 SCF Done:  E(UB3LYP) =  -1136.13191525     A.U. after   21 cycles

 The electronic state is 2-A.
 Alpha  occ. eigenvalues --  -38.44825 -38.44126 -38.44013 -38.43907 -38.43758
 Alpha  occ. eigenvalues --  -38.43325 -38.42994  -2.20610  -2.19964  -2.19867
 Alpha  occ. eigenvalues --   -2.19787  -2.19617  -2.19139  -2.18819  -1.14284
 Alpha  occ. eigenvalues --   -1.14273  -1.14241  -1.13636  -1.13595  -1.13581
 Alpha  occ. eigenvalues --   -1.13551  -1.13536  -1.13514  -1.13497  -1.13444
 Alpha  occ. eigenvalues --   -1.13381  -1.13312  -1.13292  -1.13205  -1.12814
 Alpha  occ. eigenvalues --   -1.12799  -1.12780  -1.12493  -1.12471  -1.12461
 Alpha  occ. eigenvalues --   -0.18090  -0.13288  -0.11813  -0.11019
 Alpha virt. eigenvalues --   -0.06291  -0.05064  -0.04443  -0.03385  -0.02972
 Alpha virt. eigenvalues --   -0.02768  -0.02102  -0.01001  -0.00561  -0.00112
 Alpha virt. eigenvalues --    0.00155   0.00285   0.00486   0.00738   0.00765

  Beta  occ. eigenvalues --  -38.44827 -38.44036 -38.43993 -38.43857 -38.43741
  Beta  occ. eigenvalues --  -38.43325 -38.42988  -2.20616  -2.19832  -2.19797
  Beta  occ. eigenvalues --   -2.19698  -2.19589  -2.19141  -2.18809  -1.14289
  Beta  occ. eigenvalues --   -1.14262  -1.14247  -1.13527  -1.13513  -1.13508
  Beta  occ. eigenvalues --   -1.13478  -1.13475  -1.13464  -1.13457  -1.13367
  Beta  occ. eigenvalues --   -1.13323  -1.13283  -1.13249  -1.13189  -1.12817
  Beta  occ. eigenvalues --   -1.12787  -1.12777  -1.12487  -1.12458  -1.12451
  Beta  occ. eigenvalues --   -0.17335  -0.13142  -0.11649
  Beta virt. eigenvalues --   -0.07125  -0.06134  -0.04999  -0.04139  -0.02926
  Beta virt. eigenvalues --   -0.02318  -0.02018  -0.01785  -0.00927  -0.00329
  Beta virt. eigenvalues --   -0.00091   0.00221   0.00314   0.00654   0.00774

 Mulliken charges and spin densities:
               1          2
     1  Na   0.243750  -0.083766
     2  Na  -0.508867   0.736342
     3  Na   0.059423  -0.143354
     4  Na   0.117820   0.173178
     5  Na  -0.235019   0.062467
     6  Na  -0.159915   0.318320
     7  Na   0.482808  -0.063188
 Sum of Mulliken charges =  -0.00000   1.00000

 Dipole moment (field-independent basis, Debye):
    X=             -1.0630    Y=             -0.2854    Z=              0.0596  Tot=              1.1022
 Quadrupole moment (field-independent basis, Debye-Ang):
   XX=            -53.0221   YY=            -70.0462   ZZ=            -70.8739
   XY=              0.3028   XZ=             -0.7937   YZ=             -0.0912

 Normal termination of Gaussian 16 at Thu Dec  7 18:09:50 2023.
