 Gaussian 16, Revision B.01,
 Gaussian 16:  ES64L-G16RevB.01 20-Dec-2017

 -------------------------
 #P B3LYP/6-311+g(d) force
 -------------------------

 -----
 DPGEN
 -----
 Symbolic Z-matrix:
 Charge =  0 Multiplicity = 2

                         Standard orientation:
 ---------------------------------------------------------------------
 Center     Atomic      Atomic             Coordinates (Angstroms)
 Number     Number       Type             X           Y           Z
 ---------------------------------------------------------------------
      1         11           0        0.043102    0.185173   -1.743648
      2         11           0        3.073487   -1.293268   -0.067299
      3         11           0        2.226393    1.569864   -0.027615
      4         11           0       -0.750011   -2.490278   -0.139922
      5         11           0       -3.359425   -0.591228    0.012781
      6         11           0        0.090639    0.061365    2.038720
      7         11           0       -1.324185    2.558373   -0.073016
 ---------------------------------------------------------------------

 SCF Done:  E(UB3LYP) =  -1136.13120957     A.U. after   21 cycles

 The electronic state is 2-A.
 Alpha  occ. eigenvalues --  -38.44759 -38.44233 -38.43746 -38.43619 -38.43470
 Alpha  occ. eigenvalues --  -38.43032 -38.42917  -2.20564  -2.20076  -2.19652
 Alpha  occ. eigenvalues --   -2.19572  -2.19460  -2.18916  -2.18775  -1.14232
 Alpha  occ. eigenvalues --   -1.14230  -1.14202  -1.13818  -1.13723  -1.13701
 Alpha  occ. eigenvalues --   -1.13347  -1.13305  -1.13299  -1.13262  -1.13208
 Alpha  occ. eigenvalues --   -1.13181  -1.13134  -1.13095  -1.13060  -1.12612
 Alpha  occ. eigenvalues --   -1.12582  -1.12531  -1.12462  -1.12437  -1.12402
 Alpha  occ. eigenvalues --   -0.18918  -0.13491  -0.11995  -0.10934
 Alpha virt. eigenvalues --   -0.06296  -0.05017  -0.03994  -0.03450  -0.02714
 Alpha virt. eigenvalues --   -0.02664  -0.02028  -0.01076  -0.00128  -0.00071
 Alpha virt. eigenvalues --   -0.00062   0.00323   0.00754   0.00820   0.00895

  Beta  occ. eigenvalues --  -38.44761 -38.44232 -38.43650 -38.43608 -38.43396
  Beta  occ. eigenvalues --  -38.43023 -38.42913  -2.20570  -2.20077  -2.19557
  Beta  occ. eigenvalues --   -2.19476  -2.19326  -2.18904  -2.18772  -1.14239
  Beta  occ. eigenvalues --   -1.14219  -1.14209  -1.13822  -1.13704  -1.13702
  Beta  occ. eigenvalues --   -1.13298  -1.13224  -1.13189  -1.13180  -1.13139
  Beta  occ. eigenvalues --   -1.13128  -1.13046  -1.13006  -1.12967  -1.12603
  Beta  occ. eigenvalues --   -1.12544  -1.12528  -1.12455  -1.12413  -1.12403
  Beta  occ. eigenvalues --   -0.18150  -0.13285  -0.11740
  Beta virt. eigenvalues --   -0.06970  -0.06237  -0.05027  -0.03994  -0.02646
  Beta virt. eigenvalues --   -0.01933  -0.01890  -0.01599  -0.01043  -0.00160
  Beta virt. eigenvalues --   -0.00119   0.00089   0.00336   0.00805   0.00883

 Mulliken charges and spin densities:
               1          2
     1  Na  -0.411729   0.567433
     2  Na   0.059532  -0.077918
     3  Na   0.570104   0.065192
     4  Na   0.187355  -0.089956
     5  Na   0.014256  -0.088127
     6  Na  -0.599561   0.716811
     7  Na   0.180043  -0.093435
 Sum of Mulliken charges =  -0.00000   1.00000

 Dipole moment (field-independent basis, Debye):
    X=             -0.2953    Y=             -0.1506    Z=              0.1744  Tot=              0.3745
 Quadrupole moment (field-independent basis, Debye-Ang):
   XX=            -51.4746   YY=            -68.4825   ZZ=            -73.5362
   XY=             -1.7307   XZ=             -0.3044   YZ=              0.3156

 Normal termination of Gaussian 16 at Thu Dec  7 10:57:41 2023.
