 Gaussian 16, Revision B.01,
 Gaussian 16:  ES64L-G16RevB.01 20-Dec-2017

 -------------------------
 #P B3LYP/6-311+g(d) force
 -------------------------

 -----
 DPGEN
 -----
 Symbolic Z-matrix:
 Charge =  0 Multiplicity = 2

                         Standard orientation:
 ---------------------------------------------------------------------
 Center     Atomic      Atomic             Coordinates (Angstroms)
 Number     Number       Type             X           Y           Z
 ---------------------------------------------------------------------
      1         11           0       -1.733625    2.653984   -1.274086
      2         11           0        2.968767   -2.342704   -1.796726
      3         11           0       -3.077577   -1.996193    1.856331
      4         11           0       -0.011727   -0.037099   -0.072827
      5         11           0        1.679944    2.407717    1.092841
      6         11           0        4.093180   -0.164750    0.968982
      7         11           0       -3.918962   -0.520955   -0.774514
 ---------------------------------------------------------------------

 SCF Done:  E(UB3LYP) =  -1136.11452477     A.U. after   20 cycles

 The electronic state is 2-A.
 Alpha  occ. eigenvalues --  -38.44751 -38.44716 -38.44715 -38.43996 -38.43952
 Alpha  occ. eigenvalues --  -38.43833 -38.43627  -2.20580  -2.20516  -2.20478
 Alpha  occ. eigenvalues --   -2.19788  -2.19780  -2.19650  -2.19429  -1.14313
 Alpha  occ. eigenvalues --   -1.14250  -1.14202  -1.14195  -1.14187  -1.14171
 Alpha  occ. eigenvalues --   -1.14154  -1.14139  -1.14121  -1.13477  -1.13446
 Alpha  occ. eigenvalues --   -1.13429  -1.13428  -1.13386  -1.13379  -1.13300
 Alpha  occ. eigenvalues --   -1.13295  -1.13281  -1.13098  -1.13082  -1.13048
 Alpha  occ. eigenvalues --   -0.16550  -0.14056  -0.11853  -0.10743
 Alpha virt. eigenvalues --   -0.06823  -0.05259  -0.04668  -0.03571  -0.02972
 Alpha virt. eigenvalues --   -0.02688  -0.02074  -0.01303  -0.00866  -0.00572
 Alpha virt. eigenvalues --   -0.00499  -0.00174  -0.00068   0.00495   0.00560

  Beta  occ. eigenvalues --  -38.44755 -38.44723 -38.44722 -38.43911 -38.43909
  Beta  occ. eigenvalues --  -38.43791 -38.43590  -2.20587  -2.20533  -2.20496
  Beta  occ. eigenvalues --   -2.19707  -2.19621  -2.19571  -2.19359  -1.14296
  Beta  occ. eigenvalues --   -1.14265  -1.14213  -1.14203  -1.14192  -1.14188
  Beta  occ. eigenvalues --   -1.14149  -1.14148  -1.14106  -1.13425  -1.13393
  Beta  occ. eigenvalues --   -1.13320  -1.13319  -1.13318  -1.13285  -1.13248
  Beta  occ. eigenvalues --   -1.13240  -1.13231  -1.13049  -1.13033  -1.13007
  Beta  occ. eigenvalues --   -0.16190  -0.13552  -0.11341
  Beta virt. eigenvalues --   -0.07463  -0.06571  -0.04855  -0.04344  -0.03230
  Beta virt. eigenvalues --   -0.02678  -0.02580  -0.01773  -0.01149  -0.00517
  Beta virt. eigenvalues --   -0.00242  -0.00205  -0.00086   0.00071   0.00575

 Mulliken charges and spin densities:
               1          2
     1  Na   0.604861   0.205291
     2  Na   0.205731   0.359452
     3  Na   0.244886   0.194052
     4  Na  -2.470214   0.067919
     5  Na   0.719770   0.278714
     6  Na   0.344189  -0.029598
     7  Na   0.350777  -0.075829
 Sum of Mulliken charges =  -0.00000   1.00000

 Dipole moment (field-independent basis, Debye):
    X=             -0.2578    Y=              0.5989    Z=              0.1829  Tot=              0.6772
 Quadrupole moment (field-independent basis, Debye-Ang):
   XX=            -60.4052   YY=            -70.5809   ZZ=            -66.8465
   XY=             -0.7683   XZ=              6.9500   YZ=             -0.4772

 Normal termination of Gaussian 16 at Tue Dec  5 09:58:28 2023.
