 Gaussian 16, Revision B.01,
 Gaussian 16:  ES64L-G16RevB.01 20-Dec-2017

 -------------------------
 #P B3LYP/6-311+g(d) force
 -------------------------

 -----
 DPGEN
 -----
 Symbolic Z-matrix:
 Charge =  0 Multiplicity = 2

                         Standard orientation:
 ---------------------------------------------------------------------
 Center     Atomic      Atomic             Coordinates (Angstroms)
 Number     Number       Type             X           Y           Z
 ---------------------------------------------------------------------
      1         11           0        0.475886    1.512448    0.466743
      2         11           0       -1.290939   -1.138353    2.041052
      3         11           0       -0.965455   -2.812449   -0.567612
      4         11           0        2.016895   -1.630091   -0.895528
      5         11           0        4.045329    0.842466    0.212707
      6         11           0       -2.662442   -0.190602   -0.742412
      7         11           0       -1.619275    3.416581   -0.514949
 ---------------------------------------------------------------------

 SCF Done:  E(UB3LYP) =  -1136.12218936     A.U. after   21 cycles

 The electronic state is 2-A.
 Alpha  occ. eigenvalues --  -38.44828 -38.44640 -38.43984 -38.43740 -38.43667
 Alpha  occ. eigenvalues --  -38.43578 -38.43352  -2.20698  -2.20419  -2.19823
 Alpha  occ. eigenvalues --   -2.19662  -2.19511  -2.19496  -2.19250  -1.14392
 Alpha  occ. eigenvalues --   -1.14387  -1.14311  -1.14085  -1.14084  -1.14057
 Alpha  occ. eigenvalues --   -1.13510  -1.13494  -1.13450  -1.13344  -1.13304
 Alpha  occ. eigenvalues --   -1.13292  -1.13248  -1.13175  -1.13154  -1.13139
 Alpha  occ. eigenvalues --   -1.13118  -1.13114  -1.12938  -1.12930  -1.12833
 Alpha  occ. eigenvalues --   -0.18121  -0.13308  -0.12941  -0.10389
 Alpha virt. eigenvalues --   -0.06763  -0.05281  -0.04896  -0.02952  -0.02895
 Alpha virt. eigenvalues --   -0.02253  -0.01929  -0.01355  -0.00903  -0.00378
 Alpha virt. eigenvalues --   -0.00184   0.00261   0.00315   0.00588   0.00835

  Beta  occ. eigenvalues --  -38.44814 -38.44643 -38.43956 -38.43656 -38.43646
  Beta  occ. eigenvalues --  -38.43552 -38.43340  -2.20675  -2.20424  -2.19772
  Beta  occ. eigenvalues --   -2.19489  -2.19476  -2.19468  -2.19231  -1.14380
  Beta  occ. eigenvalues --   -1.14340  -1.14299  -1.14088  -1.14085  -1.14060
  Beta  occ. eigenvalues --   -1.13479  -1.13460  -1.13397  -1.13250  -1.13238
  Beta  occ. eigenvalues --   -1.13185  -1.13170  -1.13145  -1.13122  -1.13119
  Beta  occ. eigenvalues --   -1.13102  -1.13039  -1.12931  -1.12890  -1.12825
  Beta  occ. eigenvalues --   -0.17490  -0.13228  -0.12597
  Beta virt. eigenvalues --   -0.06740  -0.06437  -0.05046  -0.04612  -0.02585
  Beta virt. eigenvalues --   -0.02393  -0.02091  -0.01371  -0.01105  -0.00756
  Beta virt. eigenvalues --   -0.00244   0.00113   0.00364   0.00495   0.00665

 Mulliken charges and spin densities:
               1          2
     1  Na  -1.741806   0.215048
     2  Na   0.295922   0.264223
     3  Na   0.023710   0.360243
     4  Na  -0.150674   0.035934
     5  Na   0.734031   0.024608
     6  Na   0.084359   0.144254
     7  Na   0.754458  -0.044310
 Sum of Mulliken charges =  -0.00000   1.00000

 Dipole moment (field-independent basis, Debye):
    X=              0.3472    Y=              0.2039    Z=              0.0511  Tot=              0.4059
 Quadrupole moment (field-independent basis, Debye-Ang):
   XX=            -55.1159   YY=            -64.5009   ZZ=            -74.4316
   XY=              2.5888   XZ=              2.4969   YZ=             -0.2496

 Normal termination of Gaussian 16 at Tue Nov 28 23:42:43 2023.
