 Gaussian 16, Revision B.01,
 Gaussian 16:  ES64L-G16RevB.01 20-Dec-2017

 -------------------------
 #P B3LYP/6-311+g(d) force
 -------------------------

 -----
 DPGEN
 -----
 Symbolic Z-matrix:
 Charge =  0 Multiplicity = 2

                         Standard orientation:
 ---------------------------------------------------------------------
 Center     Atomic      Atomic             Coordinates (Angstroms)
 Number     Number       Type             X           Y           Z
 ---------------------------------------------------------------------
      1         11           0        0.671497   -2.640565    0.663086
      2         11           0        3.134146   -0.674706   -0.524494
      3         11           0       -0.684593    0.190095    1.684222
      4         11           0       -1.835346    1.962788   -0.305974
      5         11           0       -2.985933   -1.165949   -0.362653
      6         11           0        0.012489   -0.124887   -1.584916
      7         11           0        1.687740    2.453224    0.430728
 ---------------------------------------------------------------------

 SCF Done:  E(UB3LYP) =  -1136.13213283     A.U. after   19 cycles

 The electronic state is 2-A.
 Alpha  occ. eigenvalues --  -38.44115 -38.44010 -38.43563 -38.43368 -38.43250
 Alpha  occ. eigenvalues --  -38.43229 -38.43190  -2.19978  -2.19849  -2.19539
 Alpha  occ. eigenvalues --   -2.19270  -2.19224  -2.19199  -2.19095  -1.13653
 Alpha  occ. eigenvalues --   -1.13649  -1.13613  -1.13531  -1.13502  -1.13488
 Alpha  occ. eigenvalues --   -1.13353  -1.13255  -1.13108  -1.12981  -1.12907
 Alpha  occ. eigenvalues --   -1.12890  -1.12880  -1.12877  -1.12859  -1.12848
 Alpha  occ. eigenvalues --   -1.12838  -1.12800  -1.12756  -1.12746  -1.12712
 Alpha  occ. eigenvalues --   -0.19119  -0.13432  -0.12282  -0.10774
 Alpha virt. eigenvalues --   -0.05773  -0.05146  -0.04387  -0.03246  -0.02778
 Alpha virt. eigenvalues --   -0.02264  -0.01735  -0.01047  -0.00334   0.00023
 Alpha virt. eigenvalues --    0.00062   0.00345   0.00795   0.00878   0.00899

  Beta  occ. eigenvalues --  -38.44105 -38.44001 -38.43549 -38.43363 -38.43211
  Beta  occ. eigenvalues --  -38.43188 -38.43112  -2.19963  -2.19835  -2.19518
  Beta  occ. eigenvalues --   -2.19193  -2.19158  -2.19082  -2.19065  -1.13647
  Beta  occ. eigenvalues --   -1.13625  -1.13590  -1.13512  -1.13489  -1.13483
  Beta  occ. eigenvalues --   -1.13329  -1.13205  -1.13089  -1.12905  -1.12869
  Beta  occ. eigenvalues --   -1.12852  -1.12833  -1.12829  -1.12794  -1.12784
  Beta  occ. eigenvalues --   -1.12772  -1.12728  -1.12712  -1.12703  -1.12670
  Beta  occ. eigenvalues --   -0.18407  -0.13166  -0.12002
  Beta virt. eigenvalues --   -0.06867  -0.05684  -0.05127  -0.04295  -0.02560
  Beta virt. eigenvalues --   -0.02052  -0.01639  -0.01246  -0.00995  -0.00264
  Beta virt. eigenvalues --   -0.00010   0.00155   0.00381   0.00850   0.00888

 Mulliken charges and spin densities:
               1          2
     1  Na  -0.273201  -0.035467
     2  Na   0.127650   0.025265
     3  Na   0.075186   0.565788
     4  Na   0.306230   0.084610
     5  Na   0.122588  -0.013550
     6  Na  -0.123426   0.417514
     7  Na  -0.235028  -0.044159
 Sum of Mulliken charges =  -0.00000   1.00000

 Dipole moment (field-independent basis, Debye):
    X=             -0.0783    Y=             -0.1385    Z=             -0.0571  Tot=              0.1691
 Quadrupole moment (field-independent basis, Debye-Ang):
   XX=            -53.5847   YY=            -64.8482   ZZ=            -74.0344
   XY=              1.4705   XZ=              0.9901   YZ=             -0.2120

 Normal termination of Gaussian 16 at Wed Nov 29 02:14:07 2023.
