 Gaussian 16, Revision B.01,
 Gaussian 16:  ES64L-G16RevB.01 20-Dec-2017

 -------------------------
 #P B3LYP/6-311+g(d) force
 -------------------------

 -----
 DPGEN
 -----
 Symbolic Z-matrix:
 Charge =  0 Multiplicity = 2

                         Standard orientation:
 ---------------------------------------------------------------------
 Center     Atomic      Atomic             Coordinates (Angstroms)
 Number     Number       Type             X           Y           Z
 ---------------------------------------------------------------------
      1         11           0        0.116740   -0.390125    1.916944
      2         11           0       -2.510284   -1.393834   -0.017276
      3         11           0       -2.351174    1.905704   -0.048277
      4         11           0       -0.063844    0.488449   -1.498012
      5         11           0        3.178935   -0.621875   -0.210186
      6         11           0        0.240973   -2.630633   -0.340441
      7         11           0        1.388654    2.642313    0.197247
 ---------------------------------------------------------------------

 SCF Done:  E(UB3LYP) =  -1136.13432509     A.U. after   19 cycles

 The electronic state is 2-A.
 Alpha  occ. eigenvalues --  -38.44180 -38.43830 -38.43762 -38.43498 -38.43238
 Alpha  occ. eigenvalues --  -38.43164 -38.42902  -2.19988  -2.19673  -2.19634
 Alpha  occ. eigenvalues --   -2.19432  -2.19185  -2.19109  -2.18952  -1.13661
 Alpha  occ. eigenvalues --   -1.13642  -1.13632  -1.13394  -1.13362  -1.13334
 Alpha  occ. eigenvalues --   -1.13291  -1.13286  -1.13260  -1.13167  -1.13086
 Alpha  occ. eigenvalues --   -1.13068  -1.12904  -1.12830  -1.12791  -1.12783
 Alpha  occ. eigenvalues --   -1.12731  -1.12721  -1.12628  -1.12584  -1.12567
 Alpha  occ. eigenvalues --   -0.19133  -0.13091  -0.12738  -0.10584
 Alpha virt. eigenvalues --   -0.05720  -0.05162  -0.04588  -0.03053  -0.02909
 Alpha virt. eigenvalues --   -0.02238  -0.01585  -0.01126  -0.00342  -0.00125
 Alpha virt. eigenvalues --    0.00021   0.00350   0.00827   0.00863   0.00939

  Beta  occ. eigenvalues --  -38.44177 -38.43825 -38.43758 -38.43490 -38.43151
  Beta  occ. eigenvalues --  -38.43148 -38.42844  -2.19984  -2.19667  -2.19630
  Beta  occ. eigenvalues --   -2.19422  -2.19090  -2.19019  -2.18848  -1.13643
  Beta  occ. eigenvalues --   -1.13639  -1.13631  -1.13387  -1.13353  -1.13311
  Beta  occ. eigenvalues --   -1.13289  -1.13276  -1.13250  -1.13163  -1.13073
  Beta  occ. eigenvalues --   -1.13033  -1.12835  -1.12743  -1.12726  -1.12713
  Beta  occ. eigenvalues --   -1.12669  -1.12653  -1.12552  -1.12508  -1.12491
  Beta  occ. eigenvalues --   -0.18394  -0.12846  -0.12489
  Beta virt. eigenvalues --   -0.06648  -0.05704  -0.05135  -0.04557  -0.02265
  Beta virt. eigenvalues --   -0.02137  -0.01511  -0.01198  -0.01051  -0.00382
  Beta virt. eigenvalues --   -0.00165   0.00161   0.00382   0.00858   0.00872

 Mulliken charges and spin densities:
               1          2
     1  Na  -0.590968   0.707877
     2  Na   0.385956   0.058673
     3  Na   0.334823  -0.023559
     4  Na  -0.503951   0.378308
     5  Na   0.060421  -0.067682
     6  Na   0.259360   0.034391
     7  Na   0.054360  -0.088009
 Sum of Mulliken charges =  -0.00000   1.00000

 Dipole moment (field-independent basis, Debye):
    X=              0.3439    Y=              0.2879    Z=              0.1904  Tot=              0.4873
 Quadrupole moment (field-independent basis, Debye-Ang):
   XX=            -55.1963   YY=            -62.2143   ZZ=            -75.1639
   XY=             -0.2552   XZ=             -0.4750   YZ=              1.8576

 Normal termination of Gaussian 16 at Tue Dec  5 12:28:33 2023.
