 Gaussian 16, Revision B.01,
 Gaussian 16:  ES64L-G16RevB.01 20-Dec-2017

 -------------------------
 #P B3LYP/6-311+g(d) force
 -------------------------

 -----
 DPGEN
 -----
 Symbolic Z-matrix:
 Charge =  0 Multiplicity = 2

                         Standard orientation:
 ---------------------------------------------------------------------
 Center     Atomic      Atomic             Coordinates (Angstroms)
 Number     Number       Type             X           Y           Z
 ---------------------------------------------------------------------
      1         11           0        1.903828    1.576539   -0.204273
      2         11           0       -0.910709    0.207112    1.663826
      3         11           0       -2.291801   -2.363492   -0.385505
      4         11           0        2.472707   -1.609021    0.710946
      5         11           0        5.070721   -0.339626   -0.867175
      6         11           0       -4.529529   -0.642501   -0.741084
      7         11           0       -1.715218    3.170989   -0.176736
 ---------------------------------------------------------------------

 SCF Done:  E(UB3LYP) =  -1136.11886187     A.U. after   19 cycles

 The electronic state is 2-A.
 Alpha  occ. eigenvalues --  -38.44714 -38.44382 -38.44085 -38.44083 -38.44062
 Alpha  occ. eigenvalues --  -38.43781 -38.43648  -2.20514  -2.20218  -2.19916
 Alpha  occ. eigenvalues --   -2.19907  -2.19902  -2.19633  -2.19421  -1.14233
 Alpha  occ. eigenvalues --   -1.14227  -1.14087  -1.13899  -1.13895  -1.13843
 Alpha  occ. eigenvalues --   -1.13721  -1.13605  -1.13575  -1.13557  -1.13554
 Alpha  occ. eigenvalues --   -1.13541  -1.13538  -1.13521  -1.13514  -1.13279
 Alpha  occ. eigenvalues --   -1.13270  -1.13233  -1.13092  -1.13079  -1.13037
 Alpha  occ. eigenvalues --   -0.16823  -0.14222  -0.11785  -0.10779
 Alpha virt. eigenvalues --   -0.06030  -0.05351  -0.05140  -0.03668  -0.02660
 Alpha virt. eigenvalues --   -0.02338  -0.02177  -0.01626  -0.00852  -0.00723
 Alpha virt. eigenvalues --   -0.00346   0.00071   0.00261   0.00476   0.00545

  Beta  occ. eigenvalues --  -38.44714 -38.44360 -38.44045 -38.44040 -38.44026
  Beta  occ. eigenvalues --  -38.43782 -38.43618  -2.20515  -2.20180  -2.19849
  Beta  occ. eigenvalues --   -2.19839  -2.19817  -2.19637  -2.19365  -1.14231
  Beta  occ. eigenvalues --   -1.14216  -1.14089  -1.13879  -1.13874  -1.13779
  Beta  occ. eigenvalues --   -1.13686  -1.13562  -1.13522  -1.13498  -1.13495
  Beta  occ. eigenvalues --   -1.13493  -1.13473  -1.13472  -1.13461  -1.13284
  Beta  occ. eigenvalues --   -1.13271  -1.13206  -1.13053  -1.13040  -1.13002
  Beta  occ. eigenvalues --   -0.16164  -0.13895  -0.11571
  Beta virt. eigenvalues --   -0.07342  -0.05828  -0.04846  -0.04616  -0.03529
  Beta virt. eigenvalues --   -0.02420  -0.02092  -0.01612  -0.01531  -0.00592
  Beta virt. eigenvalues --   -0.00408  -0.00234   0.00249   0.00386   0.00536

 Mulliken charges and spin densities:
               1          2
     1  Na  -0.564194   0.006953
     2  Na  -0.103900   0.251285
     3  Na   0.057000   0.015355
     4  Na  -0.137456   0.064307
     5  Na   0.671801   0.238396
     6  Na   0.063295   0.196822
     7  Na   0.013455   0.226881
 Sum of Mulliken charges =  -0.00000   1.00000

 Dipole moment (field-independent basis, Debye):
    X=              0.7121    Y=             -0.0195    Z=             -0.1659  Tot=              0.7314
 Quadrupole moment (field-independent basis, Debye-Ang):
   XX=            -59.7431   YY=            -69.1542   ZZ=            -69.8162
   XY=             -5.8288   XZ=             -1.5731   YZ=             -2.2123

 Normal termination of Gaussian 16 at Tue Nov 28 19:16:26 2023.
