 Gaussian 16, Revision B.01,
 Gaussian 16:  ES64L-G16RevB.01 20-Dec-2017

 -------------------------
 #P B3LYP/6-311+g(d) force
 -------------------------

 -----
 DPGEN
 -----
 Symbolic Z-matrix:
 Charge =  0 Multiplicity = 2

                         Standard orientation:
 ---------------------------------------------------------------------
 Center     Atomic      Atomic             Coordinates (Angstroms)
 Number     Number       Type             X           Y           Z
 ---------------------------------------------------------------------
      1         11           0        0.279121   -0.334904   -1.670845
      2         11           0        0.691555    1.866366    0.701234
      3         11           0        2.994069    0.042778   -0.486460
      4         11           0        1.115871   -1.318164    1.216493
      5         11           0       -1.651437   -1.818044   -0.336967
      6         11           0       -1.527426    0.303745    1.657478
      7         11           0       -1.901754    1.258223   -1.080933
 ---------------------------------------------------------------------

 SCF Done:  E(UB3LYP) =  -1136.09774812     A.U. after   23 cycles

 The electronic state is 2-A.
 Alpha  occ. eigenvalues --  -38.44250 -38.44228 -38.44213 -38.43926 -38.43572
 Alpha  occ. eigenvalues --  -38.42978 -38.42514  -2.20438  -2.20362  -2.20224
 Alpha  occ. eigenvalues --   -2.20004  -2.19662  -2.19049  -2.18583  -1.14333
 Alpha  occ. eigenvalues --   -1.14148  -1.14108  -1.14090  -1.14069  -1.13998
 Alpha  occ. eigenvalues --   -1.13955  -1.13852  -1.13825  -1.13624  -1.13601
 Alpha  occ. eigenvalues --   -1.13554  -1.13357  -1.13291  -1.13249  -1.12748
 Alpha  occ. eigenvalues --   -1.12708  -1.12618  -1.12313  -1.12241  -1.12171
 Alpha  occ. eigenvalues --   -0.21077  -0.14000  -0.12873  -0.11861
 Alpha virt. eigenvalues --   -0.05510  -0.04385  -0.03907  -0.03787  -0.03072
 Alpha virt. eigenvalues --   -0.02931  -0.01195  -0.00469  -0.00276   0.00315
 Alpha virt. eigenvalues --    0.00663   0.00827   0.01014   0.01034   0.01070

  Beta  occ. eigenvalues --  -38.44243 -38.44162 -38.44134 -38.43887 -38.43527
  Beta  occ. eigenvalues --  -38.42967 -38.42496  -2.20298  -2.20245  -2.20212
  Beta  occ. eigenvalues --   -2.19935  -2.19584  -2.19035  -2.18557  -1.14233
  Beta  occ. eigenvalues --   -1.14080  -1.14025  -1.14009  -1.13970  -1.13931
  Beta  occ. eigenvalues --   -1.13903  -1.13821  -1.13807  -1.13566  -1.13541
  Beta  occ. eigenvalues --   -1.13496  -1.13304  -1.13219  -1.13191  -1.12737
  Beta  occ. eigenvalues --   -1.12672  -1.12596  -1.12290  -1.12189  -1.12155
  Beta  occ. eigenvalues --   -0.20220  -0.13777  -0.11605
  Beta virt. eigenvalues --   -0.08472  -0.05417  -0.03948  -0.03608  -0.03292
  Beta virt. eigenvalues --   -0.02274  -0.02126  -0.01144  -0.00316  -0.00124
  Beta virt. eigenvalues --    0.00351   0.00754   0.00948   0.01037   0.01089

 Mulliken charges and spin densities:
               1          2
     1  Na  -0.132918   0.495647
     2  Na  -0.825918   0.121211
     3  Na   0.833408  -0.022906
     4  Na  -0.594710   0.124738
     5  Na  -0.025574  -0.016766
     6  Na   0.633205   0.385116
     7  Na   0.112507  -0.087039
 Sum of Mulliken charges =  -0.00000   1.00000

 Dipole moment (field-independent basis, Debye):
    X=              0.3307    Y=              0.0533    Z=              0.0215  Tot=              0.3356
 Quadrupole moment (field-independent basis, Debye-Ang):
   XX=            -57.6269   YY=            -74.8980   ZZ=            -64.3071
   XY=              0.2189   XZ=             -0.4150   YZ=             -2.3495

 Normal termination of Gaussian 16 at Fri Dec  8 17:05:47 2023.
