 Gaussian 16, Revision B.01,
 Gaussian 16:  ES64L-G16RevB.01 20-Dec-2017

 -------------------------
 #P B3LYP/6-311+g(d) force
 -------------------------

 -----
 DPGEN
 -----
 Symbolic Z-matrix:
 Charge =  0 Multiplicity = 2

                         Standard orientation:
 ---------------------------------------------------------------------
 Center     Atomic      Atomic             Coordinates (Angstroms)
 Number     Number       Type             X           Y           Z
 ---------------------------------------------------------------------
      1         11           0        1.523476    0.108697    2.238874
      2         11           0       -3.871842   -0.002130   -0.611502
      3         11           0        3.483020    1.008980   -1.086864
      4         11           0       -0.951349    0.287547   -1.579625
      5         11           0       -0.903148    2.540236    0.791353
      6         11           0        1.770681   -1.865724   -0.893366
      7         11           0       -1.050837   -2.077608    1.141129
 ---------------------------------------------------------------------

 SCF Done:  E(UB3LYP) =  -1136.12157454     A.U. after   24 cycles

 The electronic state is 2-A.
 Alpha  occ. eigenvalues --  -38.45087 -38.44569 -38.44558 -38.44123 -38.43580
 Alpha  occ. eigenvalues --  -38.43414 -38.42800  -2.20887  -2.20385  -2.20348
 Alpha  occ. eigenvalues --   -2.20033  -2.19379  -2.19280  -2.18641  -1.14593
 Alpha  occ. eigenvalues --   -1.14531  -1.14507  -1.14058  -1.14020  -1.14015
 Alpha  occ. eigenvalues --   -1.14008  -1.14002  -1.13974  -1.13727  -1.13682
 Alpha  occ. eigenvalues --   -1.13660  -1.13069  -1.13044  -1.12986  -1.12979
 Alpha  occ. eigenvalues --   -1.12935  -1.12899  -1.12327  -1.12300  -1.12268
 Alpha  occ. eigenvalues --   -0.17857  -0.13508  -0.11690  -0.11061
 Alpha virt. eigenvalues --   -0.06669  -0.04811  -0.04493  -0.03230  -0.03113
 Alpha virt. eigenvalues --   -0.02895  -0.02258  -0.00974  -0.00636  -0.00239
 Alpha virt. eigenvalues --    0.00119   0.00217   0.00348   0.00665   0.00850

  Beta  occ. eigenvalues --  -38.45078 -38.44541 -38.44479 -38.44100 -38.43556
  Beta  occ. eigenvalues --  -38.43393 -38.42782  -2.20870  -2.20297  -2.20242
  Beta  occ. eigenvalues --   -2.19991  -2.19335  -2.19243  -2.18611  -1.14574
  Beta  occ. eigenvalues --   -1.14521  -1.14498  -1.13979  -1.13966  -1.13954
  Beta  occ. eigenvalues --   -1.13944  -1.13917  -1.13896  -1.13693  -1.13649
  Beta  occ. eigenvalues --   -1.13636  -1.13043  -1.13005  -1.12953  -1.12952
  Beta  occ. eigenvalues --   -1.12913  -1.12855  -1.12305  -1.12274  -1.12239
  Beta  occ. eigenvalues --   -0.17192  -0.13172  -0.10856
  Beta virt. eigenvalues --   -0.07844  -0.06473  -0.04505  -0.04204  -0.02957
  Beta virt. eigenvalues --   -0.02605  -0.02095  -0.02010  -0.00822  -0.00357
  Beta virt. eigenvalues --   -0.00140   0.00177   0.00245   0.00407   0.00802

 Mulliken charges and spin densities:
               1          2
     1  Na  -0.193670   0.354981
     2  Na   0.587565  -0.018168
     3  Na   0.057519   0.013871
     4  Na  -0.476897   0.048057
     5  Na  -0.129181   0.121972
     6  Na   0.265048   0.270201
     7  Na  -0.110384   0.209086
 Sum of Mulliken charges =  -0.00000   1.00000

 Dipole moment (field-independent basis, Debye):
    X=             -0.4938    Y=              0.1112    Z=              0.0040  Tot=              0.5062
 Quadrupole moment (field-independent basis, Debye-Ang):
   XX=            -50.7249   YY=            -76.4458   ZZ=            -67.0310
   XY=              1.5957   XZ=             -0.6602   YZ=              0.7149

 Normal termination of Gaussian 16 at Sun Dec  3 11:44:41 2023.
