 Gaussian 16, Revision B.01,
 Gaussian 16:  ES64L-G16RevB.01 20-Dec-2017

 -------------------------
 #P B3LYP/6-311+g(d) force
 -------------------------

 -----
 DPGEN
 -----
 Symbolic Z-matrix:
 Charge =  0 Multiplicity = 2

                         Standard orientation:
 ---------------------------------------------------------------------
 Center     Atomic      Atomic             Coordinates (Angstroms)
 Number     Number       Type             X           Y           Z
 ---------------------------------------------------------------------
      1         11           0       -1.847483   -2.464427   -0.221907
      2         11           0        1.754210    3.123360    0.093072
      3         11           0       -1.858592    2.754755    0.115557
      4         11           0        1.875133   -3.247236    0.134761
      5         11           0        0.934491   -0.293920    1.582243
      6         11           0       -4.260828   -0.132808   -0.483846
      7         11           0        3.403069    0.260277   -1.219880
 ---------------------------------------------------------------------

 SCF Done:  E(UB3LYP) =  -1136.12152471     A.U. after   21 cycles

 The electronic state is 2-A.
 Alpha  occ. eigenvalues --  -38.44991 -38.44612 -38.44542 -38.44498 -38.44113
 Alpha  occ. eigenvalues --  -38.43810 -38.43476  -2.20790  -2.20385  -2.20297
 Alpha  occ. eigenvalues --   -2.20284  -2.19901  -2.19629  -2.19276  -1.14481
 Alpha  occ. eigenvalues --   -1.14461  -1.14399  -1.14082  -1.14068  -1.14003
 Alpha  occ. eigenvalues --   -1.13984  -1.13959  -1.13958  -1.13935  -1.13921
 Alpha  occ. eigenvalues --   -1.13918  -1.13590  -1.13565  -1.13543  -1.13284
 Alpha  occ. eigenvalues --   -1.13255  -1.13249  -1.12935  -1.12929  -1.12909
 Alpha  occ. eigenvalues --   -0.16635  -0.13409  -0.13027  -0.10126
 Alpha virt. eigenvalues --   -0.06669  -0.06171  -0.04581  -0.03334  -0.02998
 Alpha virt. eigenvalues --   -0.02111  -0.01799  -0.01723  -0.01434  -0.01323
 Alpha virt. eigenvalues --   -0.00078   0.00206   0.00473   0.00497   0.00583

  Beta  occ. eigenvalues --  -38.44967 -38.44602 -38.44518 -38.44492 -38.44111
  Beta  occ. eigenvalues --  -38.43718 -38.43438  -2.20745  -2.20371  -2.20275
  Beta  occ. eigenvalues --   -2.20256  -2.19902  -2.19457  -2.19207  -1.14452
  Beta  occ. eigenvalues --   -1.14426  -1.14364  -1.14076  -1.14063  -1.13966
  Beta  occ. eigenvalues --   -1.13957  -1.13950  -1.13931  -1.13930  -1.13904
  Beta  occ. eigenvalues --   -1.13882  -1.13595  -1.13572  -1.13501  -1.13167
  Beta  occ. eigenvalues --   -1.13143  -1.13128  -1.12888  -1.12878  -1.12864
  Beta  occ. eigenvalues --   -0.16184  -0.12750  -0.12644
  Beta virt. eigenvalues --   -0.06813  -0.06603  -0.06009  -0.04283  -0.02761
  Beta virt. eigenvalues --   -0.02493  -0.01912  -0.01696  -0.01538  -0.01356
  Beta virt. eigenvalues --   -0.00934   0.00223   0.00384   0.00524   0.00616

 Mulliken charges and spin densities:
               1          2
     1  Na  -0.317436   0.112085
     2  Na   0.247508   0.019057
     3  Na  -0.261532   0.087820
     4  Na   0.307547   0.029143
     5  Na   0.000342   0.058375
     6  Na   0.253179   0.190540
     7  Na  -0.229608   0.502979
 Sum of Mulliken charges =  -0.00000   1.00000

 Dipole moment (field-independent basis, Debye):
    X=              0.3837    Y=             -0.5056    Z=              0.2516  Tot=              0.6828
 Quadrupole moment (field-independent basis, Debye-Ang):
   XX=            -70.1603   YY=            -59.0198   ZZ=            -71.7877
   XY=             -5.9954   XZ=              1.1963   YZ=              1.4295

 Normal termination of Gaussian 16 at Sun Dec  3 22:29:22 2023.
