 Gaussian 16, Revision B.01,
 Gaussian 16:  ES64L-G16RevB.01 20-Dec-2017

 -------------------------
 #P B3LYP/6-311+g(d) force
 -------------------------

 -----
 DPGEN
 -----
 Symbolic Z-matrix:
 Charge =  0 Multiplicity = 2

                         Standard orientation:
 ---------------------------------------------------------------------
 Center     Atomic      Atomic             Coordinates (Angstroms)
 Number     Number       Type             X           Y           Z
 ---------------------------------------------------------------------
      1         11           0        2.774404   -1.880579    1.120968
      2         11           0       -4.003277    0.745146    0.670371
      3         11           0       -1.410268    3.132753   -0.163033
      4         11           0       -0.634132   -1.365574    0.145507
      5         11           0       -3.301681   -2.797398   -0.907334
      6         11           0        4.797273   -0.441573   -0.668762
      7         11           0        1.777682    2.607225   -0.197718
 ---------------------------------------------------------------------

 SCF Done:  E(UB3LYP) =  -1136.11226269     A.U. after   21 cycles

 The electronic state is 2-A.
 Alpha  occ. eigenvalues --  -38.45065 -38.44764 -38.44577 -38.44207 -38.44183
 Alpha  occ. eigenvalues --  -38.44072 -38.43275  -2.20835  -2.20573  -2.20398
 Alpha  occ. eigenvalues --   -2.19993  -2.19984  -2.19895  -2.19073  -1.14519
 Alpha  occ. eigenvalues --   -1.14503  -1.14473  -1.14305  -1.14235  -1.14228
 Alpha  occ. eigenvalues --   -1.14037  -1.14032  -1.14004  -1.13662  -1.13652
 Alpha  occ. eigenvalues --   -1.13647  -1.13628  -1.13619  -1.13587  -1.13584
 Alpha  occ. eigenvalues --   -1.13536  -1.13519  -1.12750  -1.12741  -1.12726
 Alpha  occ. eigenvalues --   -0.16207  -0.14134  -0.12489  -0.10324
 Alpha virt. eigenvalues --   -0.07524  -0.05055  -0.04678  -0.03508  -0.03122
 Alpha virt. eigenvalues --   -0.02540  -0.02162  -0.01444  -0.01066  -0.00858
 Alpha virt. eigenvalues --   -0.00441  -0.00156   0.00313   0.00454   0.00515

  Beta  occ. eigenvalues --  -38.45077 -38.44766 -38.44520 -38.44174 -38.44092
  Beta  occ. eigenvalues --  -38.44031 -38.43276  -2.20860  -2.20584  -2.20293
  Beta  occ. eigenvalues --   -2.19933  -2.19821  -2.19814  -2.19079  -1.14531
  Beta  occ. eigenvalues --   -1.14518  -1.14484  -1.14284  -1.14243  -1.14224
  Beta  occ. eigenvalues --   -1.13965  -1.13956  -1.13943  -1.13622  -1.13609
  Beta  occ. eigenvalues --   -1.13580  -1.13534  -1.13531  -1.13515  -1.13481
  Beta  occ. eigenvalues --   -1.13472  -1.13468  -1.12760  -1.12750  -1.12693
  Beta  occ. eigenvalues --   -0.15699  -0.13557  -0.12133
  Beta virt. eigenvalues --   -0.07202  -0.07026  -0.04874  -0.04344  -0.03172
  Beta virt. eigenvalues --   -0.02692  -0.02274  -0.01853  -0.01290  -0.00980
  Beta virt. eigenvalues --   -0.00631  -0.00066   0.00057   0.00403   0.00529

 Mulliken charges and spin densities:
               1          2
     1  Na  -0.120426   0.021995
     2  Na   0.036785   0.459211
     3  Na   0.046391  -0.007704
     4  Na  -1.366063   0.149638
     5  Na   1.087038  -0.026896
     6  Na   0.301806   0.303609
     7  Na   0.014470   0.100148
 Sum of Mulliken charges =  -0.00000   1.00000

 Dipole moment (field-independent basis, Debye):
    X=              0.2602    Y=             -1.2223    Z=             -0.4184  Tot=              1.3179
 Quadrupole moment (field-independent basis, Debye-Ang):
   XX=            -60.2574   YY=            -68.9458   ZZ=            -68.7348
   XY=              9.2678   XZ=              0.2679   YZ=             -0.2681

 Normal termination of Gaussian 16 at Mon Dec  4 00:15:11 2023.
