 Gaussian 16, Revision B.01,
 Gaussian 16:  ES64L-G16RevB.01 20-Dec-2017

 -------------------------
 #P B3LYP/6-311+g(d) force
 -------------------------

 -----
 DPGEN
 -----
 Symbolic Z-matrix:
 Charge =  0 Multiplicity = 2

                         Standard orientation:
 ---------------------------------------------------------------------
 Center     Atomic      Atomic             Coordinates (Angstroms)
 Number     Number       Type             X           Y           Z
 ---------------------------------------------------------------------
      1         11           0        1.653480    2.118643   -0.504802
      2         11           0        3.852229   -0.844544   -0.354630
      3         11           0       -2.162617    0.347981    1.820521
      4         11           0        1.166218   -0.305248    1.823542
      5         11           0        0.212006   -1.453404   -0.942180
      6         11           0       -2.793382   -1.652567   -0.761295
      7         11           0       -1.927933    1.789139   -1.081156
 ---------------------------------------------------------------------

 SCF Done:  E(UB3LYP) =  -1136.12300372     A.U. after   25 cycles

 The electronic state is 2-A.
 Alpha  occ. eigenvalues --  -38.45212 -38.44406 -38.44246 -38.43603 -38.43523
 Alpha  occ. eigenvalues --  -38.43422 -38.43352  -2.21002  -2.20298  -2.20171
 Alpha  occ. eigenvalues --   -2.19517  -2.19413  -2.19276  -2.19178  -1.14681
 Alpha  occ. eigenvalues --   -1.14654  -1.14628  -1.13981  -1.13952  -1.13921
 Alpha  occ. eigenvalues --   -1.13889  -1.13800  -1.13766  -1.13257  -1.13228
 Alpha  occ. eigenvalues --   -1.13166  -1.13061  -1.13041  -1.13002  -1.12958
 Alpha  occ. eigenvalues --   -1.12939  -1.12892  -1.12862  -1.12859  -1.12784
 Alpha  occ. eigenvalues --   -0.18606  -0.14200  -0.11439  -0.11008
 Alpha virt. eigenvalues --   -0.06756  -0.05203  -0.04672  -0.03321  -0.02638
 Alpha virt. eigenvalues --   -0.02465  -0.02282  -0.01004  -0.00711  -0.00182
 Alpha virt. eigenvalues --    0.00171   0.00285   0.00332   0.00715   0.00741

  Beta  occ. eigenvalues --  -38.45208 -38.44349 -38.44178 -38.43585 -38.43509
  Beta  occ. eigenvalues --  -38.43397 -38.43341  -2.20995  -2.20195  -2.20047
  Beta  occ. eigenvalues --   -2.19487  -2.19390  -2.19231  -2.19158  -1.14671
  Beta  occ. eigenvalues --   -1.14650  -1.14624  -1.13897  -1.13870  -1.13856
  Beta  occ. eigenvalues --   -1.13812  -1.13720  -1.13654  -1.13237  -1.13193
  Beta  occ. eigenvalues --   -1.13138  -1.13039  -1.13019  -1.12986  -1.12921
  Beta  occ. eigenvalues --   -1.12910  -1.12861  -1.12846  -1.12836  -1.12770
  Beta  occ. eigenvalues --   -0.17907  -0.14053  -0.10783
  Beta virt. eigenvalues --   -0.07401  -0.06603  -0.05164  -0.04032  -0.03005
  Beta virt. eigenvalues --   -0.02414  -0.01919  -0.01568  -0.00900  -0.00319
  Beta virt. eigenvalues --   -0.00127   0.00212   0.00303   0.00486   0.00745

 Mulliken charges and spin densities:
               1          2
     1  Na  -0.488242   0.030718
     2  Na   1.117099   0.118818
     3  Na   0.038820   0.136612
     4  Na   0.082496   0.177535
     5  Na  -1.151911   0.354348
     6  Na   0.575207  -0.082561
     7  Na  -0.173470   0.264530
 Sum of Mulliken charges =  -0.00000   1.00000

 Dipole moment (field-independent basis, Debye):
    X=              1.0243    Y=             -0.1341    Z=              0.0987  Tot=              1.0378
 Quadrupole moment (field-independent basis, Debye-Ang):
   XX=            -45.5771   YY=            -78.6479   ZZ=            -69.2649
   XY=             -1.2506   XZ=             -1.8897   YZ=             -0.5842

 Normal termination of Gaussian 16 at Tue Dec  5 21:31:18 2023.
