 Gaussian 16, Revision B.01,
 Gaussian 16:  ES64L-G16RevB.01 20-Dec-2017

 -------------------------
 #P B3LYP/6-311+g(d) force
 -------------------------

 -----
 DPGEN
 -----
 Symbolic Z-matrix:
 Charge =  0 Multiplicity = 2

                         Standard orientation:
 ---------------------------------------------------------------------
 Center     Atomic      Atomic             Coordinates (Angstroms)
 Number     Number       Type             X           Y           Z
 ---------------------------------------------------------------------
      1         11           0       -0.078397   -0.004230    1.903228
      2         11           0       -0.592530    2.152654   -0.093026
      3         11           0       -2.845827    0.144598   -0.074187
      4         11           0        0.183117   -0.111785   -1.793836
      5         11           0        2.129829    1.469563    0.030672
      6         11           0        2.080547   -1.563450    0.057458
      7         11           0       -0.876739   -2.087351   -0.030309
 ---------------------------------------------------------------------

 SCF Done:  E(UB3LYP) =  -1136.10779834     A.U. after   18 cycles

 The electronic state is 2-A.
 Alpha  occ. eigenvalues --  -38.43919 -38.43899 -38.43765 -38.43438 -38.43315
 Alpha  occ. eigenvalues --  -38.43129 -38.43097  -2.20072  -2.20030  -2.19735
 Alpha  occ. eigenvalues --   -2.19492  -2.19349  -2.19232  -2.19205  -1.13838
 Alpha  occ. eigenvalues --   -1.13789  -1.13733  -1.13712  -1.13702  -1.13636
 Alpha  occ. eigenvalues --   -1.13446  -1.13436  -1.13361  -1.13307  -1.13199
 Alpha  occ. eigenvalues --   -1.13109  -1.13086  -1.12986  -1.12945  -1.12887
 Alpha  occ. eigenvalues --   -1.12873  -1.12853  -1.12833  -1.12775  -1.12748
 Alpha  occ. eigenvalues --   -0.20989  -0.13655  -0.12827  -0.12001
 Alpha virt. eigenvalues --   -0.05192  -0.04413  -0.04083  -0.03557  -0.03200
 Alpha virt. eigenvalues --   -0.02934  -0.01210  -0.00547  -0.00090   0.00369
 Alpha virt. eigenvalues --    0.00622   0.00662   0.00980   0.01106   0.01139

  Beta  occ. eigenvalues --  -38.43823 -38.43808 -38.43761 -38.43429 -38.43305
  Beta  occ. eigenvalues --  -38.43114 -38.43083  -2.19909  -2.19856  -2.19732
  Beta  occ. eigenvalues --   -2.19480  -2.19337  -2.19212  -2.19186  -1.13744
  Beta  occ. eigenvalues --   -1.13675  -1.13627  -1.13590  -1.13586  -1.13516
  Beta  occ. eigenvalues --   -1.13446  -1.13425  -1.13325  -1.13299  -1.13193
  Beta  occ. eigenvalues --   -1.13078  -1.13054  -1.12947  -1.12927  -1.12874
  Beta  occ. eigenvalues --   -1.12844  -1.12802  -1.12771  -1.12761  -1.12744
  Beta  occ. eigenvalues --   -0.20160  -0.13327  -0.12470
  Beta virt. eigenvalues --   -0.07867  -0.05203  -0.04411  -0.04082  -0.02639
  Beta virt. eigenvalues --   -0.02267  -0.01830  -0.01139  -0.00503   0.00059
  Beta virt. eigenvalues --    0.00393   0.00598   0.00618   0.01023   0.01093

 Mulliken charges and spin densities:
               1          2
     1  Na  -0.353709   0.517109
     2  Na   0.171852   0.078113
     3  Na  -0.068315  -0.083604
     4  Na  -0.240038   0.426038
     5  Na   0.140879   0.002495
     6  Na   0.180536   0.004748
     7  Na   0.168795   0.055102
 Sum of Mulliken charges =  -0.00000   1.00000

 Dipole moment (field-independent basis, Debye):
    X=             -0.1176    Y=             -0.0447    Z=              0.1479  Tot=              0.1942
 Quadrupole moment (field-independent basis, Debye-Ang):
   XX=            -58.5138   YY=            -69.3658   ZZ=            -68.8543
   XY=             -0.3048   XZ=              0.5516   YZ=             -0.1987

 Normal termination of Gaussian 16 at Fri Dec  8 19:00:21 2023.
