 Gaussian 16, Revision B.01,
 Gaussian 16:  ES64L-G16RevB.01 20-Dec-2017

 -------------------------
 #P B3LYP/6-311+g(d) force
 -------------------------

 -----
 DPGEN
 -----
 Symbolic Z-matrix:
 Charge =  0 Multiplicity = 2

                         Standard orientation:
 ---------------------------------------------------------------------
 Center     Atomic      Atomic             Coordinates (Angstroms)
 Number     Number       Type             X           Y           Z
 ---------------------------------------------------------------------
      1         11           0       -1.113387    2.393611    0.062735
      2         11           0       -0.567115   -0.414207    2.477426
      3         11           0        2.469604   -1.755578    0.452708
      4         11           0        0.727951    0.175233   -2.041110
      5         11           0        2.406406    1.925793    0.122759
      6         11           0       -0.812792   -2.275124   -0.781252
      7         11           0       -3.110667   -0.049729   -0.293266
 ---------------------------------------------------------------------

 SCF Done:  E(UB3LYP) =  -1136.13390230     A.U. after   19 cycles

 The electronic state is 2-A.
 Alpha  occ. eigenvalues --  -38.44910 -38.44101 -38.43843 -38.43830 -38.43492
 Alpha  occ. eigenvalues --  -38.43036 -38.43020  -2.20725  -2.20022  -2.19689
 Alpha  occ. eigenvalues --   -2.19655  -2.19321  -2.18921  -2.18898  -1.14374
 Alpha  occ. eigenvalues --   -1.14357  -1.14340  -1.13708  -1.13673  -1.13636
 Alpha  occ. eigenvalues --   -1.13370  -1.13361  -1.13333  -1.13327  -1.13312
 Alpha  occ. eigenvalues --   -1.13300  -1.13002  -1.12981  -1.12953  -1.12626
 Alpha  occ. eigenvalues --   -1.12582  -1.12569  -1.12565  -1.12542  -1.12525
 Alpha  occ. eigenvalues --   -0.18460  -0.12943  -0.12019  -0.11786
 Alpha virt. eigenvalues --   -0.05518  -0.05090  -0.04212  -0.03675  -0.03461
 Alpha virt. eigenvalues --   -0.03165  -0.01293  -0.00821  -0.00285   0.00062
 Alpha virt. eigenvalues --    0.00072   0.00399   0.00608   0.00684   0.00926

  Beta  occ. eigenvalues --  -38.44811 -38.44037 -38.43836 -38.43828 -38.43491
  Beta  occ. eigenvalues --  -38.43032 -38.43000  -2.20542  -2.19906  -2.19689
  Beta  occ. eigenvalues --   -2.19644  -2.19322  -2.18893  -2.18887  -1.14251
  Beta  occ. eigenvalues --   -1.14232  -1.14207  -1.13631  -1.13585  -1.13557
  Beta  occ. eigenvalues --   -1.13373  -1.13360  -1.13315  -1.13312  -1.13298
  Beta  occ. eigenvalues --   -1.13291  -1.12996  -1.12976  -1.12956  -1.12593
  Beta  occ. eigenvalues --   -1.12578  -1.12552  -1.12534  -1.12521  -1.12513
  Beta  occ. eigenvalues --   -0.17683  -0.12788  -0.11813
  Beta virt. eigenvalues --   -0.07802  -0.05246  -0.05097  -0.03971  -0.03136
  Beta virt. eigenvalues --   -0.02564  -0.02313  -0.01198  -0.00765  -0.00044
  Beta virt. eigenvalues --    0.00038   0.00055   0.00441   0.00834   0.00883

 Mulliken charges and spin densities:
               1          2
     1  Na  -0.062918   0.014579
     2  Na  -0.530615   0.572375
     3  Na  -0.014777   0.069549
     4  Na   0.002805   0.272555
     5  Na   0.151165   0.017084
     6  Na   0.219142   0.094087
     7  Na   0.235198  -0.040228
 Sum of Mulliken charges =  -0.00000   1.00000

 Dipole moment (field-independent basis, Debye):
    X=              0.1540    Y=             -0.1230    Z=              0.4357  Tot=              0.4782
 Quadrupole moment (field-independent basis, Debye-Ang):
   XX=            -59.7210   YY=            -70.7595   ZZ=            -66.4496
   XY=             -0.1159   XZ=              1.9014   YZ=              0.0379

 Normal termination of Gaussian 16 at Thu Dec  7 12:32:27 2023.
