 Gaussian 16, Revision B.01,
 Gaussian 16:  ES64L-G16RevB.01 20-Dec-2017

 -------------------------
 #P B3LYP/6-311+g(d) force
 -------------------------

 -----
 DPGEN
 -----
 Symbolic Z-matrix:
 Charge =  0 Multiplicity = 2

                         Standard orientation:
 ---------------------------------------------------------------------
 Center     Atomic      Atomic             Coordinates (Angstroms)
 Number     Number       Type             X           Y           Z
 ---------------------------------------------------------------------
      1         11           0       -0.588871   -2.350761   -0.134697
      2         11           0        0.072107   -0.019383    1.898044
      3         11           0        2.788761   -1.680758   -0.183889
      4         11           0       -1.480647    2.478933   -0.212781
      5         11           0        0.201059    0.318220   -1.743981
      6         11           0       -3.255360   -0.738198    0.094520
      7         11           0        2.262951    1.991947    0.282784
 ---------------------------------------------------------------------

 SCF Done:  E(UB3LYP) =  -1136.13524870     A.U. after   19 cycles

 The electronic state is 2-A.
 Alpha  occ. eigenvalues --  -38.44192 -38.43903 -38.43883 -38.43500 -38.43491
 Alpha  occ. eigenvalues --  -38.43250 -38.42899  -2.20020  -2.19728  -2.19722
 Alpha  occ. eigenvalues --   -2.19441  -2.19343  -2.19236  -2.18853  -1.13714
 Alpha  occ. eigenvalues --   -1.13675  -1.13654  -1.13415  -1.13410  -1.13391
 Alpha  occ. eigenvalues --   -1.13383  -1.13371  -1.13339  -1.13140  -1.13091
 Alpha  occ. eigenvalues --   -1.13075  -1.13044  -1.12999  -1.12955  -1.12921
 Alpha  occ. eigenvalues --   -1.12863  -1.12832  -1.12545  -1.12518  -1.12462
 Alpha  occ. eigenvalues --   -0.18907  -0.13092  -0.12390  -0.10786
 Alpha virt. eigenvalues --   -0.05771  -0.05414  -0.04144  -0.03172  -0.02852
 Alpha virt. eigenvalues --   -0.02504  -0.01758  -0.01259  -0.00301  -0.00022
 Alpha virt. eigenvalues --    0.00020   0.00330   0.00738   0.00858   0.00947

  Beta  occ. eigenvalues --  -38.44193 -38.43901 -38.43873 -38.43483 -38.43414
  Beta  occ. eigenvalues --  -38.43175 -38.42887  -2.20024  -2.19722  -2.19713
  Beta  occ. eigenvalues --   -2.19333  -2.19283  -2.19099  -2.18837  -1.13719
  Beta  occ. eigenvalues --   -1.13663  -1.13655  -1.13407  -1.13385  -1.13376
  Beta  occ. eigenvalues --   -1.13370  -1.13365  -1.13335  -1.13066  -1.13032
  Beta  occ. eigenvalues --   -1.12989  -1.12958  -1.12949  -1.12926  -1.12831
  Beta  occ. eigenvalues --   -1.12770  -1.12737  -1.12535  -1.12473  -1.12448
  Beta  occ. eigenvalues --   -0.18162  -0.12871  -0.12113
  Beta virt. eigenvalues --   -0.06854  -0.05718  -0.05411  -0.04141  -0.02409
  Beta virt. eigenvalues --   -0.02054  -0.01666  -0.01437  -0.01195  -0.00352
  Beta virt. eigenvalues --   -0.00016   0.00110   0.00350   0.00783   0.00858

 Mulliken charges and spin densities:
               1          2
     1  Na   0.274109  -0.003139
     2  Na  -0.466146   0.721169
     3  Na   0.169350  -0.075442
     4  Na   0.213999  -0.103292
     5  Na  -0.353936   0.618226
     6  Na   0.013594  -0.064559
     7  Na   0.149030  -0.092963
 Sum of Mulliken charges =  -0.00000   1.00000

 Dipole moment (field-independent basis, Debye):
    X=              0.1114    Y=              0.2271    Z=              0.1165  Tot=              0.2785
 Quadrupole moment (field-independent basis, Debye-Ang):
   XX=            -52.4985   YY=            -65.7530   ZZ=            -74.2700
   XY=             -0.5377   XZ=             -0.0424   YZ=              0.7980

 Normal termination of Gaussian 16 at Tue Dec  5 20:33:43 2023.
