 Gaussian 16, Revision B.01,
 Gaussian 16:  ES64L-G16RevB.01 20-Dec-2017

 -------------------------
 #P B3LYP/6-311+g(d) force
 -------------------------

 -----
 DPGEN
 -----
 Symbolic Z-matrix:
 Charge =  0 Multiplicity = 2

                         Standard orientation:
 ---------------------------------------------------------------------
 Center     Atomic      Atomic             Coordinates (Angstroms)
 Number     Number       Type             X           Y           Z
 ---------------------------------------------------------------------
      1         11           0        3.747853    1.602111    1.060661
      2         11           0        4.141952   -1.227528   -0.370939
      3         11           0       -2.122992   -2.806205    1.293278
      4         11           0       -4.400412   -0.356070   -0.022480
      5         11           0        0.730571    2.940087   -0.252892
      6         11           0       -2.949221    2.752247   -0.486125
      7         11           0        0.852249   -2.904641   -1.221502
 ---------------------------------------------------------------------

 SCF Done:  E(UB3LYP) =  -1136.10411074     A.U. after   27 cycles

 The electronic state is 2-A.
 Alpha  occ. eigenvalues --  -38.45610 -38.45257 -38.45005 -38.44614 -38.44200
 Alpha  occ. eigenvalues --  -38.44037 -38.43836  -2.21386  -2.21009  -2.20739
 Alpha  occ. eigenvalues --   -2.20394  -2.19968  -2.19806  -2.19665  -1.15066
 Alpha  occ. eigenvalues --   -1.15052  -1.15025  -1.14694  -1.14684  -1.14620
 Alpha  occ. eigenvalues --   -1.14425  -1.14407  -1.14378  -1.14066  -1.14051
 Alpha  occ. eigenvalues --   -1.14022  -1.13646  -1.13633  -1.13607  -1.13467
 Alpha  occ. eigenvalues --   -1.13457  -1.13423  -1.13325  -1.13310  -1.13300
 Alpha  occ. eigenvalues --   -0.15560  -0.13999  -0.12909  -0.10560
 Alpha virt. eigenvalues --   -0.07932  -0.05098  -0.04588  -0.03541  -0.03396
 Alpha virt. eigenvalues --   -0.02487  -0.02322  -0.01516  -0.01188  -0.00995
 Alpha virt. eigenvalues --   -0.00773  -0.00276  -0.00020   0.00397   0.00596

  Beta  occ. eigenvalues --  -38.45589 -38.45223 -38.45010 -38.44582 -38.44193
  Beta  occ. eigenvalues --  -38.43971 -38.43789  -2.21353  -2.20950  -2.20752
  Beta  occ. eigenvalues --   -2.20334  -2.19957  -2.19682  -2.19578  -1.15047
  Beta  occ. eigenvalues --   -1.15034  -1.14961  -1.14656  -1.14647  -1.14555
  Beta  occ. eigenvalues --   -1.14437  -1.14419  -1.14367  -1.14025  -1.14013
  Beta  occ. eigenvalues --   -1.13980  -1.13640  -1.13628  -1.13584  -1.13383
  Beta  occ. eigenvalues --   -1.13375  -1.13337  -1.13263  -1.13251  -1.13244
  Beta  occ. eigenvalues --   -0.15003  -0.13522  -0.12183
  Beta virt. eigenvalues --   -0.08132  -0.07339  -0.04640  -0.04068  -0.03369
  Beta virt. eigenvalues --   -0.03026  -0.02368  -0.02121  -0.01338  -0.00948
  Beta virt. eigenvalues --   -0.00861  -0.00486  -0.00095   0.00205   0.00467

 Mulliken charges and spin densities:
               1          2
     1  Na   0.151822   0.227134
     2  Na   0.199926   0.130864
     3  Na   0.020477  -0.037261
     4  Na  -0.149366   0.196682
     5  Na  -0.295053   0.219884
     6  Na   0.224599  -0.050009
     7  Na  -0.152405   0.312707
 Sum of Mulliken charges =  -0.00000   1.00000

 Dipole moment (field-independent basis, Debye):
    X=              0.2902    Y=             -0.0437    Z=              0.2177  Tot=              0.3654
 Quadrupole moment (field-independent basis, Debye-Ang):
   XX=            -59.3538   YY=            -71.2166   ZZ=            -70.2840
   XY=             -2.5585   XZ=              0.5987   YZ=             -1.4367

 Normal termination of Gaussian 16 at Sun Dec  3 14:42:15 2023.
