 Gaussian 16, Revision B.01,
 Gaussian 16:  ES64L-G16RevB.01 20-Dec-2017

 -------------------------
 #P B3LYP/6-311+g(d) force
 -------------------------

 -----
 DPGEN
 -----
 Symbolic Z-matrix:
 Charge =  0 Multiplicity = 2

                         Standard orientation:
 ---------------------------------------------------------------------
 Center     Atomic      Atomic             Coordinates (Angstroms)
 Number     Number       Type             X           Y           Z
 ---------------------------------------------------------------------
      1         11           0        3.024123    0.596198   -0.369620
      2         11           0       -0.469943    0.176846    2.111599
      3         11           0        0.028825   -0.122273   -1.639060
      4         11           0        1.907072   -2.306537    0.004439
      5         11           0       -3.362588    0.918484   -0.731278
      6         11           0       -1.707554   -2.335703    0.293761
      7         11           0        0.580065    3.072983    0.330158
 ---------------------------------------------------------------------

 SCF Done:  E(UB3LYP) =  -1136.13377495     A.U. after   20 cycles

 The electronic state is 2-A.
 Alpha  occ. eigenvalues --  -38.44544 -38.43842 -38.43791 -38.43647 -38.43621
 Alpha  occ. eigenvalues --  -38.43430 -38.43315  -2.20315  -2.19707  -2.19659
 Alpha  occ. eigenvalues --   -2.19583  -2.19475  -2.19229  -2.19188  -1.13985
 Alpha  occ. eigenvalues --   -1.13960  -1.13945  -1.13380  -1.13370  -1.13344
 Alpha  occ. eigenvalues --   -1.13340  -1.13330  -1.13287  -1.13279  -1.13228
 Alpha  occ. eigenvalues --   -1.13200  -1.13150  -1.13137  -1.13088  -1.12901
 Alpha  occ. eigenvalues --   -1.12887  -1.12872  -1.12860  -1.12852  -1.12816
 Alpha  occ. eigenvalues --   -0.18304  -0.13083  -0.12179  -0.10917
 Alpha virt. eigenvalues --   -0.05948  -0.05034  -0.04694  -0.03286  -0.02922
 Alpha virt. eigenvalues --   -0.02609  -0.01811  -0.01107  -0.00475  -0.00287
 Alpha virt. eigenvalues --   -0.00068   0.00310   0.00727   0.00838   0.00854

  Beta  occ. eigenvalues --  -38.44514 -38.43786 -38.43751 -38.43610 -38.43597
  Beta  occ. eigenvalues --  -38.43425 -38.43315  -2.20260  -2.19653  -2.19538
  Beta  occ. eigenvalues --   -2.19491  -2.19460  -2.19223  -2.19191  -1.13935
  Beta  occ. eigenvalues --   -1.13923  -1.13912  -1.13362  -1.13330  -1.13277
  Beta  occ. eigenvalues --   -1.13272  -1.13229  -1.13218  -1.13209  -1.13174
  Beta  occ. eigenvalues --   -1.13137  -1.13118  -1.13109  -1.13072  -1.12887
  Beta  occ. eigenvalues --   -1.12877  -1.12872  -1.12863  -1.12849  -1.12803
  Beta  occ. eigenvalues --   -0.17640  -0.12772  -0.11943
  Beta virt. eigenvalues --   -0.07121  -0.05791  -0.04960  -0.04613  -0.02645
  Beta virt. eigenvalues --   -0.02219  -0.01704  -0.01581  -0.01025  -0.00473
  Beta virt. eigenvalues --   -0.00313   0.00080   0.00369   0.00800   0.00866

 Mulliken charges and spin densities:
               1          2
     1  Na   0.183056   0.000883
     2  Na  -0.364499   0.515559
     3  Na  -0.201483   0.321037
     4  Na   0.086437   0.006542
     5  Na  -0.011518   0.093131
     6  Na   0.296674   0.087201
     7  Na   0.011331  -0.024352
 Sum of Mulliken charges =  -0.00000   1.00000

 Dipole moment (field-independent basis, Debye):
    X=             -0.3748    Y=              0.0705    Z=              0.0723  Tot=              0.3882
 Quadrupole moment (field-independent basis, Debye-Ang):
   XX=            -57.1569   YY=            -63.9593   ZZ=            -73.2250
   XY=             -0.5866   XZ=              0.8503   YZ=             -1.1427

 Normal termination of Gaussian 16 at Thu Dec  7 17:38:24 2023.
