 Gaussian 16, Revision B.01,
 Gaussian 16:  ES64L-G16RevB.01 20-Dec-2017

 -------------------------
 #P B3LYP/6-311+g(d) force
 -------------------------

 -----
 DPGEN
 -----
 Symbolic Z-matrix:
 Charge =  0 Multiplicity = 2

                         Standard orientation:
 ---------------------------------------------------------------------
 Center     Atomic      Atomic             Coordinates (Angstroms)
 Number     Number       Type             X           Y           Z
 ---------------------------------------------------------------------
      1         11           0        1.271287    3.352895   -0.586999
      2         11           0        3.925559   -2.021960   -0.091196
      3         11           0       -2.533201    2.487467   -0.042610
      4         11           0       -5.061647    0.088859    0.127347
      5         11           0       -2.655393   -2.425334    0.307814
      6         11           0        0.988494   -3.253643   -0.421641
      7         11           0        4.064900    1.771717    0.707285
 ---------------------------------------------------------------------

 SCF Done:  E(UB3LYP) =  -1136.10467660     A.U. after   31 cycles

 The electronic state is 2-A.
 Alpha  occ. eigenvalues --  -38.45439 -38.45066 -38.44711 -38.44531 -38.44509
 Alpha  occ. eigenvalues --  -38.44143 -38.44084  -2.21203  -2.20834  -2.20454
 Alpha  occ. eigenvalues --   -2.20309  -2.20284  -2.19947  -2.19876  -1.14883
 Alpha  occ. eigenvalues --   -1.14862  -1.14860  -1.14499  -1.14481  -1.14468
 Alpha  occ. eigenvalues --   -1.14138  -1.14131  -1.14091  -1.13986  -1.13984
 Alpha  occ. eigenvalues --   -1.13968  -1.13950  -1.13939  -1.13894  -1.13600
 Alpha  occ. eigenvalues --   -1.13592  -1.13580  -1.13534  -1.13527  -1.13491
 Alpha  occ. eigenvalues --   -0.15436  -0.14107  -0.13174  -0.10500
 Alpha virt. eigenvalues --   -0.08231  -0.05000  -0.04600  -0.03589  -0.03379
 Alpha virt. eigenvalues --   -0.02620  -0.02347  -0.01966  -0.01025  -0.00909
 Alpha virt. eigenvalues --   -0.00769  -0.00178  -0.00034   0.00234   0.00506

  Beta  occ. eigenvalues --  -38.45451 -38.45023 -38.44719 -38.44521 -38.44446
  Beta  occ. eigenvalues --  -38.44100 -38.44008  -2.21229  -2.20756  -2.20474
  Beta  occ. eigenvalues --   -2.20297  -2.20166  -2.19869  -2.19735  -1.14906
  Beta  occ. eigenvalues --   -1.14883  -1.14845  -1.14447  -1.14431  -1.14406
  Beta  occ. eigenvalues --   -1.14154  -1.14148  -1.14079  -1.13982  -1.13981
  Beta  occ. eigenvalues --   -1.13919  -1.13869  -1.13857  -1.13821  -1.13548
  Beta  occ. eigenvalues --   -1.13540  -1.13520  -1.13438  -1.13430  -1.13400
  Beta  occ. eigenvalues --   -0.14903  -0.13502  -0.12468
  Beta virt. eigenvalues --   -0.08288  -0.07375  -0.04688  -0.04024  -0.03418
  Beta virt. eigenvalues --   -0.03096  -0.02464  -0.02045  -0.01778  -0.00932
  Beta virt. eigenvalues --   -0.00683  -0.00396  -0.00052   0.00037   0.00421

 Mulliken charges and spin densities:
               1          2
     1  Na  -0.291608  -0.029086
     2  Na  -0.036332   0.168750
     3  Na  -0.210710   0.300012
     4  Na   0.582385  -0.024508
     5  Na  -0.287874   0.339273
     6  Na   0.202414   0.014615
     7  Na   0.041726   0.230944
 Sum of Mulliken charges =  -0.00000   1.00000

 Dipole moment (field-independent basis, Debye):
    X=             -0.3445    Y=              0.4367    Z=              0.0893  Tot=              0.5633
 Quadrupole moment (field-independent basis, Debye-Ang):
   XX=            -49.7551   YY=            -75.4853   ZZ=            -73.2253
   XY=              1.0288   XZ=              2.0672   YZ=             -0.3930

 Normal termination of Gaussian 16 at Sun Dec  3 11:49:17 2023.
