 Gaussian 16, Revision B.01,
 Gaussian 16:  ES64L-G16RevB.01 20-Dec-2017

 -------------------------
 #P B3LYP/6-311+g(d) force
 -------------------------

 -----
 DPGEN
 -----
 Symbolic Z-matrix:
 Charge =  0 Multiplicity = 2

                         Standard orientation:
 ---------------------------------------------------------------------
 Center     Atomic      Atomic             Coordinates (Angstroms)
 Number     Number       Type             X           Y           Z
 ---------------------------------------------------------------------
      1         11           0       -1.128433    2.858345   -0.358595
      2         11           0        2.074334   -1.751292   -1.845307
      3         11           0        1.650081   -1.684412    1.775161
      4         11           0       -4.029184   -0.504713   -0.502826
      5         11           0        0.623872    1.278467    2.422814
      6         11           0       -1.354634   -2.055205   -0.052143
      7         11           0        2.163964    1.858810   -1.439103
 ---------------------------------------------------------------------

 SCF Done:  E(UB3LYP) =  -1136.11997089     A.U. after   20 cycles

 The electronic state is 2-A.
 Alpha  occ. eigenvalues --  -38.45090 -38.44759 -38.44636 -38.44270 -38.44076
 Alpha  occ. eigenvalues --  -38.43435 -38.43238  -2.20914  -2.20537  -2.20430
 Alpha  occ. eigenvalues --   -2.20120  -2.19835  -2.19219  -2.19062  -1.14596
 Alpha  occ. eigenvalues --   -1.14564  -1.14512  -1.14219  -1.14190  -1.14154
 Alpha  occ. eigenvalues --   -1.14097  -1.14076  -1.14047  -1.13807  -1.13772
 Alpha  occ. eigenvalues --   -1.13728  -1.13523  -1.13504  -1.13456  -1.12936
 Alpha  occ. eigenvalues --   -1.12881  -1.12858  -1.12752  -1.12733  -1.12659
 Alpha  occ. eigenvalues --   -0.17179  -0.12497  -0.12339  -0.12202
 Alpha virt. eigenvalues --   -0.05964  -0.05307  -0.04834  -0.03659  -0.03485
 Alpha virt. eigenvalues --   -0.02943  -0.01257  -0.01001  -0.00715  -0.00574
 Alpha virt. eigenvalues --   -0.00123   0.00133   0.00380   0.00409   0.00628

  Beta  occ. eigenvalues --  -38.45009 -38.44715 -38.44586 -38.44225 -38.44076
  Beta  occ. eigenvalues --  -38.43440 -38.43237  -2.20766  -2.20456  -2.20337
  Beta  occ. eigenvalues --   -2.20040  -2.19835  -2.19229  -2.19060  -1.14488
  Beta  occ. eigenvalues --   -1.14466  -1.14401  -1.14159  -1.14138  -1.14091
  Beta  occ. eigenvalues --   -1.14033  -1.14012  -1.13982  -1.13742  -1.13721
  Beta  occ. eigenvalues --   -1.13658  -1.13516  -1.13506  -1.13459  -1.12943
  Beta  occ. eigenvalues --   -1.12887  -1.12865  -1.12739  -1.12732  -1.12667
  Beta  occ. eigenvalues --   -0.16376  -0.12308  -0.12047
  Beta virt. eigenvalues --   -0.08383  -0.05637  -0.04943  -0.04421  -0.03494
  Beta virt. eigenvalues --   -0.02781  -0.02409  -0.01190  -0.00953  -0.00490
  Beta virt. eigenvalues --   -0.00276  -0.00001   0.00203   0.00484   0.00621

 Mulliken charges and spin densities:
               1          2
     1  Na  -0.089873   0.123422
     2  Na   0.144489   0.322666
     3  Na   0.551942   0.001895
     4  Na   0.375160  -0.151224
     5  Na  -0.144513   0.393176
     6  Na  -0.794886   0.169682
     7  Na  -0.042318   0.140382
 Sum of Mulliken charges =  -0.00000   1.00000

 Dipole moment (field-independent basis, Debye):
    X=              1.0512    Y=              0.4851    Z=             -0.0202  Tot=              1.1579
 Quadrupole moment (field-independent basis, Debye-Ang):
   XX=            -65.3464   YY=            -69.0612   ZZ=            -64.6531
   XY=             -4.3535   XZ=             -0.8623   YZ=              0.2386

 Normal termination of Gaussian 16 at Sun Dec  3 20:49:28 2023.
