 Gaussian 16, Revision B.01,
 Gaussian 16:  ES64L-G16RevB.01 20-Dec-2017

 -------------------------
 #P B3LYP/6-311+g(d) force
 -------------------------

 -----
 DPGEN
 -----
 Symbolic Z-matrix:
 Charge =  0 Multiplicity = 2

                         Standard orientation:
 ---------------------------------------------------------------------
 Center     Atomic      Atomic             Coordinates (Angstroms)
 Number     Number       Type             X           Y           Z
 ---------------------------------------------------------------------
      1         11           0        2.549845    1.245421   -0.025562
      2         11           0       -0.136591    0.233403    1.975700
      3         11           0        2.220566   -2.089855    0.111780
      4         11           0       -0.518147    2.882429   -0.190174
      5         11           0       -2.902113    0.153395    0.034660
      6         11           0        0.123959    0.131646   -1.683895
      7         11           0       -1.337518   -2.556440   -0.222509
 ---------------------------------------------------------------------

 SCF Done:  E(UB3LYP) =  -1136.13980208     A.U. after   19 cycles

 The electronic state is 2-A.
 Alpha  occ. eigenvalues --  -38.43571 -38.43551 -38.43525 -38.43473 -38.43426
 Alpha  occ. eigenvalues --  -38.43391 -38.43137  -2.19474  -2.19445  -2.19404
 Alpha  occ. eigenvalues --   -2.19365  -2.19302  -2.19277  -2.19156  -1.13206
 Alpha  occ. eigenvalues --   -1.13173  -1.13148  -1.13123  -1.13116  -1.13100
 Alpha  occ. eigenvalues --   -1.13061  -1.13039  -1.13033  -1.13020  -1.13011
 Alpha  occ. eigenvalues --   -1.13004  -1.12990  -1.12975  -1.12948  -1.12926
 Alpha  occ. eigenvalues --   -1.12919  -1.12899  -1.12818  -1.12778  -1.12758
 Alpha  occ. eigenvalues --   -0.19125  -0.13073  -0.12693  -0.10903
 Alpha virt. eigenvalues --   -0.05175  -0.05071  -0.04872  -0.03194  -0.02963
 Alpha virt. eigenvalues --   -0.02589  -0.01214  -0.01146  -0.00189  -0.00141
 Alpha virt. eigenvalues --    0.00003   0.00375   0.00895   0.00923   0.00937

  Beta  occ. eigenvalues --  -38.43564 -38.43545 -38.43523 -38.43421 -38.43384
  Beta  occ. eigenvalues --  -38.43381 -38.43065  -2.19465  -2.19438  -2.19365
  Beta  occ. eigenvalues --   -2.19296  -2.19267  -2.19235  -2.19026  -1.13194
  Beta  occ. eigenvalues --   -1.13168  -1.13115  -1.13108  -1.13100  -1.13075
  Beta  occ. eigenvalues --   -1.13031  -1.13012  -1.13004  -1.12983  -1.12965
  Beta  occ. eigenvalues --   -1.12950  -1.12935  -1.12920  -1.12918  -1.12900
  Beta  occ. eigenvalues --   -1.12897  -1.12875  -1.12734  -1.12686  -1.12667
  Beta  occ. eigenvalues --   -0.18376  -0.12810  -0.12444
  Beta virt. eigenvalues --   -0.06951  -0.05181  -0.05058  -0.04831  -0.02350
  Beta virt. eigenvalues --   -0.02178  -0.01509  -0.01141  -0.01075  -0.00237
  Beta virt. eigenvalues --   -0.00206   0.00132   0.00392   0.00913   0.00926

 Mulliken charges and spin densities:
               1          2
     1  Na   0.269399  -0.055823
     2  Na  -0.533400   0.762421
     3  Na  -0.012417  -0.066306
     4  Na   0.324192  -0.080011
     5  Na   0.253471  -0.041439
     6  Na  -0.355156   0.546674
     7  Na   0.053909  -0.065516
 Sum of Mulliken charges =  -0.00000   1.00000

 Dipole moment (field-independent basis, Debye):
    X=              0.0346    Y=              0.0474    Z=              0.1518  Tot=              0.1628
 Quadrupole moment (field-independent basis, Debye-Ang):
   XX=            -59.8013   YY=            -60.5426   ZZ=            -73.6318
   XY=             -0.5941   XZ=              0.5826   YZ=             -0.2396

 Normal termination of Gaussian 16 at Fri Dec  8 06:43:04 2023.
