 Gaussian 16, Revision B.01,
 Gaussian 16:  ES64L-G16RevB.01 20-Dec-2017

 -------------------------
 #P B3LYP/6-311+g(d) force
 -------------------------

 -----
 DPGEN
 -----
 Symbolic Z-matrix:
 Charge =  0 Multiplicity = 2

                         Standard orientation:
 ---------------------------------------------------------------------
 Center     Atomic      Atomic             Coordinates (Angstroms)
 Number     Number       Type             X           Y           Z
 ---------------------------------------------------------------------
      1         11           0        0.433771    0.149221   -1.406055
      2         11           0        2.682200   -1.529828    0.473127
      3         11           0       -3.280092   -0.859404    0.317741
      4         11           0        2.945560    1.759901   -0.163798
      5         11           0       -0.251989    0.422882    2.029094
      6         11           0       -2.022636    2.525812   -0.490372
      7         11           0       -0.506816   -2.468584   -0.759736
 ---------------------------------------------------------------------

 SCF Done:  E(UB3LYP) =  -1136.12526858     A.U. after   22 cycles

 The electronic state is 2-A.
 Alpha  occ. eigenvalues --  -38.44889 -38.44461 -38.44176 -38.43941 -38.43834
 Alpha  occ. eigenvalues --  -38.43145 -38.42672  -2.20685  -2.20278  -2.20029
 Alpha  occ. eigenvalues --   -2.19788  -2.19624  -2.19179  -2.18586  -1.14361
 Alpha  occ. eigenvalues --   -1.14346  -1.14319  -1.13969  -1.13934  -1.13919
 Alpha  occ. eigenvalues --   -1.13698  -1.13693  -1.13661  -1.13475  -1.13419
 Alpha  occ. eigenvalues --   -1.13398  -1.13302  -1.13279  -1.13262  -1.12957
 Alpha  occ. eigenvalues --   -1.12839  -1.12775  -1.12283  -1.12208  -1.12191
 Alpha  occ. eigenvalues --   -0.18435  -0.13524  -0.11753  -0.10578
 Alpha virt. eigenvalues --   -0.06447  -0.05691  -0.03896  -0.03475  -0.02619
 Alpha virt. eigenvalues --   -0.02340  -0.02105  -0.01363  -0.00594  -0.00189
 Alpha virt. eigenvalues --    0.00034   0.00299   0.00620   0.00672   0.00746

  Beta  occ. eigenvalues --  -38.44886 -38.44460 -38.44166 -38.43859 -38.43826
  Beta  occ. eigenvalues --  -38.43084 -38.42655  -2.20682  -2.20278  -2.20012
  Beta  occ. eigenvalues --   -2.19638  -2.19611  -2.19069  -2.18558  -1.14349
  Beta  occ. eigenvalues --   -1.14337  -1.14321  -1.13964  -1.13927  -1.13915
  Beta  occ. eigenvalues --   -1.13689  -1.13667  -1.13646  -1.13374  -1.13314
  Beta  occ. eigenvalues --   -1.13292  -1.13281  -1.13268  -1.13249  -1.12878
  Beta  occ. eigenvalues --   -1.12751  -1.12698  -1.12252  -1.12176  -1.12171
  Beta  occ. eigenvalues --   -0.17736  -0.13341  -0.11503
  Beta virt. eigenvalues --   -0.06748  -0.06344  -0.05592  -0.03835  -0.02783
  Beta virt. eigenvalues --   -0.02060  -0.01878  -0.01427  -0.01169  -0.00631
  Beta virt. eigenvalues --   -0.00105   0.00127   0.00332   0.00690   0.00753

 Mulliken charges and spin densities:
               1          2
     1  Na   0.084100   0.066441
     2  Na   0.085884   0.203206
     3  Na   0.067535   0.046850
     4  Na   0.071701   0.015865
     5  Na  -0.348248   0.575332
     6  Na  -0.084741   0.007769
     7  Na   0.123768   0.084538
 Sum of Mulliken charges =  -0.00000   1.00000

 Dipole moment (field-independent basis, Debye):
    X=              0.0271    Y=              0.2827    Z=              0.4592  Tot=              0.5399
 Quadrupole moment (field-independent basis, Debye-Ang):
   XX=            -49.5811   YY=            -66.9397   ZZ=            -75.3080
   XY=              0.8885   XZ=              0.9974   YZ=             -1.6963

 Normal termination of Gaussian 16 at Thu Dec  7 03:21:36 2023.
