 Gaussian 16, Revision B.01,
 Gaussian 16:  ES64L-G16RevB.01 20-Dec-2017

 -------------------------
 #P B3LYP/6-311+g(d) force
 -------------------------

 -----
 DPGEN
 -----
 Symbolic Z-matrix:
 Charge =  0 Multiplicity = 2

                         Standard orientation:
 ---------------------------------------------------------------------
 Center     Atomic      Atomic             Coordinates (Angstroms)
 Number     Number       Type             X           Y           Z
 ---------------------------------------------------------------------
      1         11           0       -0.178361    0.663533    1.781466
      2         11           0        0.380260    2.336008   -1.391988
      3         11           0        2.794196    0.745956    0.553428
      4         11           0        4.800968   -1.690143   -0.008739
      5         11           0        1.194004   -1.109279   -0.990813
      6         11           0       -3.231983    0.449523    0.337104
      7         11           0       -5.759084   -1.395598   -0.280458
 ---------------------------------------------------------------------

 SCF Done:  E(UB3LYP) =  -1136.10933555     A.U. after   24 cycles

 The electronic state is 2-A.
 Alpha  occ. eigenvalues --  -38.46402 -38.44647 -38.44118 -38.43961 -38.43706
 Alpha  occ. eigenvalues --  -38.43599 -38.43346  -2.22274  -2.20641  -2.19973
 Alpha  occ. eigenvalues --   -2.19763  -2.19523  -2.19484  -2.19168  -1.16031
 Alpha  occ. eigenvalues --   -1.15943  -1.15841  -1.14376  -1.14310  -1.14234
 Alpha  occ. eigenvalues --   -1.13639  -1.13621  -1.13580  -1.13446  -1.13422
 Alpha  occ. eigenvalues --   -1.13393  -1.13196  -1.13181  -1.13152  -1.13141
 Alpha  occ. eigenvalues --   -1.13139  -1.13113  -1.12847  -1.12840  -1.12785
 Alpha  occ. eigenvalues --   -0.18405  -0.13707  -0.11775  -0.10768
 Alpha virt. eigenvalues --   -0.07303  -0.06431  -0.03685  -0.03354  -0.02722
 Alpha virt. eigenvalues --   -0.02639  -0.02076  -0.01782  -0.01161  -0.00922
 Alpha virt. eigenvalues --   -0.00539  -0.00016   0.00146   0.00490   0.00598

  Beta  occ. eigenvalues --  -38.46380 -38.44630 -38.44052 -38.43967 -38.43699
  Beta  occ. eigenvalues --  -38.43519 -38.43343  -2.22239  -2.20615  -2.19851
  Beta  occ. eigenvalues --   -2.19776  -2.19472  -2.19373  -2.19164  -1.16011
  Beta  occ. eigenvalues --   -1.15886  -1.15816  -1.14364  -1.14242  -1.14224
  Beta  occ. eigenvalues --   -1.13557  -1.13527  -1.13498  -1.13454  -1.13427
  Beta  occ. eigenvalues --   -1.13401  -1.13146  -1.13132  -1.13130  -1.13086
  Beta  occ. eigenvalues --   -1.13080  -1.13015  -1.12842  -1.12832  -1.12778
  Beta  occ. eigenvalues --   -0.17711  -0.13549  -0.11581
  Beta virt. eigenvalues --   -0.07080  -0.06883  -0.06152  -0.03469  -0.02965
  Beta virt. eigenvalues --   -0.02569  -0.02237  -0.01730  -0.01299  -0.01010
  Beta virt. eigenvalues --   -0.00640  -0.00309   0.00190   0.00310   0.00569

 Mulliken charges and spin densities:
               1          2
     1  Na   0.020378   0.438622
     2  Na  -0.000690   0.401053
     3  Na   0.555357   0.247444
     4  Na   0.206773  -0.148568
     5  Na  -0.223226   0.203243
     6  Na  -0.761830  -0.145208
     7  Na   0.203237   0.003415
 Sum of Mulliken charges =  -0.00000   1.00000

 Dipole moment (field-independent basis, Debye):
    X=              1.8196    Y=             -0.0729    Z=             -0.5163  Tot=              1.8928
 Quadrupole moment (field-independent basis, Debye-Ang):
   XX=            -65.3636   YY=            -61.9819   ZZ=            -75.1945
   XY=              2.2045   XZ=              3.0452   YZ=              3.2317

 Normal termination of Gaussian 16 at Sat Dec  9 07:05:23 2023.
