 Gaussian 16, Revision B.01,
 Gaussian 16:  ES64L-G16RevB.01 20-Dec-2017

 -------------------------
 #P B3LYP/6-311+g(d) force
 -------------------------

 -----
 DPGEN
 -----
 Symbolic Z-matrix:
 Charge =  0 Multiplicity = 2

                         Standard orientation:
 ---------------------------------------------------------------------
 Center     Atomic      Atomic             Coordinates (Angstroms)
 Number     Number       Type             X           Y           Z
 ---------------------------------------------------------------------
      1         11           0       -1.541231   -1.745914   -1.000275
      2         11           0       -4.836077   -1.080898   -0.467934
      3         11           0       -4.674072    1.792478   -0.589612
      4         11           0       -1.994577    1.554819    0.931831
      5         11           0        0.528836   -0.961367    1.715052
      6         11           0        5.052297   -0.322696    0.502226
      7         11           0        7.464825    0.763578   -1.091288
 ---------------------------------------------------------------------

 SCF Done:  E(UB3LYP) =  -1136.11022695     A.U. after   19 cycles

 The electronic state is 2-A.
 Alpha  occ. eigenvalues --  -38.44852 -38.44786 -38.44616 -38.44173 -38.43903
 Alpha  occ. eigenvalues --  -38.43875 -38.43838  -2.20676  -2.20646  -2.20503
 Alpha  occ. eigenvalues --   -2.20082  -2.19690  -2.19655  -2.19622  -1.14355
 Alpha  occ. eigenvalues --   -1.14344  -1.14331  -1.14307  -1.14284  -1.14259
 Alpha  occ. eigenvalues --   -1.14254  -1.14138  -1.14131  -1.13732  -1.13707
 Alpha  occ. eigenvalues --   -1.13695  -1.13431  -1.13348  -1.13348  -1.13313
 Alpha  occ. eigenvalues --   -1.13310  -1.13291  -1.13288  -1.13259  -1.13227
 Alpha  occ. eigenvalues --   -0.17294  -0.13250  -0.12246  -0.11694
 Alpha virt. eigenvalues --   -0.06597  -0.05486  -0.04496  -0.03745  -0.03220
 Alpha virt. eigenvalues --   -0.02563  -0.02045  -0.01669  -0.01302  -0.01292
 Alpha virt. eigenvalues --   -0.00344  -0.00110   0.00222   0.00328   0.00409

  Beta  occ. eigenvalues --  -38.44791 -38.44709 -38.44573 -38.44151 -38.43903
  Beta  occ. eigenvalues --  -38.43875 -38.43836  -2.20566  -2.20507  -2.20424
  Beta  occ. eigenvalues --   -2.20043  -2.19690  -2.19655  -2.19618  -1.14275
  Beta  occ. eigenvalues --   -1.14272  -1.14237  -1.14221  -1.14204  -1.14191
  Beta  occ. eigenvalues --   -1.14145  -1.14085  -1.14063  -1.13690  -1.13684
  Beta  occ. eigenvalues --   -1.13654  -1.13431  -1.13348  -1.13347  -1.13313
  Beta  occ. eigenvalues --   -1.13310  -1.13288  -1.13278  -1.13259  -1.13227
  Beta  occ. eigenvalues --   -0.16448  -0.13208  -0.12166
  Beta virt. eigenvalues --   -0.07555  -0.06442  -0.05121  -0.04269  -0.03256
  Beta virt. eigenvalues --   -0.02537  -0.02371  -0.01975  -0.01558  -0.01252
  Beta virt. eigenvalues --   -0.00746  -0.00043   0.00004   0.00354   0.00392

 Mulliken charges and spin densities:
               1          2
     1  Na  -0.044134   0.345275
     2  Na   0.042861   0.212461
     3  Na   0.419113  -0.084653
     4  Na  -0.200205   0.484616
     5  Na  -0.319663   0.067677
     6  Na  -0.643585  -0.028087
     7  Na   0.745612   0.002711
 Sum of Mulliken charges =  -0.00000   1.00000

 Dipole moment (field-independent basis, Debye):
    X=             -1.4381    Y=              0.0144    Z=             -0.2888  Tot=              1.4669
 Quadrupole moment (field-independent basis, Debye-Ang):
   XX=            -64.2145   YY=            -69.5730   ZZ=            -67.2903
   XY=              2.3055   XZ=             -2.8964   YZ=             -2.7417

 Normal termination of Gaussian 16 at Tue Nov 28 21:25:45 2023.
