 Gaussian 16, Revision B.01,
 Gaussian 16:  ES64L-G16RevB.01 20-Dec-2017

 -------------------------
 #P B3LYP/6-311+g(d) force
 -------------------------

 -----
 DPGEN
 -----
 Symbolic Z-matrix:
 Charge =  0 Multiplicity = 2

                         Standard orientation:
 ---------------------------------------------------------------------
 Center     Atomic      Atomic             Coordinates (Angstroms)
 Number     Number       Type             X           Y           Z
 ---------------------------------------------------------------------
      1         11           0        0.208351    0.001957    1.859342
      2         11           0        1.411434   -2.408899    0.138199
      3         11           0       -2.516144   -1.696491   -0.084603
      4         11           0        0.660119    2.535722   -0.308672
      5         11           0       -2.749870    1.454745    0.250906
      6         11           0        3.108529    0.455374   -0.039839
      7         11           0       -0.122419   -0.342408   -1.815333
 ---------------------------------------------------------------------

 SCF Done:  E(UB3LYP) =  -1136.13606384     A.U. after   19 cycles

 The electronic state is 2-A.
 Alpha  occ. eigenvalues --  -38.44269 -38.43930 -38.43878 -38.43495 -38.43363
 Alpha  occ. eigenvalues --  -38.43138 -38.42787  -2.20142  -2.19778  -2.19742
 Alpha  occ. eigenvalues --   -2.19451  -2.19334  -2.19039  -2.18689  -1.13813
 Alpha  occ. eigenvalues --   -1.13803  -1.13794  -1.13513  -1.13444  -1.13429
 Alpha  occ. eigenvalues --   -1.13417  -1.13383  -1.13342  -1.13142  -1.13098
 Alpha  occ. eigenvalues --   -1.13063  -1.13013  -1.12978  -1.12953  -1.12716
 Alpha  occ. eigenvalues --   -1.12702  -1.12654  -1.12377  -1.12350  -1.12318
 Alpha  occ. eigenvalues --   -0.19090  -0.13540  -0.12165  -0.10923
 Alpha virt. eigenvalues --   -0.05911  -0.05209  -0.04074  -0.03457  -0.02783
 Alpha virt. eigenvalues --   -0.02565  -0.01734  -0.01006  -0.00184  -0.00085
 Alpha virt. eigenvalues --    0.00001   0.00360   0.00777   0.00900   0.00948

  Beta  occ. eigenvalues --  -38.44265 -38.43926 -38.43874 -38.43414 -38.43283
  Beta  occ. eigenvalues --  -38.43130 -38.42777  -2.20139  -2.19773  -2.19738
  Beta  occ. eigenvalues --   -2.19303  -2.19187  -2.19028  -2.18674  -1.13814
  Beta  occ. eigenvalues --   -1.13797  -1.13772  -1.13513  -1.13425  -1.13419
  Beta  occ. eigenvalues --   -1.13403  -1.13371  -1.13342  -1.13046  -1.12991
  Beta  occ. eigenvalues --   -1.12955  -1.12919  -1.12874  -1.12846  -1.12704
  Beta  occ. eigenvalues --   -1.12665  -1.12644  -1.12369  -1.12320  -1.12302
  Beta  occ. eigenvalues --   -0.18340  -0.13298  -0.11892
  Beta virt. eigenvalues --   -0.06992  -0.05854  -0.05211  -0.04069  -0.02636
  Beta virt. eigenvalues --   -0.01989  -0.01645  -0.01493  -0.00954  -0.00244
  Beta virt. eigenvalues --   -0.00097   0.00116   0.00379   0.00842   0.00884

 Mulliken charges and spin densities:
               1          2
     1  Na  -0.467985   0.675159
     2  Na   0.278445  -0.130235
     3  Na   0.257368  -0.104394
     4  Na   0.120453  -0.029868
     5  Na  -0.005389  -0.021170
     6  Na   0.188703  -0.038751
     7  Na  -0.371596   0.649258
 Sum of Mulliken charges =  -0.00000   1.00000

 Dipole moment (field-independent basis, Debye):
    X=             -0.0448    Y=             -0.0885    Z=              0.0695  Tot=              0.1211
 Quadrupole moment (field-independent basis, Debye-Ang):
   XX=            -53.4842   YY=            -66.8590   ZZ=            -73.4716
   XY=             -0.0956   XZ=             -0.7673   YZ=             -0.4382

 Normal termination of Gaussian 16 at Fri Dec  8 04:21:46 2023.
