 Gaussian 16, Revision B.01,
 Gaussian 16:  ES64L-G16RevB.01 20-Dec-2017

 -------------------------
 #P B3LYP/6-311+g(d) force
 -------------------------

 -----
 DPGEN
 -----
 Symbolic Z-matrix:
 Charge =  0 Multiplicity = 2

                         Standard orientation:
 ---------------------------------------------------------------------
 Center     Atomic      Atomic             Coordinates (Angstroms)
 Number     Number       Type             X           Y           Z
 ---------------------------------------------------------------------
      1         11           0       -3.002720   -3.342037    0.128020
      2         11           0       -2.629126    3.065651   -0.504965
      3         11           0       -3.979882    0.559639    0.577035
      4         11           0        1.535021    3.902891   -0.381838
      5         11           0        3.415579    1.284788    0.817949
      6         11           0        3.860646   -1.878283   -0.112755
      7         11           0        0.800481   -3.592649   -0.523446
 ---------------------------------------------------------------------

 SCF Done:  E(UB3LYP) =  -1136.10440158     A.U. after   18 cycles

 The electronic state is 2-A.
 Alpha  occ. eigenvalues --  -38.45350 -38.44842 -38.44653 -38.44612 -38.44591
 Alpha  occ. eigenvalues --  -38.44588 -38.44118  -2.21071  -2.20618  -2.20449
 Alpha  occ. eigenvalues --   -2.20390  -2.20386  -2.20354  -2.19930  -1.14769
 Alpha  occ. eigenvalues --   -1.14757  -1.14704  -1.14301  -1.14292  -1.14275
 Alpha  occ. eigenvalues --   -1.14218  -1.14111  -1.14091  -1.14042  -1.14037
 Alpha  occ. eigenvalues --   -1.14030  -1.14022  -1.14013  -1.14011  -1.13993
 Alpha  occ. eigenvalues --   -1.13978  -1.13973  -1.13582  -1.13579  -1.13562
 Alpha  occ. eigenvalues --   -0.15288  -0.13974  -0.13371  -0.11148
 Alpha virt. eigenvalues --   -0.07723  -0.04790  -0.04672  -0.03536  -0.03508
 Alpha virt. eigenvalues --   -0.02372  -0.02182  -0.02014  -0.01650  -0.01013
 Alpha virt. eigenvalues --   -0.00713  -0.00266   0.00155   0.00224   0.00358

  Beta  occ. eigenvalues --  -38.45361 -38.44843 -38.44633 -38.44554 -38.44550
  Beta  occ. eigenvalues --  -38.44516 -38.44068  -2.21097  -2.20625  -2.20417
  Beta  occ. eigenvalues --   -2.20330  -2.20274  -2.20215  -2.19837  -1.14791
  Beta  occ. eigenvalues --   -1.14779  -1.14688  -1.14310  -1.14301  -1.14241
  Beta  occ. eigenvalues --   -1.14170  -1.14093  -1.14064  -1.14000  -1.13985
  Beta  occ. eigenvalues --   -1.13966  -1.13955  -1.13933  -1.13920  -1.13917
  Beta  occ. eigenvalues --   -1.13901  -1.13882  -1.13521  -1.13516  -1.13502
  Beta  occ. eigenvalues --   -0.14771  -0.13276  -0.12462
  Beta virt. eigenvalues --   -0.08113  -0.07886  -0.04289  -0.04180  -0.03364
  Beta virt. eigenvalues --   -0.03269  -0.02155  -0.01915  -0.01780  -0.01464
  Beta virt. eigenvalues --   -0.00615  -0.00553  -0.00013   0.00150   0.00306

 Mulliken charges and spin densities:
               1          2
     1  Na   0.224340   0.351411
     2  Na   0.039069   0.102106
     3  Na  -0.145462   0.050061
     4  Na   0.168619   0.291116
     5  Na  -0.441316  -0.012131
     6  Na   0.228409   0.226647
     7  Na  -0.073658  -0.009210
 Sum of Mulliken charges =  -0.00000   1.00000

 Dipole moment (field-independent basis, Debye):
    X=              0.0517    Y=              0.1513    Z=             -0.0909  Tot=              0.1839
 Quadrupole moment (field-independent basis, Debye-Ang):
   XX=            -64.1758   YY=            -64.3425   ZZ=            -72.1121
   XY=             -0.2087   XZ=             -0.5727   YZ=             -1.5404

 Normal termination of Gaussian 16 at Sun Dec  3 20:06:29 2023.
