 Gaussian 16, Revision B.01,
 Gaussian 16:  ES64L-G16RevB.01 20-Dec-2017

 -------------------------
 #P B3LYP/6-311+g(d) force
 -------------------------

 -----
 DPGEN
 -----
 Symbolic Z-matrix:
 Charge =  0 Multiplicity = 2

                         Standard orientation:
 ---------------------------------------------------------------------
 Center     Atomic      Atomic             Coordinates (Angstroms)
 Number     Number       Type             X           Y           Z
 ---------------------------------------------------------------------
      1         11           0        2.216882   -2.417598   -0.199346
      2         11           0       -2.459392   -2.170637   -0.074663
      3         11           0        0.251993   -0.369922    1.546049
      4         11           0       -0.205581   -0.175166   -1.531836
      5         11           0        2.850916    1.151875    0.227787
      6         11           0       -0.045698    2.801906   -0.394824
      7         11           0       -2.609120    1.179542    0.426832
 ---------------------------------------------------------------------

 SCF Done:  E(UB3LYP) =  -1136.13290568     A.U. after   21 cycles

 The electronic state is 2-A.
 Alpha  occ. eigenvalues --  -38.44184 -38.44151 -38.44097 -38.43721 -38.42934
 Alpha  occ. eigenvalues --  -38.42927 -38.42757  -2.20033  -2.19966  -2.19925
 Alpha  occ. eigenvalues --   -2.19634  -2.18939  -2.18844  -2.18786  -1.13724
 Alpha  occ. eigenvalues --   -1.13692  -1.13668  -1.13643  -1.13627  -1.13603
 Alpha  occ. eigenvalues --   -1.13595  -1.13583  -1.13571  -1.13330  -1.13290
 Alpha  occ. eigenvalues --   -1.13269  -1.12707  -1.12574  -1.12554  -1.12550
 Alpha  occ. eigenvalues --   -1.12501  -1.12475  -1.12456  -1.12390  -1.12379
 Alpha  occ. eigenvalues --   -0.18993  -0.13359  -0.12497  -0.10145
 Alpha virt. eigenvalues --   -0.05968  -0.05457  -0.04469  -0.03090  -0.02601
 Alpha virt. eigenvalues --   -0.01843  -0.01738  -0.01445  -0.00488  -0.00234
 Alpha virt. eigenvalues --    0.00080   0.00341   0.00758   0.00821   0.00902

  Beta  occ. eigenvalues --  -38.44176 -38.44148 -38.44094 -38.43708 -38.42915
  Beta  occ. eigenvalues --  -38.42870 -38.42684  -2.20023  -2.19962  -2.19923
  Beta  occ. eigenvalues --   -2.19613  -2.18828  -2.18822  -2.18655  -1.13712
  Beta  occ. eigenvalues --   -1.13668  -1.13664  -1.13635  -1.13615  -1.13598
  Beta  occ. eigenvalues --   -1.13591  -1.13573  -1.13562  -1.13319  -1.13260
  Beta  occ. eigenvalues --   -1.13242  -1.12624  -1.12539  -1.12489  -1.12475
  Beta  occ. eigenvalues --   -1.12462  -1.12441  -1.12366  -1.12300  -1.12288
  Beta  occ. eigenvalues --   -0.18289  -0.13099  -0.12242
  Beta virt. eigenvalues --   -0.06284  -0.05957  -0.05396  -0.04455  -0.02312
  Beta virt. eigenvalues --   -0.01885  -0.01659  -0.01394  -0.00862  -0.00531
  Beta virt. eigenvalues --   -0.00223   0.00199   0.00382   0.00763   0.00862

 Mulliken charges and spin densities:
               1          2
     1  Na  -0.015281  -0.075057
     2  Na   0.115311  -0.046289
     3  Na  -0.271031   0.386082
     4  Na  -0.384695   0.514853
     5  Na   0.162261   0.016935
     6  Na   0.166313   0.055915
     7  Na   0.227122   0.147561
 Sum of Mulliken charges =  -0.00000   1.00000

 Dipole moment (field-independent basis, Debye):
    X=              0.2363    Y=             -0.5486    Z=              0.0406  Tot=              0.5987
 Quadrupole moment (field-independent basis, Debye-Ang):
   XX=            -53.5475   YY=            -59.4750   ZZ=            -77.4357
   XY=              0.5933   XZ=             -0.9996   YZ=              0.6563

 Normal termination of Gaussian 16 at Tue Dec  5 10:36:37 2023.
