 Gaussian 16, Revision B.01,
 Gaussian 16:  ES64L-G16RevB.01 20-Dec-2017

 -------------------------
 #P B3LYP/6-311+g(d) force
 -------------------------

 -----
 DPGEN
 -----
 Symbolic Z-matrix:
 Charge =  0 Multiplicity = 2

                         Standard orientation:
 ---------------------------------------------------------------------
 Center     Atomic      Atomic             Coordinates (Angstroms)
 Number     Number       Type             X           Y           Z
 ---------------------------------------------------------------------
      1         11           0        0.640631   -0.981441   -0.514928
      2         11           0       -2.659077   -2.113713    0.046191
      3         11           0       -8.220762    2.499075    0.430569
      4         11           0       -6.450535   -0.000231   -0.425168
      5         11           0        7.698427    2.654203   -0.399891
      6         11           0        3.046822   -2.536851    0.277178
      7         11           0        5.944494    0.478958    0.586049
 ---------------------------------------------------------------------

 SCF Done:  E(UB3LYP) =  -1136.10285415     A.U. after   18 cycles

 The electronic state is 2-A.
 Alpha  occ. eigenvalues --  -38.45408 -38.45117 -38.44683 -38.44593 -38.44201
 Alpha  occ. eigenvalues --  -38.44080 -38.43861  -2.21191  -2.20947  -2.20502
 Alpha  occ. eigenvalues --   -2.20382  -2.19963  -2.19898  -2.19660  -1.14835
 Alpha  occ. eigenvalues --   -1.14832  -1.14795  -1.14668  -1.14580  -1.14559
 Alpha  occ. eigenvalues --   -1.14169  -1.14163  -1.14142  -1.14035  -1.14029
 Alpha  occ. eigenvalues --   -1.14029  -1.13643  -1.13639  -1.13636  -1.13605
 Alpha  occ. eigenvalues --   -1.13535  -1.13534  -1.13321  -1.13317  -1.13272
 Alpha  occ. eigenvalues --   -0.15446  -0.13871  -0.13021  -0.11732
 Alpha virt. eigenvalues --   -0.06760  -0.05003  -0.04841  -0.03498  -0.02903
 Alpha virt. eigenvalues --   -0.02845  -0.02376  -0.02051  -0.01861  -0.01388
 Alpha virt. eigenvalues --   -0.00921  -0.00709  -0.00470   0.00344   0.00445

  Beta  occ. eigenvalues --  -38.45302 -38.45051 -38.44692 -38.44551 -38.44214
  Beta  occ. eigenvalues --  -38.44048 -38.43867  -2.20993  -2.20825  -2.20526
  Beta  occ. eigenvalues --   -2.20303  -2.19991  -2.19840  -2.19675  -1.14701
  Beta  occ. eigenvalues --   -1.14696  -1.14667  -1.14596  -1.14496  -1.14476
  Beta  occ. eigenvalues --   -1.14186  -1.14180  -1.14115  -1.13985  -1.13975
  Beta  occ. eigenvalues --   -1.13974  -1.13661  -1.13657  -1.13609  -1.13596
  Beta  occ. eigenvalues --   -1.13495  -1.13495  -1.13334  -1.13329  -1.13254
  Beta  occ. eigenvalues --   -0.14709  -0.13229  -0.12623
  Beta virt. eigenvalues --   -0.08561  -0.06292  -0.04695  -0.04507  -0.03260
  Beta virt. eigenvalues --   -0.02678  -0.02595  -0.02191  -0.01926  -0.01641
  Beta virt. eigenvalues --   -0.00945  -0.00475  -0.00422  -0.00340   0.00431

 Mulliken charges and spin densities:
               1          2
     1  Na  -0.244234   0.006263
     2  Na   0.191669   0.512063
     3  Na   0.426114   0.203337
     4  Na  -0.500759  -0.097613
     5  Na   0.478933   0.154030
     6  Na   0.205238   0.246349
     7  Na  -0.556960  -0.024429
 Sum of Mulliken charges =  -0.00000   1.00000

 Dipole moment (field-independent basis, Debye):
    X=             -0.3485    Y=             -0.2607    Z=              0.0678  Tot=              0.4405
 Quadrupole moment (field-independent basis, Debye-Ang):
   XX=            -66.1751   YY=            -58.2664   ZZ=            -73.7424
   XY=             -4.4188   XZ=             -3.9453   YZ=             -2.0353

 Normal termination of Gaussian 16 at Sun Dec  3 18:53:41 2023.
