 Gaussian 16, Revision B.01,
 Gaussian 16:  ES64L-G16RevB.01 20-Dec-2017

 -------------------------
 #P B3LYP/6-311+g(d) force
 -------------------------

 -----
 DPGEN
 -----
 Symbolic Z-matrix:
 Charge =  0 Multiplicity = 2

                         Standard orientation:
 ---------------------------------------------------------------------
 Center     Atomic      Atomic             Coordinates (Angstroms)
 Number     Number       Type             X           Y           Z
 ---------------------------------------------------------------------
      1         11           0        1.552560    2.608458   -0.140098
      2         11           0        0.187028   -2.966960   -0.190316
      3         11           0       -2.159183    2.222135    0.024382
      4         11           0        0.072566    0.120927   -1.742688
      5         11           0        0.125114   -0.025024    2.042881
      6         11           0        3.177155   -0.732736    0.031614
      7         11           0       -2.955241   -1.226799   -0.025776
 ---------------------------------------------------------------------

 SCF Done:  E(UB3LYP) =  -1136.14015284     A.U. after   17 cycles

 The electronic state is 2-A.
 Alpha  occ. eigenvalues --  -38.44156 -38.43893 -38.43711 -38.43646 -38.43604
 Alpha  occ. eigenvalues --  -38.43453 -38.43277  -2.19954  -2.19700  -2.19529
 Alpha  occ. eigenvalues --   -2.19478  -2.19471  -2.19280  -2.19208  -1.13629
 Alpha  occ. eigenvalues --   -1.13611  -1.13597  -1.13373  -1.13362  -1.13349
 Alpha  occ. eigenvalues --   -1.13206  -1.13199  -1.13177  -1.13164  -1.13149
 Alpha  occ. eigenvalues --   -1.13133  -1.13099  -1.13096  -1.13088  -1.12972
 Alpha  occ. eigenvalues --   -1.12947  -1.12907  -1.12885  -1.12834  -1.12826
 Alpha  occ. eigenvalues --   -0.18315  -0.12785  -0.12452  -0.10607
 Alpha virt. eigenvalues --   -0.05663  -0.05328  -0.04854  -0.03063  -0.02906
 Alpha virt. eigenvalues --   -0.02565  -0.01563  -0.01219  -0.00543  -0.00520
 Alpha virt. eigenvalues --   -0.00022   0.00364   0.00778   0.00848   0.00867

  Beta  occ. eigenvalues --  -38.44154 -38.43892 -38.43709 -38.43640 -38.43511
  Beta  occ. eigenvalues --  -38.43448 -38.43207  -2.19953  -2.19701  -2.19527
  Beta  occ. eigenvalues --   -2.19470  -2.19300  -2.19273  -2.19081  -1.13612
  Beta  occ. eigenvalues --   -1.13606  -1.13601  -1.13365  -1.13356  -1.13350
  Beta  occ. eigenvalues --   -1.13200  -1.13180  -1.13171  -1.13158  -1.13119
  Beta  occ. eigenvalues --   -1.13099  -1.13026  -1.12981  -1.12965  -1.12956
  Beta  occ. eigenvalues --   -1.12923  -1.12906  -1.12801  -1.12743  -1.12736
  Beta  occ. eigenvalues --   -0.17582  -0.12588  -0.12221
  Beta virt. eigenvalues --   -0.06707  -0.05638  -0.05348  -0.04775  -0.02305
  Beta virt. eigenvalues --   -0.02128  -0.01504  -0.01472  -0.01143  -0.00609
  Beta virt. eigenvalues --   -0.00579   0.00120   0.00382   0.00828   0.00844

 Mulliken charges and spin densities:
               1          2
     1  Na   0.164473  -0.109705
     2  Na   0.068357  -0.105672
     3  Na   0.092498  -0.092064
     4  Na  -0.091079   0.634089
     5  Na  -0.402984   0.846280
     6  Na   0.130007  -0.091246
     7  Na   0.038728  -0.081680
 Sum of Mulliken charges =  -0.00000   1.00000

 Dipole moment (field-independent basis, Debye):
    X=              0.1329    Y=              0.0259    Z=              0.0792  Tot=              0.1569
 Quadrupole moment (field-independent basis, Debye-Ang):
   XX=            -56.0923   YY=            -61.6990   ZZ=            -75.1899
   XY=             -0.1513   XZ=             -0.1187   YZ=              0.3253

 Normal termination of Gaussian 16 at Thu Dec  7 01:43:55 2023.
