 Gaussian 16, Revision B.01,
 Gaussian 16:  ES64L-G16RevB.01 20-Dec-2017

 -------------------------
 #P B3LYP/6-311+g(d) force
 -------------------------

 -----
 DPGEN
 -----
 Symbolic Z-matrix:
 Charge =  0 Multiplicity = 2

                         Standard orientation:
 ---------------------------------------------------------------------
 Center     Atomic      Atomic             Coordinates (Angstroms)
 Number     Number       Type             X           Y           Z
 ---------------------------------------------------------------------
      1         11           0       -2.305665    2.685191    0.935353
      2         11           0       -0.026037   -0.237899    0.158272
      3         11           0        1.112596    3.174208   -0.390858
      4         11           0        3.898311    0.731360   -0.437085
      5         11           0        2.276072   -2.697312    0.603779
      6         11           0       -1.305494   -3.156780   -0.105832
      7         11           0       -3.649783   -0.498768   -0.763630
 ---------------------------------------------------------------------

 SCF Done:  E(UB3LYP) =  -1136.12671828     A.U. after   22 cycles

 The electronic state is 2-A.
 Alpha  occ. eigenvalues --  -38.44536 -38.44337 -38.43968 -38.43935 -38.43911
 Alpha  occ. eigenvalues --  -38.43800 -38.43770  -2.20311  -2.20163  -2.19797
 Alpha  occ. eigenvalues --   -2.19764  -2.19748  -2.19609  -2.19557  -1.14007
 Alpha  occ. eigenvalues --   -1.13992  -1.13929  -1.13880  -1.13845  -1.13771
 Alpha  occ. eigenvalues --   -1.13531  -1.13458  -1.13443  -1.13434  -1.13415
 Alpha  occ. eigenvalues --   -1.13402  -1.13395  -1.13374  -1.13365  -1.13277
 Alpha  occ. eigenvalues --   -1.13242  -1.13239  -1.13224  -1.13194  -1.13185
 Alpha  occ. eigenvalues --   -0.16901  -0.13393  -0.13300  -0.09830
 Alpha virt. eigenvalues --   -0.06700  -0.05485  -0.04350  -0.03667  -0.02812
 Alpha virt. eigenvalues --   -0.02276  -0.01811  -0.01486  -0.01334  -0.00493
 Alpha virt. eigenvalues --   -0.00348   0.00175   0.00409   0.00594   0.00702

  Beta  occ. eigenvalues --  -38.44532 -38.44330 -38.43926 -38.43917 -38.43900
  Beta  occ. eigenvalues --  -38.43745 -38.43712  -2.20309  -2.20156  -2.19808
  Beta  occ. eigenvalues --   -2.19688  -2.19685  -2.19508  -2.19451  -1.14012
  Beta  occ. eigenvalues --   -1.13996  -1.13887  -1.13883  -1.13846  -1.13720
  Beta  occ. eigenvalues --   -1.13530  -1.13464  -1.13449  -1.13381  -1.13374
  Beta  occ. eigenvalues --   -1.13353  -1.13345  -1.13337  -1.13318  -1.13208
  Beta  occ. eigenvalues --   -1.13178  -1.13161  -1.13152  -1.13117  -1.13115
  Beta  occ. eigenvalues --   -0.16606  -0.12747  -0.12608
  Beta virt. eigenvalues --   -0.06767  -0.06674  -0.05255  -0.04054  -0.03174
  Beta virt. eigenvalues --   -0.02241  -0.02106  -0.01689  -0.01266  -0.01145
  Beta virt. eigenvalues --   -0.00270  -0.00002   0.00366   0.00463   0.00668

 Mulliken charges and spin densities:
               1          2
     1  Na   1.149166   0.198533
     2  Na  -3.968780  -0.118352
     3  Na   1.138839   0.084571
     4  Na   0.054222   0.336345
     5  Na   0.414369   0.126315
     6  Na   0.367198   0.084735
     7  Na   0.844984   0.287853
 Sum of Mulliken charges =  -0.00000   1.00000

 Dipole moment (field-independent basis, Debye):
    X=             -0.2010    Y=             -0.2974    Z=              0.1335  Tot=              0.3830
 Quadrupole moment (field-independent basis, Debye-Ang):
   XX=            -62.6196   YY=            -60.4057   ZZ=            -72.6235
   XY=             -5.0149   XZ=             -0.0798   YZ=             -0.9157

 Normal termination of Gaussian 16 at Fri Dec  8 20:20:43 2023.
