 Gaussian 16, Revision B.01,
 Gaussian 16:  ES64L-G16RevB.01 20-Dec-2017

 -------------------------
 #P B3LYP/6-311+g(d) force
 -------------------------

 -----
 DPGEN
 -----
 Symbolic Z-matrix:
 Charge =  0 Multiplicity = 2

                         Standard orientation:
 ---------------------------------------------------------------------
 Center     Atomic      Atomic             Coordinates (Angstroms)
 Number     Number       Type             X           Y           Z
 ---------------------------------------------------------------------
      1         11           0        1.710254   -1.336829    1.770684
      2         11           0       -3.482633   -1.683594   -0.845666
      3         11           0       -3.477028    2.238526   -0.395726
      4         11           0       -1.968168    0.060028    1.234097
      5         11           0        0.516402   -1.153736   -0.773929
      6         11           0        4.028315   -0.068534   -1.384151
      7         11           0        2.672858    1.944139    0.394691
 ---------------------------------------------------------------------

 SCF Done:  E(UB3LYP) =  -1136.10590579     A.U. after   23 cycles

 The electronic state is 2-A.
 Alpha  occ. eigenvalues --  -38.44761 -38.44750 -38.44108 -38.43927 -38.43892
 Alpha  occ. eigenvalues --  -38.43823 -38.43716  -2.20580  -2.20578  -2.20023
 Alpha  occ. eigenvalues --   -2.19787  -2.19714  -2.19712  -2.19650  -1.14286
 Alpha  occ. eigenvalues --   -1.14273  -1.14258  -1.14220  -1.14219  -1.14174
 Alpha  occ. eigenvalues --   -1.13871  -1.13707  -1.13619  -1.13446  -1.13435
 Alpha  occ. eigenvalues --   -1.13433  -1.13409  -1.13363  -1.13352  -1.13344
 Alpha  occ. eigenvalues --   -1.13335  -1.13334  -1.13320  -1.13308  -1.13204
 Alpha  occ. eigenvalues --   -0.17653  -0.14854  -0.10982  -0.10515
 Alpha virt. eigenvalues --   -0.06667  -0.05924  -0.05119  -0.03116  -0.02724
 Alpha virt. eigenvalues --   -0.02301  -0.02110  -0.01403  -0.01018  -0.00589
 Alpha virt. eigenvalues --   -0.00225   0.00141   0.00162   0.00268   0.00410

  Beta  occ. eigenvalues --  -38.44785 -38.44685 -38.44109 -38.43888 -38.43848
  Beta  occ. eigenvalues --  -38.43807 -38.43694  -2.20628  -2.20455  -2.20029
  Beta  occ. eigenvalues --   -2.19711  -2.19683  -2.19632  -2.19614  -1.14308
  Beta  occ. eigenvalues --   -1.14292  -1.14244  -1.14192  -1.14135  -1.14085
  Beta  occ. eigenvalues --   -1.13868  -1.13704  -1.13612  -1.13397  -1.13395
  Beta  occ. eigenvalues --   -1.13379  -1.13360  -1.13330  -1.13318  -1.13311
  Beta  occ. eigenvalues --   -1.13298  -1.13288  -1.13284  -1.13265  -1.13168
  Beta  occ. eigenvalues --   -0.17191  -0.14459  -0.10794
  Beta virt. eigenvalues --   -0.07108  -0.06157  -0.05744  -0.04585  -0.02968
  Beta virt. eigenvalues --   -0.02510  -0.01849  -0.01663  -0.01134  -0.00741
  Beta virt. eigenvalues --   -0.00399   0.00042   0.00201   0.00246   0.00434

 Mulliken charges and spin densities:
               1          2
     1  Na   0.436754   0.234486
     2  Na  -0.013651   0.217894
     3  Na   0.042419   0.143286
     4  Na   0.044414   0.385300
     5  Na  -0.781990  -0.038717
     6  Na   0.538336   0.152608
     7  Na  -0.266283  -0.094858
 Sum of Mulliken charges =  -0.00000   1.00000

 Dipole moment (field-independent basis, Debye):
    X=              0.1279    Y=             -0.3967    Z=              0.0652  Tot=              0.4219
 Quadrupole moment (field-independent basis, Debye-Ang):
   XX=            -64.0681   YY=            -70.3495   ZZ=            -67.8594
   XY=             -1.9176   XZ=              4.8814   YZ=              1.5214

 Normal termination of Gaussian 16 at Tue Dec  5 12:13:33 2023.
