 Gaussian 16, Revision B.01,
 Gaussian 16:  ES64L-G16RevB.01 20-Dec-2017

 -------------------------
 #P B3LYP/6-311+g(d) force
 -------------------------

 -----
 DPGEN
 -----
 Symbolic Z-matrix:
 Charge =  0 Multiplicity = 2

                         Standard orientation:
 ---------------------------------------------------------------------
 Center     Atomic      Atomic             Coordinates (Angstroms)
 Number     Number       Type             X           Y           Z
 ---------------------------------------------------------------------
      1         11           0       -2.807980   -1.486908    0.565263
      2         11           0       -2.414128    2.003580   -0.096570
      3         11           0        3.472984    0.164878    0.371999
      4         11           0        0.041424   -0.448816    2.137562
      5         11           0        1.249173    2.146369   -0.200275
      6         11           0        1.191479   -2.243412   -0.941745
      7         11           0       -0.732951   -0.135691   -1.836235
 ---------------------------------------------------------------------

 SCF Done:  E(UB3LYP) =  -1136.12849879     A.U. after   21 cycles

 The electronic state is 2-A.
 Alpha  occ. eigenvalues --  -38.44565 -38.44553 -38.44312 -38.43659 -38.43493
 Alpha  occ. eigenvalues --  -38.43307 -38.42960  -2.20403  -2.20398  -2.20140
 Alpha  occ. eigenvalues --   -2.19642  -2.19334  -2.19177  -2.18843  -1.14106
 Alpha  occ. eigenvalues --   -1.14067  -1.14054  -1.14035  -1.14033  -1.14018
 Alpha  occ. eigenvalues --   -1.13813  -1.13797  -1.13770  -1.13372  -1.13294
 Alpha  occ. eigenvalues --   -1.13258  -1.13013  -1.12987  -1.12965  -1.12872
 Alpha  occ. eigenvalues --   -1.12806  -1.12778  -1.12525  -1.12512  -1.12480
 Alpha  occ. eigenvalues --   -0.18599  -0.13534  -0.11657  -0.11535
 Alpha virt. eigenvalues --   -0.06225  -0.05145  -0.04040  -0.03421  -0.03096
 Alpha virt. eigenvalues --   -0.02833  -0.01939  -0.01022  -0.00379  -0.00028
 Alpha virt. eigenvalues --    0.00139   0.00328   0.00546   0.00740   0.00855

  Beta  occ. eigenvalues --  -38.44565 -38.44473 -38.44297 -38.43582 -38.43490
  Beta  occ. eigenvalues --  -38.43274 -38.42956  -2.20401  -2.20250  -2.20116
  Beta  occ. eigenvalues --   -2.19503  -2.19331  -2.19122  -2.18839  -1.14109
  Beta  occ. eigenvalues --   -1.14039  -1.14031  -1.13969  -1.13935  -1.13911
  Beta  occ. eigenvalues --   -1.13785  -1.13770  -1.13757  -1.13271  -1.13198
  Beta  occ. eigenvalues --   -1.13166  -1.12996  -1.12982  -1.12960  -1.12818
  Beta  occ. eigenvalues --   -1.12758  -1.12745  -1.12524  -1.12494  -1.12472
  Beta  occ. eigenvalues --   -0.17864  -0.13337  -0.11354
  Beta virt. eigenvalues --   -0.07583  -0.06059  -0.05155  -0.03651  -0.03017
  Beta virt. eigenvalues --   -0.02210  -0.01993  -0.01797  -0.00972  -0.00262
  Beta virt. eigenvalues --    0.00055   0.00127   0.00360   0.00742   0.00816

 Mulliken charges and spin densities:
               1          2
     1  Na   0.123580   0.012974
     2  Na   0.113296  -0.016530
     3  Na   0.338688   0.021796
     4  Na  -0.375552   0.631985
     5  Na  -0.363292  -0.038389
     6  Na  -0.120080  -0.010432
     7  Na   0.283360   0.398597
 Sum of Mulliken charges =  -0.00000   1.00000

 Dipole moment (field-independent basis, Debye):
    X=             -0.0509    Y=             -0.3136    Z=              0.5721  Tot=              0.6544
 Quadrupole moment (field-independent basis, Debye-Ang):
   XX=            -52.2853   YY=            -72.4122   ZZ=            -70.4495
   XY=             -0.5497   XZ=             -0.2176   YZ=              0.2523

 Normal termination of Gaussian 16 at Thu Dec  7 22:53:56 2023.
