 Gaussian 16, Revision B.01,
 Gaussian 16:  ES64L-G16RevB.01 20-Dec-2017

 -------------------------
 #P B3LYP/6-311+g(d) force
 -------------------------

 -----
 DPGEN
 -----
 Symbolic Z-matrix:
 Charge =  0 Multiplicity = 2

                         Standard orientation:
 ---------------------------------------------------------------------
 Center     Atomic      Atomic             Coordinates (Angstroms)
 Number     Number       Type             X           Y           Z
 ---------------------------------------------------------------------
      1         11           0       -2.849814   -1.669800    0.112245
      2         11           0       -2.347112    2.186763    0.140718
      3         11           0        1.418638    2.607482   -0.099525
      4         11           0       -0.357603    0.376767   -1.698906
      5         11           0        0.074111   -0.288291    1.996290
      6         11           0        0.439725   -2.661057   -0.524386
      7         11           0        3.622055   -0.551864    0.073563
 ---------------------------------------------------------------------

 SCF Done:  E(UB3LYP) =  -1136.13401640     A.U. after   19 cycles

 The electronic state is 2-A.
 Alpha  occ. eigenvalues --  -38.44579 -38.44117 -38.43945 -38.43799 -38.43691
 Alpha  occ. eigenvalues --  -38.43317 -38.43189  -2.20323  -2.19922  -2.19758
 Alpha  occ. eigenvalues --   -2.19614  -2.19550  -2.19171  -2.19137  -1.14000
 Alpha  occ. eigenvalues --   -1.13984  -1.13961  -1.13593  -1.13577  -1.13573
 Alpha  occ. eigenvalues --   -1.13452  -1.13418  -1.13388  -1.13322  -1.13285
 Alpha  occ. eigenvalues --   -1.13228  -1.13222  -1.13187  -1.13157  -1.12890
 Alpha  occ. eigenvalues --   -1.12840  -1.12807  -1.12781  -1.12766  -1.12749
 Alpha  occ. eigenvalues --   -0.18165  -0.12676  -0.12403  -0.10492
 Alpha virt. eigenvalues --   -0.06087  -0.05486  -0.04530  -0.02990  -0.02944
 Alpha virt. eigenvalues --   -0.02433  -0.01897  -0.01375  -0.00577  -0.00367
 Alpha virt. eigenvalues --   -0.00053   0.00305   0.00706   0.00781   0.00851

  Beta  occ. eigenvalues --  -38.44583 -38.44115 -38.43942 -38.43794 -38.43605
  Beta  occ. eigenvalues --  -38.43300 -38.43121  -2.20333  -2.19920  -2.19754
  Beta  occ. eigenvalues --   -2.19607  -2.19392  -2.19144  -2.19013  -1.13996
  Beta  occ. eigenvalues --   -1.13992  -1.13968  -1.13578  -1.13578  -1.13565
  Beta  occ. eigenvalues --   -1.13443  -1.13404  -1.13385  -1.13310  -1.13266
  Beta  occ. eigenvalues --   -1.13222  -1.13122  -1.13077  -1.13042  -1.12859
  Beta  occ. eigenvalues --   -1.12798  -1.12765  -1.12725  -1.12680  -1.12661
  Beta  occ. eigenvalues --   -0.17433  -0.12513  -0.12173
  Beta virt. eigenvalues --   -0.06609  -0.06013  -0.05494  -0.04455  -0.02320
  Beta virt. eigenvalues --   -0.02176  -0.01808  -0.01389  -0.01327  -0.00615
  Beta virt. eigenvalues --   -0.00373   0.00094   0.00330   0.00766   0.00774

 Mulliken charges and spin densities:
               1          2
     1  Na   0.146146  -0.034265
     2  Na   0.048911  -0.090901
     3  Na   0.002129  -0.146920
     4  Na   0.184596   0.533882
     5  Na  -0.407924   0.859816
     6  Na   0.065327  -0.037504
     7  Na  -0.039185  -0.084108
 Sum of Mulliken charges =  -0.00000   1.00000

 Dipole moment (field-independent basis, Debye):
    X=             -0.0135    Y=              0.0888    Z=              0.1640  Tot=              0.1870
 Quadrupole moment (field-independent basis, Debye-Ang):
   XX=            -52.4266   YY=            -63.9203   ZZ=            -75.7583
   XY=              0.0486   XZ=             -0.8988   YZ=              1.2836

 Normal termination of Gaussian 16 at Thu Dec  7 16:14:45 2023.
