 Gaussian 16, Revision B.01,
 Gaussian 16:  ES64L-G16RevB.01 20-Dec-2017

 -------------------------
 #P B3LYP/6-311+g(d) force
 -------------------------

 -----
 DPGEN
 -----
 Symbolic Z-matrix:
 Charge =  0 Multiplicity = 2

                         Standard orientation:
 ---------------------------------------------------------------------
 Center     Atomic      Atomic             Coordinates (Angstroms)
 Number     Number       Type             X           Y           Z
 ---------------------------------------------------------------------
      1         11           0        2.415065   -1.945964   -1.020447
      2         11           0       -0.391405    0.179219   -1.932149
      3         11           0       -0.905161    3.074559    0.082347
      4         11           0        3.172423    1.840881    0.314949
      5         11           0        0.940872   -0.803493    2.040557
      6         11           0       -3.912217    0.241452    0.176300
      7         11           0       -1.319577   -2.586654    0.338442
 ---------------------------------------------------------------------

 SCF Done:  E(UB3LYP) =  -1136.12224321     A.U. after   21 cycles

 The electronic state is 2-A.
 Alpha  occ. eigenvalues --  -38.45039 -38.44558 -38.44291 -38.44114 -38.44102
 Alpha  occ. eigenvalues --  -38.44016 -38.43532  -2.20766  -2.20292  -2.20088
 Alpha  occ. eigenvalues --   -2.19941  -2.19846  -2.19844  -2.19344  -1.14450
 Alpha  occ. eigenvalues --   -1.14417  -1.14403  -1.13969  -1.13942  -1.13936
 Alpha  occ. eigenvalues --   -1.13760  -1.13740  -1.13723  -1.13621  -1.13589
 Alpha  occ. eigenvalues --   -1.13560  -1.13529  -1.13517  -1.13514  -1.13487
 Alpha  occ. eigenvalues --   -1.13468  -1.13464  -1.13036  -1.13014  -1.12960
 Alpha  occ. eigenvalues --   -0.17212  -0.12695  -0.11930  -0.10716
 Alpha virt. eigenvalues --   -0.06577  -0.05645  -0.04714  -0.03266  -0.02883
 Alpha virt. eigenvalues --   -0.02625  -0.02019  -0.01558  -0.00839  -0.00573
 Alpha virt. eigenvalues --   -0.00184   0.00284   0.00453   0.00603   0.00719

  Beta  occ. eigenvalues --  -38.45040 -38.44549 -38.44258 -38.44105 -38.44044
  Beta  occ. eigenvalues --  -38.43951 -38.43523  -2.20768  -2.20277  -2.20030
  Beta  occ. eigenvalues --   -2.19851  -2.19813  -2.19725  -2.19330  -1.14449
  Beta  occ. eigenvalues --   -1.14419  -1.14404  -1.13947  -1.13934  -1.13927
  Beta  occ. eigenvalues --   -1.13711  -1.13690  -1.13684  -1.13547  -1.13531
  Beta  occ. eigenvalues --   -1.13524  -1.13494  -1.13471  -1.13446  -1.13435
  Beta  occ. eigenvalues --   -1.13407  -1.13376  -1.13022  -1.12986  -1.12953
  Beta  occ. eigenvalues --   -0.16520  -0.12534  -0.11730
  Beta virt. eigenvalues --   -0.06965  -0.06423  -0.05549  -0.04449  -0.02779
  Beta virt. eigenvalues --   -0.02272  -0.01964  -0.01716  -0.01413  -0.00784
  Beta virt. eigenvalues --   -0.00574  -0.00010   0.00335   0.00613   0.00709

 Mulliken charges and spin densities:
               1          2
     1  Na   0.138094   0.092614
     2  Na   0.175774   0.491975
     3  Na  -0.148889  -0.108953
     4  Na  -0.131114  -0.013283
     5  Na  -0.048074   0.524716
     6  Na  -0.088158  -0.085541
     7  Na   0.102366   0.098472
 Sum of Mulliken charges =  -0.00000   1.00000

 Dipole moment (field-independent basis, Debye):
    X=             -0.1670    Y=              0.0328    Z=              0.0301  Tot=              0.1728
 Quadrupole moment (field-independent basis, Debye-Ang):
   XX=            -53.4923   YY=            -67.0815   ZZ=            -73.9190
   XY=             -0.7124   XZ=             -2.3102   YZ=              2.2396

 Normal termination of Gaussian 16 at Mon Dec  4 04:43:46 2023.
