 Gaussian 16, Revision B.01,
 Gaussian 16:  ES64L-G16RevB.01 20-Dec-2017

 -------------------------
 #P B3LYP/6-311+g(d) force
 -------------------------

 -----
 DPGEN
 -----
 Symbolic Z-matrix:
 Charge =  0 Multiplicity = 2

                         Standard orientation:
 ---------------------------------------------------------------------
 Center     Atomic      Atomic             Coordinates (Angstroms)
 Number     Number       Type             X           Y           Z
 ---------------------------------------------------------------------
      1         11           0        1.978749   -2.056901    0.191631
      2         11           0        4.334710    0.558298   -0.764344
      3         11           0       -0.808793   -1.036308    1.574833
      4         11           0       -4.038820   -1.028863   -0.526764
      5         11           0       -2.042699    2.749049    0.067612
      6         11           0       -0.826392   -0.506226   -1.336655
      7         11           0        1.403245    1.320951    0.793687
 ---------------------------------------------------------------------

 SCF Done:  E(UB3LYP) =  -1136.11882397     A.U. after   24 cycles

 The electronic state is 2-A.
 Alpha  occ. eigenvalues --  -38.44895 -38.44542 -38.44111 -38.44079 -38.43579
 Alpha  occ. eigenvalues --  -38.43322 -38.43144  -2.20820  -2.20351  -2.20036
 Alpha  occ. eigenvalues --   -2.19931  -2.19454  -2.19091  -2.19043  -1.14589
 Alpha  occ. eigenvalues --   -1.14473  -1.14419  -1.14014  -1.13976  -1.13969
 Alpha  occ. eigenvalues --   -1.13743  -1.13675  -1.13632  -1.13578  -1.13573
 Alpha  occ. eigenvalues --   -1.13550  -1.13146  -1.13133  -1.13065  -1.12778
 Alpha  occ. eigenvalues --   -1.12749  -1.12744  -1.12738  -1.12733  -1.12634
 Alpha  occ. eigenvalues --   -0.18326  -0.14082  -0.11175  -0.11021
 Alpha virt. eigenvalues --   -0.06770  -0.05428  -0.04496  -0.03147  -0.02966
 Alpha virt. eigenvalues --   -0.02133  -0.01845  -0.01288  -0.01109  -0.00645
 Alpha virt. eigenvalues --   -0.00279   0.00135   0.00331   0.00595   0.00672

  Beta  occ. eigenvalues --  -38.44893 -38.44472 -38.44037 -38.44034 -38.43570
  Beta  occ. eigenvalues --  -38.43323 -38.43127  -2.20819  -2.20221  -2.19962
  Beta  occ. eigenvalues --   -2.19786  -2.19444  -2.19094  -2.19018  -1.14580
  Beta  occ. eigenvalues --   -1.14454  -1.14426  -1.13921  -1.13892  -1.13883
  Beta  occ. eigenvalues --   -1.13693  -1.13605  -1.13579  -1.13481  -1.13474
  Beta  occ. eigenvalues --   -1.13456  -1.13142  -1.13118  -1.13038  -1.12782
  Beta  occ. eigenvalues --   -1.12744  -1.12736  -1.12725  -1.12695  -1.12608
  Beta  occ. eigenvalues --   -0.17768  -0.13316  -0.10949
  Beta virt. eigenvalues --   -0.07543  -0.06496  -0.05355  -0.03818  -0.03000
  Beta virt. eigenvalues --   -0.02585  -0.01744  -0.01427  -0.01233  -0.00705
  Beta virt. eigenvalues --   -0.00409  -0.00080   0.00209   0.00439   0.00676

 Mulliken charges and spin densities:
               1          2
     1  Na   0.438803   0.071597
     2  Na   0.019006   0.423228
     3  Na   0.232170   0.185981
     4  Na   0.194895   0.337852
     5  Na  -0.265755  -0.040720
     6  Na  -0.260007   0.016722
     7  Na  -0.359112   0.005341
 Sum of Mulliken charges =  -0.00000   1.00000

 Dipole moment (field-independent basis, Debye):
    X=             -0.5955    Y=             -0.7373    Z=              0.1848  Tot=              0.9657
 Quadrupole moment (field-independent basis, Debye-Ang):
   XX=            -58.5658   YY=            -75.0952   ZZ=            -65.0929
   XY=             -2.4707   XZ=             -2.9206   YZ=             -0.6180

 Normal termination of Gaussian 16 at Thu Dec  7 14:19:57 2023.
