 Gaussian 16, Revision B.01,
 Gaussian 16:  ES64L-G16RevB.01 20-Dec-2017

 -------------------------
 #P B3LYP/6-311+g(d) force
 -------------------------

 -----
 DPGEN
 -----
 Symbolic Z-matrix:
 Charge =  0 Multiplicity = 2

                         Standard orientation:
 ---------------------------------------------------------------------
 Center     Atomic      Atomic             Coordinates (Angstroms)
 Number     Number       Type             X           Y           Z
 ---------------------------------------------------------------------
      1         11           0        2.099773    0.692522    1.638648
      2         11           0       -3.813568    0.421282   -0.323107
      3         11           0        2.623911   -1.667665   -0.371369
      4         11           0       -0.984628   -1.604499    1.819230
      5         11           0       -0.996842   -1.435784   -1.852996
      6         11           0        2.088357    1.665645   -1.507170
      7         11           0       -1.017004    1.928500    0.596765
 ---------------------------------------------------------------------

 SCF Done:  E(UB3LYP) =  -1136.12544361     A.U. after   23 cycles

 The electronic state is 2-A.
 Alpha  occ. eigenvalues --  -38.44858 -38.44458 -38.44095 -38.44016 -38.43932
 Alpha  occ. eigenvalues --  -38.43866 -38.42824  -2.20648  -2.20259  -2.19929
 Alpha  occ. eigenvalues --   -2.19830  -2.19805  -2.19691  -2.18669  -1.14318
 Alpha  occ. eigenvalues --   -1.14314  -1.14278  -1.13938  -1.13898  -1.13877
 Alpha  occ. eigenvalues --   -1.13614  -1.13593  -1.13556  -1.13538  -1.13495
 Alpha  occ. eigenvalues --   -1.13485  -1.13461  -1.13438  -1.13424  -1.13357
 Alpha  occ. eigenvalues --   -1.13341  -1.13311  -1.12363  -1.12353  -1.12290
 Alpha  occ. eigenvalues --   -0.17973  -0.13665  -0.11487  -0.11024
 Alpha virt. eigenvalues --   -0.06475  -0.05155  -0.04839  -0.03230  -0.03016
 Alpha virt. eigenvalues --   -0.02728  -0.02041  -0.00762  -0.00732  -0.00276
 Alpha virt. eigenvalues --    0.00057   0.00174   0.00332   0.00536   0.00772

  Beta  occ. eigenvalues --  -38.44855 -38.44399 -38.44055 -38.43979 -38.43902
  Beta  occ. eigenvalues --  -38.43864 -38.42815  -2.20643  -2.20152  -2.19856
  Beta  occ. eigenvalues --   -2.19777  -2.19737  -2.19691  -2.18656  -1.14314
  Beta  occ. eigenvalues --   -1.14304  -1.14276  -1.13862  -1.13818  -1.13800
  Beta  occ. eigenvalues --   -1.13575  -1.13539  -1.13513  -1.13498  -1.13452
  Beta  occ. eigenvalues --   -1.13438  -1.13411  -1.13383  -1.13375  -1.13339
  Beta  occ. eigenvalues --   -1.13334  -1.13310  -1.12353  -1.12319  -1.12287
  Beta  occ. eigenvalues --   -0.17226  -0.13501  -0.10857
  Beta virt. eigenvalues --   -0.07671  -0.06291  -0.04776  -0.04386  -0.03006
  Beta virt. eigenvalues --   -0.02450  -0.01963  -0.01932  -0.00690  -0.00408
  Beta virt. eigenvalues --   -0.00104   0.00175   0.00218   0.00378   0.00670

 Mulliken charges and spin densities:
               1          2
     1  Na   0.367660   0.282313
     2  Na   0.445968  -0.105727
     3  Na   0.034999   0.008783
     4  Na  -0.096229   0.185246
     5  Na  -0.307560   0.299116
     6  Na  -0.002969   0.187500
     7  Na  -0.441870   0.142770
 Sum of Mulliken charges =  -0.00000   1.00000

 Dipole moment (field-independent basis, Debye):
    X=             -0.6083    Y=             -0.2551    Z=             -0.1927  Tot=              0.6872
 Quadrupole moment (field-independent basis, Debye-Ang):
   XX=            -52.5871   YY=            -77.6089   ZZ=            -65.1515
   XY=              0.3247   XZ=             -0.0304   YZ=             -2.9827

 Normal termination of Gaussian 16 at Fri Dec  8 00:00:07 2023.
