 Gaussian 16, Revision B.01,
 Gaussian 16:  ES64L-G16RevB.01 20-Dec-2017

 -------------------------
 #P B3LYP/6-311+g(d) force
 -------------------------

 -----
 DPGEN
 -----
 Symbolic Z-matrix:
 Charge =  0 Multiplicity = 2

                         Standard orientation:
 ---------------------------------------------------------------------
 Center     Atomic      Atomic             Coordinates (Angstroms)
 Number     Number       Type             X           Y           Z
 ---------------------------------------------------------------------
      1         11           0        0.177656   -0.137278   -1.867142
      2         11           0       -2.592208    1.154343   -0.059306
      3         11           0        0.161780    2.650653   -0.173891
      4         11           0        0.114056   -0.024060    2.047592
      5         11           0        3.012677    0.525416    0.133816
      6         11           0        1.074455   -2.353852   -0.194694
      7         11           0       -1.948415   -1.815223    0.113626
 ---------------------------------------------------------------------

 SCF Done:  E(UB3LYP) =  -1136.13371163     A.U. after   18 cycles

 The electronic state is 2-A.
 Alpha  occ. eigenvalues --  -38.43851 -38.43769 -38.43663 -38.43426 -38.43181
 Alpha  occ. eigenvalues --  -38.43172 -38.43120  -2.19801  -2.19689  -2.19618
 Alpha  occ. eigenvalues --   -2.19349  -2.19159  -2.19139  -2.19030  -1.13481
 Alpha  occ. eigenvalues --   -1.13439  -1.13432  -1.13424  -1.13342  -1.13310
 Alpha  occ. eigenvalues --   -1.13284  -1.13262  -1.13256  -1.13085  -1.13032
 Alpha  occ. eigenvalues --   -1.12989  -1.12907  -1.12826  -1.12788  -1.12777
 Alpha  occ. eigenvalues --   -1.12775  -1.12712  -1.12695  -1.12689  -1.12644
 Alpha  occ. eigenvalues --   -0.19611  -0.13088  -0.12718  -0.11518
 Alpha virt. eigenvalues --   -0.05315  -0.04605  -0.04447  -0.03376  -0.03210
 Alpha virt. eigenvalues --   -0.03035  -0.01282  -0.00767  -0.00082   0.00168
 Alpha virt. eigenvalues --    0.00265   0.00374   0.00916   0.01007   0.01028

  Beta  occ. eigenvalues --  -38.43766 -38.43758 -38.43580 -38.43422 -38.43169
  Beta  occ. eigenvalues --  -38.43164 -38.43113  -2.19630  -2.19616  -2.19537
  Beta  occ. eigenvalues --   -2.19346  -2.19145  -2.19129  -2.19021  -1.13377
  Beta  occ. eigenvalues --   -1.13338  -1.13315  -1.13309  -1.13275  -1.13265
  Beta  occ. eigenvalues --   -1.13253  -1.13234  -1.13176  -1.13087  -1.13031
  Beta  occ. eigenvalues --   -1.12958  -1.12901  -1.12795  -1.12775  -1.12753
  Beta  occ. eigenvalues --   -1.12730  -1.12704  -1.12691  -1.12660  -1.12641
  Beta  occ. eigenvalues --   -0.18814  -0.12827  -0.12426
  Beta virt. eigenvalues --   -0.07508  -0.05297  -0.04604  -0.04443  -0.02529
  Beta virt. eigenvalues --   -0.02330  -0.01939  -0.01208  -0.00710   0.00058
  Beta virt. eigenvalues --    0.00119   0.00206   0.00383   0.00949   0.00987

 Mulliken charges and spin densities:
               1          2
     1  Na  -0.672659   0.485621
     2  Na   0.081962  -0.044869
     3  Na   0.236251  -0.050293
     4  Na  -0.808198   0.651721
     5  Na   0.161340  -0.089455
     6  Na   0.611690   0.008951
     7  Na   0.389615   0.038324
 Sum of Mulliken charges =  -0.00000   1.00000

 Dipole moment (field-independent basis, Debye):
    X=              0.3301    Y=              0.1557    Z=              0.1915  Tot=              0.4122
 Quadrupole moment (field-independent basis, Debye-Ang):
   XX=            -59.3290   YY=            -66.2039   ZZ=            -70.2002
   XY=              0.3185   XZ=              0.2415   YZ=             -0.2514

 Normal termination of Gaussian 16 at Thu Dec  7 16:05:53 2023.
