 Gaussian 16, Revision B.01,
 Gaussian 16:  ES64L-G16RevB.01 20-Dec-2017

 -------------------------
 #P B3LYP/6-311+g(d) force
 -------------------------

 -----
 DPGEN
 -----
 Symbolic Z-matrix:
 Charge =  0 Multiplicity = 2

                         Standard orientation:
 ---------------------------------------------------------------------
 Center     Atomic      Atomic             Coordinates (Angstroms)
 Number     Number       Type             X           Y           Z
 ---------------------------------------------------------------------
      1         11           0       -3.972300    1.859555   -0.188804
      2         11           0        1.574753   -0.847584    0.561845
      3         11           0       -1.584060   -1.162132   -0.289130
      4         11           0       -0.256207    1.981495    0.103169
      5         11           0       -4.677326   -1.942813    0.111129
      6         11           0        3.779912    1.675921    0.011183
      7         11           0        5.135229   -1.564442   -0.309393
 ---------------------------------------------------------------------

 SCF Done:  E(UB3LYP) =  -1136.11816340     A.U. after   24 cycles

 The electronic state is 2-A.
 Alpha  occ. eigenvalues --  -38.45516 -38.44814 -38.44013 -38.43970 -38.43643
 Alpha  occ. eigenvalues --  -38.43366 -38.42909  -2.21313  -2.20603  -2.19879
 Alpha  occ. eigenvalues --   -2.19776  -2.19449  -2.19285  -2.18751  -1.14997
 Alpha  occ. eigenvalues --   -1.14977  -1.14904  -1.14273  -1.14248  -1.14202
 Alpha  occ. eigenvalues --   -1.13572  -1.13544  -1.13493  -1.13456  -1.13456
 Alpha  occ. eigenvalues --   -1.13413  -1.13146  -1.13105  -1.13070  -1.12962
 Alpha  occ. eigenvalues --   -1.12941  -1.12900  -1.12436  -1.12430  -1.12379
 Alpha  occ. eigenvalues --   -0.17044  -0.14493  -0.11226  -0.11199
 Alpha virt. eigenvalues --   -0.07217  -0.04952  -0.04230  -0.03879  -0.03023
 Alpha virt. eigenvalues --   -0.02721  -0.01868  -0.01456  -0.00893  -0.00471
 Alpha virt. eigenvalues --   -0.00416  -0.00023   0.00275   0.00380   0.00448

  Beta  occ. eigenvalues --  -38.45490 -38.44736 -38.44046 -38.43923 -38.43614
  Beta  occ. eigenvalues --  -38.43308 -38.42900  -2.21263  -2.20458  -2.19838
  Beta  occ. eigenvalues --   -2.19796  -2.19395  -2.19184  -2.18739  -1.14961
  Beta  occ. eigenvalues --   -1.14944  -1.14882  -1.14176  -1.14149  -1.14092
  Beta  occ. eigenvalues --   -1.13512  -1.13502  -1.13499  -1.13489  -1.13454
  Beta  occ. eigenvalues --   -1.13414  -1.13101  -1.13069  -1.13031  -1.12899
  Beta  occ. eigenvalues --   -1.12862  -1.12802  -1.12431  -1.12416  -1.12355
  Beta  occ. eigenvalues --   -0.16409  -0.14086  -0.11108
  Beta virt. eigenvalues --   -0.07427  -0.06871  -0.04641  -0.03920  -0.03645
  Beta virt. eigenvalues --   -0.02570  -0.02273  -0.01499  -0.01328  -0.00819
  Beta virt. eigenvalues --   -0.00274  -0.00053   0.00084   0.00378   0.00444

 Mulliken charges and spin densities:
               1          2
     1  Na   0.414256   0.187827
     2  Na  -0.574540  -0.019956
     3  Na  -1.297437   0.346499
     4  Na  -0.649004   0.111343
     5  Na   1.134586   0.211685
     6  Na   0.408232   0.325161
     7  Na   0.563907  -0.162558
 Sum of Mulliken charges =  -0.00000   1.00000

 Dipole moment (field-independent basis, Debye):
    X=              0.9015    Y=              0.6560    Z=              0.0195  Tot=              1.1150
 Quadrupole moment (field-independent basis, Debye-Ang):
   XX=            -60.6100   YY=            -62.9346   ZZ=            -72.5888
   XY=              0.4528   XZ=             -1.1060   YZ=             -0.4641

 Normal termination of Gaussian 16 at Thu Nov 30 08:54:26 2023.
