 Gaussian 16, Revision B.01,
 Gaussian 16:  ES64L-G16RevB.01 20-Dec-2017

 -------------------------
 #P B3LYP/6-311+g(d) force
 -------------------------

 -----
 DPGEN
 -----
 Symbolic Z-matrix:
 Charge =  0 Multiplicity = 2

                         Standard orientation:
 ---------------------------------------------------------------------
 Center     Atomic      Atomic             Coordinates (Angstroms)
 Number     Number       Type             X           Y           Z
 ---------------------------------------------------------------------
      1         11           0        0.752860    1.237466    1.084306
      2         11           0        0.654583   -1.339249   -0.976203
      3         11           0        2.876367   -0.123160   -0.034315
      4         11           0       -0.446458   -1.399393    1.755513
      5         11           0       -2.021736   -0.955066   -1.013739
      6         11           0       -0.021648    1.337777   -1.584062
      7         11           0       -1.793968    1.241625    0.768500
 ---------------------------------------------------------------------

 SCF Done:  E(UB3LYP) =  -1136.07111647     A.U. after   32 cycles

 The electronic state is 2-A.
 Alpha  occ. eigenvalues --  -38.44340 -38.44209 -38.44155 -38.44004 -38.43847
 Alpha  occ. eigenvalues --  -38.43783 -38.43739  -2.20534  -2.20351  -2.20286
 Alpha  occ. eigenvalues --   -2.20172  -2.20121  -2.19907  -2.19845  -1.14715
 Alpha  occ. eigenvalues --   -1.14427  -1.14374  -1.14193  -1.14134  -1.14108
 Alpha  occ. eigenvalues --   -1.13938  -1.13922  -1.13887  -1.13836  -1.13761
 Alpha  occ. eigenvalues --   -1.13739  -1.13670  -1.13606  -1.13541  -1.13523
 Alpha  occ. eigenvalues --   -1.13503  -1.13477  -1.13425  -1.13413  -1.13388
 Alpha  occ. eigenvalues --   -0.21720  -0.13773  -0.13534  -0.11951
 Alpha virt. eigenvalues --   -0.05294  -0.04214  -0.04152  -0.03490  -0.03314
 Alpha virt. eigenvalues --   -0.03054  -0.01109  -0.00469  -0.00200   0.00315
 Alpha virt. eigenvalues --    0.00776   0.00902   0.01007   0.01106   0.01166

  Beta  occ. eigenvalues --  -38.44338 -38.44153 -38.44117 -38.43972 -38.43797
  Beta  occ. eigenvalues --  -38.43725 -38.43685  -2.20444  -2.20345  -2.20222
  Beta  occ. eigenvalues --   -2.20118  -2.20039  -2.19813  -2.19742  -1.14653
  Beta  occ. eigenvalues --   -1.14390  -1.14320  -1.14113  -1.14083  -1.14065
  Beta  occ. eigenvalues --   -1.13903  -1.13886  -1.13834  -1.13766  -1.13700
  Beta  occ. eigenvalues --   -1.13676  -1.13632  -1.13556  -1.13488  -1.13459
  Beta  occ. eigenvalues --   -1.13430  -1.13386  -1.13356  -1.13340  -1.13313
  Beta  occ. eigenvalues --   -0.20792  -0.13522  -0.11823
  Beta virt. eigenvalues --   -0.08866  -0.05243  -0.03668  -0.03524  -0.03208
  Beta virt. eigenvalues --   -0.02681  -0.02188  -0.01062  -0.00228  -0.00150
  Beta virt. eigenvalues --    0.00347   0.00835   0.00994   0.01050   0.01156

 Mulliken charges and spin densities:
               1          2
     1  Na   0.526917   0.290029
     2  Na   0.651496   0.230408
     3  Na  -0.420109  -0.088202
     4  Na  -1.032693   0.232792
     5  Na   0.579651   0.038664
     6  Na  -1.090590   0.392452
     7  Na   0.785328  -0.096144
 Sum of Mulliken charges =  -0.00000   1.00000

 Dipole moment (field-independent basis, Debye):
    X=              0.0834    Y=             -0.2582    Z=              0.0957  Tot=              0.2877
 Quadrupole moment (field-independent basis, Debye-Ang):
   XX=            -59.8387   YY=            -76.1666   ZZ=            -61.8177
   XY=              0.2279   XZ=              0.3404   YZ=              0.6076

 Normal termination of Gaussian 16 at Sat Dec  9 06:01:27 2023.
