 Gaussian 16, Revision B.01,
 Gaussian 16:  ES64L-G16RevB.01 20-Dec-2017

 -------------------------
 #P B3LYP/6-311+g(d) force
 -------------------------

 -----
 DPGEN
 -----
 Symbolic Z-matrix:
 Charge =  0 Multiplicity = 2

                         Standard orientation:
 ---------------------------------------------------------------------
 Center     Atomic      Atomic             Coordinates (Angstroms)
 Number     Number       Type             X           Y           Z
 ---------------------------------------------------------------------
      1         11           0        1.599286   -2.371389   -0.107352
      2         11           0       -2.129558   -2.021561    0.234556
      3         11           0       -3.065953    0.951537   -0.295921
      4         11           0        0.068552   -0.159284   -1.512490
      5         11           0        0.275448    2.964550    0.018157
      6         11           0        0.048800    0.139047    1.732335
      7         11           0        3.203424    0.497100   -0.069285
 ---------------------------------------------------------------------

 SCF Done:  E(UB3LYP) =  -1136.13496111     A.U. after   20 cycles

 The electronic state is 2-A.
 Alpha  occ. eigenvalues --  -38.44500 -38.44273 -38.43498 -38.43304 -38.43234
 Alpha  occ. eigenvalues --  -38.42995 -38.42876  -2.20336  -2.20113  -2.19388
 Alpha  occ. eigenvalues --   -2.19214  -2.19068  -2.19029  -2.18859  -1.14008
 Alpha  occ. eigenvalues --   -1.14004  -1.13970  -1.13797  -1.13777  -1.13744
 Alpha  occ. eigenvalues --   -1.13073  -1.13048  -1.13029  -1.12980  -1.12869
 Alpha  occ. eigenvalues --   -1.12831  -1.12777  -1.12748  -1.12724  -1.12692
 Alpha  occ. eigenvalues --   -1.12635  -1.12626  -1.12541  -1.12469  -1.12466
 Alpha  occ. eigenvalues --   -0.19002  -0.13479  -0.12320  -0.10290
 Alpha virt. eigenvalues --   -0.06112  -0.05049  -0.04595  -0.03156  -0.02554
 Alpha virt. eigenvalues --   -0.01992  -0.01921  -0.01126  -0.00458  -0.00294
 Alpha virt. eigenvalues --    0.00033   0.00339   0.00779   0.00859   0.00899

  Beta  occ. eigenvalues --  -38.44496 -38.44265 -38.43489 -38.43295 -38.43230
  Beta  occ. eigenvalues --  -38.42934 -38.42791  -2.20332  -2.20100  -2.19377
  Beta  occ. eigenvalues --   -2.19203  -2.19064  -2.18918  -2.18704  -1.14005
  Beta  occ. eigenvalues --   -1.13986  -1.13964  -1.13793  -1.13749  -1.13736
  Beta  occ. eigenvalues --   -1.13068  -1.13028  -1.13005  -1.12960  -1.12845
  Beta  occ. eigenvalues --   -1.12813  -1.12763  -1.12721  -1.12692  -1.12654
  Beta  occ. eigenvalues --   -1.12564  -1.12546  -1.12437  -1.12361  -1.12352
  Beta  occ. eigenvalues --   -0.18290  -0.13216  -0.12056
  Beta virt. eigenvalues --   -0.06422  -0.06059  -0.05037  -0.04588  -0.02373
  Beta virt. eigenvalues --   -0.01828  -0.01796  -0.01059  -0.01003  -0.00488
  Beta virt. eigenvalues --   -0.00342   0.00170   0.00376   0.00822   0.00857

 Mulliken charges and spin densities:
               1          2
     1  Na   0.392057   0.004595
     2  Na   0.318385   0.027537
     3  Na   0.035395  -0.024220
     4  Na  -0.480263   0.514722
     5  Na  -0.050464  -0.134814
     6  Na  -0.342346   0.691734
     7  Na   0.127236  -0.079554
 Sum of Mulliken charges =  -0.00000   1.00000

 Dipole moment (field-independent basis, Debye):
    X=              0.1264    Y=              0.1859    Z=              0.0673  Tot=              0.2347
 Quadrupole moment (field-independent basis, Debye-Ang):
   XX=            -51.5804   YY=            -62.7390   ZZ=            -76.8385
   XY=              0.1102   XZ=              0.2096   YZ=             -0.9567

 Normal termination of Gaussian 16 at Wed Nov 29 04:05:15 2023.
