 Gaussian 16, Revision B.01,
 Gaussian 16:  ES64L-G16RevB.01 20-Dec-2017

 -------------------------
 #P B3LYP/6-311+g(d) force
 -------------------------

 -----
 DPGEN
 -----
 Symbolic Z-matrix:
 Charge =  0 Multiplicity = 2

                         Standard orientation:
 ---------------------------------------------------------------------
 Center     Atomic      Atomic             Coordinates (Angstroms)
 Number     Number       Type             X           Y           Z
 ---------------------------------------------------------------------
      1         11           0        0.780431    3.050701    0.211778
      2         11           0       -2.040270    1.688146    0.429513
      3         11           0       -4.941911    0.398828   -0.787107
      4         11           0       -2.629547   -2.493302   -0.106563
      5         11           0        0.281332   -2.135663    1.099055
      6         11           0        4.536854   -1.679305   -0.707183
      7         11           0        4.013111    1.170594   -0.139493
 ---------------------------------------------------------------------

 SCF Done:  E(UB3LYP) =  -1136.11135255     A.U. after   20 cycles

 The electronic state is 2-A.
 Alpha  occ. eigenvalues --  -38.45050 -38.44884 -38.44604 -38.44537 -38.44342
 Alpha  occ. eigenvalues --  -38.43958 -38.43131  -2.20865  -2.20677  -2.20422
 Alpha  occ. eigenvalues --   -2.20354  -2.20140  -2.19775  -2.18943  -1.14508
 Alpha  occ. eigenvalues --   -1.14503  -1.14474  -1.14345  -1.14322  -1.14303
 Alpha  occ. eigenvalues --   -1.14232  -1.14084  -1.14063  -1.13990  -1.13974
 Alpha  occ. eigenvalues --   -1.13925  -1.13819  -1.13815  -1.13771  -1.13470
 Alpha  occ. eigenvalues --   -1.13461  -1.13415  -1.12610  -1.12596  -1.12580
 Alpha  occ. eigenvalues --   -0.16188  -0.14307  -0.12413  -0.11568
 Alpha virt. eigenvalues --   -0.06671  -0.05087  -0.04460  -0.03770  -0.03322
 Alpha virt. eigenvalues --   -0.02598  -0.01835  -0.01732  -0.01292  -0.00660
 Alpha virt. eigenvalues --   -0.00580  -0.00207   0.00142   0.00556   0.00721

  Beta  occ. eigenvalues --  -38.44951 -38.44819 -38.44592 -38.44506 -38.44336
  Beta  occ. eigenvalues --  -38.43955 -38.43109  -2.20681  -2.20558  -2.20404
  Beta  occ. eigenvalues --   -2.20299  -2.20136  -2.19775  -2.18902  -1.14382
  Beta  occ. eigenvalues --   -1.14378  -1.14354  -1.14262  -1.14241  -1.14218
  Beta  occ. eigenvalues --   -1.14198  -1.14074  -1.14046  -1.13954  -1.13937
  Beta  occ. eigenvalues --   -1.13889  -1.13819  -1.13804  -1.13741  -1.13469
  Beta  occ. eigenvalues --   -1.13442  -1.13406  -1.12581  -1.12567  -1.12555
  Beta  occ. eigenvalues --   -0.15515  -0.13657  -0.11740
  Beta virt. eigenvalues --   -0.08331  -0.06700  -0.04507  -0.04161  -0.03562
  Beta virt. eigenvalues --   -0.02815  -0.02370  -0.01680  -0.01274  -0.01153
  Beta virt. eigenvalues --   -0.00494  -0.00287   0.00051   0.00306   0.00605

 Mulliken charges and spin densities:
               1          2
     1  Na   0.485397  -0.026200
     2  Na  -0.975955   0.111279
     3  Na   0.738197   0.435557
     4  Na   0.215347   0.009824
     5  Na  -0.362747   0.238561
     6  Na   0.452584   0.080216
     7  Na  -0.552823   0.150763
 Sum of Mulliken charges =  -0.00000   1.00000

 Dipole moment (field-independent basis, Debye):
    X=             -0.3548    Y=             -1.0324    Z=             -0.3794  Tot=              1.1557
 Quadrupole moment (field-independent basis, Debye-Ang):
   XX=            -55.5288   YY=            -69.2987   ZZ=            -71.7954
   XY=              0.5628   XZ=              2.2635   YZ=              1.2694

 Normal termination of Gaussian 16 at Mon Dec  4 04:38:54 2023.
