 Gaussian 16, Revision B.01,
 Gaussian 16:  ES64L-G16RevB.01 20-Dec-2017

 -------------------------
 #P B3LYP/6-311+g(d) force
 -------------------------

 -----
 DPGEN
 -----
 Symbolic Z-matrix:
 Charge =  0 Multiplicity = 2

                         Standard orientation:
 ---------------------------------------------------------------------
 Center     Atomic      Atomic             Coordinates (Angstroms)
 Number     Number       Type             X           Y           Z
 ---------------------------------------------------------------------
      1         11           0       -0.977749    2.049336   -0.149929
      2         11           0        2.742194    0.564331    1.065817
      3         11           0       -3.880775    0.736058    1.375546
      4         11           0       -3.013456   -1.992036   -0.967798
      5         11           0        2.991747   -2.752624    0.506401
      6         11           0        0.208434   -1.657753   -0.795229
      7         11           0        1.929605    3.052688   -1.034809
 ---------------------------------------------------------------------

 SCF Done:  E(UB3LYP) =  -1136.12444769     A.U. after   21 cycles

 The electronic state is 2-A.
 Alpha  occ. eigenvalues --  -38.44756 -38.44382 -38.44253 -38.43811 -38.43763
 Alpha  occ. eigenvalues --  -38.43692 -38.43515  -2.20582  -2.20201  -2.20064
 Alpha  occ. eigenvalues --   -2.19625  -2.19603  -2.19556  -2.19348  -1.14283
 Alpha  occ. eigenvalues --   -1.14254  -1.14190  -1.13903  -1.13892  -1.13821
 Alpha  occ. eigenvalues --   -1.13749  -1.13725  -1.13679  -1.13276  -1.13272
 Alpha  occ. eigenvalues --   -1.13270  -1.13249  -1.13237  -1.13237  -1.13235
 Alpha  occ. eigenvalues --   -1.13232  -1.13189  -1.13002  -1.13000  -1.12979
 Alpha  occ. eigenvalues --   -0.16939  -0.13842  -0.12904  -0.10486
 Alpha virt. eigenvalues --   -0.06476  -0.05432  -0.04251  -0.03884  -0.02912
 Alpha virt. eigenvalues --   -0.02256  -0.01858  -0.01394  -0.01061  -0.00501
 Alpha virt. eigenvalues --   -0.00345   0.00012   0.00206   0.00589   0.00656

  Beta  occ. eigenvalues --  -38.44742 -38.44369 -38.44214 -38.43751 -38.43728
  Beta  occ. eigenvalues --  -38.43657 -38.43501  -2.20558  -2.20182  -2.19997
  Beta  occ. eigenvalues --   -2.19582  -2.19495  -2.19472  -2.19322  -1.14268
  Beta  occ. eigenvalues --   -1.14240  -1.14161  -1.13891  -1.13870  -1.13792
  Beta  occ. eigenvalues --   -1.13691  -1.13677  -1.13626  -1.13257  -1.13233
  Beta  occ. eigenvalues --   -1.13223  -1.13204  -1.13197  -1.13170  -1.13162
  Beta  occ. eigenvalues --   -1.13136  -1.13124  -1.12983  -1.12977  -1.12959
  Beta  occ. eigenvalues --   -0.16572  -0.13182  -0.12521
  Beta virt. eigenvalues --   -0.06934  -0.06408  -0.05287  -0.03811  -0.03639
  Beta virt. eigenvalues --   -0.02379  -0.02123  -0.01651  -0.01066  -0.00767
  Beta virt. eigenvalues --   -0.00231  -0.00094   0.00226   0.00300   0.00638

 Mulliken charges and spin densities:
               1          2
     1  Na  -1.404672   0.244796
     2  Na   0.035135   0.073606
     3  Na   0.745338   0.244727
     4  Na   0.141205   0.078087
     5  Na   1.045223   0.104524
     6  Na  -1.227631   0.161050
     7  Na   0.665402   0.093210
 Sum of Mulliken charges =  -0.00000   1.00000

 Dipole moment (field-independent basis, Debye):
    X=              0.7319    Y=              0.0118    Z=             -0.0688  Tot=              0.7352
 Quadrupole moment (field-independent basis, Debye-Ang):
   XX=            -60.1263   YY=            -66.7529   ZZ=            -69.8667
   XY=              5.3982   XZ=              0.9777   YZ=             -1.8262

 Normal termination of Gaussian 16 at Mon Dec  4 04:13:05 2023.
