 Gaussian 16, Revision B.01,
 Gaussian 16:  ES64L-G16RevB.01 20-Dec-2017

 -------------------------
 #P B3LYP/6-311+g(d) force
 -------------------------

 -----
 DPGEN
 -----
 Symbolic Z-matrix:
 Charge =  0 Multiplicity = 2

                         Standard orientation:
 ---------------------------------------------------------------------
 Center     Atomic      Atomic             Coordinates (Angstroms)
 Number     Number       Type             X           Y           Z
 ---------------------------------------------------------------------
      1         11           0        2.769317    0.675773   -0.013752
      2         11           0       -3.995258    0.401209    1.224521
      3         11           0        1.005755    2.671540   -1.504019
      4         11           0        0.073936   -1.151410   -1.646116
      5         11           0       -2.713975   -1.819778   -1.175068
      6         11           0        3.680887   -1.876475    1.317666
      7         11           0       -0.820662    1.099141    1.796767
 ---------------------------------------------------------------------

 SCF Done:  E(UB3LYP) =  -1136.10973495     A.U. after   24 cycles

 The electronic state is 2-A.
 Alpha  occ. eigenvalues --  -38.45036 -38.44809 -38.44470 -38.44040 -38.43988
 Alpha  occ. eigenvalues --  -38.43864 -38.43567  -2.20811  -2.20617  -2.20333
 Alpha  occ. eigenvalues --   -2.19871  -2.19825  -2.19721  -2.19507  -1.14494
 Alpha  occ. eigenvalues --   -1.14485  -1.14437  -1.14273  -1.14258  -1.14246
 Alpha  occ. eigenvalues --   -1.14079  -1.13974  -1.13957  -1.13609  -1.13532
 Alpha  occ. eigenvalues --   -1.13502  -1.13481  -1.13469  -1.13437  -1.13407
 Alpha  occ. eigenvalues --   -1.13359  -1.13323  -1.13181  -1.13163  -1.13111
 Alpha  occ. eigenvalues --   -0.17318  -0.14178  -0.11933  -0.11674
 Alpha virt. eigenvalues --   -0.06592  -0.05117  -0.04536  -0.03553  -0.03279
 Alpha virt. eigenvalues --   -0.02421  -0.02108  -0.01297  -0.01065  -0.00437
 Alpha virt. eigenvalues --   -0.00111   0.00093   0.00212   0.00410   0.00682

  Beta  occ. eigenvalues --  -38.45014 -38.44775 -38.44415 -38.43975 -38.43956
  Beta  occ. eigenvalues --  -38.43837 -38.43553  -2.20773  -2.20554  -2.20235
  Beta  occ. eigenvalues --   -2.19767  -2.19752  -2.19676  -2.19487  -1.14468
  Beta  occ. eigenvalues --   -1.14463  -1.14400  -1.14231  -1.14211  -1.14208
  Beta  occ. eigenvalues --   -1.14004  -1.13903  -1.13887  -1.13539  -1.13476
  Beta  occ. eigenvalues --   -1.13423  -1.13421  -1.13404  -1.13402  -1.13359
  Beta  occ. eigenvalues --   -1.13332  -1.13288  -1.13161  -1.13153  -1.13069
  Beta  occ. eigenvalues --   -0.16761  -0.13608  -0.11010
  Beta virt. eigenvalues --   -0.08518  -0.06397  -0.04783  -0.04213  -0.03193
  Beta virt. eigenvalues --   -0.02889  -0.02232  -0.01652  -0.01051  -0.00845
  Beta virt. eigenvalues --   -0.00237   0.00041   0.00176   0.00269   0.00558

 Mulliken charges and spin densities:
               1          2
     1  Na  -0.018842   0.438878
     2  Na   0.252830   0.076979
     3  Na   0.493720   0.080884
     4  Na  -0.530647   0.273386
     5  Na   0.066597  -0.039055
     6  Na   0.180961   0.026864
     7  Na  -0.444619   0.142065
 Sum of Mulliken charges =  -0.00000   1.00000

 Dipole moment (field-independent basis, Debye):
    X=             -1.1385    Y=              0.4981    Z=              0.2375  Tot=              1.2652
 Quadrupole moment (field-independent basis, Debye-Ang):
   XX=            -59.6139   YY=            -71.9713   ZZ=            -67.7914
   XY=              0.2747   XZ=             -0.3152   YZ=             -4.5634

 Normal termination of Gaussian 16 at Mon Dec  4 01:11:49 2023.
