 Gaussian 16, Revision B.01,
 Gaussian 16:  ES64L-G16RevB.01 20-Dec-2017

 -------------------------
 #P B3LYP/6-311+g(d) force
 -------------------------

 -----
 DPGEN
 -----
 Symbolic Z-matrix:
 Charge =  0 Multiplicity = 2

                         Standard orientation:
 ---------------------------------------------------------------------
 Center     Atomic      Atomic             Coordinates (Angstroms)
 Number     Number       Type             X           Y           Z
 ---------------------------------------------------------------------
      1         11           0        3.206660   -0.227355   -0.294228
      2         11           0       -2.680367   -1.486097   -0.202849
      3         11           0        0.676960   -2.586410    0.515080
      4         11           0       -2.214072    1.818682   -0.015801
      5         11           0        0.032272    0.271374    1.843367
      6         11           0        0.982590    2.557718   -0.051534
      7         11           0       -0.004043   -0.347912   -1.794036
 ---------------------------------------------------------------------

 SCF Done:  E(UB3LYP) =  -1136.13888397     A.U. after   18 cycles

 The electronic state is 2-A.
 Alpha  occ. eigenvalues --  -38.44046 -38.43637 -38.43399 -38.43360 -38.43348
 Alpha  occ. eigenvalues --  -38.43261 -38.43130  -2.19869  -2.19496  -2.19336
 Alpha  occ. eigenvalues --   -2.19326  -2.19300  -2.19155  -2.19037  -1.13541
 Alpha  occ. eigenvalues --   -1.13520  -1.13517  -1.13193  -1.13162  -1.13140
 Alpha  occ. eigenvalues --   -1.13066  -1.13033  -1.12995  -1.12989  -1.12989
 Alpha  occ. eigenvalues --   -1.12955  -1.12937  -1.12926  -1.12918  -1.12824
 Alpha  occ. eigenvalues --   -1.12809  -1.12759  -1.12710  -1.12697  -1.12648
 Alpha  occ. eigenvalues --   -0.19114  -0.13061  -0.12597  -0.10970
 Alpha virt. eigenvalues --   -0.05587  -0.04920  -0.04489  -0.03199  -0.03040
 Alpha virt. eigenvalues --   -0.02571  -0.01566  -0.00955  -0.00166  -0.00042
 Alpha virt. eigenvalues --    0.00025   0.00358   0.00838   0.00932   0.00941

  Beta  occ. eigenvalues --  -38.44041 -38.43632 -38.43394 -38.43288 -38.43262
  Beta  occ. eigenvalues --  -38.43244 -38.43123  -2.19862  -2.19491  -2.19294
  Beta  occ. eigenvalues --   -2.19195  -2.19180  -2.19128  -2.19030  -1.13523
  Beta  occ. eigenvalues --   -1.13518  -1.13508  -1.13182  -1.13154  -1.13124
  Beta  occ. eigenvalues --   -1.13015  -1.12956  -1.12952  -1.12928  -1.12908
  Beta  occ. eigenvalues --   -1.12900  -1.12880  -1.12837  -1.12832  -1.12783
  Beta  occ. eigenvalues --   -1.12756  -1.12745  -1.12694  -1.12668  -1.12638
  Beta  occ. eigenvalues --   -0.18370  -0.12803  -0.12328
  Beta virt. eigenvalues --   -0.07031  -0.05540  -0.04930  -0.04454  -0.02423
  Beta virt. eigenvalues --   -0.02235  -0.01506  -0.01466  -0.00902  -0.00161
  Beta virt. eigenvalues --   -0.00090   0.00121   0.00380   0.00885   0.00922

 Mulliken charges and spin densities:
               1          2
     1  Na   0.063195  -0.057963
     2  Na   0.208389  -0.049812
     3  Na   0.175232  -0.021453
     4  Na   0.157750  -0.065947
     5  Na  -0.294065   0.579213
     6  Na   0.167316  -0.069992
     7  Na  -0.477817   0.685954
 Sum of Mulliken charges =  -0.00000   1.00000

 Dipole moment (field-independent basis, Debye):
    X=              0.1508    Y=             -0.1128    Z=             -0.0817  Tot=              0.2053
 Quadrupole moment (field-independent basis, Debye-Ang):
   XX=            -55.7986   YY=            -64.6415   ZZ=            -73.1556
   XY=              0.2347   XZ=             -0.3159   YZ=             -1.1728

 Normal termination of Gaussian 16 at Thu Dec  7 05:22:18 2023.
