 Gaussian 16, Revision B.01,
 Gaussian 16:  ES64L-G16RevB.01 20-Dec-2017

 -------------------------
 #P B3LYP/6-311+g(d) force
 -------------------------

 -----
 DPGEN
 -----
 Symbolic Z-matrix:
 Charge =  0 Multiplicity = 2

                         Standard orientation:
 ---------------------------------------------------------------------
 Center     Atomic      Atomic             Coordinates (Angstroms)
 Number     Number       Type             X           Y           Z
 ---------------------------------------------------------------------
      1         11           0       -0.821495   -1.473308    1.577137
      2         11           0       -4.175719   -1.515361   -0.632463
      3         11           0        4.269965   -0.130476   -1.039671
      4         11           0       -2.297574    0.891127   -0.987862
      5         11           0        1.255199    1.109993    0.682315
      6         11           0       -0.234518    3.827033    0.372943
      7         11           0        2.004141   -2.709008    0.027601
 ---------------------------------------------------------------------

 SCF Done:  E(UB3LYP) =  -1136.12402314     A.U. after   18 cycles

 The electronic state is 2-A.
 Alpha  occ. eigenvalues --  -38.44502 -38.44272 -38.44199 -38.44108 -38.43771
 Alpha  occ. eigenvalues --  -38.43532 -38.43525  -2.20286  -2.20078  -2.20043
 Alpha  occ. eigenvalues --   -2.19949  -2.19597  -2.19413  -2.19335  -1.13972
 Alpha  occ. eigenvalues --   -1.13955  -1.13928  -1.13728  -1.13724  -1.13721
 Alpha  occ. eigenvalues --   -1.13698  -1.13683  -1.13643  -1.13641  -1.13617
 Alpha  occ. eigenvalues --   -1.13598  -1.13249  -1.13241  -1.13208  -1.13127
 Alpha  occ. eigenvalues --   -1.13107  -1.13101  -1.12989  -1.12979  -1.12920
 Alpha  occ. eigenvalues --   -0.17033  -0.13722  -0.12356  -0.10995
 Alpha virt. eigenvalues --   -0.06046  -0.05353  -0.04496  -0.03825  -0.02948
 Alpha virt. eigenvalues --   -0.01992  -0.01654  -0.01605  -0.01198  -0.00659
 Alpha virt. eigenvalues --   -0.00400   0.00075   0.00437   0.00540   0.00699

  Beta  occ. eigenvalues --  -38.44500 -38.44183 -38.44133 -38.44091 -38.43734
  Beta  occ. eigenvalues --  -38.43529 -38.43521  -2.20289  -2.19926  -2.19918
  Beta  occ. eigenvalues --   -2.19910  -2.19529  -2.19396  -2.19343  -1.13980
  Beta  occ. eigenvalues --   -1.13947  -1.13903  -1.13646  -1.13623  -1.13620
  Beta  occ. eigenvalues --   -1.13609  -1.13609  -1.13606  -1.13576  -1.13555
  Beta  occ. eigenvalues --   -1.13545  -1.13197  -1.13194  -1.13170  -1.13115
  Beta  occ. eigenvalues --   -1.13100  -1.13067  -1.12993  -1.12984  -1.12920
  Beta  occ. eigenvalues --   -0.16473  -0.13005  -0.12158
  Beta virt. eigenvalues --   -0.07467  -0.05842  -0.05250  -0.03947  -0.03521
  Beta virt. eigenvalues --   -0.02435  -0.01825  -0.01641  -0.01180  -0.00916
  Beta virt. eigenvalues --   -0.00290  -0.00195   0.00228   0.00502   0.00652

 Mulliken charges and spin densities:
               1          2
     1  Na   0.332439   0.299638
     2  Na   0.288054   0.091599
     3  Na   0.317618   0.407688
     4  Na  -0.397729   0.156342
     5  Na  -1.100367   0.104167
     6  Na   0.480511  -0.036564
     7  Na   0.079473  -0.022870
 Sum of Mulliken charges =  -0.00000   1.00000

 Dipole moment (field-independent basis, Debye):
    X=             -0.1308    Y=             -0.5245    Z=             -0.0167  Tot=              0.5408
 Quadrupole moment (field-independent basis, Debye-Ang):
   XX=            -66.2549   YY=            -60.1729   ZZ=            -69.9909
   XY=              0.9346   XZ=             -1.7567   YZ=              0.0757

 Normal termination of Gaussian 16 at Sun Dec  3 18:31:25 2023.
