 Gaussian 16, Revision B.01,
 Gaussian 16:  ES64L-G16RevB.01 20-Dec-2017

 -------------------------
 #P B3LYP/6-311+g(d) force
 -------------------------

 -----
 DPGEN
 -----
 Symbolic Z-matrix:
 Charge =  0 Multiplicity = 2

                         Standard orientation:
 ---------------------------------------------------------------------
 Center     Atomic      Atomic             Coordinates (Angstroms)
 Number     Number       Type             X           Y           Z
 ---------------------------------------------------------------------
      1         11           0        3.255682   -0.314277   -0.345777
      2         11           0        0.200998    0.051848    2.021778
      3         11           0        0.080216   -0.312748   -1.626528
      4         11           0        1.032801    2.588949   -0.105769
      5         11           0       -2.231054    1.976435    0.004923
      6         11           0       -2.824912   -1.423611   -0.285421
      7         11           0        0.486269   -2.566596    0.336794
 ---------------------------------------------------------------------

 SCF Done:  E(UB3LYP) =  -1136.13738143     A.U. after   19 cycles

 The electronic state is 2-A.
 Alpha  occ. eigenvalues --  -38.44156 -38.43759 -38.43571 -38.43495 -38.43273
 Alpha  occ. eigenvalues --  -38.43249 -38.43181  -2.19977  -2.19595  -2.19503
 Alpha  occ. eigenvalues --   -2.19345  -2.19281  -2.19180  -2.19058  -1.13653
 Alpha  occ. eigenvalues --   -1.13625  -1.13621  -1.13277  -1.13255  -1.13240
 Alpha  occ. eigenvalues --   -1.13205  -1.13147  -1.13109  -1.13061  -1.13024
 Alpha  occ. eigenvalues --   -1.13010  -1.12989  -1.12940  -1.12881  -1.12849
 Alpha  occ. eigenvalues --   -1.12802  -1.12760  -1.12732  -1.12728  -1.12676
 Alpha  occ. eigenvalues --   -0.18937  -0.12999  -0.12549  -0.10916
 Alpha virt. eigenvalues --   -0.05697  -0.05003  -0.04482  -0.03105  -0.02982
 Alpha virt. eigenvalues --   -0.02603  -0.01718  -0.00981  -0.00200  -0.00147
 Alpha virt. eigenvalues --    0.00003   0.00335   0.00807   0.00906   0.00916

  Beta  occ. eigenvalues --  -38.44147 -38.43754 -38.43493 -38.43472 -38.43233
  Beta  occ. eigenvalues --  -38.43213 -38.43176  -2.19964  -2.19590  -2.19345
  Beta  occ. eigenvalues --   -2.19321  -2.19174  -2.19153  -2.19051  -1.13630
  Beta  occ. eigenvalues --   -1.13618  -1.13609  -1.13265  -1.13248  -1.13232
  Beta  occ. eigenvalues --   -1.13095  -1.13033  -1.13012  -1.13002  -1.12998
  Beta  occ. eigenvalues --   -1.12984  -1.12974  -1.12868  -1.12802  -1.12800
  Beta  occ. eigenvalues --   -1.12751  -1.12748  -1.12725  -1.12700  -1.12670
  Beta  occ. eigenvalues --   -0.18203  -0.12746  -0.12294
  Beta virt. eigenvalues --   -0.06967  -0.05641  -0.05008  -0.04450  -0.02375
  Beta virt. eigenvalues --   -0.02163  -0.01615  -0.01519  -0.00935  -0.00198
  Beta virt. eigenvalues --   -0.00194   0.00117   0.00365   0.00861   0.00897

 Mulliken charges and spin densities:
               1          2
     1  Na   0.203612  -0.044568
     2  Na  -0.386505   0.624825
     3  Na  -0.485519   0.568462
     4  Na   0.085167  -0.060016
     5  Na   0.025102  -0.056048
     6  Na   0.162567  -0.046719
     7  Na   0.395576   0.014063
 Sum of Mulliken charges =  -0.00000   1.00000

 Dipole moment (field-independent basis, Debye):
    X=              0.1579    Y=             -0.0343    Z=              0.0704  Tot=              0.1762
 Quadrupole moment (field-independent basis, Debye-Ang):
   XX=            -54.6375   YY=            -65.0945   ZZ=            -73.5786
   XY=              0.2434   XZ=             -0.3951   YZ=             -0.4416

 Normal termination of Gaussian 16 at Thu Dec  7 04:51:48 2023.
