 Gaussian 16, Revision B.01,
 Gaussian 16:  ES64L-G16RevB.01 20-Dec-2017

 -------------------------
 #P B3LYP/6-311+g(d) force
 -------------------------

 -----
 DPGEN
 -----
 Symbolic Z-matrix:
 Charge =  0 Multiplicity = 2

                         Standard orientation:
 ---------------------------------------------------------------------
 Center     Atomic      Atomic             Coordinates (Angstroms)
 Number     Number       Type             X           Y           Z
 ---------------------------------------------------------------------
      1         11           0       -0.161687    0.303694    1.829890
      2         11           0       -1.173541   -2.377226   -0.130644
      3         11           0       -0.497860    2.592886   -0.530134
      4         11           0        2.346196   -1.858649    0.192594
      5         11           0        0.418924   -0.236266   -1.814828
      6         11           0        2.577074    1.402976    0.291988
      7         11           0       -3.509105    0.172584    0.161135
 ---------------------------------------------------------------------

 SCF Done:  E(UB3LYP) =  -1136.13583732     A.U. after   20 cycles

 The electronic state is 2-A.
 Alpha  occ. eigenvalues --  -38.44563 -38.43660 -38.43553 -38.43460 -38.43287
 Alpha  occ. eigenvalues --  -38.43178 -38.43061  -2.20343  -2.19568  -2.19496
 Alpha  occ. eigenvalues --   -2.19347  -2.19287  -2.19065  -2.18950  -1.14015
 Alpha  occ. eigenvalues --   -1.14002  -1.13981  -1.13278  -1.13238  -1.13216
 Alpha  occ. eigenvalues --   -1.13176  -1.13138  -1.13098  -1.13061  -1.13002
 Alpha  occ. eigenvalues --   -1.12987  -1.12967  -1.12938  -1.12889  -1.12743
 Alpha  occ. eigenvalues --   -1.12736  -1.12664  -1.12635  -1.12612  -1.12558
 Alpha  occ. eigenvalues --   -0.19025  -0.13180  -0.12334  -0.10952
 Alpha virt. eigenvalues --   -0.06045  -0.04865  -0.04236  -0.03253  -0.02941
 Alpha virt. eigenvalues --   -0.02552  -0.01844  -0.00947  -0.00219  -0.00038
 Alpha virt. eigenvalues --    0.00017   0.00335   0.00784   0.00895   0.00915

  Beta  occ. eigenvalues --  -38.44565 -38.43649 -38.43482 -38.43453 -38.43204
  Beta  occ. eigenvalues --  -38.43170 -38.43044  -2.20348  -2.19552  -2.19365
  Beta  occ. eigenvalues --   -2.19338  -2.19134  -2.19055  -2.18923  -1.14010
  Beta  occ. eigenvalues --   -1.14005  -1.13985  -1.13261  -1.13218  -1.13183
  Beta  occ. eigenvalues --   -1.13095  -1.13052  -1.13035  -1.13002  -1.12985
  Beta  occ. eigenvalues --   -1.12963  -1.12885  -1.12837  -1.12793  -1.12724
  Beta  occ. eigenvalues --   -1.12698  -1.12658  -1.12613  -1.12565  -1.12544
  Beta  occ. eigenvalues --   -0.18271  -0.12952  -0.12064
  Beta virt. eigenvalues --   -0.06999  -0.05971  -0.04875  -0.04205  -0.02521
  Beta virt. eigenvalues --   -0.02135  -0.01771  -0.01467  -0.00906  -0.00205
  Beta virt. eigenvalues --   -0.00050   0.00104   0.00357   0.00831   0.00907

 Mulliken charges and spin densities:
               1          2
     1  Na  -0.484807   0.677414
     2  Na   0.094420  -0.122956
     3  Na   0.089482  -0.044423
     4  Na   0.127959  -0.052308
     5  Na  -0.161676   0.576360
     6  Na   0.377856   0.058522
     7  Na  -0.043234  -0.092610
 Sum of Mulliken charges =  -0.00000   1.00000

 Dipole moment (field-independent basis, Debye):
    X=             -0.3526    Y=              0.0768    Z=              0.1412  Tot=              0.3875
 Quadrupole moment (field-independent basis, Debye-Ang):
   XX=            -53.2078   YY=            -66.7936   ZZ=            -73.1781
   XY=             -0.7942   XZ=              1.0507   YZ=             -1.0372

 Normal termination of Gaussian 16 at Thu Dec  7 07:21:41 2023.
