 Gaussian 16, Revision B.01,
 Gaussian 16:  ES64L-G16RevB.01 20-Dec-2017

 -------------------------
 #P B3LYP/6-311+g(d) force
 -------------------------

 -----
 DPGEN
 -----
 Symbolic Z-matrix:
 Charge =  0 Multiplicity = 2

                         Standard orientation:
 ---------------------------------------------------------------------
 Center     Atomic      Atomic             Coordinates (Angstroms)
 Number     Number       Type             X           Y           Z
 ---------------------------------------------------------------------
      1         11           0        1.921220    2.459105   -0.384385
      2         11           0       -2.624061    2.348790    0.259986
      3         11           0       -3.053349   -1.410819   -0.062157
      4         11           0        0.837426    0.063965    1.693833
      5         11           0        0.211589   -2.735682    0.006443
      6         11           0       -0.441957    0.016515   -1.274822
      7         11           0        3.149131   -0.741875   -0.238897
 ---------------------------------------------------------------------

 SCF Done:  E(UB3LYP) =  -1136.12684669     A.U. after   21 cycles

 The electronic state is 2-A.
 Alpha  occ. eigenvalues --  -38.44582 -38.44557 -38.44347 -38.43827 -38.43004
 Alpha  occ. eigenvalues --  -38.42988 -38.42957  -2.20428  -2.20399  -2.20109
 Alpha  occ. eigenvalues --   -2.19668  -2.18988  -2.18975  -2.18894  -1.14126
 Alpha  occ. eigenvalues --   -1.14090  -1.14079  -1.14062  -1.14059  -1.14023
 Alpha  occ. eigenvalues --   -1.13784  -1.13757  -1.13754  -1.13343  -1.13332
 Alpha  occ. eigenvalues --   -1.13299  -1.12785  -1.12682  -1.12634  -1.12618
 Alpha  occ. eigenvalues --   -1.12599  -1.12590  -1.12539  -1.12526  -1.12498
 Alpha  occ. eigenvalues --   -0.18633  -0.13577  -0.12212  -0.09769
 Alpha virt. eigenvalues --   -0.06148  -0.05999  -0.04533  -0.03071  -0.02399
 Alpha virt. eigenvalues --   -0.02015  -0.01597  -0.01500  -0.00832  -0.00489
 Alpha virt. eigenvalues --    0.00013   0.00289   0.00679   0.00730   0.00838

  Beta  occ. eigenvalues --  -38.44580 -38.44547 -38.44342 -38.43810 -38.42978
  Beta  occ. eigenvalues --  -38.42925 -38.42912  -2.20415  -2.20398  -2.20100
  Beta  occ. eigenvalues --   -2.19639  -2.18897  -2.18880  -2.18844  -1.14110
  Beta  occ. eigenvalues --   -1.14083  -1.14067  -1.14053  -1.14033  -1.14022
  Beta  occ. eigenvalues --   -1.13770  -1.13751  -1.13749  -1.13326  -1.13296
  Beta  occ. eigenvalues --   -1.13274  -1.12731  -1.12623  -1.12557  -1.12541
  Beta  occ. eigenvalues --   -1.12520  -1.12511  -1.12505  -1.12483  -1.12452
  Beta  occ. eigenvalues --   -0.17969  -0.13335  -0.11952
  Beta virt. eigenvalues --   -0.06183  -0.05968  -0.05824  -0.04498  -0.02393
  Beta virt. eigenvalues --   -0.01945  -0.01714  -0.01428  -0.00862  -0.00714
  Beta virt. eigenvalues --   -0.00495   0.00192   0.00357   0.00720   0.00766

 Mulliken charges and spin densities:
               1          2
     1  Na  -0.055381   0.041331
     2  Na  -0.143727  -0.049214
     3  Na   0.088363  -0.052256
     4  Na  -0.371790   0.739361
     5  Na   0.005925  -0.126431
     6  Na   0.062361   0.362098
     7  Na   0.414248   0.085111
 Sum of Mulliken charges =  -0.00000   1.00000

 Dipole moment (field-independent basis, Debye):
    X=             -0.2388    Y=              0.0634    Z=              0.0470  Tot=              0.2515
 Quadrupole moment (field-independent basis, Debye-Ang):
   XX=            -50.0122   YY=            -61.5003   ZZ=            -78.6537
   XY=             -0.0369   XZ=             -2.4819   YZ=              0.1962

 Normal termination of Gaussian 16 at Tue Nov 28 18:54:07 2023.
