 Gaussian 16, Revision B.01,
 Gaussian 16:  ES64L-G16RevB.01 20-Dec-2017

 -------------------------
 #P B3LYP/6-311+g(d) force
 -------------------------

 -----
 DPGEN
 -----
 Symbolic Z-matrix:
 Charge =  0 Multiplicity = 2

                         Standard orientation:
 ---------------------------------------------------------------------
 Center     Atomic      Atomic             Coordinates (Angstroms)
 Number     Number       Type             X           Y           Z
 ---------------------------------------------------------------------
      1         11           0        1.369261    1.508784    0.230290
      2         11           0       -4.137854   -0.021028   -0.172436
      3         11           0        4.814754    0.224018   -0.252406
      4         11           0        1.970336   -1.686039    0.048291
      5         11           0       -1.407864   -1.668215   -1.227030
      6         11           0       -1.252857   -0.303529    2.192675
      7         11           0       -1.355777    1.946009   -0.819384
 ---------------------------------------------------------------------

 SCF Done:  E(UB3LYP) =  -1136.11267986     A.U. after   25 cycles

 The electronic state is 2-A.
 Alpha  occ. eigenvalues --  -38.46038 -38.44829 -38.44635 -38.44138 -38.43421
 Alpha  occ. eigenvalues --  -38.42921 -38.42572  -2.21847  -2.20630  -2.20482
 Alpha  occ. eigenvalues --   -2.19970  -2.19263  -2.18827  -2.18492  -1.15514
 Alpha  occ. eigenvalues --   -1.15489  -1.15464  -1.14280  -1.14275  -1.14243
 Alpha  occ. eigenvalues --   -1.14148  -1.14118  -1.14109  -1.13667  -1.13627
 Alpha  occ. eigenvalues --   -1.13604  -1.12979  -1.12946  -1.12878  -1.12590
 Alpha  occ. eigenvalues --   -1.12486  -1.12450  -1.12187  -1.12157  -1.12081
 Alpha  occ. eigenvalues --   -0.18186  -0.14381  -0.11157  -0.10774
 Alpha virt. eigenvalues --   -0.07925  -0.04844  -0.04442  -0.03358  -0.03060
 Alpha virt. eigenvalues --   -0.02213  -0.02099  -0.01619  -0.01310  -0.00759
 Alpha virt. eigenvalues --   -0.00098   0.00191   0.00253   0.00622   0.00788

  Beta  occ. eigenvalues --  -38.45982 -38.44760 -38.44580 -38.44133 -38.43420
  Beta  occ. eigenvalues --  -38.42911 -38.42570  -2.21744  -2.20501  -2.20381
  Beta  occ. eigenvalues --   -2.19965  -2.19265  -2.18812  -2.18490  -1.15430
  Beta  occ. eigenvalues --   -1.15422  -1.15389  -1.14192  -1.14186  -1.14160
  Beta  occ. eigenvalues --   -1.14072  -1.14054  -1.14038  -1.13668  -1.13623
  Beta  occ. eigenvalues --   -1.13574  -1.12984  -1.12949  -1.12845  -1.12571
  Beta  occ. eigenvalues --   -1.12471  -1.12445  -1.12188  -1.12144  -1.12069
  Beta  occ. eigenvalues --   -0.17593  -0.13711  -0.10639
  Beta virt. eigenvalues --   -0.07722  -0.07536  -0.04495  -0.03930  -0.03064
  Beta virt. eigenvalues --   -0.02934  -0.01846  -0.01803  -0.01134  -0.00865
  Beta virt. eigenvalues --   -0.00498   0.00021   0.00234   0.00334   0.00698

 Mulliken charges and spin densities:
               1          2
     1  Na  -0.434843   0.022797
     2  Na   0.491283   0.307545
     3  Na   0.427554   0.312609
     4  Na  -0.197403   0.077597
     5  Na  -0.188696  -0.014791
     6  Na  -0.000527   0.220345
     7  Na  -0.097368   0.073897
 Sum of Mulliken charges =  -0.00000   1.00000

 Dipole moment (field-independent basis, Debye):
    X=             -0.4741    Y=             -0.1300    Z=              1.2517  Tot=              1.3448
 Quadrupole moment (field-independent basis, Debye-Ang):
   XX=            -52.2162   YY=            -82.7109   ZZ=            -61.9626
   XY=              0.0224   XZ=             -4.5576   YZ=             -0.9485

 Normal termination of Gaussian 16 at Thu Dec  7 22:36:45 2023.
