 Gaussian 16, Revision B.01,
 Gaussian 16:  ES64L-G16RevB.01 20-Dec-2017

 -------------------------
 #P B3LYP/6-311+g(d) force
 -------------------------

 -----
 DPGEN
 -----
 Symbolic Z-matrix:
 Charge =  0 Multiplicity = 2

                         Standard orientation:
 ---------------------------------------------------------------------
 Center     Atomic      Atomic             Coordinates (Angstroms)
 Number     Number       Type             X           Y           Z
 ---------------------------------------------------------------------
      1         11           0        3.896692   -0.643180    1.241754
      2         11           0       -3.173078   -2.043320   -0.841401
      3         11           0        0.870810   -2.069770   -1.140259
      4         11           0        0.235141   -0.500514    1.595942
      5         11           0       -0.730255    2.519486   -0.611623
      6         11           0        2.266435    1.597186   -1.448845
      7         11           0       -3.365744    1.140112    1.204433
 ---------------------------------------------------------------------

 SCF Done:  E(UB3LYP) =  -1136.11793634     A.U. after   23 cycles

 The electronic state is 2-A.
 Alpha  occ. eigenvalues --  -38.45212 -38.45002 -38.44793 -38.44247 -38.44206
 Alpha  occ. eigenvalues --  -38.43735 -38.42903  -2.21022  -2.20783  -2.20525
 Alpha  occ. eigenvalues --   -2.20050  -2.19999  -2.19560  -2.18722  -1.14749
 Alpha  occ. eigenvalues --   -1.14683  -1.14622  -1.14444  -1.14436  -1.14390
 Alpha  occ. eigenvalues --   -1.14209  -1.14175  -1.14163  -1.13761  -1.13711
 Alpha  occ. eigenvalues --   -1.13670  -1.13645  -1.13640  -1.13630  -1.13237
 Alpha  occ. eigenvalues --   -1.13218  -1.13180  -1.12406  -1.12395  -1.12363
 Alpha  occ. eigenvalues --   -0.17250  -0.13525  -0.11721  -0.10775
 Alpha virt. eigenvalues --   -0.07028  -0.05574  -0.04796  -0.03296  -0.02885
 Alpha virt. eigenvalues --   -0.02665  -0.02121  -0.01415  -0.01080  -0.00349
 Alpha virt. eigenvalues --    0.00007   0.00088   0.00130   0.00228   0.00517

  Beta  occ. eigenvalues --  -38.45190 -38.44947 -38.44785 -38.44215 -38.44177
  Beta  occ. eigenvalues --  -38.43694 -38.42904  -2.20982  -2.20681  -2.20511
  Beta  occ. eigenvalues --   -2.19992  -2.19945  -2.19487  -2.18727  -1.14709
  Beta  occ. eigenvalues --   -1.14663  -1.14586  -1.14371  -1.14362  -1.14326
  Beta  occ. eigenvalues --   -1.14200  -1.14160  -1.14150  -1.13725  -1.13662
  Beta  occ. eigenvalues --   -1.13632  -1.13609  -1.13597  -1.13595  -1.13183
  Beta  occ. eigenvalues --   -1.13164  -1.13131  -1.12412  -1.12398  -1.12342
  Beta  occ. eigenvalues --   -0.16734  -0.13172  -0.11278
  Beta virt. eigenvalues --   -0.07460  -0.06846  -0.05212  -0.04353  -0.03093
  Beta virt. eigenvalues --   -0.02515  -0.02340  -0.01505  -0.01178  -0.00782
  Beta virt. eigenvalues --   -0.00268   0.00091   0.00116   0.00313   0.00379

 Mulliken charges and spin densities:
               1          2
     1  Na   0.505117   0.261628
     2  Na  -0.001728  -0.027261
     3  Na  -0.015322   0.374948
     4  Na  -0.808535   0.148801
     5  Na  -0.097807   0.091161
     6  Na  -0.010775   0.047037
     7  Na   0.429051   0.103686
 Sum of Mulliken charges =  -0.00000   1.00000

 Dipole moment (field-independent basis, Debye):
    X=              0.3273    Y=             -0.5952    Z=              0.1513  Tot=              0.6959
 Quadrupole moment (field-independent basis, Debye-Ang):
   XX=            -48.7939   YY=            -76.7269   ZZ=            -70.2425
   XY=             -0.1166   XZ=             -0.7016   YZ=              2.1286

 Normal termination of Gaussian 16 at Sun Dec  3 20:55:15 2023.
