 Gaussian 16, Revision B.01,
 Gaussian 16:  ES64L-G16RevB.01 20-Dec-2017

 -------------------------
 #P B3LYP/6-311+g(d) force
 -------------------------

 -----
 DPGEN
 -----
 Symbolic Z-matrix:
 Charge =  0 Multiplicity = 2

                         Standard orientation:
 ---------------------------------------------------------------------
 Center     Atomic      Atomic             Coordinates (Angstroms)
 Number     Number       Type             X           Y           Z
 ---------------------------------------------------------------------
      1         11           0       -0.040572    0.017812   -1.517340
      2         11           0        3.087188   -1.433105   -0.676781
      3         11           0        2.680234    1.971916   -0.235188
      4         11           0        0.599420   -1.280830    1.400133
      5         11           0       -2.267571   -2.036479    0.351400
      6         11           0       -3.304817    1.030636   -1.225693
      7         11           0       -0.753881    1.730049    1.903469
 ---------------------------------------------------------------------

 SCF Done:  E(UB3LYP) =  -1136.12409557     A.U. after   23 cycles

 The electronic state is 2-A.
 Alpha  occ. eigenvalues --  -38.44324 -38.44250 -38.44099 -38.44067 -38.43974
 Alpha  occ. eigenvalues --  -38.43756 -38.42867  -2.20129  -2.20095  -2.19987
 Alpha  occ. eigenvalues --   -2.19923  -2.19764  -2.19599  -2.18842  -1.13806
 Alpha  occ. eigenvalues --   -1.13776  -1.13771  -1.13762  -1.13758  -1.13722
 Alpha  occ. eigenvalues --   -1.13712  -1.13626  -1.13611  -1.13599  -1.13541
 Alpha  occ. eigenvalues --   -1.13536  -1.13446  -1.13417  -1.13408  -1.13298
 Alpha  occ. eigenvalues --   -1.13262  -1.13224  -1.12537  -1.12485  -1.12460
 Alpha  occ. eigenvalues --   -0.18357  -0.13709  -0.11596  -0.11073
 Alpha virt. eigenvalues --   -0.06059  -0.05688  -0.04237  -0.03223  -0.02872
 Alpha virt. eigenvalues --   -0.02621  -0.02185  -0.01196  -0.00619  -0.00173
 Alpha virt. eigenvalues --    0.00212   0.00285   0.00425   0.00634   0.00737

  Beta  occ. eigenvalues --  -38.44286 -38.44238 -38.44036 -38.44016 -38.43979
  Beta  occ. eigenvalues --  -38.43749 -38.42823  -2.20073  -2.20060  -2.19931
  Beta  occ. eigenvalues --   -2.19777  -2.19771  -2.19590  -2.18766  -1.13761
  Beta  occ. eigenvalues --   -1.13752  -1.13739  -1.13724  -1.13715  -1.13707
  Beta  occ. eigenvalues --   -1.13666  -1.13592  -1.13555  -1.13497  -1.13452
  Beta  occ. eigenvalues --   -1.13437  -1.13435  -1.13425  -1.13404  -1.13285
  Beta  occ. eigenvalues --   -1.13245  -1.13215  -1.12493  -1.12420  -1.12389
  Beta  occ. eigenvalues --   -0.17662  -0.13346  -0.10880
  Beta virt. eigenvalues --   -0.07670  -0.05862  -0.05667  -0.03656  -0.02955
  Beta virt. eigenvalues --   -0.02341  -0.01998  -0.01716  -0.01173  -0.00301
  Beta virt. eigenvalues --   -0.00121   0.00239   0.00294   0.00513   0.00714

 Mulliken charges and spin densities:
               1          2
     1  Na  -0.938884   0.131022
     2  Na   0.577468   0.013069
     3  Na  -0.008232   0.043472
     4  Na   0.387968   0.418513
     5  Na  -0.134830  -0.035213
     6  Na   0.501950   0.242666
     7  Na  -0.385440   0.186471
 Sum of Mulliken charges =  -0.00000   1.00000

 Dipole moment (field-independent basis, Debye):
    X=              0.0079    Y=              0.0786    Z=             -0.2617  Tot=              0.2734
 Quadrupole moment (field-independent basis, Debye-Ang):
   XX=            -51.5699   YY=            -72.7650   ZZ=            -69.3820
   XY=             -0.6098   XZ=             -1.1232   YZ=              1.7930

 Normal termination of Gaussian 16 at Fri Dec  8 02:26:43 2023.
