 Gaussian 16, Revision B.01,
 Gaussian 16:  ES64L-G16RevB.01 20-Dec-2017

 -------------------------
 #P B3LYP/6-311+g(d) force
 -------------------------

 -----
 DPGEN
 -----
 Symbolic Z-matrix:
 Charge =  0 Multiplicity = 2

                         Standard orientation:
 ---------------------------------------------------------------------
 Center     Atomic      Atomic             Coordinates (Angstroms)
 Number     Number       Type             X           Y           Z
 ---------------------------------------------------------------------
      1         11           0        2.423182   -1.682958    0.040434
      2         11           0        5.783870   -0.439917   -0.859960
      3         11           0        3.875421    2.108548   -0.296156
      4         11           0        0.088930    1.314289    1.244907
      5         11           0       -0.728715   -1.812790    0.608285
      6         11           0       -4.353929    0.237106    0.412518
      7         11           0       -7.088760    0.275721   -1.150029
 ---------------------------------------------------------------------

 SCF Done:  E(UB3LYP) =  -1136.11679535     A.U. after   20 cycles

 The electronic state is 2-A.
 Alpha  occ. eigenvalues --  -38.44754 -38.44667 -38.44626 -38.44467 -38.44177
 Alpha  occ. eigenvalues --  -38.43983 -38.43769  -2.20552  -2.20473  -2.20460
 Alpha  occ. eigenvalues --   -2.20269  -2.20024  -2.19760  -2.19554  -1.14225
 Alpha  occ. eigenvalues --   -1.14205  -1.14197  -1.14148  -1.14142  -1.14128
 Alpha  occ. eigenvalues --   -1.14112  -1.14101  -1.14085  -1.13930  -1.13924
 Alpha  occ. eigenvalues --   -1.13899  -1.13687  -1.13672  -1.13662  -1.13443
 Alpha  occ. eigenvalues --   -1.13418  -1.13418  -1.13230  -1.13225  -1.13159
 Alpha  occ. eigenvalues --   -0.16671  -0.13885  -0.12258  -0.11193
 Alpha virt. eigenvalues --   -0.06959  -0.05770  -0.04299  -0.03816  -0.03074
 Alpha virt. eigenvalues --   -0.02542  -0.02353  -0.01553  -0.01224  -0.00845
 Alpha virt. eigenvalues --   -0.00780  -0.00275   0.00161   0.00189   0.00568

  Beta  occ. eigenvalues --  -38.44714 -38.44608 -38.44566 -38.44459 -38.44160
  Beta  occ. eigenvalues --  -38.43987 -38.43767  -2.20477  -2.20363  -2.20352
  Beta  occ. eigenvalues --   -2.20255  -2.19996  -2.19767  -2.19551  -1.14175
  Beta  occ. eigenvalues --   -1.14157  -1.14136  -1.14077  -1.14068  -1.14054
  Beta  occ. eigenvalues --   -1.14033  -1.14017  -1.14001  -1.13922  -1.13904
  Beta  occ. eigenvalues --   -1.13890  -1.13668  -1.13652  -1.13627  -1.13447
  Beta  occ. eigenvalues --   -1.13423  -1.13423  -1.13227  -1.13223  -1.13159
  Beta  occ. eigenvalues --   -0.15970  -0.13810  -0.12163
  Beta virt. eigenvalues --   -0.07437  -0.06662  -0.04988  -0.04143  -0.03647
  Beta virt. eigenvalues --   -0.02506  -0.02371  -0.02103  -0.01437  -0.01188
  Beta virt. eigenvalues --   -0.00456  -0.00411   0.00030   0.00233   0.00382

 Mulliken charges and spin densities:
               1          2
     1  Na  -0.549586   0.469496
     2  Na   0.532509   0.033801
     3  Na  -0.014449   0.153596
     4  Na  -0.314614   0.412280
     5  Na   0.341273  -0.059369
     6  Na  -0.263046  -0.014423
     7  Na   0.267912   0.004619
 Sum of Mulliken charges =  -0.00000   1.00000

 Dipole moment (field-independent basis, Debye):
    X=              1.5314    Y=             -0.1118    Z=             -0.2463  Tot=              1.5551
 Quadrupole moment (field-independent basis, Debye-Ang):
   XX=            -55.6395   YY=            -69.2696   ZZ=            -71.1378
   XY=              0.3017   XZ=              0.9131   YZ=              0.2019

 Normal termination of Gaussian 16 at Tue Nov 28 23:40:14 2023.
