 Gaussian 16, Revision B.01,
 Gaussian 16:  ES64L-G16RevB.01 20-Dec-2017

 -------------------------
 #P B3LYP/6-311+g(d) force
 -------------------------

 -----
 DPGEN
 -----
 Symbolic Z-matrix:
 Charge =  0 Multiplicity = 2

                         Standard orientation:
 ---------------------------------------------------------------------
 Center     Atomic      Atomic             Coordinates (Angstroms)
 Number     Number       Type             X           Y           Z
 ---------------------------------------------------------------------
      1         11           0        0.530947    2.750128    0.094406
      2         11           0        3.355962    0.538301    0.318223
      3         11           0        0.448924    0.007383    1.824389
      4         11           0       -0.135028   -0.513965   -1.314351
      5         11           0        1.701190   -2.622095   -0.920204
      6         11           0       -2.724790    1.356527   -1.231034
      7         11           0       -3.177206   -1.516280    1.228571
 ---------------------------------------------------------------------

 SCF Done:  E(UB3LYP) =  -1136.12231155     A.U. after   21 cycles

 The electronic state is 2-A.
 Alpha  occ. eigenvalues --  -38.44808 -38.44641 -38.44331 -38.44077 -38.43154
 Alpha  occ. eigenvalues --  -38.43123 -38.43064  -2.20624  -2.20411  -2.20241
 Alpha  occ. eigenvalues --   -2.19902  -2.19174  -2.18992  -2.18915  -1.14324
 Alpha  occ. eigenvalues --   -1.14283  -1.14236  -1.14067  -1.14061  -1.14027
 Alpha  occ. eigenvalues --   -1.13958  -1.13876  -1.13839  -1.13607  -1.13537
 Alpha  occ. eigenvalues --   -1.13521  -1.13035  -1.12862  -1.12775  -1.12615
 Alpha  occ. eigenvalues --   -1.12613  -1.12599  -1.12591  -1.12571  -1.12522
 Alpha  occ. eigenvalues --   -0.18222  -0.13315  -0.11847  -0.11064
 Alpha virt. eigenvalues --   -0.06320  -0.05073  -0.04510  -0.03311  -0.02765
 Alpha virt. eigenvalues --   -0.02354  -0.02202  -0.01182  -0.00519  -0.00102
 Alpha virt. eigenvalues --    0.00013   0.00211   0.00476   0.00691   0.00796

  Beta  occ. eigenvalues --  -38.44807 -38.44579 -38.44278 -38.44047 -38.43113
  Beta  occ. eigenvalues --  -38.43107 -38.43065  -2.20623  -2.20296  -2.20143
  Beta  occ. eigenvalues --   -2.19850  -2.19102  -2.18964  -2.18918  -1.14315
  Beta  occ. eigenvalues --   -1.14283  -1.14236  -1.13986  -1.13976  -1.13954
  Beta  occ. eigenvalues --   -1.13892  -1.13815  -1.13760  -1.13563  -1.13505
  Beta  occ. eigenvalues --   -1.13477  -1.12985  -1.12803  -1.12730  -1.12617
  Beta  occ. eigenvalues --   -1.12594  -1.12587  -1.12574  -1.12541  -1.12511
  Beta  occ. eigenvalues --   -0.17678  -0.12938  -0.11520
  Beta virt. eigenvalues --   -0.07392  -0.06174  -0.04631  -0.04359  -0.02997
  Beta virt. eigenvalues --   -0.02183  -0.01995  -0.01599  -0.00943  -0.00387
  Beta virt. eigenvalues --   -0.00046   0.00085   0.00270   0.00627   0.00788

 Mulliken charges and spin densities:
               1          2
     1  Na  -0.520218   0.105524
     2  Na   0.136626   0.002719
     3  Na   0.291976   0.277192
     4  Na  -0.637675   0.191718
     5  Na   0.273662   0.149969
     6  Na   0.799929  -0.110493
     7  Na  -0.344300   0.383371
 Sum of Mulliken charges =  -0.00000   1.00000

 Dipole moment (field-independent basis, Debye):
    X=              0.2759    Y=              0.2660    Z=              0.3391  Tot=              0.5117
 Quadrupole moment (field-independent basis, Debye-Ang):
   XX=            -51.6511   YY=            -68.7649   ZZ=            -72.5749
   XY=              0.1613   XZ=              0.4021   YZ=             -3.3748

 Normal termination of Gaussian 16 at Tue Dec  5 18:08:56 2023.
