 Gaussian 16, Revision B.01,
 Gaussian 16:  ES64L-G16RevB.01 20-Dec-2017

 -------------------------
 #P B3LYP/6-311+g(d) force
 -------------------------

 -----
 DPGEN
 -----
 Symbolic Z-matrix:
 Charge =  0 Multiplicity = 2

                         Standard orientation:
 ---------------------------------------------------------------------
 Center     Atomic      Atomic             Coordinates (Angstroms)
 Number     Number       Type             X           Y           Z
 ---------------------------------------------------------------------
      1         11           0       -3.060462    0.511931    0.157128
      2         11           0        1.948434   -2.203639    0.281864
      3         11           0       -0.395002   -0.181865   -1.724069
      4         11           0        2.828386    0.968619   -0.453079
      5         11           0       -0.066852    3.037031   -0.182482
      6         11           0       -1.338074   -2.412794   -0.252847
      7         11           0        0.083570    0.280717    2.173485
 ---------------------------------------------------------------------

 SCF Done:  E(UB3LYP) =  -1136.13599808     A.U. after   18 cycles

 The electronic state is 2-A.
 Alpha  occ. eigenvalues --  -38.43935 -38.43893 -38.43755 -38.43591 -38.43544
 Alpha  occ. eigenvalues --  -38.43441 -38.43303  -2.19798  -2.19730  -2.19586
 Alpha  occ. eigenvalues --   -2.19541  -2.19406  -2.19370  -2.19165  -1.13463
 Alpha  occ. eigenvalues --   -1.13440  -1.13427  -1.13424  -1.13400  -1.13386
 Alpha  occ. eigenvalues --   -1.13362  -1.13266  -1.13248  -1.13230  -1.13180
 Alpha  occ. eigenvalues --   -1.13135  -1.13082  -1.13068  -1.13038  -1.13003
 Alpha  occ. eigenvalues --   -1.12984  -1.12964  -1.12828  -1.12822  -1.12806
 Alpha  occ. eigenvalues --   -0.18697  -0.12880  -0.12546  -0.11076
 Alpha virt. eigenvalues --   -0.05497  -0.04887  -0.04782  -0.03314  -0.03150
 Alpha virt. eigenvalues --   -0.02800  -0.01330  -0.01049  -0.00266  -0.00190
 Alpha virt. eigenvalues --   -0.00008   0.00374   0.00853   0.00881   0.00939

  Beta  occ. eigenvalues --  -38.43890 -38.43838 -38.43747 -38.43588 -38.43480
  Beta  occ. eigenvalues --  -38.43432 -38.43298  -2.19726  -2.19620  -2.19573
  Beta  occ. eigenvalues --   -2.19427  -2.19403  -2.19355  -2.19159  -1.13423
  Beta  occ. eigenvalues --   -1.13384  -1.13363  -1.13346  -1.13336  -1.13302
  Beta  occ. eigenvalues --   -1.13289  -1.13252  -1.13225  -1.13223  -1.13107
  Beta  occ. eigenvalues --   -1.13066  -1.13062  -1.13053  -1.13036  -1.12983
  Beta  occ. eigenvalues --   -1.12967  -1.12922  -1.12823  -1.12810  -1.12792
  Beta  occ. eigenvalues --   -0.17958  -0.12650  -0.12314
  Beta virt. eigenvalues --   -0.07144  -0.05491  -0.04841  -0.04704  -0.02520
  Beta virt. eigenvalues --   -0.02347  -0.01770  -0.01246  -0.00975  -0.00310
  Beta virt. eigenvalues --   -0.00207   0.00114   0.00398   0.00876   0.00902

 Mulliken charges and spin densities:
               1          2
     1  Na   0.115533  -0.056027
     2  Na   0.098885   0.028136
     3  Na  -0.204528   0.347733
     4  Na   0.051534  -0.012704
     5  Na   0.022142  -0.096188
     6  Na   0.478356   0.065867
     7  Na  -0.561921   0.723182
 Sum of Mulliken charges =  -0.00000   1.00000

 Dipole moment (field-independent basis, Debye):
    X=             -0.1345    Y=              0.2866    Z=              0.2133  Tot=              0.3817
 Quadrupole moment (field-independent basis, Debye-Ang):
   XX=            -59.3944   YY=            -63.0246   ZZ=            -72.3697
   XY=             -0.7015   XZ=             -1.1412   YZ=             -1.0139

 Normal termination of Gaussian 16 at Sun Dec  3 18:14:45 2023.
