 Gaussian 16, Revision B.01,
 Gaussian 16:  ES64L-G16RevB.01 20-Dec-2017

 -------------------------
 #P B3LYP/6-311+g(d) force
 -------------------------

 -----
 DPGEN
 -----
 Symbolic Z-matrix:
 Charge =  0 Multiplicity = 2

                         Standard orientation:
 ---------------------------------------------------------------------
 Center     Atomic      Atomic             Coordinates (Angstroms)
 Number     Number       Type             X           Y           Z
 ---------------------------------------------------------------------
      1         11           0       -1.952707    2.023104    0.164847
      2         11           0        2.960118   -0.972440   -0.032544
      3         11           0        0.029808   -0.240009    2.014631
      4         11           0        0.192522   -2.662984   -0.297497
      5         11           0       -2.939313   -0.980575   -0.135060
      6         11           0        1.821991    2.473704   -0.090083
      7         11           0       -0.112419    0.359200   -1.624294
 ---------------------------------------------------------------------

 SCF Done:  E(UB3LYP) =  -1136.13756588     A.U. after   20 cycles

 The electronic state is 2-A.
 Alpha  occ. eigenvalues --  -38.44033 -38.43842 -38.43601 -38.43518 -38.43496
 Alpha  occ. eigenvalues --  -38.43113 -38.43008  -2.19875  -2.19712  -2.19509
 Alpha  occ. eigenvalues --   -2.19432  -2.19327  -2.19131  -2.18913  -1.13550
 Alpha  occ. eigenvalues --   -1.13540  -1.13516  -1.13416  -1.13373  -1.13357
 Alpha  occ. eigenvalues --   -1.13239  -1.13170  -1.13115  -1.13104  -1.13060
 Alpha  occ. eigenvalues --   -1.13043  -1.13028  -1.12982  -1.12959  -1.12808
 Alpha  occ. eigenvalues --   -1.12776  -1.12734  -1.12591  -1.12573  -1.12538
 Alpha  occ. eigenvalues --   -0.19010  -0.13243  -0.12426  -0.10815
 Alpha virt. eigenvalues --   -0.05601  -0.05262  -0.04416  -0.03265  -0.02836
 Alpha virt. eigenvalues --   -0.02528  -0.01551  -0.01087  -0.00235  -0.00148
 Alpha virt. eigenvalues --   -0.00009   0.00360   0.00789   0.00900   0.00934

  Beta  occ. eigenvalues --  -38.44031 -38.43838 -38.43592 -38.43494 -38.43424
  Beta  occ. eigenvalues --  -38.43048 -38.42997  -2.19874  -2.19707  -2.19498
  Beta  occ. eigenvalues --   -2.19326  -2.19258  -2.19013  -2.18898  -1.13550
  Beta  occ. eigenvalues --   -1.13524  -1.13515  -1.13416  -1.13360  -1.13338
  Beta  occ. eigenvalues --   -1.13225  -1.13130  -1.13113  -1.13019  -1.12991
  Beta  occ. eigenvalues --   -1.12971  -1.12961  -1.12936  -1.12918  -1.12731
  Beta  occ. eigenvalues --   -1.12696  -1.12650  -1.12577  -1.12537  -1.12525
  Beta  occ. eigenvalues --   -0.18261  -0.13009  -0.12179
  Beta virt. eigenvalues --   -0.06859  -0.05563  -0.05267  -0.04393  -0.02444
  Beta virt. eigenvalues --   -0.02066  -0.01480  -0.01433  -0.01031  -0.00280
  Beta virt. eigenvalues --   -0.00196   0.00132   0.00381   0.00847   0.00887

 Mulliken charges and spin densities:
               1          2
     1  Na   0.314507  -0.007784
     2  Na   0.097061  -0.062812
     3  Na  -0.578546   0.728268
     4  Na   0.222266  -0.026214
     5  Na   0.231747  -0.016271
     6  Na   0.126740  -0.096009
     7  Na  -0.413774   0.480822
 Sum of Mulliken charges =  -0.00000   1.00000

 Dipole moment (field-independent basis, Debye):
    X=              0.0960    Y=              0.0369    Z=              0.1856  Tot=              0.2122
 Quadrupole moment (field-independent basis, Debye-Ang):
   XX=            -55.1489   YY=            -64.2403   ZZ=            -74.0402
   XY=              0.5860   XZ=             -0.0814   YZ=              1.3056

 Normal termination of Gaussian 16 at Thu Dec  7 08:16:28 2023.
