 Gaussian 16, Revision B.01,
 Gaussian 16:  ES64L-G16RevB.01 20-Dec-2017

 -------------------------
 #P B3LYP/6-311+g(d) force
 -------------------------

 -----
 DPGEN
 -----
 Symbolic Z-matrix:
 Charge =  0 Multiplicity = 2

                         Standard orientation:
 ---------------------------------------------------------------------
 Center     Atomic      Atomic             Coordinates (Angstroms)
 Number     Number       Type             X           Y           Z
 ---------------------------------------------------------------------
      1         11           0       -2.153234   -2.226860    0.425109
      2         11           0        0.355395    3.044432   -0.142643
      3         11           0       -0.248290   -0.114578   -1.479167
      4         11           0       -3.065297    1.070955   -0.188442
      5         11           0        3.098814    0.476292    0.148602
      6         11           0        0.254777    0.095120    1.738432
      7         11           0        1.757835   -2.345360   -0.501892
 ---------------------------------------------------------------------

 SCF Done:  E(UB3LYP) =  -1136.13552553     A.U. after   21 cycles

 The electronic state is 2-A.
 Alpha  occ. eigenvalues --  -38.44385 -38.44169 -38.43708 -38.43365 -38.43365
 Alpha  occ. eigenvalues --  -38.43119 -38.42894  -2.20204  -2.20035  -2.19544
 Alpha  occ. eigenvalues --   -2.19254  -2.19184  -2.19077  -2.18913  -1.13892
 Alpha  occ. eigenvalues --   -1.13860  -1.13833  -1.13725  -1.13699  -1.13670
 Alpha  occ. eigenvalues --   -1.13212  -1.13210  -1.13180  -1.12968  -1.12902
 Alpha  occ. eigenvalues --   -1.12883  -1.12868  -1.12862  -1.12814  -1.12791
 Alpha  occ. eigenvalues --   -1.12700  -1.12680  -1.12598  -1.12537  -1.12523
 Alpha  occ. eigenvalues --   -0.18755  -0.13369  -0.12303  -0.10289
 Alpha virt. eigenvalues --   -0.05930  -0.05217  -0.04711  -0.03151  -0.02624
 Alpha virt. eigenvalues --   -0.01998  -0.01785  -0.01250  -0.00498  -0.00411
 Alpha virt. eigenvalues --    0.00039   0.00337   0.00766   0.00834   0.00869

  Beta  occ. eigenvalues --  -38.44381 -38.44162 -38.43696 -38.43363 -38.43348
  Beta  occ. eigenvalues --  -38.43041 -38.42833  -2.20198  -2.20028  -2.19524
  Beta  occ. eigenvalues --   -2.19227  -2.19183  -2.18935  -2.18804  -1.13879
  Beta  occ. eigenvalues --   -1.13849  -1.13829  -1.13720  -1.13670  -1.13665
  Beta  occ. eigenvalues --   -1.13201  -1.13175  -1.13170  -1.12941  -1.12880
  Beta  occ. eigenvalues --   -1.12865  -1.12850  -1.12848  -1.12809  -1.12699
  Beta  occ. eigenvalues --   -1.12600  -1.12576  -1.12514  -1.12453  -1.12449
  Beta  occ. eigenvalues --   -0.18071  -0.13110  -0.12029
  Beta virt. eigenvalues --   -0.06465  -0.05889  -0.05163  -0.04665  -0.02395
  Beta virt. eigenvalues --   -0.01919  -0.01694  -0.01170  -0.01020  -0.00528
  Beta virt. eigenvalues --   -0.00427   0.00168   0.00378   0.00807   0.00845

 Mulliken charges and spin densities:
               1          2
     1  Na   0.038931   0.047008
     2  Na  -0.139628  -0.111479
     3  Na  -0.190407   0.442565
     4  Na   0.041590  -0.081376
     5  Na   0.243920  -0.005303
     6  Na  -0.197836   0.656459
     7  Na   0.203430   0.052126
 Sum of Mulliken charges =  -0.00000   1.00000

 Dipole moment (field-independent basis, Debye):
    X=             -0.2241    Y=              0.1389    Z=              0.1139  Tot=              0.2872
 Quadrupole moment (field-independent basis, Debye-Ang):
   XX=            -52.9928   YY=            -61.4814   ZZ=            -76.7643
   XY=              0.1648   XZ=             -0.7566   YZ=             -0.5864

 Normal termination of Gaussian 16 at Mon Dec  4 02:57:12 2023.
