 Gaussian 16, Revision B.01,
 Gaussian 16:  ES64L-G16RevB.01 20-Dec-2017

 -------------------------
 #P B3LYP/6-311+g(d) force
 -------------------------

 -----
 DPGEN
 -----
 Symbolic Z-matrix:
 Charge =  0 Multiplicity = 2

                         Standard orientation:
 ---------------------------------------------------------------------
 Center     Atomic      Atomic             Coordinates (Angstroms)
 Number     Number       Type             X           Y           Z
 ---------------------------------------------------------------------
      1         11           0       -1.684399    2.572956    0.235566
      2         11           0       -0.407730   -2.704464   -0.149376
      3         11           0        3.015853   -1.495820    0.080222
      4         11           0        2.556162    1.981530   -0.409917
      5         11           0       -3.489453   -0.768254   -0.299726
      6         11           0       -0.019949    0.318533   -1.614162
      7         11           0        0.029517    0.095520    2.157392
 ---------------------------------------------------------------------

 SCF Done:  E(UB3LYP) =  -1136.13280764     A.U. after   20 cycles

 The electronic state is 2-A.
 Alpha  occ. eigenvalues --  -38.44738 -38.44267 -38.43990 -38.43781 -38.43688
 Alpha  occ. eigenvalues --  -38.43523 -38.43022  -2.20504  -2.20058  -2.19800
 Alpha  occ. eigenvalues --   -2.19632  -2.19498  -2.19447  -2.18860  -1.14180
 Alpha  occ. eigenvalues --   -1.14153  -1.14142  -1.13733  -1.13713  -1.13706
 Alpha  occ. eigenvalues --   -1.13494  -1.13454  -1.13428  -1.13297  -1.13261
 Alpha  occ. eigenvalues --   -1.13250  -1.13199  -1.13164  -1.13134  -1.13125
 Alpha  occ. eigenvalues --   -1.13085  -1.13058  -1.12559  -1.12534  -1.12474
 Alpha  occ. eigenvalues --   -0.18060  -0.13028  -0.12008  -0.10646
 Alpha virt. eigenvalues --   -0.06226  -0.05598  -0.04268  -0.03159  -0.02734
 Alpha virt. eigenvalues --   -0.02603  -0.02058  -0.01392  -0.00643  -0.00295
 Alpha virt. eigenvalues --   -0.00086   0.00271   0.00660   0.00766   0.00833

  Beta  occ. eigenvalues --  -38.44732 -38.44267 -38.43979 -38.43681 -38.43677
  Beta  occ. eigenvalues --  -38.43472 -38.43017  -2.20495  -2.20060  -2.19783
  Beta  occ. eigenvalues --   -2.19489  -2.19439  -2.19355  -2.18855  -1.14164
  Beta  occ. eigenvalues --   -1.14147  -1.14138  -1.13728  -1.13714  -1.13703
  Beta  occ. eigenvalues --   -1.13472  -1.13436  -1.13417  -1.13194  -1.13165
  Beta  occ. eigenvalues --   -1.13144  -1.13130  -1.13121  -1.13095  -1.13069
  Beta  occ. eigenvalues --   -1.13025  -1.12991  -1.12555  -1.12514  -1.12468
  Beta  occ. eigenvalues --   -0.17365  -0.12822  -0.11768
  Beta virt. eigenvalues --   -0.06784  -0.06137  -0.05554  -0.04217  -0.02484
  Beta virt. eigenvalues --   -0.02000  -0.01949  -0.01553  -0.01318  -0.00672
  Beta virt. eigenvalues --   -0.00321   0.00075   0.00318   0.00739   0.00764

 Mulliken charges and spin densities:
               1          2
     1  Na   0.084865  -0.047249
     2  Na  -0.015369  -0.027775
     3  Na   0.070433  -0.014026
     4  Na   0.242594  -0.009454
     5  Na   0.076862  -0.024790
     6  Na  -0.093849   0.403089
     7  Na  -0.365536   0.720205
 Sum of Mulliken charges =  -0.00000   1.00000

 Dipole moment (field-independent basis, Debye):
    X=             -0.1173    Y=              0.1211    Z=              0.1092  Tot=              0.2009
 Quadrupole moment (field-independent basis, Debye-Ang):
   XX=            -51.4297   YY=            -66.1461   ZZ=            -75.1185
   XY=             -0.4956   XZ=              0.3662   YZ=              0.2947

 Normal termination of Gaussian 16 at Tue Dec  5 17:59:23 2023.
