 Gaussian 16, Revision B.01,
 Gaussian 16:  ES64L-G16RevB.01 20-Dec-2017

 -------------------------
 #P B3LYP/6-311+g(d) force
 -------------------------

 -----
 DPGEN
 -----
 Symbolic Z-matrix:
 Charge =  0 Multiplicity = 2

                         Standard orientation:
 ---------------------------------------------------------------------
 Center     Atomic      Atomic             Coordinates (Angstroms)
 Number     Number       Type             X           Y           Z
 ---------------------------------------------------------------------
      1         11           0        1.228820    1.856502    0.746875
      2         11           0        0.138715   -0.666381   -1.790956
      3         11           0        1.775399   -1.547724    1.137072
      4         11           0       -1.213867   -0.236764    1.709212
      5         11           0       -2.387272    2.043396   -0.512162
      6         11           0        3.958399    0.010433   -0.851555
      7         11           0       -3.500194   -1.459463   -0.438486
 ---------------------------------------------------------------------

 SCF Done:  E(UB3LYP) =  -1136.12188094     A.U. after   33 cycles

 The electronic state is 2-A.
 Alpha  occ. eigenvalues --  -38.45159 -38.45079 -38.44048 -38.43962 -38.43857
 Alpha  occ. eigenvalues --  -38.43422 -38.42476  -2.20966  -2.20882  -2.19959
 Alpha  occ. eigenvalues --   -2.19788  -2.19646  -2.19381  -2.18351  -1.14675
 Alpha  occ. eigenvalues --   -1.14631  -1.14558  -1.14554  -1.14535  -1.14507
 Alpha  occ. eigenvalues --   -1.13656  -1.13596  -1.13582  -1.13475  -1.13449
 Alpha  occ. eigenvalues --   -1.13393  -1.13344  -1.13307  -1.13289  -1.13083
 Alpha  occ. eigenvalues --   -1.13020  -1.12982  -1.12054  -1.12032  -1.11956
 Alpha  occ. eigenvalues --   -0.18517  -0.14095  -0.11386  -0.10625
 Alpha virt. eigenvalues --   -0.07123  -0.05343  -0.04564  -0.03053  -0.02865
 Alpha virt. eigenvalues --   -0.02361  -0.02305  -0.01115  -0.01064  -0.00250
 Alpha virt. eigenvalues --    0.00066   0.00199   0.00302   0.00594   0.00672

  Beta  occ. eigenvalues --  -38.45118 -38.45059 -38.43993 -38.43934 -38.43880
  Beta  occ. eigenvalues --  -38.43361 -38.42468  -2.20891  -2.20845  -2.19863
  Beta  occ. eigenvalues --   -2.19734  -2.19689  -2.19273  -2.18340  -1.14617
  Beta  occ. eigenvalues --   -1.14574  -1.14528  -1.14506  -1.14504  -1.14480
  Beta  occ. eigenvalues --   -1.13588  -1.13527  -1.13489  -1.13434  -1.13414
  Beta  occ. eigenvalues --   -1.13372  -1.13362  -1.13329  -1.13313  -1.13007
  Beta  occ. eigenvalues --   -1.12925  -1.12909  -1.12049  -1.11995  -1.11956
  Beta  occ. eigenvalues --   -0.17728  -0.13962  -0.10467
  Beta virt. eigenvalues --   -0.07455  -0.06868  -0.05099  -0.04157  -0.02756
  Beta virt. eigenvalues --   -0.02618  -0.01779  -0.01665  -0.00966  -0.00693
  Beta virt. eigenvalues --   -0.00167   0.00091   0.00268   0.00381   0.00636

 Mulliken charges and spin densities:
               1          2
     1  Na  -0.546521   0.111730
     2  Na  -0.386365   0.416749
     3  Na   0.053066   0.051763
     4  Na   0.445946   0.264273
     5  Na  -0.035154   0.151894
     6  Na   0.433522   0.157154
     7  Na   0.035508  -0.153562
 Sum of Mulliken charges =  -0.00000   1.00000

 Dipole moment (field-independent basis, Debye):
    X=              0.7255    Y=              0.1518    Z=             -0.4936  Tot=              0.8905
 Quadrupole moment (field-independent basis, Debye-Ang):
   XX=            -48.9395   YY=            -76.1433   ZZ=            -69.5826
   XY=             -0.7666   XZ=             -0.5431   YZ=             -4.8035

 Normal termination of Gaussian 16 at Thu Dec  7 22:58:39 2023.
