 Gaussian 16, Revision B.01,
 Gaussian 16:  ES64L-G16RevB.01 20-Dec-2017

 -------------------------
 #P B3LYP/6-311+g(d) force
 -------------------------

 -----
 DPGEN
 -----
 Symbolic Z-matrix:
 Charge =  0 Multiplicity = 2

                         Standard orientation:
 ---------------------------------------------------------------------
 Center     Atomic      Atomic             Coordinates (Angstroms)
 Number     Number       Type             X           Y           Z
 ---------------------------------------------------------------------
      1         11           0       -3.346590   -2.052836   -0.811574
      2         11           0        2.800983   -1.196557    1.675874
      3         11           0        4.636208    1.166577   -0.487014
      4         11           0        1.351691    0.016383   -1.811448
      5         11           0       -0.385465   -1.403270    1.016029
      6         11           0       -2.004202    1.050807   -0.987807
      7         11           0       -3.052625    2.418896    1.405940
 ---------------------------------------------------------------------

 SCF Done:  E(UB3LYP) =  -1136.10441254     A.U. after   29 cycles

 The electronic state is 2-A.
 Alpha  occ. eigenvalues --  -38.45721 -38.45596 -38.45502 -38.44290 -38.43407
 Alpha  occ. eigenvalues --  -38.43196 -38.42941  -2.21500  -2.21388  -2.21248
 Alpha  occ. eigenvalues --   -2.20122  -2.19272  -2.19117  -2.18784  -1.15166
 Alpha  occ. eigenvalues --   -1.15157  -1.15122  -1.15080  -1.15041  -1.14991
 Alpha  occ. eigenvalues --   -1.14923  -1.14916  -1.14876  -1.13797  -1.13779
 Alpha  occ. eigenvalues --   -1.13727  -1.12975  -1.12933  -1.12905  -1.12873
 Alpha  occ. eigenvalues --   -1.12806  -1.12745  -1.12412  -1.12410  -1.12405
 Alpha  occ. eigenvalues --   -0.17420  -0.14255  -0.11333  -0.10837
 Alpha virt. eigenvalues --   -0.08084  -0.05292  -0.04566  -0.03364  -0.03079
 Alpha virt. eigenvalues --   -0.02671  -0.02058  -0.01596  -0.01110  -0.00544
 Alpha virt. eigenvalues --   -0.00230  -0.00023   0.00055   0.00412   0.00476

  Beta  occ. eigenvalues --  -38.45702 -38.45545 -38.45501 -38.44229 -38.43389
  Beta  occ. eigenvalues --  -38.43197 -38.42889  -2.21464  -2.21292  -2.21247
  Beta  occ. eigenvalues --   -2.20011  -2.19244  -2.19124  -2.18687  -1.15142
  Beta  occ. eigenvalues --   -1.15131  -1.15099  -1.15016  -1.14972  -1.14923
  Beta  occ. eigenvalues --   -1.14923  -1.14908  -1.14872  -1.13716  -1.13706
  Beta  occ. eigenvalues --   -1.13647  -1.12962  -1.12918  -1.12854  -1.12834
  Beta  occ. eigenvalues --   -1.12814  -1.12751  -1.12350  -1.12344  -1.12343
  Beta  occ. eigenvalues --   -0.16894  -0.13952  -0.10596
  Beta virt. eigenvalues --   -0.07893  -0.07556  -0.04886  -0.04220  -0.03172
  Beta virt. eigenvalues --   -0.02751  -0.02274  -0.01637  -0.01415  -0.00872
  Beta virt. eigenvalues --   -0.00421  -0.00118   0.00083   0.00188   0.00589

 Mulliken charges and spin densities:
               1          2
     1  Na   0.576122   0.252713
     2  Na  -0.090692   0.100888
     3  Na   0.177599   0.005182
     4  Na  -0.182389   0.317084
     5  Na  -0.597524   0.206605
     6  Na   0.048121  -0.209671
     7  Na   0.068763   0.327200
 Sum of Mulliken charges =  -0.00000   1.00000

 Dipole moment (field-independent basis, Debye):
    X=              1.1923    Y=             -0.9703    Z=             -0.3822  Tot=              1.5840
 Quadrupole moment (field-independent basis, Debye-Ang):
   XX=            -48.1537   YY=            -77.7376   ZZ=            -69.2506
   XY=             11.0151   XZ=              3.3196   YZ=              2.3562

 Normal termination of Gaussian 16 at Sun Dec  3 12:56:42 2023.
