 Gaussian 16, Revision B.01,
 Gaussian 16:  ES64L-G16RevB.01 20-Dec-2017

 -------------------------
 #P B3LYP/6-311+g(d) force
 -------------------------

 -----
 DPGEN
 -----
 Symbolic Z-matrix:
 Charge =  0 Multiplicity = 2

                         Standard orientation:
 ---------------------------------------------------------------------
 Center     Atomic      Atomic             Coordinates (Angstroms)
 Number     Number       Type             X           Y           Z
 ---------------------------------------------------------------------
      1         11           0       -2.569016    2.928626   -0.440199
      2         11           0       -2.282081   -2.984542   -0.010319
      3         11           0        3.925569   -1.517914   -0.164487
      4         11           0        0.451520    3.295298    0.754122
      5         11           0        1.022534   -3.136300    0.271341
      6         11           0        3.755387    1.796657   -0.358996
      7         11           0       -4.303915   -0.381824   -0.051462
 ---------------------------------------------------------------------

 SCF Done:  E(UB3LYP) =  -1136.10954806     A.U. after   23 cycles

 The electronic state is 2-A.
 Alpha  occ. eigenvalues --  -38.45045 -38.44834 -38.44692 -38.44675 -38.44538
 Alpha  occ. eigenvalues --  -38.44230 -38.43711  -2.20835  -2.20614  -2.20487
 Alpha  occ. eigenvalues --   -2.20454  -2.20333  -2.20036  -2.19533  -1.14509
 Alpha  occ. eigenvalues --   -1.14505  -1.14495  -1.14295  -1.14282  -1.14258
 Alpha  occ. eigenvalues --   -1.14162  -1.14161  -1.14153  -1.14121  -1.14113
 Alpha  occ. eigenvalues --   -1.14079  -1.13990  -1.13977  -1.13965  -1.13687
 Alpha  occ. eigenvalues --   -1.13680  -1.13665  -1.13180  -1.13180  -1.13172
 Alpha  occ. eigenvalues --   -0.15707  -0.14072  -0.13637  -0.10780
 Alpha virt. eigenvalues --   -0.07923  -0.04794  -0.04226  -0.03624  -0.03562
 Alpha virt. eigenvalues --   -0.02551  -0.02261  -0.01896  -0.01328  -0.00503
 Alpha virt. eigenvalues --   -0.00377  -0.00102   0.00037   0.00363   0.00521

  Beta  occ. eigenvalues --  -38.45040 -38.44813 -38.44687 -38.44650 -38.44485
  Beta  occ. eigenvalues --  -38.44167 -38.43652  -2.20833  -2.20580  -2.20485
  Beta  occ. eigenvalues --   -2.20413  -2.20236  -2.19920  -2.19424  -1.14513
  Beta  occ. eigenvalues --   -1.14508  -1.14452  -1.14264  -1.14262  -1.14220
  Beta  occ. eigenvalues --   -1.14167  -1.14164  -1.14102  -1.14095  -1.14088
  Beta  occ. eigenvalues --   -1.14032  -1.13924  -1.13914  -1.13894  -1.13608
  Beta  occ. eigenvalues --   -1.13603  -1.13585  -1.13110  -1.13106  -1.13099
  Beta  occ. eigenvalues --   -0.15162  -0.13306  -0.12898
  Beta virt. eigenvalues --   -0.08101  -0.07672  -0.04278  -0.03752  -0.03362
  Beta virt. eigenvalues --   -0.03233  -0.02348  -0.02031  -0.01790  -0.01199
  Beta virt. eigenvalues --   -0.00211  -0.00172   0.00134   0.00256   0.00360

 Mulliken charges and spin densities:
               1          2
     1  Na  -0.027646   0.088810
     2  Na   0.208165   0.035321
     3  Na   0.494275   0.116370
     4  Na  -0.441277   0.118627
     5  Na   0.069152   0.166762
     6  Na  -0.075515   0.209512
     7  Na  -0.227153   0.264598
 Sum of Mulliken charges =  -0.00000   1.00000

 Dipole moment (field-independent basis, Debye):
    X=              0.1892    Y=              0.5583    Z=             -0.0839  Tot=              0.5954
 Quadrupole moment (field-independent basis, Debye-Ang):
   XX=            -60.7935   YY=            -66.9842   ZZ=            -72.5806
   XY=             -2.3218   XZ=              1.0895   YZ=             -0.2773

 Normal termination of Gaussian 16 at Sun Dec  3 23:02:59 2023.
