 Gaussian 16, Revision B.01,
 Gaussian 16:  ES64L-G16RevB.01 20-Dec-2017

 -------------------------
 #P B3LYP/6-311+g(d) force
 -------------------------

 -----
 DPGEN
 -----
 Symbolic Z-matrix:
 Charge =  0 Multiplicity = 2

                         Standard orientation:
 ---------------------------------------------------------------------
 Center     Atomic      Atomic             Coordinates (Angstroms)
 Number     Number       Type             X           Y           Z
 ---------------------------------------------------------------------
      1         11           0        0.353706   -2.851807    0.607761
      2         11           0       -4.562605    0.414709   -0.065975
      3         11           0       -3.110551   -2.626532   -0.308004
      4         11           0        4.401199    1.040901   -0.446802
      5         11           0        3.438296   -2.247646   -0.154741
      6         11           0        1.549371    2.999282    0.493401
      7         11           0       -2.069415    3.271094   -0.125640
 ---------------------------------------------------------------------

 SCF Done:  E(UB3LYP) =  -1136.10776397     A.U. after   25 cycles

 The electronic state is 2-A.
 Alpha  occ. eigenvalues --  -38.45286 -38.45079 -38.45059 -38.44788 -38.44169
 Alpha  occ. eigenvalues --  -38.44036 -38.43941  -2.21028  -2.20857  -2.20849
 Alpha  occ. eigenvalues --   -2.20566  -2.19934  -2.19841  -2.19751  -1.14717
 Alpha  occ. eigenvalues --   -1.14707  -1.14650  -1.14535  -1.14527  -1.14522
 Alpha  occ. eigenvalues --   -1.14511  -1.14501  -1.14488  -1.14240  -1.14229
 Alpha  occ. eigenvalues --   -1.14202  -1.13603  -1.13590  -1.13560  -1.13500
 Alpha  occ. eigenvalues --   -1.13495  -1.13476  -1.13401  -1.13393  -1.13385
 Alpha  occ. eigenvalues --   -0.15617  -0.14114  -0.13281  -0.10798
 Alpha virt. eigenvalues --   -0.07945  -0.04863  -0.04481  -0.03605  -0.03504
 Alpha virt. eigenvalues --   -0.02603  -0.02072  -0.02001  -0.01175  -0.00835
 Alpha virt. eigenvalues --   -0.00561  -0.00153   0.00085   0.00289   0.00536

  Beta  occ. eigenvalues --  -38.45270 -38.45053 -38.45041 -38.44776 -38.44127
  Beta  occ. eigenvalues --  -38.43995 -38.43875  -2.21003  -2.20830  -2.20804
  Beta  occ. eigenvalues --   -2.20547  -2.19857  -2.19765  -2.19629  -1.14706
  Beta  occ. eigenvalues --   -1.14696  -1.14594  -1.14514  -1.14511  -1.14494
  Beta  occ. eigenvalues --   -1.14481  -1.14449  -1.14442  -1.14229  -1.14221
  Beta  occ. eigenvalues --   -1.14169  -1.13551  -1.13540  -1.13502  -1.13449
  Beta  occ. eigenvalues --   -1.13447  -1.13419  -1.13318  -1.13311  -1.13305
  Beta  occ. eigenvalues --   -0.15069  -0.13431  -0.12498
  Beta virt. eigenvalues --   -0.08211  -0.07656  -0.04354  -0.03913  -0.03430
  Beta virt. eigenvalues --   -0.03195  -0.02414  -0.01930  -0.01824  -0.01025
  Beta virt. eigenvalues --   -0.00458  -0.00325   0.00078   0.00237   0.00316

 Mulliken charges and spin densities:
               1          2
     1  Na  -0.802850   0.141008
     2  Na   0.002516   0.138057
     3  Na   0.249468   0.109412
     4  Na   0.235061   0.314631
     5  Na   0.518555   0.050545
     6  Na  -0.140495   0.113109
     7  Na  -0.062254   0.133238
 Sum of Mulliken charges =  -0.00000   1.00000

 Dipole moment (field-independent basis, Debye):
    X=             -0.2927    Y=             -0.2774    Z=             -0.0683  Tot=              0.4090
 Quadrupole moment (field-independent basis, Debye-Ang):
   XX=            -57.6594   YY=            -68.3961   ZZ=            -73.3042
   XY=             -2.8720   XZ=             -0.3010   YZ=              1.3314

 Normal termination of Gaussian 16 at Sun Dec  3 13:04:14 2023.
