 Gaussian 16, Revision B.01,
 Gaussian 16:  ES64L-G16RevB.01 20-Dec-2017

 -------------------------
 #P B3LYP/6-311+g(d) force
 -------------------------

 -----
 DPGEN
 -----
 Symbolic Z-matrix:
 Charge =  0 Multiplicity = 2

                         Standard orientation:
 ---------------------------------------------------------------------
 Center     Atomic      Atomic             Coordinates (Angstroms)
 Number     Number       Type             X           Y           Z
 ---------------------------------------------------------------------
      1         11           0        0.369043    0.302829   -1.785093
      2         11           0       -3.191035   -0.788242    0.228570
      3         11           0        1.499938    2.366741    0.621301
      4         11           0       -1.687646    2.117418   -0.551659
      5         11           0        3.261663   -0.973858   -0.135854
      6         11           0       -0.203727   -2.745540   -0.299809
      7         11           0       -0.048236   -0.279348    1.922544
 ---------------------------------------------------------------------

 SCF Done:  E(UB3LYP) =  -1136.13550120     A.U. after   19 cycles

 The electronic state is 2-A.
 Alpha  occ. eigenvalues --  -38.44411 -38.44031 -38.43623 -38.43435 -38.43418
 Alpha  occ. eigenvalues --  -38.43361 -38.43152  -2.20190  -2.19848  -2.19541
 Alpha  occ. eigenvalues --   -2.19406  -2.19262  -2.19239  -2.19064  -1.13870
 Alpha  occ. eigenvalues --   -1.13840  -1.13831  -1.13522  -1.13512  -1.13489
 Alpha  occ. eigenvalues --   -1.13225  -1.13199  -1.13153  -1.13136  -1.13058
 Alpha  occ. eigenvalues --   -1.13040  -1.12942  -1.12941  -1.12918  -1.12888
 Alpha  occ. eigenvalues --   -1.12865  -1.12863  -1.12741  -1.12700  -1.12674
 Alpha  occ. eigenvalues --   -0.18694  -0.12898  -0.12385  -0.11012
 Alpha virt. eigenvalues --   -0.05983  -0.04844  -0.04376  -0.03239  -0.03068
 Alpha virt. eigenvalues --   -0.02678  -0.01802  -0.00990  -0.00279  -0.00120
 Alpha virt. eigenvalues --    0.00042   0.00339   0.00805   0.00854   0.00897

  Beta  occ. eigenvalues --  -38.44410 -38.44030 -38.43541 -38.43410 -38.43362
  Beta  occ. eigenvalues --  -38.43343 -38.43137  -2.20191  -2.19848  -2.19392
  Beta  occ. eigenvalues --   -2.19272  -2.19252  -2.19208  -2.19040  -1.13860
  Beta  occ. eigenvalues --   -1.13838  -1.13833  -1.13523  -1.13498  -1.13490
  Beta  occ. eigenvalues --   -1.13130  -1.13092  -1.13049  -1.13047  -1.12979
  Beta  occ. eigenvalues --   -1.12953  -1.12923  -1.12908  -1.12883  -1.12857
  Beta  occ. eigenvalues --   -1.12849  -1.12839  -1.12708  -1.12668  -1.12659
  Beta  occ. eigenvalues --   -0.17953  -0.12683  -0.12123
  Beta virt. eigenvalues --   -0.07072  -0.05956  -0.04797  -0.04329  -0.02515
  Beta virt. eigenvalues --   -0.02287  -0.01745  -0.01614  -0.00901  -0.00267
  Beta virt. eigenvalues --   -0.00109   0.00112   0.00362   0.00844   0.00903

 Mulliken charges and spin densities:
               1          2
     1  Na  -0.060159   0.518107
     2  Na  -0.021781  -0.053678
     3  Na   0.054854   0.053363
     4  Na   0.314810   0.060810
     5  Na  -0.021258  -0.116700
     6  Na  -0.028644  -0.083313
     7  Na  -0.237822   0.621411
 Sum of Mulliken charges =  -0.00000   1.00000

 Dipole moment (field-independent basis, Debye):
    X=              0.2977    Y=             -0.2796    Z=              0.1391  Tot=              0.4315
 Quadrupole moment (field-independent basis, Debye-Ang):
   XX=            -54.2991   YY=            -65.9728   ZZ=            -73.0289
   XY=              0.0961   XZ=              0.4944   YZ=              1.2549

 Normal termination of Gaussian 16 at Thu Dec  7 20:03:11 2023.
