 Gaussian 16, Revision B.01,
 Gaussian 16:  ES64L-G16RevB.01 20-Dec-2017

 -------------------------
 #P B3LYP/6-311+g(d) force
 -------------------------

 -----
 DPGEN
 -----
 Symbolic Z-matrix:
 Charge =  0 Multiplicity = 2

                         Standard orientation:
 ---------------------------------------------------------------------
 Center     Atomic      Atomic             Coordinates (Angstroms)
 Number     Number       Type             X           Y           Z
 ---------------------------------------------------------------------
      1         11           0        3.006173    0.496170    1.273034
      2         11           0       -2.514137    1.457101    0.865547
      3         11           0        0.109311    3.427088   -0.307989
      4         11           0        2.703740   -1.161694   -1.394026
      5         11           0        0.068236   -2.583827    1.270455
      6         11           0       -2.984522   -1.725440   -0.539932
      7         11           0       -0.388799    0.090602   -1.167089
 ---------------------------------------------------------------------

 SCF Done:  E(UB3LYP) =  -1136.12388000     A.U. after   22 cycles

 The electronic state is 2-A.
 Alpha  occ. eigenvalues --  -38.44479 -38.44471 -38.44389 -38.44129 -38.43795
 Alpha  occ. eigenvalues --  -38.43780 -38.42804  -2.20267  -2.20259  -2.20222
 Alpha  occ. eigenvalues --   -2.19961  -2.19636  -2.19579  -2.18789  -1.13955
 Alpha  occ. eigenvalues --   -1.13939  -1.13923  -1.13919  -1.13913  -1.13899
 Alpha  occ. eigenvalues --   -1.13891  -1.13870  -1.13833  -1.13650  -1.13611
 Alpha  occ. eigenvalues --   -1.13595  -1.13304  -1.13291  -1.13261  -1.13258
 Alpha  occ. eigenvalues --   -1.13237  -1.13220  -1.12477  -1.12445  -1.12420
 Alpha  occ. eigenvalues --   -0.17653  -0.13459  -0.12290  -0.09900
 Alpha virt. eigenvalues --   -0.06453  -0.05589  -0.04820  -0.03602  -0.02746
 Alpha virt. eigenvalues --   -0.01986  -0.01805  -0.01265  -0.00996  -0.00454
 Alpha virt. eigenvalues --   -0.00011   0.00217   0.00341   0.00571   0.00636

  Beta  occ. eigenvalues --  -38.44442 -38.44440 -38.44381 -38.44130 -38.43798
  Beta  occ. eigenvalues --  -38.43744 -38.42751  -2.20212  -2.20207  -2.20186
  Beta  occ. eigenvalues --   -2.19964  -2.19587  -2.19572  -2.18696  -1.13913
  Beta  occ. eigenvalues --   -1.13909  -1.13890  -1.13875  -1.13874  -1.13864
  Beta  occ. eigenvalues --   -1.13857  -1.13826  -1.13819  -1.13644  -1.13613
  Beta  occ. eigenvalues --   -1.13592  -1.13257  -1.13255  -1.13242  -1.13240
  Beta  occ. eigenvalues --   -1.13227  -1.13206  -1.12399  -1.12376  -1.12354
  Beta  occ. eigenvalues --   -0.17103  -0.13228  -0.12129
  Beta virt. eigenvalues --   -0.06327  -0.06244  -0.05399  -0.04631  -0.03062
  Beta virt. eigenvalues --   -0.02262  -0.01721  -0.01338  -0.01147  -0.00759
  Beta virt. eigenvalues --   -0.00338   0.00190   0.00354   0.00455   0.00673

 Mulliken charges and spin densities:
               1          2
     1  Na  -0.313836   0.411600
     2  Na   0.007306   0.090369
     3  Na   0.091625  -0.070161
     4  Na   0.350019  -0.029623
     5  Na  -0.392896   0.267534
     6  Na   0.642295   0.062131
     7  Na  -0.384513   0.268150
 Sum of Mulliken charges =  -0.00000   1.00000

 Dipole moment (field-independent basis, Debye):
    X=             -0.4858    Y=             -0.0182    Z=              0.3014  Tot=              0.5720
 Quadrupole moment (field-independent basis, Debye-Ang):
   XX=            -56.0667   YY=            -63.5916   ZZ=            -74.1185
   XY=              2.4429   XZ=             -1.0147   YZ=              1.4906

 Normal termination of Gaussian 16 at Wed Dec  6 00:28:40 2023.
