 Gaussian 16, Revision B.01,
 Gaussian 16:  ES64L-G16RevB.01 20-Dec-2017

 -------------------------
 #P B3LYP/6-311+g(d) force
 -------------------------

 -----
 DPGEN
 -----
 Symbolic Z-matrix:
 Charge =  0 Multiplicity = 2

                         Standard orientation:
 ---------------------------------------------------------------------
 Center     Atomic      Atomic             Coordinates (Angstroms)
 Number     Number       Type             X           Y           Z
 ---------------------------------------------------------------------
      1         11           0       -0.405099   -0.016542   -1.775507
      2         11           0       -2.741470   -1.965838    0.238753
      3         11           0       -3.110412    1.436623    0.014322
      4         11           0        1.855860   -2.131168   -0.643116
      5         11           0        3.706353    0.233742    0.438348
      6         11           0        0.814396    2.626903   -0.261981
      7         11           0       -0.119627   -0.183719    1.989181
 ---------------------------------------------------------------------

 SCF Done:  E(UB3LYP) =  -1136.12562278     A.U. after   21 cycles

 The electronic state is 2-A.
 Alpha  occ. eigenvalues --  -38.45194 -38.44967 -38.44476 -38.43927 -38.43397
 Alpha  occ. eigenvalues --  -38.43393 -38.42720  -2.20982  -2.20761  -2.20307
 Alpha  occ. eigenvalues --   -2.19736  -2.19327  -2.19248  -2.18540  -1.14661
 Alpha  occ. eigenvalues --   -1.14643  -1.14611  -1.14445  -1.14417  -1.14391
 Alpha  occ. eigenvalues --   -1.13990  -1.13945  -1.13918  -1.13405  -1.13393
 Alpha  occ. eigenvalues --   -1.13386  -1.13030  -1.12978  -1.12953  -1.12900
 Alpha  occ. eigenvalues --   -1.12893  -1.12884  -1.12240  -1.12211  -1.12158
 Alpha  occ. eigenvalues --   -0.18134  -0.13643  -0.11356  -0.10768
 Alpha virt. eigenvalues --   -0.06896  -0.05517  -0.03980  -0.03351  -0.02669
 Alpha virt. eigenvalues --   -0.02581  -0.02374  -0.01374  -0.00638  -0.00190
 Alpha virt. eigenvalues --   -0.00075   0.00234   0.00475   0.00611   0.00781

  Beta  occ. eigenvalues --  -38.45190 -38.44963 -38.44403 -38.43926 -38.43378
  Beta  occ. eigenvalues --  -38.43310 -38.42718  -2.20975  -2.20756  -2.20172
  Beta  occ. eigenvalues --   -2.19736  -2.19218  -2.19176  -2.18540  -1.14657
  Beta  occ. eigenvalues --   -1.14632  -1.14607  -1.14432  -1.14411  -1.14388
  Beta  occ. eigenvalues --   -1.13898  -1.13852  -1.13818  -1.13401  -1.13392
  Beta  occ. eigenvalues --   -1.13377  -1.12949  -1.12889  -1.12875  -1.12864
  Beta  occ. eigenvalues --   -1.12848  -1.12810  -1.12236  -1.12197  -1.12156
  Beta  occ. eigenvalues --   -0.17408  -0.13488  -0.11099
  Beta virt. eigenvalues --   -0.06980  -0.06676  -0.05509  -0.03732  -0.02888
  Beta virt. eigenvalues --   -0.02322  -0.01829  -0.01634  -0.01257  -0.00646
  Beta virt. eigenvalues --   -0.00092  -0.00021   0.00264   0.00671   0.00698

 Mulliken charges and spin densities:
               1          2
     1  Na   0.284417   0.476293
     2  Na   0.044081  -0.036059
     3  Na   0.097358  -0.056098
     4  Na   0.095899  -0.018429
     5  Na  -0.007129   0.068935
     6  Na  -0.232238  -0.068508
     7  Na  -0.282388   0.633866
 Sum of Mulliken charges =  -0.00000   1.00000

 Dipole moment (field-independent basis, Debye):
    X=             -0.2157    Y=              0.1597    Z=              0.4113  Tot=              0.4911
 Quadrupole moment (field-independent basis, Debye-Ang):
   XX=            -47.4435   YY=            -71.2063   ZZ=            -74.2001
   XY=             -0.0805   XZ=              0.9302   YZ=              0.8668

 Normal termination of Gaussian 16 at Thu Dec  7 16:12:19 2023.
