 Gaussian 16, Revision B.01,
 Gaussian 16:  ES64L-G16RevB.01 20-Dec-2017

 -------------------------
 #P B3LYP/6-311+g(d) force
 -------------------------

 -----
 DPGEN
 -----
 Symbolic Z-matrix:
 Charge =  0 Multiplicity = 2

                         Standard orientation:
 ---------------------------------------------------------------------
 Center     Atomic      Atomic             Coordinates (Angstroms)
 Number     Number       Type             X           Y           Z
 ---------------------------------------------------------------------
      1         11           0        0.016329   -0.448157    2.229697
      2         11           0       -2.386648   -1.645160   -0.562958
      3         11           0       -3.131206    1.391501    0.366122
      4         11           0        1.108938   -2.858797   -0.432664
      5         11           0        1.582713    2.965100   -0.194765
      6         11           0        3.298930   -0.209467   -0.035076
      7         11           0       -0.489054    0.804980   -1.370355
 ---------------------------------------------------------------------

 SCF Done:  E(UB3LYP) =  -1136.12943827     A.U. after   20 cycles

 The electronic state is 2-A.
 Alpha  occ. eigenvalues --  -38.44693 -38.44690 -38.43891 -38.43877 -38.43553
 Alpha  occ. eigenvalues --  -38.43355 -38.43263  -2.20521  -2.20475  -2.19767
 Alpha  occ. eigenvalues --   -2.19702  -2.19357  -2.19298  -2.19072  -1.14200
 Alpha  occ. eigenvalues --   -1.14178  -1.14163  -1.14160  -1.14135  -1.14108
 Alpha  occ. eigenvalues --   -1.13477  -1.13420  -1.13387  -1.13360  -1.13335
 Alpha  occ. eigenvalues --   -1.13311  -1.13082  -1.13013  -1.12993  -1.12977
 Alpha  occ. eigenvalues --   -1.12940  -1.12906  -1.12745  -1.12729  -1.12723
 Alpha  occ. eigenvalues --   -0.18029  -0.13364  -0.12091  -0.10486
 Alpha virt. eigenvalues --   -0.06328  -0.05381  -0.04718  -0.03361  -0.02685
 Alpha virt. eigenvalues --   -0.02408  -0.01895  -0.01203  -0.00833  -0.00495
 Alpha virt. eigenvalues --   -0.00054   0.00303   0.00639   0.00750   0.00803

  Beta  occ. eigenvalues --  -38.44694 -38.44684 -38.43872 -38.43773 -38.43553
  Beta  occ. eigenvalues --  -38.43319 -38.43256  -2.20512  -2.20478  -2.19736
  Beta  occ. eigenvalues --   -2.19509  -2.19359  -2.19234  -2.19062  -1.14194
  Beta  occ. eigenvalues --   -1.14176  -1.14152  -1.14137  -1.14136  -1.14114
  Beta  occ. eigenvalues --   -1.13452  -1.13377  -1.13368  -1.13230  -1.13203
  Beta  occ. eigenvalues --   -1.13173  -1.13072  -1.13006  -1.12996  -1.12930
  Beta  occ. eigenvalues --   -1.12894  -1.12864  -1.12735  -1.12721  -1.12705
  Beta  occ. eigenvalues --   -0.17352  -0.13219  -0.11893
  Beta virt. eigenvalues --   -0.06608  -0.06197  -0.05346  -0.04589  -0.02663
  Beta virt. eigenvalues --   -0.02045  -0.01787  -0.01432  -0.01096  -0.00821
  Beta virt. eigenvalues --   -0.00513   0.00141   0.00364   0.00718   0.00787

 Mulliken charges and spin densities:
               1          2
     1  Na  -0.423507   0.682699
     2  Na   0.312062   0.121010
     3  Na   0.086520   0.115100
     4  Na  -0.148038   0.027642
     5  Na   0.085749  -0.034682
     6  Na   0.043169  -0.020812
     7  Na   0.044044   0.109044
 Sum of Mulliken charges =  -0.00000   1.00000

 Dipole moment (field-independent basis, Debye):
    X=             -0.2597    Y=              0.2581    Z=              0.2191  Tot=              0.4267
 Quadrupole moment (field-independent basis, Debye-Ang):
   XX=            -53.1087   YY=            -64.8205   ZZ=            -75.9524
   XY=             -1.5134   XZ=             -0.7157   YZ=              2.6431

 Normal termination of Gaussian 16 at Thu Dec  7 22:40:20 2023.
