 Gaussian 16, Revision B.01,
 Gaussian 16:  ES64L-G16RevB.01 20-Dec-2017

 -------------------------
 #P B3LYP/6-311+g(d) force
 -------------------------

 -----
 DPGEN
 -----
 Symbolic Z-matrix:
 Charge =  0 Multiplicity = 2

                         Standard orientation:
 ---------------------------------------------------------------------
 Center     Atomic      Atomic             Coordinates (Angstroms)
 Number     Number       Type             X           Y           Z
 ---------------------------------------------------------------------
      1         11           0       -3.581971   -0.416243    0.074800
      2         11           0        0.288464    0.303100   -1.717443
      3         11           0       -0.686349   -2.049515   -0.448250
      4         11           0       -0.442436    3.244817   -0.309755
      5         11           0        2.218658    1.399282    0.663654
      6         11           0        2.358524   -2.004581   -0.352003
      7         11           0       -0.154891   -0.476861    2.088997
 ---------------------------------------------------------------------

 SCF Done:  E(UB3LYP) =  -1136.12505367     A.U. after   20 cycles

 The electronic state is 2-A.
 Alpha  occ. eigenvalues --  -38.44236 -38.44077 -38.43741 -38.43684 -38.43576
 Alpha  occ. eigenvalues --  -38.43450 -38.43202  -2.20145  -2.19847  -2.19753
 Alpha  occ. eigenvalues --   -2.19494  -2.19480  -2.19350  -2.19247  -1.13855
 Alpha  occ. eigenvalues --   -1.13791  -1.13728  -1.13558  -1.13523  -1.13506
 Alpha  occ. eigenvalues --   -1.13487  -1.13416  -1.13353  -1.13175  -1.13165
 Alpha  occ. eigenvalues --   -1.13154  -1.13143  -1.13137  -1.13090  -1.13067
 Alpha  occ. eigenvalues --   -1.12998  -1.12978  -1.12918  -1.12911  -1.12772
 Alpha  occ. eigenvalues --   -0.18988  -0.12773  -0.12400  -0.11374
 Alpha virt. eigenvalues --   -0.05673  -0.05148  -0.04063  -0.03258  -0.03004
 Alpha virt. eigenvalues --   -0.02936  -0.01637  -0.01164  -0.00224  -0.00030
 Alpha virt. eigenvalues --    0.00235   0.00315   0.00776   0.00850   0.00869

  Beta  occ. eigenvalues --  -38.44142 -38.44083 -38.43682 -38.43670 -38.43555
  Beta  occ. eigenvalues --  -38.43443 -38.43179  -2.19973  -2.19859  -2.19625
  Beta  occ. eigenvalues --   -2.19491  -2.19445  -2.19341  -2.19213  -1.13744
  Beta  occ. eigenvalues --   -1.13670  -1.13602  -1.13530  -1.13510  -1.13496
  Beta  occ. eigenvalues --   -1.13472  -1.13333  -1.13263  -1.13161  -1.13146
  Beta  occ. eigenvalues --   -1.13137  -1.13128  -1.13101  -1.13081  -1.13048
  Beta  occ. eigenvalues --   -1.12986  -1.12948  -1.12895  -1.12840  -1.12751
  Beta  occ. eigenvalues --   -0.18178  -0.12557  -0.12188
  Beta virt. eigenvalues --   -0.07314  -0.05611  -0.05074  -0.04013  -0.02537
  Beta virt. eigenvalues --   -0.02278  -0.01925  -0.01507  -0.01096  -0.00175
  Beta virt. eigenvalues --    0.00065   0.00242   0.00335   0.00829   0.00846

 Mulliken charges and spin densities:
               1          2
     1  Na  -0.012279  -0.113831
     2  Na  -0.141571   0.331572
     3  Na   0.196704   0.173199
     4  Na  -0.034419  -0.072182
     5  Na   0.084786   0.191456
     6  Na   0.365408   0.014810
     7  Na  -0.458628   0.474976
 Sum of Mulliken charges =  -0.00000   1.00000

 Dipole moment (field-independent basis, Debye):
    X=             -0.1482    Y=              0.3512    Z=              0.3205  Tot=              0.4980
 Quadrupole moment (field-independent basis, Debye-Ang):
   XX=            -57.6862   YY=            -64.9541   ZZ=            -71.2743
   XY=             -3.7284   XZ=              0.5177   YZ=              0.7860

 Normal termination of Gaussian 16 at Tue Dec  5 22:21:33 2023.
