 Gaussian 16, Revision B.01,
 Gaussian 16:  ES64L-G16RevB.01 20-Dec-2017

 -------------------------
 #P B3LYP/6-311+g(d) force
 -------------------------

 -----
 DPGEN
 -----
 Symbolic Z-matrix:
 Charge =  0 Multiplicity = 2

                         Standard orientation:
 ---------------------------------------------------------------------
 Center     Atomic      Atomic             Coordinates (Angstroms)
 Number     Number       Type             X           Y           Z
 ---------------------------------------------------------------------
      1         11           0       -1.170115   -2.397980   -1.089971
      2         11           0        1.955481   -1.523870   -1.220338
      3         11           0        2.548053   -0.349414    1.603220
      4         11           0        0.081634    0.016652    0.307530
      5         11           0       -2.538760   -0.586910    1.717966
      6         11           0       -1.974619    1.869427   -0.914532
      7         11           0        1.098327    2.972097   -0.403875
 ---------------------------------------------------------------------

 SCF Done:  E(UB3LYP) =  -1136.11588175     A.U. after   19 cycles

 The electronic state is 2-A.
 Alpha  occ. eigenvalues --  -38.44035 -38.43902 -38.43726 -38.43694 -38.43607
 Alpha  occ. eigenvalues --  -38.43532 -38.42440  -2.19955  -2.19770  -2.19649
 Alpha  occ. eigenvalues --   -2.19602  -2.19495  -2.19365  -2.18762  -1.13754
 Alpha  occ. eigenvalues --   -1.13597  -1.13532  -1.13487  -1.13428  -1.13391
 Alpha  occ. eigenvalues --   -1.13378  -1.13337  -1.13274  -1.13263  -1.13251
 Alpha  occ. eigenvalues --   -1.13211  -1.13194  -1.13135  -1.13093  -1.13048
 Alpha  occ. eigenvalues --   -1.13024  -1.12985  -1.12474  -1.12419  -1.12341
 Alpha  occ. eigenvalues --   -0.18717  -0.13132  -0.12531  -0.10991
 Alpha virt. eigenvalues --   -0.05156  -0.04742  -0.04408  -0.03835  -0.02896
 Alpha virt. eigenvalues --   -0.02093  -0.01274  -0.00999  -0.00511   0.00326
 Alpha virt. eigenvalues --    0.00366   0.00535   0.00569   0.00820   0.00911

  Beta  occ. eigenvalues --  -38.43986 -38.43847 -38.43713 -38.43668 -38.43576
  Beta  occ. eigenvalues --  -38.43527 -38.42411  -2.19864  -2.19668  -2.19605
  Beta  occ. eigenvalues --   -2.19579  -2.19441  -2.19358  -2.18721  -1.13695
  Beta  occ. eigenvalues --   -1.13535  -1.13471  -1.13418  -1.13391  -1.13331
  Beta  occ. eigenvalues --   -1.13318  -1.13306  -1.13239  -1.13229  -1.13214
  Beta  occ. eigenvalues --   -1.13189  -1.13158  -1.13094  -1.13045  -1.13037
  Beta  occ. eigenvalues --   -1.13014  -1.12973  -1.12404  -1.12356  -1.12323
  Beta  occ. eigenvalues --   -0.18042  -0.12869  -0.12138
  Beta virt. eigenvalues --   -0.07277  -0.05165  -0.04476  -0.03742  -0.03587
  Beta virt. eigenvalues --   -0.02339  -0.01432  -0.01201  -0.00897  -0.00103
  Beta virt. eigenvalues --    0.00399   0.00432   0.00552   0.00675   0.00835

 Mulliken charges and spin densities:
               1          2
     1  Na   0.243836  -0.008583
     2  Na   0.574610  -0.015619
     3  Na   0.261410  -0.022773
     4  Na  -2.486386   1.261675
     5  Na   0.516507  -0.132417
     6  Na   0.704486  -0.055285
     7  Na   0.185536  -0.026999
 Sum of Mulliken charges =  -0.00000   1.00000

 Dipole moment (field-independent basis, Debye):
    X=             -0.0913    Y=              0.0027    Z=             -0.0591  Tot=              0.1088
 Quadrupole moment (field-independent basis, Debye-Ang):
   XX=            -58.4519   YY=            -66.0029   ZZ=            -66.6958
   XY=              1.3490   XZ=              0.3372   YZ=              0.2457

 Normal termination of Gaussian 16 at Thu Dec  7 13:22:50 2023.
