 Gaussian 16, Revision B.01,
 Gaussian 16:  ES64L-G16RevB.01 20-Dec-2017

 -------------------------
 #P B3LYP/6-311+g(d) force
 -------------------------

 -----
 DPGEN
 -----
 Symbolic Z-matrix:
 Charge =  0 Multiplicity = 2

                         Standard orientation:
 ---------------------------------------------------------------------
 Center     Atomic      Atomic             Coordinates (Angstroms)
 Number     Number       Type             X           Y           Z
 ---------------------------------------------------------------------
      1         11           0        1.460107   -3.487278   -0.209773
      2         11           0       -1.484325   -2.080300    1.266070
      3         11           0        3.986309   -1.632075   -0.457151
      4         11           0       -4.502883   -0.870336   -0.153992
      5         11           0        2.937159    2.471705   -0.196474
      6         11           0        0.616447    3.912005    0.865834
      7         11           0       -3.012815    1.686279   -1.114513
 ---------------------------------------------------------------------

 SCF Done:  E(UB3LYP) =  -1136.10716798     A.U. after   18 cycles

 The electronic state is 2-A.
 Alpha  occ. eigenvalues --  -38.45235 -38.44736 -38.44567 -38.44343 -38.44067
 Alpha  occ. eigenvalues --  -38.44042 -38.43814  -2.21032  -2.20549  -2.20370
 Alpha  occ. eigenvalues --   -2.20147  -2.19888  -2.19836  -2.19625  -1.14694
 Alpha  occ. eigenvalues --   -1.14685  -1.14665  -1.14213  -1.14207  -1.14196
 Alpha  occ. eigenvalues --   -1.14109  -1.14026  -1.14011  -1.13802  -1.13796
 Alpha  occ. eigenvalues --   -1.13754  -1.13539  -1.13535  -1.13524  -1.13519
 Alpha  occ. eigenvalues --   -1.13511  -1.13498  -1.13269  -1.13258  -1.13248
 Alpha  occ. eigenvalues --   -0.15626  -0.13888  -0.13256  -0.10684
 Alpha virt. eigenvalues --   -0.07127  -0.05089  -0.04733  -0.03436  -0.03120
 Alpha virt. eigenvalues --   -0.02513  -0.02121  -0.01829  -0.01412  -0.01055
 Alpha virt. eigenvalues --   -0.00469  -0.00105  -0.00005   0.00382   0.00667

  Beta  occ. eigenvalues --  -38.45181 -38.44737 -38.44565 -38.44256 -38.44051
  Beta  occ. eigenvalues --  -38.44051 -38.43753  -2.20932  -2.20555  -2.20369
  Beta  occ. eigenvalues --   -2.19985  -2.19860  -2.19857  -2.19511  -1.14629
  Beta  occ. eigenvalues --   -1.14617  -1.14591  -1.14219  -1.14208  -1.14174
  Beta  occ. eigenvalues --   -1.14094  -1.14027  -1.14007  -1.13691  -1.13688
  Beta  occ. eigenvalues --   -1.13647  -1.13543  -1.13532  -1.13514  -1.13505
  Beta  occ. eigenvalues --   -1.13499  -1.13481  -1.13191  -1.13183  -1.13179
  Beta  occ. eigenvalues --   -0.15043  -0.13418  -0.12767
  Beta virt. eigenvalues --   -0.07364  -0.06953  -0.04840  -0.04305  -0.03073
  Beta virt. eigenvalues --   -0.02751  -0.02289  -0.02115  -0.01615  -0.01308
  Beta virt. eigenvalues --   -0.00651  -0.00181   0.00117   0.00221   0.00443

 Mulliken charges and spin densities:
               1          2
     1  Na   0.042593  -0.071701
     2  Na  -0.537444   0.476502
     3  Na   0.164735   0.297168
     4  Na   0.465046  -0.024535
     5  Na  -0.164778   0.024849
     6  Na   0.132398   0.037870
     7  Na  -0.102551   0.259847
 Sum of Mulliken charges =  -0.00000   1.00000

 Dipole moment (field-independent basis, Debye):
    X=             -1.3859    Y=              0.5399    Z=             -0.1629  Tot=              1.4962
 Quadrupole moment (field-independent basis, Debye-Ang):
   XX=            -61.4964   YY=            -68.5739   ZZ=            -71.9713
   XY=              2.5241   XZ=             -1.9590   YZ=              0.8214

 Normal termination of Gaussian 16 at Sun Dec  3 13:22:55 2023.
