 Gaussian 16, Revision B.01,
 Gaussian 16:  ES64L-G16RevB.01 20-Dec-2017

 -------------------------
 #P B3LYP/6-311+g(d) force
 -------------------------

 -----
 DPGEN
 -----
 Symbolic Z-matrix:
 Charge =  0 Multiplicity = 2

                         Standard orientation:
 ---------------------------------------------------------------------
 Center     Atomic      Atomic             Coordinates (Angstroms)
 Number     Number       Type             X           Y           Z
 ---------------------------------------------------------------------
      1         11           0        0.547817    1.571011    1.189550
      2         11           0        2.551765    3.564162   -0.517211
      3         11           0        3.496553   -0.454699   -0.579836
      4         11           0       -0.329351   -1.706755   -0.597552
      5         11           0       -2.343437    0.257586    0.527560
      6         11           0        2.312587   -3.330909    0.420505
      7         11           0       -6.235935    0.099603   -0.443016
 ---------------------------------------------------------------------

 SCF Done:  E(UB3LYP) =  -1136.11736265     A.U. after   19 cycles

 The electronic state is 2-A.
 Alpha  occ. eigenvalues --  -38.45100 -38.44632 -38.44269 -38.43935 -38.43933
 Alpha  occ. eigenvalues --  -38.43894 -38.43067  -2.20886  -2.20424  -2.20145
 Alpha  occ. eigenvalues --   -2.19768  -2.19747  -2.19711  -2.18938  -1.14511
 Alpha  occ. eigenvalues --   -1.14511  -1.14485  -1.14123  -1.14102  -1.14024
 Alpha  occ. eigenvalues --   -1.13829  -1.13818  -1.13792  -1.13444  -1.13431
 Alpha  occ. eigenvalues --   -1.13423  -1.13422  -1.13415  -1.13405  -1.13376
 Alpha  occ. eigenvalues --   -1.13355  -1.13313  -1.12632  -1.12589  -1.12584
 Alpha  occ. eigenvalues --   -0.16867  -0.13529  -0.12550  -0.11373
 Alpha virt. eigenvalues --   -0.06042  -0.05729  -0.04599  -0.03765  -0.02490
 Alpha virt. eigenvalues --   -0.02355  -0.01879  -0.01692  -0.01587  -0.00825
 Alpha virt. eigenvalues --   -0.00355  -0.00078   0.00297   0.00396   0.00564

  Beta  occ. eigenvalues --  -38.44948 -38.44614 -38.44255 -38.43934 -38.43929
  Beta  occ. eigenvalues --  -38.43880 -38.43064  -2.20603  -2.20390  -2.20120
  Beta  occ. eigenvalues --   -2.19766  -2.19721  -2.19703  -2.18939  -1.14319
  Beta  occ. eigenvalues --   -1.14319  -1.14295  -1.14100  -1.14080  -1.13998
  Beta  occ. eigenvalues --   -1.13814  -1.13791  -1.13783  -1.13431  -1.13425
  Beta  occ. eigenvalues --   -1.13421  -1.13408  -1.13403  -1.13394  -1.13370
  Beta  occ. eigenvalues --   -1.13345  -1.13298  -1.12636  -1.12596  -1.12541
  Beta  occ. eigenvalues --   -0.16561  -0.12709  -0.12379
  Beta virt. eigenvalues --   -0.07420  -0.05892  -0.05608  -0.04060  -0.03639
  Beta virt. eigenvalues --   -0.02268  -0.02204  -0.01603  -0.01149  -0.00989
  Beta virt. eigenvalues --   -0.00332  -0.00161   0.00044   0.00462   0.00533

 Mulliken charges and spin densities:
               1          2
     1  Na   0.074252  -0.107698
     2  Na   0.497931   0.053229
     3  Na  -0.078502   0.181614
     4  Na  -0.398337  -0.097989
     5  Na  -0.291311   0.278047
     6  Na   0.395454   0.041414
     7  Na  -0.199486   0.651383
 Sum of Mulliken charges =  -0.00000   1.00000

 Dipole moment (field-independent basis, Debye):
    X=              0.9396    Y=             -0.4432    Z=             -0.1948  Tot=              1.0571
 Quadrupole moment (field-independent basis, Debye-Ang):
   XX=            -68.2409   YY=            -62.9462   ZZ=            -68.5110
   XY=              0.2826   XZ=             -0.2449   YZ=             -2.6549

 Normal termination of Gaussian 16 at Wed Nov 29 02:55:35 2023.
