 Gaussian 16, Revision B.01,
 Gaussian 16:  ES64L-G16RevB.01 20-Dec-2017

 -------------------------
 #P B3LYP/6-311+g(d) force
 -------------------------

 -----
 DPGEN
 -----
 Symbolic Z-matrix:
 Charge =  0 Multiplicity = 2

                         Standard orientation:
 ---------------------------------------------------------------------
 Center     Atomic      Atomic             Coordinates (Angstroms)
 Number     Number       Type             X           Y           Z
 ---------------------------------------------------------------------
      1         11           0        2.469958    2.153860    0.063299
      2         11           0        2.934088   -1.610496    0.072632
      3         11           0       -1.415371    2.942447    0.088166
      4         11           0        0.150312    0.338416   -1.696685
      5         11           0       -0.130514   -0.361112    1.779461
      6         11           0       -3.264644   -0.355476   -0.005692
      7         11           0       -0.743828   -3.107638   -0.301180
 ---------------------------------------------------------------------

 SCF Done:  E(UB3LYP) =  -1136.13527642     A.U. after   19 cycles

 The electronic state is 2-A.
 Alpha  occ. eigenvalues --  -38.44286 -38.44238 -38.44211 -38.43991 -38.43893
 Alpha  occ. eigenvalues --  -38.43181 -38.43124  -2.20060  -2.20028  -2.19998
 Alpha  occ. eigenvalues --   -2.19777  -2.19690  -2.19068  -2.19024  -1.13738
 Alpha  occ. eigenvalues --   -1.13717  -1.13705  -1.13704  -1.13688  -1.13681
 Alpha  occ. eigenvalues --   -1.13667  -1.13660  -1.13629  -1.13456  -1.13439
 Alpha  occ. eigenvalues --   -1.13414  -1.13365  -1.13354  -1.13325  -1.12771
 Alpha  occ. eigenvalues --   -1.12708  -1.12695  -1.12683  -1.12649  -1.12645
 Alpha  occ. eigenvalues --   -0.17946  -0.12731  -0.12455  -0.09957
 Alpha virt. eigenvalues --   -0.05763  -0.05696  -0.05256  -0.02889  -0.02771
 Alpha virt. eigenvalues --   -0.02033  -0.01674  -0.01506  -0.00916  -0.00891
 Alpha virt. eigenvalues --    0.00001   0.00340   0.00746   0.00760   0.00782

  Beta  occ. eigenvalues --  -38.44284 -38.44236 -38.44209 -38.43989 -38.43885
  Beta  occ. eigenvalues --  -38.43106 -38.43055  -2.20058  -2.20026  -2.19997
  Beta  occ. eigenvalues --   -2.19776  -2.19678  -2.18930  -2.18897  -1.13718
  Beta  occ. eigenvalues --   -1.13716  -1.13706  -1.13690  -1.13682  -1.13669
  Beta  occ. eigenvalues --   -1.13667  -1.13652  -1.13631  -1.13444  -1.13432
  Beta  occ. eigenvalues --   -1.13414  -1.13351  -1.13333  -1.13320  -1.12676
  Beta  occ. eigenvalues --   -1.12615  -1.12598  -1.12582  -1.12558  -1.12552
  Beta  occ. eigenvalues --   -0.17255  -0.12529  -0.12248
  Beta virt. eigenvalues --   -0.06174  -0.05769  -0.05690  -0.05128  -0.02165
  Beta virt. eigenvalues --   -0.02062  -0.01574  -0.01415  -0.01061  -0.00967
  Beta virt. eigenvalues --   -0.00943   0.00151   0.00375   0.00754   0.00775

 Mulliken charges and spin densities:
               1          2
     1  Na   0.040269  -0.137951
     2  Na   0.036341  -0.101774
     3  Na   0.002034  -0.137643
     4  Na  -0.043981   0.735136
     5  Na  -0.130391   0.788586
     6  Na   0.100538  -0.075210
     7  Na  -0.004810  -0.071145
 Sum of Mulliken charges =  -0.00000   1.00000

 Dipole moment (field-independent basis, Debye):
    X=              0.0777    Y=              0.0422    Z=              0.0143  Tot=              0.0896
 Quadrupole moment (field-independent basis, Debye-Ang):
   XX=            -54.6250   YY=            -57.6504   ZZ=            -78.5261
   XY=             -0.1833   XZ=              0.6388   YZ=              1.6701

 Normal termination of Gaussian 16 at Sun Dec  3 15:58:18 2023.
