 Gaussian 16, Revision B.01,
 Gaussian 16:  ES64L-G16RevB.01 20-Dec-2017

 -------------------------
 #P B3LYP/6-311+g(d) force
 -------------------------

 -----
 DPGEN
 -----
 Symbolic Z-matrix:
 Charge =  0 Multiplicity = 2

                         Standard orientation:
 ---------------------------------------------------------------------
 Center     Atomic      Atomic             Coordinates (Angstroms)
 Number     Number       Type             X           Y           Z
 ---------------------------------------------------------------------
      1         11           0       -0.931944    2.904093   -0.412027
      2         11           0        0.273251    0.358929    1.857187
      3         11           0        2.317755    1.629835   -0.120633
      4         11           0        2.721248   -1.687337   -0.030271
      5         11           0       -0.196656   -0.161216   -1.380174
      6         11           0       -3.350434   -0.339342    0.289734
      7         11           0       -0.833221   -2.704962   -0.203815
 ---------------------------------------------------------------------

 SCF Done:  E(UB3LYP) =  -1136.13288951     A.U. after   19 cycles

 The electronic state is 2-A.
 Alpha  occ. eigenvalues --  -38.44407 -38.43757 -38.43650 -38.43616 -38.43503
 Alpha  occ. eigenvalues --  -38.43242 -38.42828  -2.20200  -2.19595  -2.19571
 Alpha  occ. eigenvalues --   -2.19507  -2.19346  -2.19187  -2.18899  -1.13870
 Alpha  occ. eigenvalues --   -1.13851  -1.13845  -1.13318  -1.13313  -1.13277
 Alpha  occ. eigenvalues --   -1.13253  -1.13244  -1.13235  -1.13167  -1.13149
 Alpha  occ. eigenvalues --   -1.13093  -1.13034  -1.13001  -1.12975  -1.12880
 Alpha  occ. eigenvalues --   -1.12810  -1.12780  -1.12578  -1.12541  -1.12484
 Alpha  occ. eigenvalues --   -0.18875  -0.13126  -0.12604  -0.10281
 Alpha virt. eigenvalues --   -0.05842  -0.05166  -0.04784  -0.03022  -0.02687
 Alpha virt. eigenvalues --   -0.02019  -0.01759  -0.01266  -0.00412  -0.00339
 Alpha virt. eigenvalues --    0.00030   0.00328   0.00780   0.00846   0.00888

  Beta  occ. eigenvalues --  -38.44403 -38.43754 -38.43640 -38.43608 -38.43491
  Beta  occ. eigenvalues --  -38.43157 -38.42770  -2.20193  -2.19594  -2.19557
  Beta  occ. eigenvalues --   -2.19495  -2.19327  -2.19030  -2.18795  -1.13852
  Beta  occ. eigenvalues --   -1.13850  -1.13842  -1.13308  -1.13300  -1.13268
  Beta  occ. eigenvalues --   -1.13244  -1.13228  -1.13199  -1.13160  -1.13123
  Beta  occ. eigenvalues --   -1.13088  -1.13015  -1.12974  -1.12963  -1.12778
  Beta  occ. eigenvalues --   -1.12700  -1.12669  -1.12497  -1.12466  -1.12410
  Beta  occ. eigenvalues --   -0.18174  -0.12892  -0.12327
  Beta virt. eigenvalues --   -0.06433  -0.05767  -0.05151  -0.04737  -0.02283
  Beta virt. eigenvalues --   -0.01967  -0.01646  -0.01196  -0.01013  -0.00447
  Beta virt. eigenvalues --   -0.00377   0.00173   0.00370   0.00821   0.00852

 Mulliken charges and spin densities:
               1          2
     1  Na   0.098318  -0.017634
     2  Na  -0.483287   0.747619
     3  Na   0.457631   0.036511
     4  Na   0.081865  -0.058231
     5  Na  -0.434865   0.325893
     6  Na  -0.000570   0.005775
     7  Na   0.280908  -0.039934
 Sum of Mulliken charges =  -0.00000   1.00000

 Dipole moment (field-independent basis, Debye):
    X=             -0.2935    Y=              0.0047    Z=              0.1991  Tot=              0.3547
 Quadrupole moment (field-independent basis, Debye-Ang):
   XX=            -53.4370   YY=            -60.9156   ZZ=            -76.7581
   XY=             -1.3452   XZ=             -1.2503   YZ=             -1.1615

 Normal termination of Gaussian 16 at Tue Dec  5 19:33:55 2023.
