 Gaussian 16, Revision B.01,
 Gaussian 16:  ES64L-G16RevB.01 20-Dec-2017

 -------------------------
 #P B3LYP/6-311+g(d) force
 -------------------------

 -----
 DPGEN
 -----
 Symbolic Z-matrix:
 Charge =  0 Multiplicity = 2

                         Standard orientation:
 ---------------------------------------------------------------------
 Center     Atomic      Atomic             Coordinates (Angstroms)
 Number     Number       Type             X           Y           Z
 ---------------------------------------------------------------------
      1         11           0        2.892186   -2.037523   -0.740632
      2         11           0       -3.108602   -1.618584    0.622101
      3         11           0        0.234456   -0.800490    1.925367
      4         11           0        0.166812    2.150661    0.184064
      5         11           0        3.091495    1.615972    0.299969
      6         11           0       -2.986441    1.522494   -0.742546
      7         11           0       -0.289905   -0.832530   -1.548323
 ---------------------------------------------------------------------

 SCF Done:  E(UB3LYP) =  -1136.12275392     A.U. after   21 cycles

 The electronic state is 2-A.
 Alpha  occ. eigenvalues --  -38.44738 -38.44721 -38.44207 -38.44184 -38.44029
 Alpha  occ. eigenvalues --  -38.43810 -38.42599  -2.20560  -2.20527  -2.20058
 Alpha  occ. eigenvalues --   -2.20021  -2.19903  -2.19604  -2.18527  -1.14276
 Alpha  occ. eigenvalues --   -1.14213  -1.14194  -1.14179  -1.14176  -1.14170
 Alpha  occ. eigenvalues --   -1.13760  -1.13692  -1.13684  -1.13681  -1.13658
 Alpha  occ. eigenvalues --   -1.13653  -1.13610  -1.13560  -1.13504  -1.13269
 Alpha  occ. eigenvalues --   -1.13257  -1.13236  -1.12208  -1.12195  -1.12173
 Alpha  occ. eigenvalues --   -0.18223  -0.13748  -0.11638  -0.10817
 Alpha virt. eigenvalues --   -0.06778  -0.05875  -0.04035  -0.03236  -0.02736
 Alpha virt. eigenvalues --   -0.02456  -0.02256  -0.01714  -0.00513  -0.00325
 Alpha virt. eigenvalues --    0.00111   0.00176   0.00504   0.00535   0.00633

  Beta  occ. eigenvalues --  -38.44739 -38.44702 -38.44161 -38.44130 -38.43990
  Beta  occ. eigenvalues --  -38.43786 -38.42591  -2.20563  -2.20493  -2.19981
  Beta  occ. eigenvalues --   -2.19917  -2.19832  -2.19559  -2.18516  -1.14281
  Beta  occ. eigenvalues --   -1.14203  -1.14182  -1.14174  -1.14151  -1.14135
  Beta  occ. eigenvalues --   -1.13670  -1.13658  -1.13642  -1.13630  -1.13596
  Beta  occ. eigenvalues --   -1.13558  -1.13550  -1.13503  -1.13447  -1.13229
  Beta  occ. eigenvalues --   -1.13226  -1.13209  -1.12206  -1.12194  -1.12127
  Beta  occ. eigenvalues --   -0.17585  -0.13506  -0.11279
  Beta virt. eigenvalues --   -0.07155  -0.06652  -0.05679  -0.03579  -0.02994
  Beta virt. eigenvalues --   -0.02351  -0.02038  -0.01598  -0.01378  -0.00490
  Beta virt. eigenvalues --   -0.00114   0.00143   0.00200   0.00609   0.00660

 Mulliken charges and spin densities:
               1          2
     1  Na   0.120600   0.139306
     2  Na   0.065221   0.072333
     3  Na  -0.039801   0.413724
     4  Na  -0.526998   0.037968
     5  Na   0.122256  -0.008652
     6  Na   0.619705   0.027664
     7  Na  -0.360983   0.317657
 Sum of Mulliken charges =  -0.00000   1.00000

 Dipole moment (field-independent basis, Debye):
    X=             -0.2372    Y=             -0.3472    Z=              0.1848  Tot=              0.4593
 Quadrupole moment (field-independent basis, Debye-Ang):
   XX=            -46.8341   YY=            -73.7182   ZZ=            -73.1819
   XY=              1.4125   XZ=              0.7372   YZ=             -1.1768

 Normal termination of Gaussian 16 at Mon Dec  4 01:05:11 2023.
