 Gaussian 16, Revision B.01,
 Gaussian 16:  ES64L-G16RevB.01 20-Dec-2017

 -------------------------
 #P B3LYP/6-311+g(d) force
 -------------------------

 -----
 DPGEN
 -----
 Symbolic Z-matrix:
 Charge =  0 Multiplicity = 2

                         Standard orientation:
 ---------------------------------------------------------------------
 Center     Atomic      Atomic             Coordinates (Angstroms)
 Number     Number       Type             X           Y           Z
 ---------------------------------------------------------------------
      1         11           0        0.194757   -0.273746   -1.627231
      2         11           0        0.501083    2.840939   -0.595938
      3         11           0        3.166909    0.092380   -0.013804
      4         11           0       -2.473169   -2.002951   -0.448782
      5         11           0        1.083772   -2.453005    0.265169
      6         11           0       -2.528309    1.570358    0.337200
      7         11           0        0.054957    0.226025    2.083385
 ---------------------------------------------------------------------

 SCF Done:  E(UB3LYP) =  -1136.13738976     A.U. after   19 cycles

 The electronic state is 2-A.
 Alpha  occ. eigenvalues --  -38.43911 -38.43812 -38.43698 -38.43527 -38.43389
 Alpha  occ. eigenvalues --  -38.43363 -38.43245  -2.19756  -2.19708  -2.19539
 Alpha  occ. eigenvalues --   -2.19344  -2.19312  -2.19251  -2.19213  -1.13438
 Alpha  occ. eigenvalues --   -1.13421  -1.13399  -1.13378  -1.13348  -1.13328
 Alpha  occ. eigenvalues --   -1.13212  -1.13200  -1.13175  -1.13121  -1.13031
 Alpha  occ. eigenvalues --   -1.12997  -1.12987  -1.12979  -1.12950  -1.12904
 Alpha  occ. eigenvalues --   -1.12888  -1.12861  -1.12851  -1.12839  -1.12824
 Alpha  occ. eigenvalues --   -0.18770  -0.12959  -0.12451  -0.11043
 Alpha virt. eigenvalues --   -0.05450  -0.05042  -0.04641  -0.03306  -0.02953
 Alpha virt. eigenvalues --   -0.02710  -0.01492  -0.01051  -0.00290  -0.00103
 Alpha virt. eigenvalues --    0.00012   0.00359   0.00823   0.00901   0.00912

  Beta  occ. eigenvalues --  -38.43909 -38.43717 -38.43692 -38.43521 -38.43379
  Beta  occ. eigenvalues --  -38.43350 -38.43183  -2.19755  -2.19533  -2.19531
  Beta  occ. eigenvalues --   -2.19336  -2.19297  -2.19190  -2.19138  -1.13438
  Beta  occ. eigenvalues --   -1.13405  -1.13390  -1.13270  -1.13238  -1.13211
  Beta  occ. eigenvalues --   -1.13188  -1.13174  -1.13164  -1.13088  -1.13013
  Beta  occ. eigenvalues --   -1.12990  -1.12980  -1.12942  -1.12909  -1.12893
  Beta  occ. eigenvalues --   -1.12842  -1.12824  -1.12821  -1.12780  -1.12753
  Beta  occ. eigenvalues --   -0.18033  -0.12732  -0.12180
  Beta virt. eigenvalues --   -0.07112  -0.05409  -0.05003  -0.04576  -0.02497
  Beta virt. eigenvalues --   -0.02248  -0.01657  -0.01416  -0.00970  -0.00277
  Beta virt. eigenvalues --   -0.00135   0.00119   0.00381   0.00879   0.00895

 Mulliken charges and spin densities:
               1          2
     1  Na  -0.253479   0.449982
     2  Na   0.035086  -0.027997
     3  Na   0.115279  -0.072522
     4  Na   0.039143  -0.042451
     5  Na   0.322254   0.081031
     6  Na   0.099817   0.027381
     7  Na  -0.358099   0.584577
 Sum of Mulliken charges =  -0.00000   1.00000

 Dipole moment (field-independent basis, Debye):
    X=              0.1325    Y=              0.0945    Z=              0.2044  Tot=              0.2613
 Quadrupole moment (field-independent basis, Debye-Ang):
   XX=            -57.0147   YY=            -63.9026   ZZ=            -72.8924
   XY=              0.5731   XZ=              0.2469   YZ=             -0.8835

 Normal termination of Gaussian 16 at Thu Dec  7 10:36:11 2023.
