 Gaussian 16, Revision B.01,
 Gaussian 16:  ES64L-G16RevB.01 20-Dec-2017

 -------------------------
 #P B3LYP/6-311+g(d) force
 -------------------------

 -----
 DPGEN
 -----
 Symbolic Z-matrix:
 Charge =  0 Multiplicity = 2

                         Standard orientation:
 ---------------------------------------------------------------------
 Center     Atomic      Atomic             Coordinates (Angstroms)
 Number     Number       Type             X           Y           Z
 ---------------------------------------------------------------------
      1         11           0        0.978386   -2.846999   -0.004491
      2         11           0        0.138750   -0.124852   -1.915490
      3         11           0        1.271268    2.557304   -0.373593
      4         11           0       -0.376888   -0.057515    1.935025
      5         11           0       -2.261890    2.363142    0.190140
      6         11           0       -2.903910   -1.789355   -0.226678
      7         11           0        3.154283   -0.101725    0.395087
 ---------------------------------------------------------------------

 SCF Done:  E(UB3LYP) =  -1136.13598771     A.U. after   19 cycles

 The electronic state is 2-A.
 Alpha  occ. eigenvalues --  -38.44405 -38.44004 -38.43771 -38.43760 -38.43683
 Alpha  occ. eigenvalues --  -38.43602 -38.43308  -2.20160  -2.19791  -2.19592
 Alpha  occ. eigenvalues --   -2.19590  -2.19548  -2.19497  -2.19171  -1.13841
 Alpha  occ. eigenvalues --   -1.13811  -1.13803  -1.13472  -1.13448  -1.13433
 Alpha  occ. eigenvalues --   -1.13293  -1.13274  -1.13266  -1.13251  -1.13243
 Alpha  occ. eigenvalues --   -1.13222  -1.13200  -1.13176  -1.13173  -1.13168
 Alpha  occ. eigenvalues --   -1.13133  -1.13111  -1.12854  -1.12830  -1.12795
 Alpha  occ. eigenvalues --   -0.18156  -0.12622  -0.12460  -0.10714
 Alpha virt. eigenvalues --   -0.05903  -0.05330  -0.04670  -0.03149  -0.03020
 Alpha virt. eigenvalues --   -0.02608  -0.01586  -0.01351  -0.00507  -0.00445
 Alpha virt. eigenvalues --   -0.00033   0.00360   0.00741   0.00811   0.00881

  Beta  occ. eigenvalues --  -38.44404 -38.44003 -38.43766 -38.43753 -38.43607
  Beta  occ. eigenvalues --  -38.43521 -38.43299  -2.20160  -2.19790  -2.19586
  Beta  occ. eigenvalues --   -2.19579  -2.19409  -2.19347  -2.19157  -1.13828
  Beta  occ. eigenvalues --   -1.13813  -1.13803  -1.13459  -1.13444  -1.13435
  Beta  occ. eigenvalues --   -1.13285  -1.13261  -1.13245  -1.13240  -1.13222
  Beta  occ. eigenvalues --   -1.13196  -1.13131  -1.13080  -1.13074  -1.13065
  Beta  occ. eigenvalues --   -1.13027  -1.13007  -1.12836  -1.12803  -1.12787
  Beta  occ. eigenvalues --   -0.17420  -0.12416  -0.12230
  Beta virt. eigenvalues --   -0.06869  -0.05916  -0.05188  -0.04629  -0.02421
  Beta virt. eigenvalues --   -0.02259  -0.01637  -0.01461  -0.01266  -0.00565
  Beta virt. eigenvalues --   -0.00464   0.00099   0.00383   0.00762   0.00847

 Mulliken charges and spin densities:
               1          2
     1  Na   0.098996  -0.089506
     2  Na  -0.067612   0.638308
     3  Na   0.180670   0.018174
     4  Na  -0.203248   0.680517
     5  Na   0.010852  -0.122999
     6  Na  -0.048919  -0.151959
     7  Na   0.029261   0.027465
 Sum of Mulliken charges =  -0.00000   1.00000

 Dipole moment (field-independent basis, Debye):
    X=             -0.3899    Y=             -0.2260    Z=              0.0440  Tot=              0.4528
 Quadrupole moment (field-independent basis, Debye-Ang):
   XX=            -57.0890   YY=            -61.9873   ZZ=            -74.3640
   XY=             -0.1574   XZ=              1.3913   YZ=             -0.0698

 Normal termination of Gaussian 16 at Wed Dec  6 00:19:23 2023.
