 Gaussian 16, Revision B.01,
 Gaussian 16:  ES64L-G16RevB.01 20-Dec-2017

 -------------------------
 #P B3LYP/6-311+g(d) force
 -------------------------

 -----
 DPGEN
 -----
 Symbolic Z-matrix:
 Charge =  0 Multiplicity = 2

                         Standard orientation:
 ---------------------------------------------------------------------
 Center     Atomic      Atomic             Coordinates (Angstroms)
 Number     Number       Type             X           Y           Z
 ---------------------------------------------------------------------
      1         11           0        0.788406   -1.703601    0.573839
      2         11           0        4.660186   -2.203338    0.192988
      3         11           0        2.575363    0.267786   -1.052446
      4         11           0        1.024260    3.836097    0.428360
      5         11           0       -1.280456    1.759074   -0.740249
      6         11           0       -2.894050   -0.145658    1.456880
      7         11           0       -4.873709   -1.810360   -0.859371
 ---------------------------------------------------------------------

 SCF Done:  E(UB3LYP) =  -1136.11352507     A.U. after   20 cycles

 The electronic state is 2-A.
 Alpha  occ. eigenvalues --  -38.44821 -38.44738 -38.44339 -38.44255 -38.44053
 Alpha  occ. eigenvalues --  -38.44009 -38.43678  -2.20642  -2.20516  -2.20156
 Alpha  occ. eigenvalues --   -2.20086  -2.19838  -2.19809  -2.19462  -1.14389
 Alpha  occ. eigenvalues --   -1.14337  -1.14227  -1.14181  -1.14176  -1.14116
 Alpha  occ. eigenvalues --   -1.13871  -1.13824  -1.13785  -1.13774  -1.13757
 Alpha  occ. eigenvalues --   -1.13646  -1.13506  -1.13490  -1.13485  -1.13479
 Alpha  occ. eigenvalues --   -1.13458  -1.13416  -1.13125  -1.13123  -1.13090
 Alpha  occ. eigenvalues --   -0.16612  -0.13775  -0.12276  -0.09990
 Alpha virt. eigenvalues --   -0.06780  -0.05782  -0.04928  -0.03287  -0.03086
 Alpha virt. eigenvalues --   -0.02320  -0.02164  -0.01529  -0.01122  -0.00570
 Alpha virt. eigenvalues --   -0.00444  -0.00049   0.00187   0.00314   0.00487

  Beta  occ. eigenvalues --  -38.44820 -38.44708 -38.44342 -38.44193 -38.44018
  Beta  occ. eigenvalues --  -38.43970 -38.43659  -2.20643  -2.20459  -2.20163
  Beta  occ. eigenvalues --   -2.19972  -2.19831  -2.19682  -2.19426  -1.14369
  Beta  occ. eigenvalues --   -1.14337  -1.14226  -1.14142  -1.14133  -1.14083
  Beta  occ. eigenvalues --   -1.13879  -1.13813  -1.13786  -1.13710  -1.13681
  Beta  occ. eigenvalues --   -1.13558  -1.13525  -1.13485  -1.13434  -1.13379
  Beta  occ. eigenvalues --   -1.13376  -1.13336  -1.13099  -1.13098  -1.13068
  Beta  occ. eigenvalues --   -0.16150  -0.13519  -0.11789
  Beta virt. eigenvalues --   -0.06782  -0.06291  -0.05466  -0.04706  -0.03053
  Beta virt. eigenvalues --   -0.02829  -0.02153  -0.01891  -0.01175  -0.00883
  Beta virt. eigenvalues --   -0.00351  -0.00122   0.00106   0.00356   0.00417

 Mulliken charges and spin densities:
               1          2
     1  Na  -0.478418   0.274576
     2  Na   0.661977   0.203208
     3  Na  -0.333727   0.099994
     4  Na   0.399371   0.132875
     5  Na  -0.558910  -0.015201
     6  Na   0.346659  -0.158739
     7  Na  -0.036951   0.463287
 Sum of Mulliken charges =  -0.00000   1.00000

 Dipole moment (field-independent basis, Debye):
    X=              1.6340    Y=             -0.6417    Z=              0.4121  Tot=              1.8032
 Quadrupole moment (field-independent basis, Debye-Ang):
   XX=            -68.8362   YY=            -67.9926   ZZ=            -65.6254
   XY=             -5.0419   XZ=              2.1430   YZ=              2.1184

 Normal termination of Gaussian 16 at Tue Nov 28 21:18:11 2023.
