 Gaussian 16, Revision B.01,
 Gaussian 16:  ES64L-G16RevB.01 20-Dec-2017

 -------------------------
 #P B3LYP/6-311+g(d) force
 -------------------------

 -----
 DPGEN
 -----
 Symbolic Z-matrix:
 Charge =  0 Multiplicity = 2

                         Standard orientation:
 ---------------------------------------------------------------------
 Center     Atomic      Atomic             Coordinates (Angstroms)
 Number     Number       Type             X           Y           Z
 ---------------------------------------------------------------------
      1         11           0        0.195645   -0.055412   -1.589438
      2         11           0       -1.037522    2.732900    0.288821
      3         11           0        2.656783    1.688887    0.188879
      4         11           0        2.813296   -1.673099   -0.389340
      5         11           0        0.130192   -0.527426    1.626563
      6         11           0       -3.167789    0.196641   -0.502655
      7         11           0       -1.590604   -2.362490    0.377170
 ---------------------------------------------------------------------

 SCF Done:  E(UB3LYP) =  -1136.12941464     A.U. after   20 cycles

 The electronic state is 2-A.
 Alpha  occ. eigenvalues --  -38.44278 -38.44224 -38.44179 -38.43470 -38.43397
 Alpha  occ. eigenvalues --  -38.43208 -38.43077  -2.20107  -2.20095  -2.20024
 Alpha  occ. eigenvalues --   -2.19412  -2.19372  -2.19218  -2.18904  -1.13785
 Alpha  occ. eigenvalues --   -1.13780  -1.13773  -1.13753  -1.13747  -1.13739
 Alpha  occ. eigenvalues --   -1.13702  -1.13670  -1.13649  -1.13304  -1.13107
 Alpha  occ. eigenvalues --   -1.13039  -1.13022  -1.12991  -1.12983  -1.12864
 Alpha  occ. eigenvalues --   -1.12800  -1.12779  -1.12578  -1.12572  -1.12544
 Alpha  occ. eigenvalues --   -0.18892  -0.13744  -0.12106  -0.10452
 Alpha virt. eigenvalues --   -0.06032  -0.05558  -0.04273  -0.03372  -0.02589
 Alpha virt. eigenvalues --   -0.02048  -0.01964  -0.01268  -0.00469  -0.00169
 Alpha virt. eigenvalues --    0.00023   0.00308   0.00696   0.00815   0.00872

  Beta  occ. eigenvalues --  -38.44273 -38.44210 -38.44165 -38.43455 -38.43339
  Beta  occ. eigenvalues --  -38.43129 -38.43074  -2.20100  -2.20071  -2.20001
  Beta  occ. eigenvalues --   -2.19388  -2.19267  -2.19076  -2.18902  -1.13778
  Beta  occ. eigenvalues --   -1.13769  -1.13762  -1.13734  -1.13726  -1.13716
  Beta  occ. eigenvalues --   -1.13675  -1.13649  -1.13634  -1.13254  -1.13034
  Beta  occ. eigenvalues --   -1.13016  -1.12987  -1.12924  -1.12902  -1.12769
  Beta  occ. eigenvalues --   -1.12704  -1.12686  -1.12577  -1.12563  -1.12532
  Beta  occ. eigenvalues --   -0.18224  -0.13461  -0.11825
  Beta virt. eigenvalues --   -0.06653  -0.05934  -0.05533  -0.04168  -0.02650
  Beta virt. eigenvalues --   -0.01937  -0.01769  -0.01210  -0.01105  -0.00459
  Beta virt. eigenvalues --   -0.00184   0.00154   0.00359   0.00765   0.00820

 Mulliken charges and spin densities:
               1          2
     1  Na  -0.278949   0.386367
     2  Na  -0.160717   0.024539
     3  Na  -0.044503  -0.020835
     4  Na   0.213034   0.014377
     5  Na  -0.287385   0.442659
     6  Na   0.033119   0.088375
     7  Na   0.525401   0.064517
 Sum of Mulliken charges =  -0.00000   1.00000

 Dipole moment (field-independent basis, Debye):
    X=              0.4896    Y=             -0.0079    Z=             -0.1049  Tot=              0.5007
 Quadrupole moment (field-independent basis, Debye-Ang):
   XX=            -51.3765   YY=            -65.2789   ZZ=            -75.8420
   XY=              0.1345   XZ=              0.8346   YZ=              1.3329

 Normal termination of Gaussian 16 at Sat Dec  9 05:36:43 2023.
