 Gaussian 16, Revision B.01,
 Gaussian 16:  ES64L-G16RevB.01 20-Dec-2017

 -------------------------
 #P B3LYP/6-311+g(d) force
 -------------------------

 -----
 DPGEN
 -----
 Symbolic Z-matrix:
 Charge =  0 Multiplicity = 2

                         Standard orientation:
 ---------------------------------------------------------------------
 Center     Atomic      Atomic             Coordinates (Angstroms)
 Number     Number       Type             X           Y           Z
 ---------------------------------------------------------------------
      1         11           0       -2.084228    2.166046   -0.133689
      2         11           0        1.451607    2.534994    0.310808
      3         11           0        2.901483   -0.480555   -0.595799
      4         11           0       -0.257749   -0.130370   -1.633533
      5         11           0        0.467405   -2.828426    0.245237
      6         11           0        0.537915   -0.081123    1.663835
      7         11           0       -3.016432   -1.180566    0.143142
 ---------------------------------------------------------------------

 SCF Done:  E(UB3LYP) =  -1136.13659066     A.U. after   20 cycles

 The electronic state is 2-A.
 Alpha  occ. eigenvalues --  -38.44133 -38.43798 -38.43695 -38.43368 -38.43306
 Alpha  occ. eigenvalues --  -38.43046 -38.43026  -2.19943  -2.19695  -2.19539
 Alpha  occ. eigenvalues --   -2.19260  -2.19191  -2.19068  -2.19024  -1.13621
 Alpha  occ. eigenvalues --   -1.13605  -1.13581  -1.13381  -1.13359  -1.13325
 Alpha  occ. eigenvalues --   -1.13235  -1.13201  -1.13165  -1.13012  -1.12943
 Alpha  occ. eigenvalues --   -1.12925  -1.12870  -1.12839  -1.12815  -1.12753
 Alpha  occ. eigenvalues --   -1.12689  -1.12668  -1.12663  -1.12650  -1.12639
 Alpha  occ. eigenvalues --   -0.19014  -0.13174  -0.12619  -0.10530
 Alpha virt. eigenvalues --   -0.05610  -0.05180  -0.04711  -0.03135  -0.02801
 Alpha virt. eigenvalues --   -0.02153  -0.01545  -0.01142  -0.00324  -0.00321
 Alpha virt. eigenvalues --    0.00054   0.00352   0.00841   0.00889   0.00898

  Beta  occ. eigenvalues --  -38.44133 -38.43777 -38.43692 -38.43357 -38.43296
  Beta  occ. eigenvalues --  -38.42972 -38.42958  -2.19945  -2.19660  -2.19536
  Beta  occ. eigenvalues --   -2.19244  -2.19176  -2.18933  -2.18901  -1.13613
  Beta  occ. eigenvalues --   -1.13608  -1.13578  -1.13359  -1.13308  -1.13301
  Beta  occ. eigenvalues --   -1.13227  -1.13190  -1.13163  -1.12986  -1.12916
  Beta  occ. eigenvalues --   -1.12892  -1.12857  -1.12810  -1.12807  -1.12672
  Beta  occ. eigenvalues --   -1.12601  -1.12578  -1.12572  -1.12564  -1.12542
  Beta  occ. eigenvalues --   -0.18310  -0.12939  -0.12335
  Beta virt. eigenvalues --   -0.06617  -0.05572  -0.05148  -0.04687  -0.02392
  Beta virt. eigenvalues --   -0.02036  -0.01475  -0.01134  -0.01047  -0.00355
  Beta virt. eigenvalues --   -0.00340   0.00169   0.00388   0.00854   0.00901

 Mulliken charges and spin densities:
               1          2
     1  Na  -0.030834  -0.097088
     2  Na   0.121553  -0.031271
     3  Na   0.190572   0.094903
     4  Na  -0.113382   0.525951
     5  Na   0.103030  -0.050302
     6  Na  -0.177828   0.648063
     7  Na  -0.093110  -0.090256
 Sum of Mulliken charges =  -0.00000   1.00000

 Dipole moment (field-independent basis, Debye):
    X=             -0.2666    Y=             -0.0956    Z=             -0.0414  Tot=              0.2863
 Quadrupole moment (field-independent basis, Debye-Ang):
   XX=            -55.5886   YY=            -61.0645   ZZ=            -75.5515
   XY=              0.3871   XZ=             -1.9496   YZ=             -0.1752

 Normal termination of Gaussian 16 at Tue Nov 28 20:15:53 2023.
