 Gaussian 16, Revision B.01,
 Gaussian 16:  ES64L-G16RevB.01 20-Dec-2017

 -------------------------
 #P B3LYP/6-311+g(d) force
 -------------------------

 -----
 DPGEN
 -----
 Symbolic Z-matrix:
 Charge =  0 Multiplicity = 2

                         Standard orientation:
 ---------------------------------------------------------------------
 Center     Atomic      Atomic             Coordinates (Angstroms)
 Number     Number       Type             X           Y           Z
 ---------------------------------------------------------------------
      1         11           0        3.037733    2.318449    0.669768
      2         11           0       -0.821690   -1.820763   -1.376746
      3         11           0       -0.043789    1.079535   -0.255907
      4         11           0        2.360045   -0.791920   -1.352471
      5         11           0       -2.297856   -0.780879    1.355537
      6         11           0       -3.276899    1.947612   -0.492923
      7         11           0        1.042457   -1.952035    1.452743
 ---------------------------------------------------------------------

 SCF Done:  E(UB3LYP) =  -1136.12844797     A.U. after   23 cycles

 The electronic state is 2-A.
 Alpha  occ. eigenvalues --  -38.44087 -38.43910 -38.43798 -38.43717 -38.43649
 Alpha  occ. eigenvalues --  -38.43552 -38.42875  -2.19892  -2.19816  -2.19704
 Alpha  occ. eigenvalues --   -2.19603  -2.19496  -2.19432  -2.18874  -1.13564
 Alpha  occ. eigenvalues --   -1.13550  -1.13532  -1.13528  -1.13499  -1.13411
 Alpha  occ. eigenvalues --   -1.13408  -1.13389  -1.13300  -1.13266  -1.13249
 Alpha  occ. eigenvalues --   -1.13225  -1.13199  -1.13129  -1.13101  -1.13091
 Alpha  occ. eigenvalues --   -1.13088  -1.13058  -1.12588  -1.12561  -1.12474
 Alpha  occ. eigenvalues --   -0.18662  -0.13441  -0.11844  -0.10872
 Alpha virt. eigenvalues --   -0.05992  -0.05446  -0.04406  -0.03169  -0.02679
 Alpha virt. eigenvalues --   -0.02122  -0.01823  -0.01297  -0.00690  -0.00054
 Alpha virt. eigenvalues --    0.00124   0.00226   0.00383   0.00572   0.00802

  Beta  occ. eigenvalues --  -38.44083 -38.43877 -38.43763 -38.43675 -38.43635
  Beta  occ. eigenvalues --  -38.43510 -38.42857  -2.19886  -2.19758  -2.19641
  Beta  occ. eigenvalues --   -2.19526  -2.19424  -2.19406  -2.18848  -1.13558
  Beta  occ. eigenvalues --   -1.13544  -1.13527  -1.13488  -1.13455  -1.13373
  Beta  occ. eigenvalues --   -1.13352  -1.13341  -1.13242  -1.13216  -1.13183
  Beta  occ. eigenvalues --   -1.13170  -1.13148  -1.13083  -1.13071  -1.13054
  Beta  occ. eigenvalues --   -1.13043  -1.13038  -1.12554  -1.12522  -1.12458
  Beta  occ. eigenvalues --   -0.17946  -0.13264  -0.11584
  Beta virt. eigenvalues --   -0.06978  -0.05856  -0.05249  -0.04078  -0.02771
  Beta virt. eigenvalues --   -0.02188  -0.01804  -0.01421  -0.00993  -0.00376
  Beta virt. eigenvalues --    0.00048   0.00206   0.00294   0.00479   0.00615

 Mulliken charges and spin densities:
               1          2
     1  Na   0.684156  -0.040055
     2  Na   0.260946   0.251506
     3  Na  -2.706272   0.291174
     4  Na   0.914983   0.090011
     5  Na   0.442561   0.086672
     6  Na   0.611429  -0.034326
     7  Na  -0.207802   0.355018
 Sum of Mulliken charges =  -0.00000   1.00000

 Dipole moment (field-independent basis, Debye):
    X=             -0.3113    Y=             -0.3830    Z=              0.0049  Tot=              0.4936
 Quadrupole moment (field-independent basis, Debye-Ang):
   XX=            -54.2314   YY=            -67.8993   ZZ=            -69.4930
   XY=             -2.3863   XZ=              1.3674   YZ=              0.5666

 Normal termination of Gaussian 16 at Tue Dec  5 15:17:06 2023.
