 Gaussian 16, Revision B.01,
 Gaussian 16:  ES64L-G16RevB.01 20-Dec-2017

 -------------------------
 #P B3LYP/6-311+g(d) force
 -------------------------

 -----
 DPGEN
 -----
 Symbolic Z-matrix:
 Charge =  0 Multiplicity = 2

                         Standard orientation:
 ---------------------------------------------------------------------
 Center     Atomic      Atomic             Coordinates (Angstroms)
 Number     Number       Type             X           Y           Z
 ---------------------------------------------------------------------
      1         11           0        0.096396   -2.829197    0.129175
      2         11           0        0.131261    0.367093   -1.094327
      3         11           0        2.309781    2.640579    0.482950
      4         11           0       -0.431682   -0.347643    2.443608
      5         11           0       -2.151859    2.451982   -0.537962
      6         11           0       -3.179236   -1.032774   -0.547111
      7         11           0        3.225339   -1.250040   -0.876332
 ---------------------------------------------------------------------

 SCF Done:  E(UB3LYP) =  -1136.12750605     A.U. after   20 cycles

 The electronic state is 2-A.
 Alpha  occ. eigenvalues --  -38.44373 -38.44356 -38.44238 -38.44170 -38.44008
 Alpha  occ. eigenvalues --  -38.43213 -38.43005  -2.20146  -2.20120  -2.20070
 Alpha  occ. eigenvalues --   -2.19956  -2.19817  -2.19054  -2.18971  -1.13830
 Alpha  occ. eigenvalues --   -1.13797  -1.13791  -1.13780  -1.13773  -1.13762
 Alpha  occ. eigenvalues --   -1.13720  -1.13697  -1.13675  -1.13632  -1.13599
 Alpha  occ. eigenvalues --   -1.13584  -1.13528  -1.13473  -1.13428  -1.12757
 Alpha  occ. eigenvalues --   -1.12734  -1.12680  -1.12674  -1.12624  -1.12594
 Alpha  occ. eigenvalues --   -0.17716  -0.12791  -0.12073  -0.10768
 Alpha virt. eigenvalues --   -0.06019  -0.05545  -0.04657  -0.03014  -0.02837
 Alpha virt. eigenvalues --   -0.02589  -0.01829  -0.01469  -0.00729  -0.00468
 Alpha virt. eigenvalues --   -0.00105   0.00261   0.00657   0.00708   0.00733

  Beta  occ. eigenvalues --  -38.44365 -38.44346 -38.44142 -38.44123 -38.44003
  Beta  occ. eigenvalues --  -38.43210 -38.42986  -2.20129  -2.20106  -2.19905
  Beta  occ. eigenvalues --   -2.19857  -2.19810  -2.19053  -2.18940  -1.13813
  Beta  occ. eigenvalues --   -1.13787  -1.13776  -1.13765  -1.13763  -1.13753
  Beta  occ. eigenvalues --   -1.13591  -1.13578  -1.13568  -1.13552  -1.13549
  Beta  occ. eigenvalues --   -1.13524  -1.13522  -1.13466  -1.13418  -1.12759
  Beta  occ. eigenvalues --   -1.12713  -1.12664  -1.12642  -1.12603  -1.12571
  Beta  occ. eigenvalues --   -0.17097  -0.12445  -0.11893
  Beta virt. eigenvalues --   -0.07029  -0.05879  -0.05274  -0.04561  -0.02484
  Beta virt. eigenvalues --   -0.02215  -0.01722  -0.01645  -0.01332  -0.00695
  Beta virt. eigenvalues --   -0.00437   0.00078   0.00326   0.00728   0.00762

 Mulliken charges and spin densities:
               1          2
     1  Na   0.183064   0.128654
     2  Na  -0.154450  -0.057067
     3  Na  -0.148671   0.135060
     4  Na  -0.457538   0.623686
     5  Na   0.235676   0.041071
     6  Na   0.040408   0.027744
     7  Na   0.301512   0.100853
 Sum of Mulliken charges =  -0.00000   1.00000

 Dipole moment (field-independent basis, Debye):
    X=             -0.1503    Y=              0.1735    Z=              0.2739  Tot=              0.3574
 Quadrupole moment (field-independent basis, Debye-Ang):
   XX=            -55.4655   YY=            -63.1441   ZZ=            -73.8107
   XY=              1.0823   XZ=              0.5452   YZ=              2.3675

 Normal termination of Gaussian 16 at Tue Dec  5 17:13:38 2023.
