 Gaussian 16, Revision B.01,
 Gaussian 16:  ES64L-G16RevB.01 20-Dec-2017

 -------------------------
 #P B3LYP/6-311+g(d) force
 -------------------------

 -----
 DPGEN
 -----
 Symbolic Z-matrix:
 Charge =  0 Multiplicity = 2

                         Standard orientation:
 ---------------------------------------------------------------------
 Center     Atomic      Atomic             Coordinates (Angstroms)
 Number     Number       Type             X           Y           Z
 ---------------------------------------------------------------------
      1         11           0       -0.829085    1.289835   -0.169159
      2         11           0        0.413683    4.195526    0.277811
      3         11           0        2.615411    1.047942   -0.413174
      4         11           0        4.976785   -2.327444    0.052597
      5         11           0        1.162556   -1.710866   -0.044174
      6         11           0       -2.671751   -1.326998    0.765461
      7         11           0       -5.667599   -1.167995   -0.469363
 ---------------------------------------------------------------------

 SCF Done:  E(UB3LYP) =  -1136.12002087     A.U. after   20 cycles

 The electronic state is 2-A.
 Alpha  occ. eigenvalues --  -38.45222 -38.44793 -38.44264 -38.44013 -38.43850
 Alpha  occ. eigenvalues --  -38.43782 -38.43273  -2.21035  -2.20548  -2.20069
 Alpha  occ. eigenvalues --   -2.19868  -2.19684  -2.19662  -2.19109  -1.14783
 Alpha  occ. eigenvalues --   -1.14739  -1.14591  -1.14213  -1.14210  -1.14146
 Alpha  occ. eigenvalues --   -1.13709  -1.13706  -1.13695  -1.13591  -1.13550
 Alpha  occ. eigenvalues --   -1.13441  -1.13400  -1.13376  -1.13357  -1.13314
 Alpha  occ. eigenvalues --   -1.13299  -1.13236  -1.12805  -1.12781  -1.12749
 Alpha  occ. eigenvalues --   -0.17032  -0.13586  -0.12742  -0.10797
 Alpha virt. eigenvalues --   -0.06743  -0.04997  -0.04564  -0.03833  -0.02834
 Alpha virt. eigenvalues --   -0.02349  -0.01871  -0.01579  -0.01493  -0.00917
 Alpha virt. eigenvalues --   -0.00324  -0.00009   0.00138   0.00364   0.00611

  Beta  occ. eigenvalues --  -38.45228 -38.44744 -38.44179 -38.43979 -38.43827
  Beta  occ. eigenvalues --  -38.43768 -38.43274  -2.21047  -2.20455  -2.19909
  Beta  occ. eigenvalues --   -2.19808  -2.19665  -2.19619  -2.19119  -1.14777
  Beta  occ. eigenvalues --   -1.14748  -1.14604  -1.14149  -1.14145  -1.14088
  Beta  occ. eigenvalues --   -1.13602  -1.13596  -1.13590  -1.13557  -1.13514
  Beta  occ. eigenvalues --   -1.13381  -1.13367  -1.13365  -1.13334  -1.13285
  Beta  occ. eigenvalues --   -1.13266  -1.13206  -1.12819  -1.12795  -1.12695
  Beta  occ. eigenvalues --   -0.16510  -0.13020  -0.12307
  Beta virt. eigenvalues --   -0.07547  -0.06277  -0.04705  -0.04300  -0.03601
  Beta virt. eigenvalues --   -0.02629  -0.02106  -0.01635  -0.01251  -0.01104
  Beta virt. eigenvalues --   -0.00624  -0.00118   0.00202   0.00288   0.00477

 Mulliken charges and spin densities:
               1          2
     1  Na  -1.484824  -0.121088
     2  Na   0.776447   0.151167
     3  Na   0.403983   0.138966
     4  Na   0.821177   0.280663
     5  Na  -0.903620   0.172637
     6  Na   0.023298  -0.037367
     7  Na   0.363539   0.415022
 Sum of Mulliken charges =  -0.00000   1.00000

 Dipole moment (field-independent basis, Debye):
    X=              1.2053    Y=              0.1849    Z=             -0.0633  Tot=              1.2210
 Quadrupole moment (field-independent basis, Debye-Ang):
   XX=            -60.0509   YY=            -62.3821   ZZ=            -71.9465
   XY=             -3.9993   XZ=              2.1983   YZ=              0.0592

 Normal termination of Gaussian 16 at Wed Nov 29 01:27:31 2023.
