 Gaussian 16, Revision B.01,
 Gaussian 16:  ES64L-G16RevB.01 20-Dec-2017

 -------------------------
 #P B3LYP/6-311+g(d) force
 -------------------------

 -----
 DPGEN
 -----
 Symbolic Z-matrix:
 Charge =  0 Multiplicity = 2

                         Standard orientation:
 ---------------------------------------------------------------------
 Center     Atomic      Atomic             Coordinates (Angstroms)
 Number     Number       Type             X           Y           Z
 ---------------------------------------------------------------------
      1         11           0       -5.866416   -1.970793    0.532947
      2         11           0       -2.613810   -1.800935   -0.247497
      3         11           0       -4.622060    1.479615   -0.347616
      4         11           0       -0.754183    2.078107   -0.501717
      5         11           0        2.397608    2.292524    0.352959
      6         11           0        4.880899   -0.184552    1.024841
      7         11           0        6.577963   -1.893967   -0.813916
 ---------------------------------------------------------------------

 SCF Done:  E(UB3LYP) =  -1136.10743094     A.U. after   22 cycles

 The electronic state is 2-A.
 Alpha  occ. eigenvalues --  -38.46527 -38.45026 -38.44948 -38.43902 -38.43653
 Alpha  occ. eigenvalues --  -38.43496 -38.43450  -2.22291  -2.20819  -2.20749
 Alpha  occ. eigenvalues --   -2.19711  -2.19463  -2.19311  -2.19232  -1.15974
 Alpha  occ. eigenvalues --   -1.15934  -1.15917  -1.14483  -1.14479  -1.14448
 Alpha  occ. eigenvalues --   -1.14417  -1.14386  -1.14354  -1.13408  -1.13351
 Alpha  occ. eigenvalues --   -1.13349  -1.13121  -1.13116  -1.13112  -1.12974
 Alpha  occ. eigenvalues --   -1.12970  -1.12952  -1.12922  -1.12918  -1.12859
 Alpha  occ. eigenvalues --   -0.16076  -0.14115  -0.12265  -0.10692
 Alpha virt. eigenvalues --   -0.07536  -0.05764  -0.03911  -0.03553  -0.03149
 Alpha virt. eigenvalues --   -0.02778  -0.02470  -0.01663  -0.01594  -0.01022
 Alpha virt. eigenvalues --   -0.00629  -0.00180  -0.00017   0.00223   0.00350

  Beta  occ. eigenvalues --  -38.46503 -38.45001 -38.44865 -38.43866 -38.43609
  Beta  occ. eigenvalues --  -38.43502 -38.43458  -2.22250  -2.20774  -2.20594
  Beta  occ. eigenvalues --   -2.19644  -2.19380  -2.19326  -2.19252  -1.15948
  Beta  occ. eigenvalues --   -1.15900  -1.15877  -1.14453  -1.14434  -1.14421
  Beta  occ. eigenvalues --   -1.14312  -1.14280  -1.14245  -1.13368  -1.13305
  Beta  occ. eigenvalues --   -1.13303  -1.13073  -1.13061  -1.13058  -1.12988
  Beta  occ. eigenvalues --   -1.12982  -1.12941  -1.12936  -1.12932  -1.12834
  Beta  occ. eigenvalues --   -0.15499  -0.13729  -0.11820
  Beta virt. eigenvalues --   -0.07509  -0.07103  -0.05433  -0.03720  -0.03232
  Beta virt. eigenvalues --   -0.02843  -0.02336  -0.02201  -0.01606  -0.01296
  Beta virt. eigenvalues --   -0.00776  -0.00351   0.00084   0.00127   0.00325

 Mulliken charges and spin densities:
               1          2
     1  Na   0.482296   0.120771
     2  Na  -0.305871   0.158937
     3  Na   0.092250   0.271217
     4  Na   0.077219   0.077484
     5  Na   0.025335   0.248164
     6  Na  -0.624338  -0.065379
     7  Na   0.253109   0.188807
 Sum of Mulliken charges =  -0.00000   1.00000

 Dipole moment (field-independent basis, Debye):
    X=             -3.0632    Y=             -1.4730    Z=             -0.2225  Tot=              3.4063
 Quadrupole moment (field-independent basis, Debye-Ang):
   XX=            -54.4508   YY=            -70.8127   ZZ=            -71.2526
   XY=              0.1819   XZ=             -5.0898   YZ=              2.9688

 Normal termination of Gaussian 16 at Sun Dec  3 18:58:13 2023.
