 Gaussian 16, Revision B.01,
 Gaussian 16:  ES64L-G16RevB.01 20-Dec-2017

 -------------------------
 #P B3LYP/6-311+g(d) force
 -------------------------

 -----
 DPGEN
 -----
 Symbolic Z-matrix:
 Charge =  0 Multiplicity = 2

                         Standard orientation:
 ---------------------------------------------------------------------
 Center     Atomic      Atomic             Coordinates (Angstroms)
 Number     Number       Type             X           Y           Z
 ---------------------------------------------------------------------
      1         11           0       -0.643746   -0.172284    1.855706
      2         11           0       -0.288991   -0.889717   -1.369685
      3         11           0       -2.824605   -2.582755   -0.259832
      4         11           0       -3.230872    1.243680    0.427543
      5         11           0       -0.615432    2.560115   -0.672854
      6         11           0        2.437700    0.457419   -0.342091
      7         11           0        5.165945   -0.616459    0.361213
 ---------------------------------------------------------------------

 SCF Done:  E(UB3LYP) =  -1136.11479391     A.U. after   24 cycles

 The electronic state is 2-A.
 Alpha  occ. eigenvalues --  -38.46544 -38.44346 -38.44167 -38.43658 -38.43270
 Alpha  occ. eigenvalues --  -38.43229 -38.42961  -2.22383  -2.20178  -2.20050
 Alpha  occ. eigenvalues --   -2.19617  -2.19103  -2.19091  -2.18871  -1.16076
 Alpha  occ. eigenvalues --   -1.16046  -1.15991  -1.13852  -1.13798  -1.13795
 Alpha  occ. eigenvalues --   -1.13728  -1.13725  -1.13656  -1.13312  -1.13268
 Alpha  occ. eigenvalues --   -1.13231  -1.12798  -1.12769  -1.12758  -1.12747
 Alpha  occ. eigenvalues --   -1.12742  -1.12717  -1.12565  -1.12542  -1.12514
 Alpha  occ. eigenvalues --   -0.18462  -0.13912  -0.11735  -0.11015
 Alpha virt. eigenvalues --   -0.07583  -0.04719  -0.04156  -0.03318  -0.03025
 Alpha virt. eigenvalues --   -0.02376  -0.02080  -0.01672  -0.01007  -0.00560
 Alpha virt. eigenvalues --   -0.00430   0.00154   0.00281   0.00624   0.00668

  Beta  occ. eigenvalues --  -38.46526 -38.44261 -38.44135 -38.43589 -38.43259
  Beta  occ. eigenvalues --  -38.43234 -38.42949  -2.22354  -2.20020  -2.19989
  Beta  occ. eigenvalues --   -2.19492  -2.19116  -2.19073  -2.18861  -1.16048
  Beta  occ. eigenvalues --   -1.16012  -1.15974  -1.13749  -1.13693  -1.13690
  Beta  occ. eigenvalues --   -1.13688  -1.13673  -1.13617  -1.13232  -1.13191
  Beta  occ. eigenvalues --   -1.13126  -1.12817  -1.12764  -1.12753  -1.12728
  Beta  occ. eigenvalues --   -1.12723  -1.12705  -1.12547  -1.12538  -1.12456
  Beta  occ. eigenvalues --   -0.17893  -0.13064  -0.11601
  Beta virt. eigenvalues --   -0.07519  -0.07340  -0.04557  -0.03597  -0.03129
  Beta virt. eigenvalues --   -0.02739  -0.02085  -0.01725  -0.01327  -0.00633
  Beta virt. eigenvalues --   -0.00327  -0.00294   0.00266   0.00446   0.00690

 Mulliken charges and spin densities:
               1          2
     1  Na  -0.040703   0.118961
     2  Na  -0.206096   0.181174
     3  Na   0.114630  -0.000699
     4  Na   0.167149   0.333251
     5  Na   0.254673  -0.326328
     6  Na  -0.243753   0.192963
     7  Na  -0.045900   0.500679
 Sum of Mulliken charges =  -0.00000   1.00000

 Dipole moment (field-independent basis, Debye):
    X=             -0.8005    Y=             -0.0145    Z=              0.5278  Tot=              0.9589
 Quadrupole moment (field-independent basis, Debye-Ang):
   XX=            -62.2514   YY=            -73.1455   ZZ=            -65.4842
   XY=             -0.2054   XZ=              2.7723   YZ=             -3.0166

 Normal termination of Gaussian 16 at Fri Dec  8 18:09:33 2023.
