 Gaussian 16, Revision B.01,
 Gaussian 16:  ES64L-G16RevB.01 20-Dec-2017

 -------------------------
 #P B3LYP/6-311+g(d) force
 -------------------------

 -----
 DPGEN
 -----
 Symbolic Z-matrix:
 Charge =  0 Multiplicity = 2

                         Standard orientation:
 ---------------------------------------------------------------------
 Center     Atomic      Atomic             Coordinates (Angstroms)
 Number     Number       Type             X           Y           Z
 ---------------------------------------------------------------------
      1         11           0        1.487727    1.620109   -1.002819
      2         11           0       -1.478602   -0.769257   -1.349600
      3         11           0        3.850936   -0.267341    0.447944
      4         11           0       -4.201498   -1.079826    0.629311
      5         11           0       -1.926570    2.128752   -0.207796
      6         11           0        0.584092    0.186402    2.256786
      7         11           0        1.683914   -1.818838   -0.773827
 ---------------------------------------------------------------------

 SCF Done:  E(UB3LYP) =  -1136.11354466     A.U. after   32 cycles

 The electronic state is 2-A.
 Alpha  occ. eigenvalues --  -38.45373 -38.45242 -38.44306 -38.43812 -38.43604
 Alpha  occ. eigenvalues --  -38.43556 -38.43224  -2.21174  -2.21116  -2.20078
 Alpha  occ. eigenvalues --   -2.19731  -2.19504  -2.19395  -2.19117  -1.14851
 Alpha  occ. eigenvalues --   -1.14832  -1.14805  -1.14782  -1.14774  -1.14733
 Alpha  occ. eigenvalues --   -1.13742  -1.13739  -1.13718  -1.13416  -1.13381
 Alpha  occ. eigenvalues --   -1.13369  -1.13234  -1.13193  -1.13118  -1.13065
 Alpha  occ. eigenvalues --   -1.13043  -1.13001  -1.12801  -1.12782  -1.12738
 Alpha  occ. eigenvalues --   -0.18477  -0.14183  -0.11294  -0.10743
 Alpha virt. eigenvalues --   -0.07560  -0.05325  -0.04513  -0.03232  -0.03005
 Alpha virt. eigenvalues --   -0.02442  -0.02221  -0.01341  -0.01014  -0.00274
 Alpha virt. eigenvalues --   -0.00077   0.00153   0.00233   0.00565   0.00697

  Beta  occ. eigenvalues --  -38.45293 -38.45239 -38.44292 -38.43779 -38.43571
  Beta  occ. eigenvalues --  -38.43555 -38.43204  -2.21113  -2.21023  -2.20052
  Beta  occ. eigenvalues --   -2.19673  -2.19449  -2.19396  -2.19083  -1.14831
  Beta  occ. eigenvalues --   -1.14773  -1.14747  -1.14722  -1.14696  -1.14669
  Beta  occ. eigenvalues --   -1.13724  -1.13721  -1.13701  -1.13376  -1.13348
  Beta  occ. eigenvalues --   -1.13300  -1.13207  -1.13161  -1.13057  -1.13048
  Beta  occ. eigenvalues --   -1.13033  -1.12999  -1.12776  -1.12741  -1.12714
  Beta  occ. eigenvalues --   -0.17725  -0.14042  -0.10608
  Beta virt. eigenvalues --   -0.07462  -0.07090  -0.05288  -0.04016  -0.02872
  Beta virt. eigenvalues --   -0.02697  -0.01888  -0.01641  -0.01099  -0.00774
  Beta virt. eigenvalues --   -0.00246  -0.00010   0.00199   0.00391   0.00640

 Mulliken charges and spin densities:
               1          2
     1  Na  -0.289796   0.144827
     2  Na  -0.522155  -0.000505
     3  Na   1.062169   0.226805
     4  Na   0.234864   0.097897
     5  Na   0.239088  -0.029685
     6  Na  -0.498410   0.461245
     7  Na  -0.225761   0.099417
 Sum of Mulliken charges =  -0.00000   1.00000

 Dipole moment (field-independent basis, Debye):
    X=              0.8312    Y=              0.6093    Z=              0.8276  Tot=              1.3218
 Quadrupole moment (field-independent basis, Debye-Ang):
   XX=            -51.0372   YY=            -76.6138   ZZ=            -69.7667
   XY=             -0.4958   XZ=             -2.1120   YZ=             -1.9205

 Normal termination of Gaussian 16 at Thu Dec  7 06:08:57 2023.
