 Gaussian 16, Revision B.01,
 Gaussian 16:  ES64L-G16RevB.01 20-Dec-2017

 -------------------------
 #P B3LYP/6-311+g(d) force
 -------------------------

 -----
 DPGEN
 -----
 Symbolic Z-matrix:
 Charge =  0 Multiplicity = 2

                         Standard orientation:
 ---------------------------------------------------------------------
 Center     Atomic      Atomic             Coordinates (Angstroms)
 Number     Number       Type             X           Y           Z
 ---------------------------------------------------------------------
      1         11           0       -3.538142   -1.362263    0.170495
      2         11           0       -1.597021    0.937103    1.721338
      3         11           0        0.736390    2.091213   -0.839743
      4         11           0        2.004763    0.428514    1.671078
      5         11           0        0.422789   -1.713095   -0.036632
      6         11           0       -1.892797    0.612149   -1.913701
      7         11           0        3.864017   -0.993622   -0.772835
 ---------------------------------------------------------------------

 SCF Done:  E(UB3LYP) =  -1136.12528671     A.U. after   24 cycles

 The electronic state is 2-A.
 Alpha  occ. eigenvalues --  -38.44514 -38.44316 -38.44063 -38.44003 -38.43929
 Alpha  occ. eigenvalues --  -38.43665 -38.42526  -2.20355  -2.20115  -2.19964
 Alpha  occ. eigenvalues --   -2.19929  -2.19811  -2.19500  -2.18421  -1.14100
 Alpha  occ. eigenvalues --   -1.14049  -1.13940  -1.13790  -1.13772  -1.13740
 Alpha  occ. eigenvalues --   -1.13646  -1.13634  -1.13606  -1.13593  -1.13586
 Alpha  occ. eigenvalues --   -1.13512  -1.13488  -1.13460  -1.13422  -1.13168
 Alpha  occ. eigenvalues --   -1.13162  -1.13129  -1.12115  -1.12080  -1.12044
 Alpha  occ. eigenvalues --   -0.18529  -0.14071  -0.11514  -0.11044
 Alpha virt. eigenvalues --   -0.06663  -0.05142  -0.04605  -0.03181  -0.02800
 Alpha virt. eigenvalues --   -0.02411  -0.02329  -0.01189  -0.00724  -0.00115
 Alpha virt. eigenvalues --    0.00109   0.00267   0.00451   0.00612   0.00749

  Beta  occ. eigenvalues --  -38.44508 -38.44303 -38.43996 -38.43971 -38.43875
  Beta  occ. eigenvalues --  -38.43659 -38.42507  -2.20347  -2.20092  -2.19873
  Beta  occ. eigenvalues --   -2.19842  -2.19713  -2.19490  -2.18389  -1.14075
  Beta  occ. eigenvalues --   -1.14035  -1.13936  -1.13774  -1.13755  -1.13726
  Beta  occ. eigenvalues --   -1.13592  -1.13559  -1.13558  -1.13529  -1.13492
  Beta  occ. eigenvalues --   -1.13456  -1.13421  -1.13384  -1.13354  -1.13157
  Beta  occ. eigenvalues --   -1.13143  -1.13124  -1.12084  -1.12052  -1.12012
  Beta  occ. eigenvalues --   -0.17824  -0.13875  -0.10832
  Beta virt. eigenvalues --   -0.07562  -0.06446  -0.04880  -0.04163  -0.02873
  Beta virt. eigenvalues --   -0.02499  -0.01978  -0.01770  -0.00939  -0.00361
  Beta virt. eigenvalues --   -0.00019   0.00155   0.00335   0.00571   0.00711

 Mulliken charges and spin densities:
               1          2
     1  Na   0.653977   0.064004
     2  Na  -0.278940   0.323056
     3  Na  -0.296248   0.245937
     4  Na   0.582138   0.016611
     5  Na  -1.001707   0.317644
     6  Na   0.004617   0.069934
     7  Na   0.336163  -0.037186
 Sum of Mulliken charges =  -0.00000   1.00000

 Dipole moment (field-independent basis, Debye):
    X=              0.3059    Y=              0.1393    Z=              0.0523  Tot=              0.3402
 Quadrupole moment (field-independent basis, Debye-Ang):
   XX=            -53.3186   YY=            -76.4310   ZZ=            -66.6186
   XY=              1.7133   XZ=             -1.7549   YZ=              0.7812

 Normal termination of Gaussian 16 at Thu Dec  7 10:58:44 2023.
