 Gaussian 16, Revision B.01,
 Gaussian 16:  ES64L-G16RevB.01 20-Dec-2017

 -------------------------
 #P B3LYP/6-311+g(d) force
 -------------------------

 -----
 DPGEN
 -----
 Symbolic Z-matrix:
 Charge =  0 Multiplicity = 2

                         Standard orientation:
 ---------------------------------------------------------------------
 Center     Atomic      Atomic             Coordinates (Angstroms)
 Number     Number       Type             X           Y           Z
 ---------------------------------------------------------------------
      1         11           0       -3.251820   -1.436642   -0.524363
      2         11           0        0.856945    2.089769    0.851296
      3         11           0        3.666535    0.773297   -0.845088
      4         11           0        2.614047   -1.764816    0.642330
      5         11           0       -0.823807   -0.802007    1.887932
      6         11           0       -3.075564    1.735323   -0.183736
      7         11           0        0.013665   -0.594924   -1.828371
 ---------------------------------------------------------------------

 SCF Done:  E(UB3LYP) =  -1136.11694009     A.U. after   31 cycles

 The electronic state is 2-A.
 Alpha  occ. eigenvalues --  -38.45331 -38.44822 -38.44619 -38.44366 -38.44197
 Alpha  occ. eigenvalues --  -38.43987 -38.42569  -2.21125  -2.20659  -2.20422
 Alpha  occ. eigenvalues --   -2.20185  -2.20038  -2.19860  -2.18382  -1.14817
 Alpha  occ. eigenvalues --   -1.14779  -1.14736  -1.14353  -1.14300  -1.14284
 Alpha  occ. eigenvalues --   -1.14104  -1.14092  -1.14044  -1.13854  -1.13842
 Alpha  occ. eigenvalues --   -1.13838  -1.13709  -1.13698  -1.13684  -1.13535
 Alpha  occ. eigenvalues --   -1.13489  -1.13467  -1.12083  -1.12064  -1.12004
 Alpha  occ. eigenvalues --   -0.18063  -0.14406  -0.11157  -0.10641
 Alpha virt. eigenvalues --   -0.07190  -0.05901  -0.04534  -0.03044  -0.02856
 Alpha virt. eigenvalues --   -0.02651  -0.02408  -0.01402  -0.00769  -0.00530
 Alpha virt. eigenvalues --    0.00068   0.00155   0.00249   0.00483   0.00559

  Beta  occ. eigenvalues --  -38.45290 -38.44791 -38.44597 -38.44366 -38.44197
  Beta  occ. eigenvalues --  -38.43893 -38.42570  -2.21048  -2.20600  -2.20382
  Beta  occ. eigenvalues --   -2.20190  -2.20043  -2.19688  -2.18387  -1.14760
  Beta  occ. eigenvalues --   -1.14725  -1.14679  -1.14321  -1.14253  -1.14247
  Beta  occ. eigenvalues --   -1.14084  -1.14057  -1.14015  -1.13853  -1.13842
  Beta  occ. eigenvalues --   -1.13820  -1.13708  -1.13687  -1.13683  -1.13421
  Beta  occ. eigenvalues --   -1.13370  -1.13338  -1.12089  -1.12046  -1.12009
  Beta  occ. eigenvalues --   -0.17372  -0.14146  -0.10474
  Beta virt. eigenvalues --   -0.07379  -0.06933  -0.05779  -0.03953  -0.02846
  Beta virt. eigenvalues --   -0.02659  -0.01979  -0.01729  -0.01252  -0.00576
  Beta virt. eigenvalues --   -0.00356   0.00093   0.00191   0.00395   0.00591

 Mulliken charges and spin densities:
               1          2
     1  Na   0.659129   0.059749
     2  Na  -0.521090  -0.113326
     3  Na   0.627958   0.202914
     4  Na  -0.020565  -0.031097
     5  Na  -0.112192   0.536591
     6  Na  -0.163401   0.064288
     7  Na  -0.469839   0.280881
 Sum of Mulliken charges =  -0.00000   1.00000

 Dipole moment (field-independent basis, Debye):
    X=             -0.0434    Y=             -0.3333    Z=             -0.4675  Tot=              0.5757
 Quadrupole moment (field-independent basis, Debye-Ang):
   XX=            -49.0787   YY=            -77.1421   ZZ=            -70.1207
   XY=             -0.1263   XZ=             -0.5984   YZ=             -4.1170

 Normal termination of Gaussian 16 at Tue Dec  5 20:41:20 2023.
