 Gaussian 16, Revision B.01,
 Gaussian 16:  ES64L-G16RevB.01 20-Dec-2017

 -------------------------
 #P B3LYP/6-311+g(d) force
 -------------------------

 -----
 DPGEN
 -----
 Symbolic Z-matrix:
 Charge =  0 Multiplicity = 2

                         Standard orientation:
 ---------------------------------------------------------------------
 Center     Atomic      Atomic             Coordinates (Angstroms)
 Number     Number       Type             X           Y           Z
 ---------------------------------------------------------------------
      1         11           0       -0.013850    0.067142    1.815467
      2         11           0        0.037683   -0.106265   -1.723011
      3         11           0        2.615530   -0.629439    0.011237
      4         11           0        1.297446    1.927858   -0.105522
      5         11           0        0.181285   -2.095648    0.075819
      6         11           0       -1.604288    1.794682   -0.002362
      7         11           0       -2.513806   -0.958330   -0.071627
 ---------------------------------------------------------------------

 SCF Done:  E(UB3LYP) =  -1136.09143709     A.U. after   19 cycles

 The electronic state is 2-A.
 Alpha  occ. eigenvalues --  -38.44021 -38.44004 -38.43831 -38.43699 -38.43412
 Alpha  occ. eigenvalues --  -38.43321 -38.43270  -2.20273  -2.20201  -2.19893
 Alpha  occ. eigenvalues --   -2.19740  -2.19601  -2.19427  -2.19388  -1.14172
 Alpha  occ. eigenvalues --   -1.14025  -1.13962  -1.13913  -1.13887  -1.13814
 Alpha  occ. eigenvalues --   -1.13664  -1.13612  -1.13495  -1.13487  -1.13468
 Alpha  occ. eigenvalues --   -1.13355  -1.13228  -1.13191  -1.13186  -1.13083
 Alpha  occ. eigenvalues --   -1.13048  -1.13026  -1.13023  -1.13006  -1.12885
 Alpha  occ. eigenvalues --   -0.21462  -0.13932  -0.12861  -0.12093
 Alpha virt. eigenvalues --   -0.05251  -0.04379  -0.04030  -0.03644  -0.03125
 Alpha virt. eigenvalues --   -0.02776  -0.01227  -0.00501  -0.00068   0.00350
 Alpha virt. eigenvalues --    0.00688   0.00743   0.01006   0.01126   0.01177

  Beta  occ. eigenvalues --  -38.43929 -38.43908 -38.43822 -38.43692 -38.43393
  Beta  occ. eigenvalues --  -38.43309 -38.43256  -2.20108  -2.20026  -2.19883
  Beta  occ. eigenvalues --   -2.19731  -2.19576  -2.19411  -2.19369  -1.14083
  Beta  occ. eigenvalues --   -1.13913  -1.13849  -1.13813  -1.13773  -1.13695
  Beta  occ. eigenvalues --   -1.13654  -1.13589  -1.13483  -1.13456  -1.13440
  Beta  occ. eigenvalues --   -1.13306  -1.13217  -1.13167  -1.13100  -1.13076
  Beta  occ. eigenvalues --   -1.13023  -1.13014  -1.12981  -1.12938  -1.12881
  Beta  occ. eigenvalues --   -0.20639  -0.13568  -0.12491
  Beta virt. eigenvalues --   -0.07916  -0.05283  -0.04367  -0.04008  -0.02683
  Beta virt. eigenvalues --   -0.02194  -0.01688  -0.01150  -0.00460   0.00074
  Beta virt. eigenvalues --    0.00380   0.00662   0.00717   0.01033   0.01139

 Mulliken charges and spin densities:
               1          2
     1  Na  -0.360886   0.493176
     2  Na  -0.337244   0.440220
     3  Na   0.057503  -0.050009
     4  Na   0.222361   0.051686
     5  Na   0.221232   0.079100
     6  Na   0.181031   0.034885
     7  Na   0.016003  -0.049058
 Sum of Mulliken charges =  -0.00000   1.00000

 Dipole moment (field-independent basis, Debye):
    X=             -0.0578    Y=              0.0361    Z=              0.1055  Tot=              0.1256
 Quadrupole moment (field-independent basis, Debye-Ang):
   XX=            -58.1714   YY=            -69.6914   ZZ=            -69.2379
   XY=              0.1193   XZ=              0.1571   YZ=             -0.2521

 Normal termination of Gaussian 16 at Sat Dec  9 05:47:33 2023.
