 Gaussian 16, Revision B.01,
 Gaussian 16:  ES64L-G16RevB.01 20-Dec-2017

 -------------------------
 #P B3LYP/6-311+g(d) force
 -------------------------

 -----
 DPGEN
 -----
 Symbolic Z-matrix:
 Charge =  0 Multiplicity = 2

                         Standard orientation:
 ---------------------------------------------------------------------
 Center     Atomic      Atomic             Coordinates (Angstroms)
 Number     Number       Type             X           Y           Z
 ---------------------------------------------------------------------
      1         11           0        0.936149   -0.831250   -1.741082
      2         11           0        2.037599    2.109564   -0.492772
      3         11           0        3.172811   -1.125139    0.840467
      4         11           0        0.255557   -0.264055    1.969414
      5         11           0       -1.588800   -2.047486   -0.905540
      6         11           0       -1.379062    2.080773   -0.410205
      7         11           0       -3.434253    0.077592    0.739717
 ---------------------------------------------------------------------

 SCF Done:  E(UB3LYP) =  -1136.12588277     A.U. after   22 cycles

 The electronic state is 2-A.
 Alpha  occ. eigenvalues --  -38.44730 -38.44640 -38.44607 -38.43618 -38.43342
 Alpha  occ. eigenvalues --  -38.43281 -38.42985  -2.20595  -2.20483  -2.20467
 Alpha  occ. eigenvalues --   -2.19570  -2.19195  -2.19175  -2.18854  -1.14280
 Alpha  occ. eigenvalues --   -1.14253  -1.14227  -1.14152  -1.14136  -1.14117
 Alpha  occ. eigenvalues --   -1.14115  -1.14110  -1.14103  -1.13346  -1.13202
 Alpha  occ. eigenvalues --   -1.13180  -1.12881  -1.12851  -1.12848  -1.12823
 Alpha  occ. eigenvalues --   -1.12801  -1.12789  -1.12530  -1.12519  -1.12503
 Alpha  occ. eigenvalues --   -0.18641  -0.13954  -0.11606  -0.11519
 Alpha virt. eigenvalues --   -0.06399  -0.05102  -0.04462  -0.03418  -0.02837
 Alpha virt. eigenvalues --   -0.02715  -0.02141  -0.00941  -0.00502   0.00012
 Alpha virt. eigenvalues --    0.00199   0.00259   0.00380   0.00731   0.00835

  Beta  occ. eigenvalues --  -38.44661 -38.44613 -38.44598 -38.43550 -38.43327
  Beta  occ. eigenvalues --  -38.43256 -38.42983  -2.20467  -2.20449  -2.20435
  Beta  occ. eigenvalues --   -2.19447  -2.19170  -2.19133  -2.18854  -1.14201
  Beta  occ. eigenvalues --   -1.14159  -1.14146  -1.14143  -1.14103  -1.14091
  Beta  occ. eigenvalues --   -1.14088  -1.14083  -1.14058  -1.13259  -1.13116
  Beta  occ. eigenvalues --   -1.13091  -1.12851  -1.12834  -1.12806  -1.12802
  Beta  occ. eigenvalues --   -1.12767  -1.12759  -1.12531  -1.12509  -1.12493
  Beta  occ. eigenvalues --   -0.17950  -0.13714  -0.11205
  Beta virt. eigenvalues --   -0.07698  -0.06214  -0.05106  -0.03841  -0.03148
  Beta virt. eigenvalues --   -0.02187  -0.01928  -0.01858  -0.00867  -0.00261
  Beta virt. eigenvalues --    0.00042   0.00231   0.00289   0.00530   0.00806

 Mulliken charges and spin densities:
               1          2
     1  Na   0.249703   0.438082
     2  Na  -0.015216   0.020818
     3  Na   0.325466   0.006445
     4  Na  -0.430586   0.518964
     5  Na  -0.513676  -0.046481
     6  Na  -0.736350  -0.101056
     7  Na   1.120660   0.163228
 Sum of Mulliken charges =  -0.00000   1.00000

 Dipole moment (field-independent basis, Debye):
    X=              0.2530    Y=             -0.2117    Z=              0.6676  Tot=              0.7446
 Quadrupole moment (field-independent basis, Debye-Ang):
   XX=            -50.1942   YY=            -75.6392   ZZ=            -69.8703
   XY=             -0.0359   XZ=             -1.3228   YZ=             -1.4837

 Normal termination of Gaussian 16 at Thu Dec  7 06:22:28 2023.
