 Gaussian 16, Revision B.01,
 Gaussian 16:  ES64L-G16RevB.01 20-Dec-2017

 -------------------------
 #P B3LYP/6-311+g(d) force
 -------------------------

 -----
 DPGEN
 -----
 Symbolic Z-matrix:
 Charge =  0 Multiplicity = 2

                         Standard orientation:
 ---------------------------------------------------------------------
 Center     Atomic      Atomic             Coordinates (Angstroms)
 Number     Number       Type             X           Y           Z
 ---------------------------------------------------------------------
      1         11           0        2.139977    1.946771   -0.020363
      2         11           0       -1.449369    2.502682    0.051946
      3         11           0       -0.230525   -2.605010    0.282133
      4         11           0       -3.164255   -0.702079   -0.293034
      5         11           0       -0.059049    0.026401    1.985975
      6         11           0       -0.161495   -0.019135   -1.698796
      7         11           0        2.924715   -1.149630   -0.307861
 ---------------------------------------------------------------------

 SCF Done:  E(UB3LYP) =  -1136.13854995     A.U. after   19 cycles

 The electronic state is 2-A.
 Alpha  occ. eigenvalues --  -38.44228 -38.43822 -38.43509 -38.43467 -38.43329
 Alpha  occ. eigenvalues --  -38.43258 -38.42969  -2.20055  -2.19674  -2.19450
 Alpha  occ. eigenvalues --   -2.19340  -2.19315  -2.19118  -2.18880  -1.13735
 Alpha  occ. eigenvalues --   -1.13705  -1.13695  -1.13362  -1.13338  -1.13315
 Alpha  occ. eigenvalues --   -1.13139  -1.13097  -1.13064  -1.13028  -1.13003
 Alpha  occ. eigenvalues --   -1.12998  -1.12975  -1.12960  -1.12923  -1.12790
 Alpha  occ. eigenvalues --   -1.12786  -1.12738  -1.12575  -1.12546  -1.12481
 Alpha  occ. eigenvalues --   -0.18969  -0.13201  -0.12345  -0.10938
 Alpha virt. eigenvalues --   -0.05769  -0.05055  -0.04301  -0.03244  -0.02898
 Alpha virt. eigenvalues --   -0.02625  -0.01714  -0.01003  -0.00159  -0.00154
 Alpha virt. eigenvalues --    0.00008   0.00348   0.00797   0.00906   0.00937

  Beta  occ. eigenvalues --  -38.44221 -38.43816 -38.43462 -38.43411 -38.43265
  Beta  occ. eigenvalues --  -38.43253 -38.42956  -2.20046  -2.19667  -2.19335
  Beta  occ. eigenvalues --   -2.19271  -2.19197  -2.19113  -2.18862  -1.13715
  Beta  occ. eigenvalues --   -1.13696  -1.13689  -1.13360  -1.13323  -1.13302
  Beta  occ. eigenvalues --   -1.13034  -1.13013  -1.12992  -1.12972  -1.12950
  Beta  occ. eigenvalues --   -1.12930  -1.12923  -1.12893  -1.12838  -1.12777
  Beta  occ. eigenvalues --   -1.12761  -1.12733  -1.12560  -1.12499  -1.12475
  Beta  occ. eigenvalues --   -0.18230  -0.12941  -0.12080
  Beta virt. eigenvalues --   -0.07006  -0.05709  -0.05067  -0.04285  -0.02480
  Beta virt. eigenvalues --   -0.02073  -0.01605  -0.01554  -0.00957  -0.00212
  Beta virt. eigenvalues --   -0.00157   0.00114   0.00373   0.00854   0.00895

 Mulliken charges and spin densities:
               1          2
     1  Na   0.154454  -0.055324
     2  Na   0.100370  -0.103713
     3  Na   0.302834  -0.009504
     4  Na   0.160589  -0.065916
     5  Na  -0.393313   0.669954
     6  Na  -0.414439   0.591493
     7  Na   0.089505  -0.026990
 Sum of Mulliken charges =  -0.00000   1.00000

 Dipole moment (field-independent basis, Debye):
    X=             -0.2244    Y=              0.0099    Z=              0.0113  Tot=              0.2249
 Quadrupole moment (field-independent basis, Debye-Ang):
   XX=            -54.4226   YY=            -65.5305   ZZ=            -73.4083
   XY=             -0.1716   XZ=             -0.1513   YZ=              0.2687

 Normal termination of Gaussian 16 at Thu Dec  7 11:51:48 2023.
