 Gaussian 16, Revision B.01,
 Gaussian 16:  ES64L-G16RevB.01 20-Dec-2017

 -------------------------
 #P B3LYP/6-311+g(d) force
 -------------------------

 -----
 DPGEN
 -----
 Symbolic Z-matrix:
 Charge =  0 Multiplicity = 2

                         Standard orientation:
 ---------------------------------------------------------------------
 Center     Atomic      Atomic             Coordinates (Angstroms)
 Number     Number       Type             X           Y           Z
 ---------------------------------------------------------------------
      1         11           0       -0.065444   -0.422328   -1.807326
      2         11           0        3.140492    1.165779    0.200547
      3         11           0       -0.605961    3.211277    0.139609
      4         11           0       -3.196169    0.593855   -0.586599
      5         11           0       -1.670587   -2.462047    0.874006
      6         11           0        2.090000   -1.860424   -0.808628
      7         11           0        0.307669   -0.226111    1.988391
 ---------------------------------------------------------------------

 SCF Done:  E(UB3LYP) =  -1136.12629023     A.U. after   21 cycles

 The electronic state is 2-A.
 Alpha  occ. eigenvalues --  -38.44264 -38.44200 -38.44116 -38.44088 -38.43833
 Alpha  occ. eigenvalues --  -38.43650 -38.43558  -2.20063  -2.20058  -2.19992
 Alpha  occ. eigenvalues --   -2.19974  -2.19753  -2.19399  -2.19398  -1.13949
 Alpha  occ. eigenvalues --   -1.13739  -1.13723  -1.13705  -1.13702  -1.13674
 Alpha  occ. eigenvalues --   -1.13652  -1.13646  -1.13635  -1.13618  -1.13605
 Alpha  occ. eigenvalues --   -1.13602  -1.13382  -1.13358  -1.13333  -1.13091
 Alpha  occ. eigenvalues --   -1.13087  -1.13061  -1.13037  -1.13031  -1.13029
 Alpha  occ. eigenvalues --   -0.18200  -0.13059  -0.11952  -0.11373
 Alpha virt. eigenvalues --   -0.05933  -0.04869  -0.04807  -0.03437  -0.03024
 Alpha virt. eigenvalues --   -0.02923  -0.01653  -0.01058  -0.00488  -0.00412
 Alpha virt. eigenvalues --    0.00009   0.00327   0.00677   0.00791   0.00824

  Beta  occ. eigenvalues --  -38.44262 -38.44188 -38.44044 -38.44004 -38.43804
  Beta  occ. eigenvalues --  -38.43658 -38.43532  -2.20057  -2.19971  -2.19931
  Beta  occ. eigenvalues --   -2.19819  -2.19703  -2.19415  -2.19356  -1.13859
  Beta  occ. eigenvalues --   -1.13730  -1.13715  -1.13699  -1.13658  -1.13632
  Beta  occ. eigenvalues --   -1.13609  -1.13591  -1.13564  -1.13544  -1.13501
  Beta  occ. eigenvalues --   -1.13482  -1.13329  -1.13306  -1.13301  -1.13094
  Beta  occ. eigenvalues --   -1.13073  -1.13045  -1.13044  -1.13005  -1.12993
  Beta  occ. eigenvalues --   -0.17476  -0.12808  -0.11706
  Beta virt. eigenvalues --   -0.07446  -0.05868  -0.04781  -0.04635  -0.02796
  Beta virt. eigenvalues --   -0.02322  -0.01966  -0.01555  -0.00934  -0.00473
  Beta virt. eigenvalues --   -0.00357   0.00099   0.00377   0.00811   0.00832

 Mulliken charges and spin densities:
               1          2
     1  Na   0.096605   0.430753
     2  Na  -0.224833  -0.053771
     3  Na  -0.276200  -0.075774
     4  Na  -0.020405  -0.039108
     5  Na  -0.118177   0.047700
     6  Na   0.487698   0.092271
     7  Na   0.055312   0.597929
 Sum of Mulliken charges =  -0.00000   1.00000

 Dipole moment (field-independent basis, Debye):
    X=              0.0995    Y=             -0.0927    Z=              0.1034  Tot=              0.1708
 Quadrupole moment (field-independent basis, Debye-Ang):
   XX=            -56.8923   YY=            -66.1045   ZZ=            -72.4352
   XY=              1.7733   XZ=              0.3165   YZ=             -0.2335

 Normal termination of Gaussian 16 at Tue Dec  5 10:54:42 2023.
