 Gaussian 16, Revision B.01,
 Gaussian 16:  ES64L-G16RevB.01 20-Dec-2017

 -------------------------
 #P B3LYP/6-311+g(d) force
 -------------------------

 -----
 DPGEN
 -----
 Symbolic Z-matrix:
 Charge =  0 Multiplicity = 2

                         Standard orientation:
 ---------------------------------------------------------------------
 Center     Atomic      Atomic             Coordinates (Angstroms)
 Number     Number       Type             X           Y           Z
 ---------------------------------------------------------------------
      1         11           0        0.398790   -0.802529   -1.799687
      2         11           0       -3.654302    0.037022    0.809007
      3         11           0       -2.032888   -2.304927   -0.403331
      4         11           0        4.334409   -0.974807    0.584473
      5         11           0       -2.260149    2.196299   -0.453971
      6         11           0        0.442672    0.071041    1.806530
      7         11           0        2.771468    1.777901   -0.543021
 ---------------------------------------------------------------------

 SCF Done:  E(UB3LYP) =  -1136.10425214     A.U. after   33 cycles

 The electronic state is 2-A.
 Alpha  occ. eigenvalues --  -38.47358 -38.45177 -38.44984 -38.44076 -38.43613
 Alpha  occ. eigenvalues --  -38.43114 -38.42585  -2.23083  -2.20971  -2.20791
 Alpha  occ. eigenvalues --   -2.19992  -2.19456  -2.18976  -2.18463  -1.16782
 Alpha  occ. eigenvalues --   -1.16751  -1.16700  -1.14636  -1.14615  -1.14588
 Alpha  occ. eigenvalues --   -1.14465  -1.14447  -1.14423  -1.13758  -1.13642
 Alpha  occ. eigenvalues --   -1.13612  -1.13117  -1.13088  -1.13076  -1.12657
 Alpha  occ. eigenvalues --   -1.12632  -1.12605  -1.12141  -1.12118  -1.12103
 Alpha  occ. eigenvalues --   -0.17713  -0.14586  -0.10778  -0.10687
 Alpha virt. eigenvalues --   -0.07686  -0.06159  -0.04243  -0.03394  -0.02971
 Alpha virt. eigenvalues --   -0.02434  -0.02381  -0.01712  -0.00946  -0.00647
 Alpha virt. eigenvalues --   -0.00156  -0.00038   0.00244   0.00352   0.00591

  Beta  occ. eigenvalues --  -38.47362 -38.45107 -38.44969 -38.44045 -38.43598
  Beta  occ. eigenvalues --  -38.43065 -38.42581  -2.23092  -2.20840  -2.20767
  Beta  occ. eigenvalues --   -2.19934  -2.19428  -2.18887  -2.18458  -1.16771
  Beta  occ. eigenvalues --   -1.16758  -1.16711  -1.14549  -1.14523  -1.14506
  Beta  occ. eigenvalues --   -1.14455  -1.14424  -1.14375  -1.13718  -1.13602
  Beta  occ. eigenvalues --   -1.13573  -1.13097  -1.13070  -1.13043  -1.12600
  Beta  occ. eigenvalues --   -1.12574  -1.12532  -1.12135  -1.12105  -1.12096
  Beta  occ. eigenvalues --   -0.17181  -0.14076  -0.10642
  Beta virt. eigenvalues --   -0.07495  -0.07233  -0.05571  -0.03912  -0.03083
  Beta virt. eigenvalues --   -0.02851  -0.02165  -0.01696  -0.01459  -0.00795
  Beta virt. eigenvalues --   -0.00323  -0.00027   0.00118   0.00317   0.00480

 Mulliken charges and spin densities:
               1          2
     1  Na  -0.110126   0.271747
     2  Na   0.357714   0.293805
     3  Na  -0.172148  -0.115399
     4  Na   0.058566   0.374457
     5  Na  -0.176678   0.059338
     6  Na  -0.224462  -0.064573
     7  Na   0.267133   0.180625
 Sum of Mulliken charges =  -0.00000   1.00000

 Dipole moment (field-independent basis, Debye):
    X=              1.7730    Y=              0.1102    Z=              0.5547  Tot=              1.8610
 Quadrupole moment (field-independent basis, Debye-Ang):
   XX=            -61.1181   YY=            -75.8100   ZZ=            -67.1299
   XY=              3.5351   XZ=             -2.0920   YZ=             -6.0061

 Normal termination of Gaussian 16 at Fri Dec  8 00:18:42 2023.
