 Gaussian 16, Revision B.01,
 Gaussian 16:  ES64L-G16RevB.01 20-Dec-2017

 -------------------------
 #P B3LYP/6-311+g(d) force
 -------------------------

 -----
 DPGEN
 -----
 Symbolic Z-matrix:
 Charge =  0 Multiplicity = 2

                         Standard orientation:
 ---------------------------------------------------------------------
 Center     Atomic      Atomic             Coordinates (Angstroms)
 Number     Number       Type             X           Y           Z
 ---------------------------------------------------------------------
      1         11           0       -1.853518   -1.287038   -1.928597
      2         11           0       -1.101922   -1.535137    2.118801
      3         11           0       -0.832147    2.372719    0.832443
      4         11           0        1.724516    2.182409   -0.749295
      5         11           0        1.602384   -1.985060   -0.266509
      6         11           0       -3.831273    0.463794   -0.147893
      7         11           0        4.291959   -0.211687    0.141050
 ---------------------------------------------------------------------

 SCF Done:  E(UB3LYP) =  -1136.11487003     A.U. after   23 cycles

 The electronic state is 2-A.
 Alpha  occ. eigenvalues --  -38.45225 -38.45163 -38.44554 -38.44359 -38.43706
 Alpha  occ. eigenvalues --  -38.43644 -38.43073  -2.21031  -2.20951  -2.20365
 Alpha  occ. eigenvalues --   -2.20160  -2.19525  -2.19451  -2.18904  -1.14718
 Alpha  occ. eigenvalues --   -1.14682  -1.14664  -1.14618  -1.14610  -1.14585
 Alpha  occ. eigenvalues --   -1.14029  -1.14016  -1.13984  -1.13817  -1.13786
 Alpha  occ. eigenvalues --   -1.13777  -1.13254  -1.13196  -1.13146  -1.13140
 Alpha  occ. eigenvalues --   -1.13128  -1.13085  -1.12591  -1.12553  -1.12526
 Alpha  occ. eigenvalues --   -0.17107  -0.13883  -0.11747  -0.10937
 Alpha virt. eigenvalues --   -0.07399  -0.05412  -0.03799  -0.03577  -0.03312
 Alpha virt. eigenvalues --   -0.02665  -0.02466  -0.01438  -0.00577  -0.00362
 Alpha virt. eigenvalues --   -0.00203  -0.00064   0.00079   0.00624   0.00764

  Beta  occ. eigenvalues --  -38.45199 -38.45151 -38.44502 -38.44261 -38.43710
  Beta  occ. eigenvalues --  -38.43644 -38.43060  -2.20988  -2.20930  -2.20270
  Beta  occ. eigenvalues --   -2.19979  -2.19533  -2.19452  -2.18879  -1.14675
  Beta  occ. eigenvalues --   -1.14656  -1.14621  -1.14605  -1.14594  -1.14571
  Beta  occ. eigenvalues --   -1.13965  -1.13952  -1.13909  -1.13690  -1.13659
  Beta  occ. eigenvalues --   -1.13657  -1.13255  -1.13201  -1.13152  -1.13142
  Beta  occ. eigenvalues --   -1.13126  -1.13072  -1.12577  -1.12527  -1.12512
  Beta  occ. eigenvalues --   -0.16557  -0.13488  -0.11574
  Beta virt. eigenvalues --   -0.07358  -0.07056  -0.05191  -0.03521  -0.03306
  Beta virt. eigenvalues --   -0.02886  -0.02257  -0.01823  -0.01290  -0.00322
  Beta virt. eigenvalues --   -0.00214  -0.00087  -0.00034   0.00256   0.00742

 Mulliken charges and spin densities:
               1          2
     1  Na   0.043659   0.324544
     2  Na  -0.085331   0.392245
     3  Na  -0.226093   0.187564
     4  Na  -0.107539  -0.095283
     5  Na  -0.326077   0.142424
     6  Na   0.308224   0.025880
     7  Na   0.393157   0.022626
 Sum of Mulliken charges =  -0.00000   1.00000

 Dipole moment (field-independent basis, Debye):
    X=              0.1532    Y=             -0.3117    Z=              0.2014  Tot=              0.4015
 Quadrupole moment (field-independent basis, Debye-Ang):
   XX=            -49.8405   YY=            -77.7793   ZZ=            -69.5264
   XY=             -1.5231   XZ=             -2.3661   YZ=             -0.2364

 Normal termination of Gaussian 16 at Sun Dec  3 22:25:01 2023.
