 Gaussian 16, Revision B.01,
 Gaussian 16:  ES64L-G16RevB.01 20-Dec-2017

 -------------------------
 #P B3LYP/6-311+g(d) force
 -------------------------

 -----
 DPGEN
 -----
 Symbolic Z-matrix:
 Charge =  0 Multiplicity = 2

                         Standard orientation:
 ---------------------------------------------------------------------
 Center     Atomic      Atomic             Coordinates (Angstroms)
 Number     Number       Type             X           Y           Z
 ---------------------------------------------------------------------
      1         11           0        0.963728   -0.939144   -1.334849
      2         11           0        0.122072    4.069032    0.105934
      3         11           0       -4.177400   -0.296254   -0.362016
      4         11           0       -1.493958   -2.311712   -0.106413
      5         11           0       -1.189368    1.030762    0.409425
      6         11           0        1.555903   -1.311981    2.006880
      7         11           0        4.219024   -0.240704   -0.718962
 ---------------------------------------------------------------------

 SCF Done:  E(UB3LYP) =  -1136.11169800     A.U. after   23 cycles

 The electronic state is 2-A.
 Alpha  occ. eigenvalues --  -38.45326 -38.45244 -38.44698 -38.44426 -38.43795
 Alpha  occ. eigenvalues --  -38.42923 -38.42538  -2.21140  -2.21132  -2.20518
 Alpha  occ. eigenvalues --   -2.20235  -2.19700  -2.18688  -2.18458  -1.14848
 Alpha  occ. eigenvalues --   -1.14810  -1.14797  -1.14790  -1.14769  -1.14733
 Alpha  occ. eigenvalues --   -1.14175  -1.14165  -1.14142  -1.13887  -1.13869
 Alpha  occ. eigenvalues --   -1.13846  -1.13428  -1.13365  -1.13300  -1.12353
 Alpha  occ. eigenvalues --   -1.12350  -1.12340  -1.12185  -1.12133  -1.12052
 Alpha  occ. eigenvalues --   -0.17965  -0.13790  -0.11367  -0.10787
 Alpha virt. eigenvalues --   -0.07479  -0.05319  -0.04327  -0.03379  -0.03056
 Alpha virt. eigenvalues --   -0.02379  -0.01826  -0.01256  -0.01161  -0.00662
 Alpha virt. eigenvalues --   -0.00308  -0.00029   0.00190   0.00434   0.00769

  Beta  occ. eigenvalues --  -38.45277 -38.45240 -38.44650 -38.44341 -38.43792
  Beta  occ. eigenvalues --  -38.42922 -38.42530  -2.21137  -2.21044  -2.20428
  Beta  occ. eigenvalues --   -2.20075  -2.19698  -2.18687  -2.18446  -1.14814
  Beta  occ. eigenvalues --   -1.14803  -1.14790  -1.14729  -1.14694  -1.14693
  Beta  occ. eigenvalues --   -1.14115  -1.14102  -1.14083  -1.13772  -1.13760
  Beta  occ. eigenvalues --   -1.13746  -1.13435  -1.13364  -1.13264  -1.12351
  Beta  occ. eigenvalues --   -1.12349  -1.12339  -1.12181  -1.12102  -1.12048
  Beta  occ. eigenvalues --   -0.17502  -0.13050  -0.11214
  Beta virt. eigenvalues --   -0.07329  -0.07119  -0.05227  -0.03773  -0.03108
  Beta virt. eigenvalues --   -0.02753  -0.01846  -0.01623  -0.01181  -0.00781
  Beta virt. eigenvalues --   -0.00285  -0.00137   0.00046   0.00322   0.00474

 Mulliken charges and spin densities:
               1          2
     1  Na  -0.099251  -0.022589
     2  Na   0.186212  -0.062595
     3  Na   0.308704   0.220651
     4  Na   1.130279   0.177995
     5  Na  -1.596821   0.135231
     6  Na   0.060874   0.186112
     7  Na   0.010004   0.365196
 Sum of Mulliken charges =  -0.00000   1.00000

 Dipole moment (field-independent basis, Debye):
    X=              0.2760    Y=             -1.5865    Z=              0.7209  Tot=              1.7643
 Quadrupole moment (field-independent basis, Debye-Ang):
   XX=            -58.4908   YY=            -72.7589   ZZ=            -66.2840
   XY=              2.4372   XZ=              4.4753   YZ=             -2.6238

 Normal termination of Gaussian 16 at Tue Dec  5 11:08:48 2023.
