 Gaussian 16, Revision B.01,
 Gaussian 16:  ES64L-G16RevB.01 20-Dec-2017

 -------------------------
 #P B3LYP/6-311+g(d) force
 -------------------------

 -----
 DPGEN
 -----
 Symbolic Z-matrix:
 Charge =  0 Multiplicity = 2

                         Standard orientation:
 ---------------------------------------------------------------------
 Center     Atomic      Atomic             Coordinates (Angstroms)
 Number     Number       Type             X           Y           Z
 ---------------------------------------------------------------------
      1         11           0        1.391366   -0.883909    2.184781
      2         11           0        1.415486    0.601271   -2.011081
      3         11           0        1.685402   -2.226304   -1.283297
      4         11           0       -1.085983   -2.067775    0.879751
      5         11           0       -1.537480    2.047717    0.347106
      6         11           0        1.901702    2.568547    0.531828
      7         11           0       -3.770494   -0.039547   -0.649089
 ---------------------------------------------------------------------

 SCF Done:  E(UB3LYP) =  -1136.12543912     A.U. after   19 cycles

 The electronic state is 2-A.
 Alpha  occ. eigenvalues --  -38.44598 -38.44366 -38.44129 -38.43725 -38.43694
 Alpha  occ. eigenvalues --  -38.43649 -38.43463  -2.20460  -2.20259  -2.20008
 Alpha  occ. eigenvalues --   -2.19581  -2.19514  -2.19454  -2.19301  -1.14173
 Alpha  occ. eigenvalues --   -1.14074  -1.14065  -1.14041  -1.13899  -1.13876
 Alpha  occ. eigenvalues --   -1.13657  -1.13639  -1.13597  -1.13301  -1.13244
 Alpha  occ. eigenvalues --   -1.13227  -1.13196  -1.13177  -1.13173  -1.13110
 Alpha  occ. eigenvalues --   -1.13093  -1.13062  -1.12966  -1.12952  -1.12941
 Alpha  occ. eigenvalues --   -0.17863  -0.12955  -0.12528  -0.11860
 Alpha virt. eigenvalues --   -0.05375  -0.05123  -0.04613  -0.03769  -0.03551
 Alpha virt. eigenvalues --   -0.02989  -0.01285  -0.00971  -0.00498  -0.00068
 Alpha virt. eigenvalues --    0.00062   0.00348   0.00402   0.00810   0.00851

  Beta  occ. eigenvalues --  -38.44518 -38.44304 -38.44082 -38.43712 -38.43692
  Beta  occ. eigenvalues --  -38.43641 -38.43451  -2.20311  -2.20147  -2.19927
  Beta  occ. eigenvalues --   -2.19561  -2.19512  -2.19440  -2.19279  -1.14067
  Beta  occ. eigenvalues --   -1.13978  -1.13959  -1.13951  -1.13825  -1.13795
  Beta  occ. eigenvalues --   -1.13598  -1.13585  -1.13525  -1.13268  -1.13226
  Beta  occ. eigenvalues --   -1.13216  -1.13192  -1.13178  -1.13164  -1.13099
  Beta  occ. eigenvalues --   -1.13084  -1.13055  -1.12951  -1.12931  -1.12925
  Beta  occ. eigenvalues --   -0.17160  -0.12582  -0.12375
  Beta virt. eigenvalues --   -0.07955  -0.05136  -0.05039  -0.04263  -0.03235
  Beta virt. eigenvalues --   -0.02961  -0.02280  -0.01199  -0.00880  -0.00193
  Beta virt. eigenvalues --   -0.00012   0.00174   0.00430   0.00602   0.00853

 Mulliken charges and spin densities:
               1          2
     1  Na   0.195903   0.278700
     2  Na   0.017181   0.274051
     3  Na  -0.067809   0.022740
     4  Na  -0.206514   0.223158
     5  Na  -0.583461  -0.005562
     6  Na   0.221567   0.245854
     7  Na   0.423135  -0.038940
 Sum of Mulliken charges =  -0.00000   1.00000

 Dipole moment (field-independent basis, Debye):
    X=              0.3613    Y=             -0.2515    Z=              0.0273  Tot=              0.4410
 Quadrupole moment (field-independent basis, Debye-Ang):
   XX=            -63.8486   YY=            -67.6707   ZZ=            -67.0260
   XY=              1.5339   XZ=              3.3759   YZ=              2.2379

 Normal termination of Gaussian 16 at Sun Dec  3 12:24:39 2023.
