 Gaussian 16, Revision B.01,
 Gaussian 16:  ES64L-G16RevB.01 20-Dec-2017

 -------------------------
 #P B3LYP/6-311+g(d) force
 -------------------------

 -----
 DPGEN
 -----
 Symbolic Z-matrix:
 Charge =  0 Multiplicity = 2

                         Standard orientation:
 ---------------------------------------------------------------------
 Center     Atomic      Atomic             Coordinates (Angstroms)
 Number     Number       Type             X           Y           Z
 ---------------------------------------------------------------------
      1         11           0       -0.273887   -0.289645    1.955640
      2         11           0       -1.115045    2.663564    0.469441
      3         11           0       -2.840624    0.031500   -0.456706
      4         11           0       -0.960078   -2.647714   -0.264366
      5         11           0        0.263256    0.023486   -1.674734
      6         11           0        2.492233   -1.732969    0.345493
      7         11           0        2.434144    1.951778   -0.374767
 ---------------------------------------------------------------------

 SCF Done:  E(UB3LYP) =  -1136.13896679     A.U. after   18 cycles

 The electronic state is 2-A.
 Alpha  occ. eigenvalues --  -38.43784 -38.43692 -38.43577 -38.43428 -38.43389
 Alpha  occ. eigenvalues --  -38.43303 -38.43193  -2.19617  -2.19519  -2.19511
 Alpha  occ. eigenvalues --   -2.19339  -2.19250  -2.19213  -2.19194  -1.13301
 Alpha  occ. eigenvalues --   -1.13289  -1.13248  -1.13231  -1.13193  -1.13168
 Alpha  occ. eigenvalues --   -1.13156  -1.13142  -1.13129  -1.13047  -1.13021
 Alpha  occ. eigenvalues --   -1.12992  -1.12926  -1.12921  -1.12898  -1.12874
 Alpha  occ. eigenvalues --   -1.12871  -1.12850  -1.12821  -1.12809  -1.12797
 Alpha  occ. eigenvalues --   -0.18968  -0.12896  -0.12656  -0.11045
 Alpha virt. eigenvalues --   -0.05309  -0.05015  -0.04696  -0.03214  -0.03069
 Alpha virt. eigenvalues --   -0.02648  -0.01273  -0.01141  -0.00267  -0.00063
 Alpha virt. eigenvalues --    0.00034   0.00365   0.00876   0.00893   0.00947

  Beta  occ. eigenvalues --  -38.43777 -38.43686 -38.43490 -38.43416 -38.43378
  Beta  occ. eigenvalues --  -38.43293 -38.43127  -2.19607  -2.19509  -2.19353
  Beta  occ. eigenvalues --   -2.19321  -2.19233  -2.19199  -2.19072  -1.13287
  Beta  occ. eigenvalues --   -1.13271  -1.13239  -1.13213  -1.13155  -1.13140
  Beta  occ. eigenvalues --   -1.13099  -1.13052  -1.13034  -1.13008  -1.13006
  Beta  occ. eigenvalues --   -1.12951  -1.12899  -1.12896  -1.12879  -1.12858
  Beta  occ. eigenvalues --   -1.12846  -1.12802  -1.12776  -1.12725  -1.12718
  Beta  occ. eigenvalues --   -0.18231  -0.12631  -0.12384
  Beta virt. eigenvalues --   -0.07115  -0.05286  -0.04950  -0.04667  -0.02442
  Beta virt. eigenvalues --   -0.02312  -0.01599  -0.01173  -0.01056  -0.00254
  Beta virt. eigenvalues --   -0.00107   0.00132   0.00392   0.00886   0.00924

 Mulliken charges and spin densities:
               1          2
     1  Na  -0.347911   0.654859
     2  Na   0.069181   0.035777
     3  Na   0.219195   0.031630
     4  Na   0.240352  -0.043505
     5  Na  -0.195928   0.432561
     6  Na   0.020670  -0.041993
     7  Na  -0.005559  -0.069330
 Sum of Mulliken charges =  -0.00000   1.00000

 Dipole moment (field-independent basis, Debye):
    X=              0.2354    Y=             -0.0539    Z=              0.1640  Tot=              0.2919
 Quadrupole moment (field-independent basis, Debye-Ang):
   XX=            -59.4831   YY=            -61.5723   ZZ=            -72.8186
   XY=             -0.2105   XZ=              1.3197   YZ=              0.6082

 Normal termination of Gaussian 16 at Thu Dec  7 19:53:55 2023.
