 Gaussian 16, Revision B.01,
 Gaussian 16:  ES64L-G16RevB.01 20-Dec-2017

 -------------------------
 #P B3LYP/6-311+g(d) force
 -------------------------

 -----
 DPGEN
 -----
 Symbolic Z-matrix:
 Charge =  0 Multiplicity = 2

                         Standard orientation:
 ---------------------------------------------------------------------
 Center     Atomic      Atomic             Coordinates (Angstroms)
 Number     Number       Type             X           Y           Z
 ---------------------------------------------------------------------
      1         11           0        2.400683    1.725032    0.041539
      2         11           0        2.759816   -1.633944   -0.137060
      3         11           0       -1.073701   -2.589274    0.014832
      4         11           0        0.059288    0.048382   -1.584983
      5         11           0       -3.187664   -0.217546   -0.019324
      6         11           0        0.174081   -0.066987    1.710644
      7         11           0       -1.132504    2.734338   -0.025648
 ---------------------------------------------------------------------

 SCF Done:  E(UB3LYP) =  -1136.13745128     A.U. after   19 cycles

 The electronic state is 2-A.
 Alpha  occ. eigenvalues --  -38.44235 -38.43986 -38.43838 -38.43276 -38.43228
 Alpha  occ. eigenvalues --  -38.42923 -38.42863  -2.20083  -2.19824  -2.19723
 Alpha  occ. eigenvalues --   -2.19175  -2.19080  -2.18914  -2.18883  -1.13761
 Alpha  occ. eigenvalues --   -1.13744  -1.13726  -1.13502  -1.13491  -1.13469
 Alpha  occ. eigenvalues --   -1.13407  -1.13397  -1.13333  -1.12885  -1.12844
 Alpha  occ. eigenvalues --   -1.12800  -1.12775  -1.12749  -1.12712  -1.12643
 Alpha  occ. eigenvalues --   -1.12544  -1.12537  -1.12515  -1.12509  -1.12485
 Alpha  occ. eigenvalues --   -0.19046  -0.13415  -0.12414  -0.10310
 Alpha virt. eigenvalues --   -0.05816  -0.05362  -0.04528  -0.03126  -0.02577
 Alpha virt. eigenvalues --   -0.02031  -0.01759  -0.01222  -0.00389  -0.00294
 Alpha virt. eigenvalues --    0.00034   0.00346   0.00767   0.00869   0.00897

  Beta  occ. eigenvalues --  -38.44233 -38.43981 -38.43830 -38.43268 -38.43224
  Beta  occ. eigenvalues --  -38.42841 -38.42793  -2.20082  -2.19818  -2.19712
  Beta  occ. eigenvalues --   -2.19165  -2.19076  -2.18765  -2.18756  -1.13764
  Beta  occ. eigenvalues --   -1.13729  -1.13720  -1.13501  -1.13469  -1.13460
  Beta  occ. eigenvalues --   -1.13403  -1.13355  -1.13331  -1.12877  -1.12803
  Beta  occ. eigenvalues --   -1.12798  -1.12768  -1.12723  -1.12711  -1.12551
  Beta  occ. eigenvalues --   -1.12447  -1.12430  -1.12418  -1.12410  -1.12391
  Beta  occ. eigenvalues --   -0.18325  -0.13162  -0.12151
  Beta virt. eigenvalues --   -0.06406  -0.05782  -0.05366  -0.04531  -0.02315
  Beta virt. eigenvalues --   -0.01817  -0.01666  -0.01164  -0.01015  -0.00437
  Beta virt. eigenvalues --   -0.00349   0.00173   0.00377   0.00814   0.00869

 Mulliken charges and spin densities:
               1          2
     1  Na   0.248851  -0.062573
     2  Na   0.195876  -0.074769
     3  Na   0.240786  -0.094092
     4  Na  -0.467539   0.669765
     5  Na   0.078262  -0.052660
     6  Na  -0.395592   0.726259
     7  Na   0.099356  -0.111931
 Sum of Mulliken charges =  -0.00000   1.00000

 Dipole moment (field-independent basis, Debye):
    X=              0.0700    Y=             -0.0228    Z=              0.0382  Tot=              0.0829
 Quadrupole moment (field-independent basis, Debye-Ang):
   XX=            -52.3210   YY=            -62.0652   ZZ=            -76.8770
   XY=             -0.7769   XZ=             -0.2791   YZ=              0.3539

 Normal termination of Gaussian 16 at Wed Nov 29 00:43:19 2023.
