 Gaussian 16, Revision B.01,
 Gaussian 16:  ES64L-G16RevB.01 20-Dec-2017

 -------------------------
 #P B3LYP/6-311+g(d) force
 -------------------------

 -----
 DPGEN
 -----
 Symbolic Z-matrix:
 Charge =  0 Multiplicity = 2

                         Standard orientation:
 ---------------------------------------------------------------------
 Center     Atomic      Atomic             Coordinates (Angstroms)
 Number     Number       Type             X           Y           Z
 ---------------------------------------------------------------------
      1         11           0        1.542439    2.166436   -0.706951
      2         11           0       -3.280544    0.002998   -1.146824
      3         11           0        3.262352   -1.044272   -0.951920
      4         11           0        0.099961   -0.476984   -1.173136
      5         11           0       -1.435740   -2.527617    0.714155
      6         11           0        1.470172   -0.124323    2.234476
      7         11           0       -1.658640    2.003762    1.030201
 ---------------------------------------------------------------------

 SCF Done:  E(UB3LYP) =  -1136.12737105     A.U. after   23 cycles

 The electronic state is 2-A.
 Alpha  occ. eigenvalues --  -38.44412 -38.44391 -38.44366 -38.43561 -38.43500
 Alpha  occ. eigenvalues --  -38.43224 -38.43047  -2.20235  -2.20220  -2.20194
 Alpha  occ. eigenvalues --   -2.19428  -2.19312  -2.19076  -2.19046  -1.13922
 Alpha  occ. eigenvalues --   -1.13883  -1.13880  -1.13876  -1.13867  -1.13850
 Alpha  occ. eigenvalues --   -1.13844  -1.13834  -1.13809  -1.13197  -1.13077
 Alpha  occ. eigenvalues --   -1.13030  -1.13021  -1.12971  -1.12930  -1.12760
 Alpha  occ. eigenvalues --   -1.12728  -1.12716  -1.12709  -1.12692  -1.12686
 Alpha  occ. eigenvalues --   -0.18258  -0.13491  -0.11310  -0.11286
 Alpha virt. eigenvalues --   -0.06113  -0.04909  -0.04694  -0.03159  -0.02804
 Alpha virt. eigenvalues --   -0.02777  -0.01950  -0.00918  -0.00739   0.00005
 Alpha virt. eigenvalues --    0.00236   0.00299   0.00409   0.00598   0.00823

  Beta  occ. eigenvalues --  -38.44393 -38.44349 -38.44300 -38.43547 -38.43490
  Beta  occ. eigenvalues --  -38.43216 -38.43016  -2.20201  -2.20163  -2.20052
  Beta  occ. eigenvalues --   -2.19406  -2.19297  -2.19034  -2.19023  -1.13891
  Beta  occ. eigenvalues --   -1.13853  -1.13849  -1.13838  -1.13831  -1.13791
  Beta  occ. eigenvalues --   -1.13766  -1.13732  -1.13715  -1.13177  -1.13053
  Beta  occ. eigenvalues --   -1.13020  -1.12998  -1.12954  -1.12912  -1.12719
  Beta  occ. eigenvalues --   -1.12700  -1.12688  -1.12683  -1.12677  -1.12654
  Beta  occ. eigenvalues --   -0.17557  -0.13232  -0.11128
  Beta virt. eigenvalues --   -0.07409  -0.05967  -0.04734  -0.04270  -0.02934
  Beta virt. eigenvalues --   -0.02177  -0.01836  -0.01819  -0.00801  -0.00408
  Beta virt. eigenvalues --    0.00079   0.00270   0.00334   0.00520   0.00751

 Mulliken charges and spin densities:
               1          2
     1  Na   0.039757   0.065394
     2  Na   0.883169  -0.081718
     3  Na   0.280750   0.089101
     4  Na  -0.655272   0.100275
     5  Na  -0.256254   0.180487
     6  Na  -0.123289   0.521975
     7  Na  -0.168861   0.124486
 Sum of Mulliken charges =  -0.00000   1.00000

 Dipole moment (field-independent basis, Debye):
    X=              0.2945    Y=             -0.0906    Z=              0.0738  Tot=              0.3169
 Quadrupole moment (field-independent basis, Debye-Ang):
   XX=            -52.1432   YY=            -72.6967   ZZ=            -67.7010
   XY=             -0.8572   XZ=              0.5319   YZ=             -1.3258

 Normal termination of Gaussian 16 at Thu Dec  7 16:01:03 2023.
