 Gaussian 16, Revision B.01,
 Gaussian 16:  ES64L-G16RevB.01 20-Dec-2017

 -------------------------
 #P B3LYP/6-311+g(d) force
 -------------------------

 -----
 DPGEN
 -----
 Symbolic Z-matrix:
 Charge =  0 Multiplicity = 2

                         Standard orientation:
 ---------------------------------------------------------------------
 Center     Atomic      Atomic             Coordinates (Angstroms)
 Number     Number       Type             X           Y           Z
 ---------------------------------------------------------------------
      1         11           0       -2.839082    1.539614    0.537314
      2         11           0       -2.002119    4.241427   -0.235471
      3         11           0       -3.452148   -1.714360   -1.353136
      4         11           0       -1.199457   -1.897418    1.767037
      5         11           0        5.896208    1.363908   -0.321830
      6         11           0        0.478072   -2.895425   -0.616674
      7         11           0        3.118526   -0.637746    0.222761
 ---------------------------------------------------------------------

 SCF Done:  E(UB3LYP) =  -1136.10625595     A.U. after   20 cycles

 The electronic state is 2-A.
 Alpha  occ. eigenvalues --  -38.46089 -38.44997 -38.44987 -38.44057 -38.43838
 Alpha  occ. eigenvalues --  -38.43518 -38.43356  -2.21885  -2.20824  -2.20793
 Alpha  occ. eigenvalues --   -2.19837  -2.19660  -2.19281  -2.19195  -1.15585
 Alpha  occ. eigenvalues --   -1.15554  -1.15506  -1.14500  -1.14479  -1.14449
 Alpha  occ. eigenvalues --   -1.14437  -1.14429  -1.14394  -1.13482  -1.13482
 Alpha  occ. eigenvalues --   -1.13453  -1.13394  -1.13293  -1.13291  -1.12982
 Alpha  occ. eigenvalues --   -1.12974  -1.12909  -1.12867  -1.12856  -1.12820
 Alpha  occ. eigenvalues --   -0.16595  -0.13495  -0.12425  -0.10966
 Alpha virt. eigenvalues --   -0.07257  -0.05723  -0.04204  -0.03714  -0.02828
 Alpha virt. eigenvalues --   -0.02411  -0.01976  -0.01584  -0.01511  -0.01160
 Alpha virt. eigenvalues --   -0.01038  -0.00333   0.00039   0.00317   0.00478

  Beta  occ. eigenvalues --  -38.46091 -38.44958 -38.44901 -38.43984 -38.43809
  Beta  occ. eigenvalues --  -38.43534 -38.43357  -2.21893  -2.20773  -2.20613
  Beta  occ. eigenvalues --   -2.19699  -2.19606  -2.19316  -2.19201  -1.15589
  Beta  occ. eigenvalues --   -1.15563  -1.15491  -1.14463  -1.14445  -1.14398
  Beta  occ. eigenvalues --   -1.14325  -1.14306  -1.14276  -1.13389  -1.13389
  Beta  occ. eigenvalues --   -1.13364  -1.13360  -1.13256  -1.13254  -1.13011
  Beta  occ. eigenvalues --   -1.13003  -1.12893  -1.12874  -1.12862  -1.12796
  Beta  occ. eigenvalues --   -0.16156  -0.12928  -0.11791
  Beta virt. eigenvalues --   -0.07785  -0.06966  -0.05432  -0.03737  -0.03563
  Beta virt. eigenvalues --   -0.02474  -0.02163  -0.01747  -0.01346  -0.01250
  Beta virt. eigenvalues --   -0.00868  -0.00762  -0.00025   0.00067   0.00408

 Mulliken charges and spin densities:
               1          2
     1  Na  -1.103400  -0.009729
     2  Na   0.511095   0.118633
     3  Na   0.300543   0.468679
     4  Na   0.479785   0.024862
     5  Na  -0.257416   0.314526
     6  Na   0.717807  -0.054674
     7  Na  -0.648413   0.137704
 Sum of Mulliken charges =  -0.00000   1.00000

 Dipole moment (field-independent basis, Debye):
    X=             -0.9315    Y=             -1.4435    Z=             -0.0864  Tot=              1.7202
 Quadrupole moment (field-independent basis, Debye-Ang):
   XX=            -75.9992   YY=            -63.4645   ZZ=            -63.8136
   XY=              8.3547   XZ=             -1.6056   YZ=             -0.9740

 Normal termination of Gaussian 16 at Sun Dec  3 15:45:08 2023.
