 Gaussian 16, Revision B.01,
 Gaussian 16:  ES64L-G16RevB.01 20-Dec-2017

 -------------------------
 #P B3LYP/6-311+g(d) force
 -------------------------

 -----
 DPGEN
 -----
 Symbolic Z-matrix:
 Charge =  0 Multiplicity = 2

                         Standard orientation:
 ---------------------------------------------------------------------
 Center     Atomic      Atomic             Coordinates (Angstroms)
 Number     Number       Type             X           Y           Z
 ---------------------------------------------------------------------
      1         11           0       -3.128067   -0.522194    0.512461
      2         11           0        0.191724    0.163430   -1.463883
      3         11           0        0.026000   -0.279430    2.171134
      4         11           0       -1.663968    2.451772   -0.468018
      5         11           0        2.164020    2.084378    0.013172
      6         11           0       -0.641477   -2.655432   -0.908184
      7         11           0        3.051768   -1.242523    0.143318
 ---------------------------------------------------------------------

 SCF Done:  E(UB3LYP) =  -1136.13218934     A.U. after   18 cycles

 The electronic state is 2-A.
 Alpha  occ. eigenvalues --  -38.44276 -38.44199 -38.44155 -38.43706 -38.43288
 Alpha  occ. eigenvalues --  -38.43278 -38.43042  -2.20083  -2.20047  -2.19980
 Alpha  occ. eigenvalues --   -2.19560  -2.19143  -2.19136  -2.19094  -1.13758
 Alpha  occ. eigenvalues --   -1.13744  -1.13725  -1.13714  -1.13680  -1.13674
 Alpha  occ. eigenvalues --   -1.13640  -1.13632  -1.13621  -1.13284  -1.13221
 Alpha  occ. eigenvalues --   -1.13171  -1.12973  -1.12891  -1.12790  -1.12775
 Alpha  occ. eigenvalues --   -1.12759  -1.12749  -1.12736  -1.12688  -1.12659
 Alpha  occ. eigenvalues --   -0.18537  -0.13191  -0.12042  -0.11061
 Alpha virt. eigenvalues --   -0.05856  -0.05242  -0.04216  -0.03430  -0.02829
 Alpha virt. eigenvalues --   -0.02716  -0.01732  -0.01081  -0.00404  -0.00121
 Alpha virt. eigenvalues --    0.00013   0.00356   0.00760   0.00830   0.00863

  Beta  occ. eigenvalues --  -38.44275 -38.44146 -38.44107 -38.43704 -38.43282
  Beta  occ. eigenvalues --  -38.43249 -38.42981  -2.20083  -2.19966  -2.19877
  Beta  occ. eigenvalues --   -2.19557  -2.19128  -2.19092  -2.18986  -1.13751
  Beta  occ. eigenvalues --   -1.13739  -1.13722  -1.13639  -1.13627  -1.13612
  Beta  occ. eigenvalues --   -1.13595  -1.13562  -1.13530  -1.13277  -1.13210
  Beta  occ. eigenvalues --   -1.13167  -1.12916  -1.12864  -1.12771  -1.12754
  Beta  occ. eigenvalues --   -1.12729  -1.12717  -1.12667  -1.12624  -1.12592
  Beta  occ. eigenvalues --   -0.17832  -0.12986  -0.11751
  Beta virt. eigenvalues --   -0.07145  -0.05727  -0.05245  -0.04119  -0.02698
  Beta virt. eigenvalues --   -0.02134  -0.01693  -0.01594  -0.01030  -0.00365
  Beta virt. eigenvalues --   -0.00131   0.00123   0.00381   0.00815   0.00871

 Mulliken charges and spin densities:
               1          2
     1  Na   0.119697   0.142207
     2  Na  -0.013397   0.095077
     3  Na  -0.411838   0.650634
     4  Na   0.062896   0.001996
     5  Na   0.017177   0.030270
     6  Na   0.123898   0.064689
     7  Na   0.101568   0.015128
 Sum of Mulliken charges =  -0.00000   1.00000

 Dipole moment (field-independent basis, Debye):
    X=              0.2591    Y=             -0.1252    Z=              0.5214  Tot=              0.5955
 Quadrupole moment (field-independent basis, Debye-Ang):
   XX=            -54.0860   YY=            -65.9715   ZZ=            -73.2105
   XY=             -0.3893   XZ=              0.0848   YZ=              0.6974

 Normal termination of Gaussian 16 at Thu Dec  7 23:59:45 2023.
