 Gaussian 16, Revision B.01,
 Gaussian 16:  ES64L-G16RevB.01 20-Dec-2017

 -------------------------
 #P B3LYP/6-311+g(d) force
 -------------------------

 -----
 DPGEN
 -----
 Symbolic Z-matrix:
 Charge =  0 Multiplicity = 2

                         Standard orientation:
 ---------------------------------------------------------------------
 Center     Atomic      Atomic             Coordinates (Angstroms)
 Number     Number       Type             X           Y           Z
 ---------------------------------------------------------------------
      1         11           0        0.082683   -2.685920    0.070216
      2         11           0        1.206358    2.463192   -0.050848
      3         11           0        0.362110   -0.028687    2.003638
      4         11           0        3.077911   -0.746136   -0.157334
      5         11           0        0.231971    0.489687   -1.820158
      6         11           0       -2.286638    2.068707    0.295957
      7         11           0       -2.674393   -1.560843   -0.341472
 ---------------------------------------------------------------------

 SCF Done:  E(UB3LYP) =  -1136.13350489     A.U. after   19 cycles

 The electronic state is 2-A.
 Alpha  occ. eigenvalues --  -38.43879 -38.43830 -38.43692 -38.43682 -38.43676
 Alpha  occ. eigenvalues --  -38.43637 -38.43220  -2.19713  -2.19669  -2.19643
 Alpha  occ. eigenvalues --   -2.19603  -2.19601  -2.19482  -2.19126  -1.13601
 Alpha  occ. eigenvalues --   -1.13391  -1.13380  -1.13359  -1.13333  -1.13316
 Alpha  occ. eigenvalues --   -1.13302  -1.13291  -1.13278  -1.13268  -1.13241
 Alpha  occ. eigenvalues --   -1.13220  -1.13209  -1.13203  -1.13168  -1.13160
 Alpha  occ. eigenvalues --   -1.13133  -1.13111  -1.12800  -1.12779  -1.12744
 Alpha  occ. eigenvalues --   -0.18848  -0.12904  -0.12679  -0.11024
 Alpha virt. eigenvalues --   -0.05530  -0.05099  -0.04614  -0.03240  -0.03110
 Alpha virt. eigenvalues --   -0.02729  -0.01500  -0.00985  -0.00238  -0.00091
 Alpha virt. eigenvalues --   -0.00017   0.00361   0.00847   0.00889   0.00944

  Beta  occ. eigenvalues --  -38.43875 -38.43826 -38.43665 -38.43635 -38.43618
  Beta  occ. eigenvalues --  -38.43591 -38.43215  -2.19709  -2.19638  -2.19599
  Beta  occ. eigenvalues --   -2.19520  -2.19479  -2.19436  -2.19119  -1.13542
  Beta  occ. eigenvalues --   -1.13379  -1.13367  -1.13348  -1.13307  -1.13294
  Beta  occ. eigenvalues --   -1.13290  -1.13257  -1.13224  -1.13191  -1.13184
  Beta  occ. eigenvalues --   -1.13157  -1.13129  -1.13119  -1.13117  -1.13109
  Beta  occ. eigenvalues --   -1.13093  -1.13084  -1.12793  -1.12750  -1.12743
  Beta  occ. eigenvalues --   -0.18096  -0.12652  -0.12454
  Beta virt. eigenvalues --   -0.07097  -0.05507  -0.05036  -0.04571  -0.02406
  Beta virt. eigenvalues --   -0.02366  -0.01677  -0.01425  -0.00918  -0.00279
  Beta virt. eigenvalues --   -0.00122   0.00107   0.00389   0.00866   0.00919

 Mulliken charges and spin densities:
               1          2
     1  Na   0.097323  -0.023754
     2  Na   0.467263  -0.087269
     3  Na  -0.336420   0.677087
     4  Na   0.218643  -0.113992
     5  Na  -0.323715   0.651931
     6  Na  -0.025163  -0.034490
     7  Na  -0.097932  -0.069514
 Sum of Mulliken charges =  -0.00000   1.00000

 Dipole moment (field-independent basis, Debye):
    X=              0.1259    Y=              0.2126    Z=              0.0902  Tot=              0.2630
 Quadrupole moment (field-independent basis, Debye-Ang):
   XX=            -57.5123   YY=            -64.6283   ZZ=            -72.7173
   XY=             -1.4889   XZ=             -0.2878   YZ=              1.2711

 Normal termination of Gaussian 16 at Tue Dec  5 11:07:03 2023.
