 Gaussian 16, Revision B.01,
 Gaussian 16:  ES64L-G16RevB.01 20-Dec-2017

 -------------------------
 #P B3LYP/6-311+g(d) force
 -------------------------

 -----
 DPGEN
 -----
 Symbolic Z-matrix:
 Charge =  0 Multiplicity = 2

                         Standard orientation:
 ---------------------------------------------------------------------
 Center     Atomic      Atomic             Coordinates (Angstroms)
 Number     Number       Type             X           Y           Z
 ---------------------------------------------------------------------
      1         11           0       -0.176452   -0.233067    2.318562
      2         11           0       -2.487546   -1.519246   -0.743243
      3         11           0        3.060287   -0.557436   -0.059790
      4         11           0        0.817584   -2.654855   -0.159751
      5         11           0        1.294544    2.972325   -0.222231
      6         11           0        0.147653    0.535000   -1.372904
      7         11           0       -2.656071    1.457279    0.239358
 ---------------------------------------------------------------------

 SCF Done:  E(UB3LYP) =  -1136.13159788     A.U. after   19 cycles

 The electronic state is 2-A.
 Alpha  occ. eigenvalues --  -38.44217 -38.44111 -38.44095 -38.43617 -38.43588
 Alpha  occ. eigenvalues --  -38.43136 -38.42958  -2.20068  -2.19967  -2.19943
 Alpha  occ. eigenvalues --   -2.19465  -2.19448  -2.19030  -2.18991  -1.13773
 Alpha  occ. eigenvalues --   -1.13725  -1.13699  -1.13664  -1.13631  -1.13607
 Alpha  occ. eigenvalues --   -1.13589  -1.13570  -1.13554  -1.13225  -1.13140
 Alpha  occ. eigenvalues --   -1.13112  -1.13102  -1.13089  -1.13061  -1.12720
 Alpha  occ. eigenvalues --   -1.12681  -1.12679  -1.12659  -1.12620  -1.12611
 Alpha  occ. eigenvalues --   -0.18649  -0.13191  -0.12328  -0.11010
 Alpha virt. eigenvalues --   -0.05794  -0.05011  -0.04586  -0.03332  -0.02890
 Alpha virt. eigenvalues --   -0.02758  -0.01514  -0.01132  -0.00380  -0.00187
 Alpha virt. eigenvalues --   -0.00026   0.00342   0.00829   0.00841   0.00932

  Beta  occ. eigenvalues --  -38.44216 -38.44105 -38.43983 -38.43617 -38.43569
  Beta  occ. eigenvalues --  -38.43130 -38.42917  -2.20068  -2.19959  -2.19735
  Beta  occ. eigenvalues --   -2.19449  -2.19432  -2.19022  -2.18918  -1.13774
  Beta  occ. eigenvalues --   -1.13708  -1.13702  -1.13660  -1.13607  -1.13594
  Beta  occ. eigenvalues --   -1.13453  -1.13427  -1.13408  -1.13217  -1.13113
  Beta  occ. eigenvalues --   -1.13089  -1.13082  -1.13070  -1.13063  -1.12713
  Beta  occ. eigenvalues --   -1.12677  -1.12647  -1.12605  -1.12569  -1.12560
  Beta  occ. eigenvalues --   -0.17936  -0.12989  -0.12116
  Beta virt. eigenvalues --   -0.06999  -0.05739  -0.04932  -0.04555  -0.02558
  Beta virt. eigenvalues --   -0.02132  -0.01715  -0.01433  -0.01043  -0.00382
  Beta virt. eigenvalues --   -0.00205   0.00136   0.00388   0.00841   0.00916

 Mulliken charges and spin densities:
               1          2
     1  Na  -0.595685   0.679247
     2  Na   0.261537   0.068870
     3  Na   0.102426   0.000879
     4  Na   0.231372   0.095268
     5  Na   0.182602   0.036703
     6  Na  -0.361479  -0.011387
     7  Na   0.179228   0.130420
 Sum of Mulliken charges =  -0.00000   1.00000

 Dipole moment (field-independent basis, Debye):
    X=              0.0364    Y=              0.1621    Z=              0.3724  Tot=              0.4077
 Quadrupole moment (field-independent basis, Debye-Ang):
   XX=            -57.3003   YY=            -63.6374   ZZ=            -73.5129
   XY=             -0.3329   XZ=              0.8454   YZ=              2.1118

 Normal termination of Gaussian 16 at Thu Dec  7 07:30:21 2023.
