 Gaussian 16, Revision B.01,
 Gaussian 16:  ES64L-G16RevB.01 20-Dec-2017

 -------------------------
 #P B3LYP/6-311+g(d) force
 -------------------------

 -----
 DPGEN
 -----
 Symbolic Z-matrix:
 Charge =  0 Multiplicity = 2

                         Standard orientation:
 ---------------------------------------------------------------------
 Center     Atomic      Atomic             Coordinates (Angstroms)
 Number     Number       Type             X           Y           Z
 ---------------------------------------------------------------------
      1         11           0       -0.330807    2.085637    0.240681
      2         11           0        5.645918   -0.292966    0.316516
      3         11           0        2.387250    1.390740   -0.697009
      4         11           0        3.046887   -1.619764   -0.109308
      5         11           0       -0.600668   -1.011964   -0.143746
      6         11           0       -3.750536   -0.067367    1.026178
      7         11           0       -6.398044   -0.484317   -0.633311
 ---------------------------------------------------------------------

 SCF Done:  E(UB3LYP) =  -1136.11379193     A.U. after   21 cycles

 The electronic state is 2-A.
 Alpha  occ. eigenvalues --  -38.44518 -38.44391 -38.44249 -38.44136 -38.43964
 Alpha  occ. eigenvalues --  -38.43818 -38.43764  -2.20351  -2.20316  -2.20054
 Alpha  occ. eigenvalues --   -2.20027  -2.19869  -2.19705  -2.19586  -1.14103
 Alpha  occ. eigenvalues --   -1.14039  -1.14010  -1.13997  -1.13983  -1.13950
 Alpha  occ. eigenvalues --   -1.13718  -1.13699  -1.13697  -1.13683  -1.13682
 Alpha  occ. eigenvalues --   -1.13636  -1.13547  -1.13512  -1.13505  -1.13369
 Alpha  occ. eigenvalues --   -1.13345  -1.13314  -1.13261  -1.13250  -1.13207
 Alpha  occ. eigenvalues --   -0.17527  -0.14365  -0.12227  -0.10823
 Alpha virt. eigenvalues --   -0.07164  -0.04876  -0.04296  -0.04044  -0.03020
 Alpha virt. eigenvalues --   -0.02248  -0.01964  -0.01935  -0.00816  -0.00626
 Alpha virt. eigenvalues --   -0.00153   0.00074   0.00236   0.00402   0.00693

  Beta  occ. eigenvalues --  -38.44514 -38.44340 -38.44244 -38.44101 -38.43927
  Beta  occ. eigenvalues --  -38.43763 -38.43759  -2.20344  -2.20226  -2.20017
  Beta  occ. eigenvalues --   -2.19991  -2.19804  -2.19596  -2.19585  -1.14091
  Beta  occ. eigenvalues --   -1.13993  -1.13978  -1.13959  -1.13936  -1.13893
  Beta  occ. eigenvalues --   -1.13691  -1.13676  -1.13675  -1.13675  -1.13660
  Beta  occ. eigenvalues --   -1.13572  -1.13503  -1.13465  -1.13441  -1.13297
  Beta  occ. eigenvalues --   -1.13276  -1.13254  -1.13246  -1.13240  -1.13198
  Beta  occ. eigenvalues --   -0.16854  -0.14287  -0.11920
  Beta virt. eigenvalues --   -0.07162  -0.06736  -0.04384  -0.04161  -0.03828
  Beta virt. eigenvalues --   -0.02393  -0.02168  -0.01849  -0.01473  -0.00557
  Beta virt. eigenvalues --   -0.00391  -0.00044   0.00300   0.00399   0.00594

 Mulliken charges and spin densities:
               1          2
     1  Na  -0.097679   0.290725
     2  Na   0.526094   0.033107
     3  Na   0.072660   0.157142
     4  Na  -0.603307   0.057001
     5  Na  -0.262000   0.390570
     6  Na   0.140841   0.078646
     7  Na   0.223392  -0.007189
 Sum of Mulliken charges =  -0.00000   1.00000

 Dipole moment (field-independent basis, Debye):
    X=              1.0938    Y=              0.0921    Z=             -0.0677  Tot=              1.0997
 Quadrupole moment (field-independent basis, Debye-Ang):
   XX=            -53.3571   YY=            -72.4301   ZZ=            -68.9035
   XY=             -0.2093   XZ=              5.1476   YZ=              1.5778

 Normal termination of Gaussian 16 at Wed Nov 29 00:50:08 2023.
