 Gaussian 16, Revision B.01,
 Gaussian 16:  ES64L-G16RevB.01 20-Dec-2017

 -------------------------
 #P B3LYP/6-311+g(d) force
 -------------------------

 -----
 DPGEN
 -----
 Symbolic Z-matrix:
 Charge =  0 Multiplicity = 2

                         Standard orientation:
 ---------------------------------------------------------------------
 Center     Atomic      Atomic             Coordinates (Angstroms)
 Number     Number       Type             X           Y           Z
 ---------------------------------------------------------------------
      1         11           0       -0.089899    0.011333   -1.731019
      2         11           0        3.173224    0.427581   -0.360046
      3         11           0       -0.324968   -0.817810    1.935583
      4         11           0       -2.778536   -1.441044   -0.389798
      5         11           0        1.008762    2.301027    0.526750
      6         11           0       -2.335376    1.982204    0.006381
      7         11           0        1.346793   -2.463291    0.012148
 ---------------------------------------------------------------------

 SCF Done:  E(UB3LYP) =  -1136.13325141     A.U. after   20 cycles

 The electronic state is 2-A.
 Alpha  occ. eigenvalues --  -38.44247 -38.44190 -38.43718 -38.43490 -38.43456
 Alpha  occ. eigenvalues --  -38.43408 -38.42986  -2.20089  -2.20061  -2.19563
 Alpha  occ. eigenvalues --   -2.19426  -2.19418  -2.19296  -2.18901  -1.13777
 Alpha  occ. eigenvalues --   -1.13772  -1.13756  -1.13715  -1.13711  -1.13690
 Alpha  occ. eigenvalues --   -1.13245  -1.13226  -1.13205  -1.13180  -1.13112
 Alpha  occ. eigenvalues --   -1.13074  -1.13052  -1.13045  -1.13035  -1.12944
 Alpha  occ. eigenvalues --   -1.12928  -1.12899  -1.12577  -1.12551  -1.12542
 Alpha  occ. eigenvalues --   -0.18920  -0.13418  -0.12276  -0.10942
 Alpha virt. eigenvalues --   -0.05906  -0.05302  -0.04071  -0.03416  -0.03003
 Alpha virt. eigenvalues --   -0.02534  -0.01728  -0.01085  -0.00280  -0.00035
 Alpha virt. eigenvalues --    0.00068   0.00346   0.00765   0.00822   0.00925

  Beta  occ. eigenvalues --  -38.44236 -38.44185 -38.43716 -38.43406 -38.43400
  Beta  occ. eigenvalues --  -38.43388 -38.42973  -2.20073  -2.20054  -2.19562
  Beta  occ. eigenvalues --   -2.19303  -2.19289  -2.19262  -2.18879  -1.13774
  Beta  occ. eigenvalues --   -1.13752  -1.13733  -1.13705  -1.13691  -1.13686
  Beta  occ. eigenvalues --   -1.13243  -1.13212  -1.13199  -1.13111  -1.13031
  Beta  occ. eigenvalues --   -1.12993  -1.12956  -1.12948  -1.12932  -1.12911
  Beta  occ. eigenvalues --   -1.12901  -1.12855  -1.12565  -1.12539  -1.12502
  Beta  occ. eigenvalues --   -0.18195  -0.13168  -0.12023
  Beta virt. eigenvalues --   -0.07037  -0.05857  -0.05281  -0.03981  -0.02672
  Beta virt. eigenvalues --   -0.02219  -0.01619  -0.01505  -0.01046  -0.00300
  Beta virt. eigenvalues --    0.00044   0.00120   0.00378   0.00816   0.00861

 Mulliken charges and spin densities:
               1          2
     1  Na  -0.341759   0.474018
     2  Na   0.044931   0.031110
     3  Na  -0.398915   0.569821
     4  Na   0.256497  -0.089179
     5  Na   0.088665   0.086396
     6  Na   0.020505   0.007308
     7  Na   0.330077  -0.079474
 Sum of Mulliken charges =  -0.00000   1.00000

 Dipole moment (field-independent basis, Debye):
    X=             -0.2923    Y=             -0.2493    Z=             -0.0822  Tot=              0.3929
 Quadrupole moment (field-independent basis, Debye-Ang):
   XX=            -53.9029   YY=            -67.2921   ZZ=            -73.0086
   XY=             -0.2051   XZ=             -0.2962   YZ=              1.5294

 Normal termination of Gaussian 16 at Thu Dec  7 15:16:59 2023.
