 Gaussian 16, Revision B.01,
 Gaussian 16:  ES64L-G16RevB.01 20-Dec-2017

 -------------------------
 #P B3LYP/6-311+g(d) force
 -------------------------

 -----
 DPGEN
 -----
 Symbolic Z-matrix:
 Charge =  0 Multiplicity = 2

                         Standard orientation:
 ---------------------------------------------------------------------
 Center     Atomic      Atomic             Coordinates (Angstroms)
 Number     Number       Type             X           Y           Z
 ---------------------------------------------------------------------
      1         11           0       -3.258537   -0.368287   -0.104373
      2         11           0       -0.770270   -2.693975    0.226771
      3         11           0        2.806568   -1.446224   -0.513630
      4         11           0        0.668327   -0.196592    1.689768
      5         11           0        2.416600    1.914277   -0.063051
      6         11           0       -0.445669    0.250918   -1.494358
      7         11           0       -1.417020    2.539884    0.258873
 ---------------------------------------------------------------------

 SCF Done:  E(UB3LYP) =  -1136.13392175     A.U. after   20 cycles

 The electronic state is 2-A.
 Alpha  occ. eigenvalues --  -38.44376 -38.44106 -38.43948 -38.43482 -38.43126
 Alpha  occ. eigenvalues --  -38.43119 -38.42846  -2.20229  -2.19950  -2.19802
 Alpha  occ. eigenvalues --   -2.19350  -2.19135  -2.18999  -2.18835  -1.13919
 Alpha  occ. eigenvalues --   -1.13882  -1.13866  -1.13628  -1.13610  -1.13588
 Alpha  occ. eigenvalues --   -1.13489  -1.13463  -1.13425  -1.13110  -1.13007
 Alpha  occ. eigenvalues --   -1.12963  -1.12832  -1.12764  -1.12747  -1.12707
 Alpha  occ. eigenvalues --   -1.12656  -1.12623  -1.12509  -1.12461  -1.12440
 Alpha  occ. eigenvalues --   -0.18880  -0.13577  -0.12340  -0.10189
 Alpha virt. eigenvalues --   -0.05957  -0.05489  -0.04465  -0.03254  -0.02588
 Alpha virt. eigenvalues --   -0.01900  -0.01814  -0.01212  -0.00489  -0.00318
 Alpha virt. eigenvalues --    0.00028   0.00333   0.00757   0.00838   0.00869

  Beta  occ. eigenvalues --  -38.44374 -38.44089 -38.43941 -38.43476 -38.43116
  Beta  occ. eigenvalues --  -38.43067 -38.42768  -2.20227  -2.19920  -2.19793
  Beta  occ. eigenvalues --   -2.19342  -2.19040  -2.18986  -2.18693  -1.13911
  Beta  occ. eigenvalues --   -1.13875  -1.13862  -1.13609  -1.13575  -1.13565
  Beta  occ. eigenvalues --   -1.13477  -1.13444  -1.13412  -1.13096  -1.12988
  Beta  occ. eigenvalues --   -1.12952  -1.12767  -1.12712  -1.12676  -1.12674
  Beta  occ. eigenvalues --   -1.12622  -1.12619  -1.12416  -1.12361  -1.12336
  Beta  occ. eigenvalues --   -0.18200  -0.13320  -0.12086
  Beta virt. eigenvalues --   -0.06379  -0.05847  -0.05472  -0.04432  -0.02507
  Beta virt. eigenvalues --   -0.01855  -0.01723  -0.01164  -0.00937  -0.00495
  Beta virt. eigenvalues --   -0.00352   0.00175   0.00387   0.00822   0.00843

 Mulliken charges and spin densities:
               1          2
     1  Na   0.213834  -0.038951
     2  Na   0.116974  -0.075091
     3  Na  -0.018034   0.095338
     4  Na  -0.218388   0.615884
     5  Na   0.167839   0.015578
     6  Na  -0.311342   0.478859
     7  Na   0.049116  -0.091617
 Sum of Mulliken charges =  -0.00000   1.00000

 Dipole moment (field-independent basis, Debye):
    X=             -0.0404    Y=              0.0773    Z=              0.0293  Tot=              0.0920
 Quadrupole moment (field-independent basis, Debye-Ang):
   XX=            -51.9578   YY=            -63.0181   ZZ=            -76.5980
   XY=              0.2559   XZ=             -2.0774   YZ=              1.2179

 Normal termination of Gaussian 16 at Wed Nov 29 00:05:55 2023.
