 Gaussian 16, Revision B.01,
 Gaussian 16:  ES64L-G16RevB.01 20-Dec-2017

 -------------------------
 #P B3LYP/6-311+g(d) force
 -------------------------

 -----
 DPGEN
 -----
 Symbolic Z-matrix:
 Charge =  0 Multiplicity = 2

                         Standard orientation:
 ---------------------------------------------------------------------
 Center     Atomic      Atomic             Coordinates (Angstroms)
 Number     Number       Type             X           Y           Z
 ---------------------------------------------------------------------
      1         11           0        3.165373    0.529086   -0.121167
      2         11           0        0.274967   -0.234161   -1.573964
      3         11           0       -2.717372   -1.911263   -0.414517
      4         11           0       -2.651628    1.708652   -0.190452
      5         11           0        1.681273   -2.855810    0.152040
      6         11           0       -0.541138   -0.262503    2.079098
      7         11           0        0.788525    3.025998    0.068962
 ---------------------------------------------------------------------

 SCF Done:  E(UB3LYP) =  -1136.13501146     A.U. after   19 cycles

 The electronic state is 2-A.
 Alpha  occ. eigenvalues --  -38.44268 -38.44137 -38.44128 -38.44039 -38.43524
 Alpha  occ. eigenvalues --  -38.43392 -38.43316  -2.20060  -2.19950  -2.19939
 Alpha  occ. eigenvalues --   -2.19826  -2.19371  -2.19234  -2.19200  -1.13732
 Alpha  occ. eigenvalues --   -1.13714  -1.13704  -1.13640  -1.13617  -1.13615
 Alpha  occ. eigenvalues --   -1.13604  -1.13578  -1.13571  -1.13502  -1.13484
 Alpha  occ. eigenvalues --   -1.13465  -1.13037  -1.12998  -1.12987  -1.12928
 Alpha  occ. eigenvalues --   -1.12882  -1.12871  -1.12865  -1.12851  -1.12844
 Alpha  occ. eigenvalues --   -0.17971  -0.13031  -0.12240  -0.10315
 Alpha virt. eigenvalues --   -0.05962  -0.05474  -0.04979  -0.03129  -0.02737
 Alpha virt. eigenvalues --   -0.02349  -0.01662  -0.01434  -0.00816  -0.00637
 Alpha virt. eigenvalues --   -0.00025   0.00332   0.00730   0.00757   0.00797

  Beta  occ. eigenvalues --  -38.44257 -38.44132 -38.44126 -38.44037 -38.43428
  Beta  occ. eigenvalues --  -38.43391 -38.43264  -2.20041  -2.19947  -2.19934
  Beta  occ. eigenvalues --   -2.19824  -2.19202  -2.19193  -2.19140  -1.13707
  Beta  occ. eigenvalues --   -1.13699  -1.13690  -1.13633  -1.13604  -1.13604
  Beta  occ. eigenvalues --   -1.13592  -1.13580  -1.13567  -1.13493  -1.13476
  Beta  occ. eigenvalues --   -1.13464  -1.12919  -1.12877  -1.12873  -1.12864
  Beta  occ. eigenvalues --   -1.12859  -1.12851  -1.12841  -1.12798  -1.12793
  Beta  occ. eigenvalues --   -0.17297  -0.12815  -0.12055
  Beta virt. eigenvalues --   -0.06477  -0.05946  -0.05380  -0.04904  -0.02416
  Beta virt. eigenvalues --   -0.02051  -0.01552  -0.01375  -0.01300  -0.00866
  Beta virt. eigenvalues --   -0.00673   0.00143   0.00383   0.00744   0.00820

 Mulliken charges and spin densities:
               1          2
     1  Na   0.160153  -0.013912
     2  Na   0.031101   0.380611
     3  Na   0.139791  -0.029197
     4  Na   0.108587   0.006736
     5  Na   0.046499  -0.083806
     6  Na  -0.413702   0.792575
     7  Na  -0.072429  -0.053008
 Sum of Mulliken charges =  -0.00000   1.00000

 Dipole moment (field-independent basis, Debye):
    X=             -0.0819    Y=             -0.3084    Z=             -0.0002  Tot=              0.3191
 Quadrupole moment (field-independent basis, Debye-Ang):
   XX=            -55.8584   YY=            -60.2111   ZZ=            -76.6950
   XY=             -0.2970   XZ=              1.6339   YZ=              0.0636

 Normal termination of Gaussian 16 at Thu Dec  7 03:09:50 2023.
