 Gaussian 16, Revision B.01,
 Gaussian 16:  ES64L-G16RevB.01 20-Dec-2017

 -------------------------
 #P B3LYP/6-311+g(d) force
 -------------------------

 -----
 DPGEN
 -----
 Symbolic Z-matrix:
 Charge =  0 Multiplicity = 2

                         Standard orientation:
 ---------------------------------------------------------------------
 Center     Atomic      Atomic             Coordinates (Angstroms)
 Number     Number       Type             X           Y           Z
 ---------------------------------------------------------------------
      1         11           0        3.150036    0.756541   -0.179153
      2         11           0        0.211831    0.328919    2.103412
      3         11           0        0.464775   -0.509995   -1.632573
      4         11           0        1.936133   -2.389207   -0.049577
      5         11           0       -2.973707    0.923687   -0.747362
      6         11           0       -2.687296   -2.029535    0.463147
      7         11           0       -0.101772    2.919590    0.042106
 ---------------------------------------------------------------------

 SCF Done:  E(UB3LYP) =  -1136.12790958     A.U. after   20 cycles

 The electronic state is 2-A.
 Alpha  occ. eigenvalues --  -38.44783 -38.44050 -38.44011 -38.43891 -38.43812
 Alpha  occ. eigenvalues --  -38.43693 -38.42906  -2.20620  -2.19841  -2.19837
 Alpha  occ. eigenvalues --   -2.19784  -2.19749  -2.19559  -2.18736  -1.14311
 Alpha  occ. eigenvalues --   -1.14286  -1.14239  -1.13690  -1.13580  -1.13512
 Alpha  occ. eigenvalues --   -1.13500  -1.13483  -1.13472  -1.13435  -1.13432
 Alpha  occ. eigenvalues --   -1.13399  -1.13383  -1.13354  -1.13293  -1.13222
 Alpha  occ. eigenvalues --   -1.13194  -1.13174  -1.12420  -1.12399  -1.12373
 Alpha  occ. eigenvalues --   -0.18264  -0.13475  -0.11913  -0.10737
 Alpha virt. eigenvalues --   -0.06156  -0.05373  -0.04421  -0.03448  -0.02904
 Alpha virt. eigenvalues --   -0.02551  -0.01842  -0.01080  -0.00578  -0.00306
 Alpha virt. eigenvalues --   -0.00051   0.00333   0.00708   0.00751   0.00789

  Beta  occ. eigenvalues --  -38.44776 -38.44046 -38.43996 -38.43887 -38.43762
  Beta  occ. eigenvalues --  -38.43598 -38.42903  -2.20610  -2.19833  -2.19812
  Beta  occ. eigenvalues --   -2.19772  -2.19667  -2.19384  -2.18734  -1.14295
  Beta  occ. eigenvalues --   -1.14273  -1.14229  -1.13658  -1.13572  -1.13491
  Beta  occ. eigenvalues --   -1.13480  -1.13470  -1.13459  -1.13422  -1.13406
  Beta  occ. eigenvalues --   -1.13376  -1.13338  -1.13299  -1.13245  -1.13106
  Beta  occ. eigenvalues --   -1.13072  -1.13048  -1.12416  -1.12386  -1.12366
  Beta  occ. eigenvalues --   -0.17562  -0.13257  -0.11710
  Beta virt. eigenvalues --   -0.06919  -0.06090  -0.05220  -0.04310  -0.02797
  Beta virt. eigenvalues --   -0.02182  -0.01779  -0.01563  -0.00964  -0.00597
  Beta virt. eigenvalues --   -0.00300   0.00097   0.00377   0.00785   0.00835

 Mulliken charges and spin densities:
               1          2
     1  Na   0.137062  -0.061997
     2  Na  -0.285310   0.741244
     3  Na   0.102495   0.296730
     4  Na   0.167518   0.005555
     5  Na   0.065126   0.016476
     6  Na  -0.095267   0.041892
     7  Na  -0.091625  -0.039900
 Sum of Mulliken charges =  -0.00000   1.00000

 Dipole moment (field-independent basis, Debye):
    X=              0.5525    Y=             -0.1610    Z=              0.0601  Tot=              0.5786
 Quadrupole moment (field-independent basis, Debye-Ang):
   XX=            -55.0186   YY=            -65.7161   ZZ=            -74.0209
   XY=              0.7310   XZ=              0.6323   YZ=             -2.9416

 Normal termination of Gaussian 16 at Tue Dec  5 20:34:03 2023.
