 Gaussian 16, Revision B.01,
 Gaussian 16:  ES64L-G16RevB.01 20-Dec-2017

 -------------------------
 #P B3LYP/6-311+g(d) force
 -------------------------

 -----
 DPGEN
 -----
 Symbolic Z-matrix:
 Charge =  0 Multiplicity = 2

                         Standard orientation:
 ---------------------------------------------------------------------
 Center     Atomic      Atomic             Coordinates (Angstroms)
 Number     Number       Type             X           Y           Z
 ---------------------------------------------------------------------
      1         11           0        0.113991   -0.228683    1.643984
      2         11           0       -0.474913    3.047245   -0.598139
      3         11           0        0.181172   -1.388988   -0.758841
      4         11           0        2.475815    1.222808   -0.168728
      5         11           0       -3.152949   -2.217505   -0.415868
      6         11           0        3.764875   -1.432496   -0.054259
      7         11           0       -2.907991    0.997619    0.351850
 ---------------------------------------------------------------------

 SCF Done:  E(UB3LYP) =  -1136.11485834     A.U. after   23 cycles

 The electronic state is 2-A.
 Alpha  occ. eigenvalues --  -38.44694 -38.44416 -38.44338 -38.44015 -38.43959
 Alpha  occ. eigenvalues --  -38.43808 -38.43161  -2.20646  -2.20277  -2.20194
 Alpha  occ. eigenvalues --   -2.19965  -2.19948  -2.19633  -2.18983  -1.14611
 Alpha  occ. eigenvalues --   -1.14288  -1.14191  -1.14030  -1.13920  -1.13887
 Alpha  occ. eigenvalues --   -1.13882  -1.13859  -1.13829  -1.13647  -1.13627
 Alpha  occ. eigenvalues --   -1.13605  -1.13551  -1.13524  -1.13508  -1.13301
 Alpha  occ. eigenvalues --   -1.13288  -1.13257  -1.12654  -1.12650  -1.12616
 Alpha  occ. eigenvalues --   -0.18576  -0.14330  -0.12201  -0.09979
 Alpha virt. eigenvalues --   -0.06821  -0.05945  -0.04418  -0.03403  -0.02791
 Alpha virt. eigenvalues --   -0.02345  -0.01854  -0.01346  -0.01010  -0.00353
 Alpha virt. eigenvalues --   -0.00009   0.00058   0.00467   0.00628   0.00705

  Beta  occ. eigenvalues --  -38.44685 -38.44376 -38.44322 -38.44000 -38.43856
  Beta  occ. eigenvalues --  -38.43782 -38.43155  -2.20634  -2.20205  -2.20167
  Beta  occ. eigenvalues --   -2.19925  -2.19777  -2.19586  -2.18970  -1.14545
  Beta  occ. eigenvalues --   -1.14281  -1.14200  -1.13983  -1.13871  -1.13860
  Beta  occ. eigenvalues --   -1.13833  -1.13822  -1.13805  -1.13615  -1.13587
  Beta  occ. eigenvalues --   -1.13523  -1.13495  -1.13410  -1.13378  -1.13270
  Beta  occ. eigenvalues --   -1.13251  -1.13222  -1.12646  -1.12643  -1.12602
  Beta  occ. eigenvalues --   -0.18015  -0.13775  -0.12045
  Beta virt. eigenvalues --   -0.06559  -0.06550  -0.05689  -0.04206  -0.02772
  Beta virt. eigenvalues --   -0.02590  -0.02005  -0.01632  -0.00930  -0.00719
  Beta virt. eigenvalues --   -0.00196   0.00121   0.00261   0.00601   0.00716

 Mulliken charges and spin densities:
               1          2
     1  Na  -0.093760   0.025780
     2  Na  -0.263931  -0.129672
     3  Na  -1.128804  -0.025401
     4  Na  -0.003235   0.426879
     5  Na   0.406746   0.035839
     6  Na   0.952048   0.233897
     7  Na   0.130936   0.432677
 Sum of Mulliken charges =  -0.00000   1.00000

 Dipole moment (field-independent basis, Debye):
    X=              0.1817    Y=             -0.6987    Z=              0.6635  Tot=              0.9805
 Quadrupole moment (field-independent basis, Debye-Ang):
   XX=            -64.9481   YY=            -67.3927   ZZ=            -69.4687
   XY=             -1.3083   XZ=              0.1096   YZ=              0.9967

 Normal termination of Gaussian 16 at Tue Dec  5 14:14:02 2023.
