 Gaussian 16, Revision B.01,
 Gaussian 16:  ES64L-G16RevB.01 20-Dec-2017

 -------------------------
 #P B3LYP/6-311+g(d) force
 -------------------------

 -----
 DPGEN
 -----
 Symbolic Z-matrix:
 Charge =  0 Multiplicity = 2

                         Standard orientation:
 ---------------------------------------------------------------------
 Center     Atomic      Atomic             Coordinates (Angstroms)
 Number     Number       Type             X           Y           Z
 ---------------------------------------------------------------------
      1         11           0        2.815469   -1.763039    0.040229
      2         11           0        0.239185    0.147055    2.167944
      3         11           0       -0.330374   -2.297048   -0.520548
      4         11           0       -1.837568    2.362107   -0.216501
      5         11           0        2.546378    2.100000    0.035462
      6         11           0       -3.457599   -0.912181    0.360410
      7         11           0        0.024510    0.363106   -1.866996
 ---------------------------------------------------------------------

 SCF Done:  E(UB3LYP) =  -1136.12776060     A.U. after   20 cycles

 The electronic state is 2-A.
 Alpha  occ. eigenvalues --  -38.44585 -38.44339 -38.44140 -38.44125 -38.43893
 Alpha  occ. eigenvalues --  -38.43721 -38.42764  -2.20357  -2.20169  -2.19934
 Alpha  occ. eigenvalues --   -2.19914  -2.19705  -2.19662  -2.18684  -1.14025
 Alpha  occ. eigenvalues --   -1.14020  -1.13993  -1.13837  -1.13802  -1.13786
 Alpha  occ. eigenvalues --   -1.13610  -1.13600  -1.13596  -1.13580  -1.13565
 Alpha  occ. eigenvalues --   -1.13552  -1.13450  -1.13377  -1.13362  -1.13319
 Alpha  occ. eigenvalues --   -1.13273  -1.13254  -1.12406  -1.12335  -1.12286
 Alpha  occ. eigenvalues --   -0.18207  -0.12958  -0.11899  -0.11032
 Alpha virt. eigenvalues --   -0.06180  -0.05676  -0.03807  -0.03374  -0.02953
 Alpha virt. eigenvalues --   -0.02895  -0.01959  -0.01396  -0.00446  -0.00148
 Alpha virt. eigenvalues --    0.00024   0.00298   0.00652   0.00660   0.00741

  Beta  occ. eigenvalues --  -38.44581 -38.44252 -38.44141 -38.44126 -38.43886
  Beta  occ. eigenvalues --  -38.43639 -38.42747  -2.20350  -2.20008  -2.19940
  Beta  occ. eigenvalues --   -2.19918  -2.19696  -2.19513  -2.18658  -1.14018
  Beta  occ. eigenvalues --   -1.14009  -1.13991  -1.13729  -1.13690  -1.13669
  Beta  occ. eigenvalues --   -1.13616  -1.13593  -1.13584  -1.13576  -1.13569
  Beta  occ. eigenvalues --   -1.13555  -1.13419  -1.13349  -1.13316  -1.13268
  Beta  occ. eigenvalues --   -1.13176  -1.13155  -1.12379  -1.12298  -1.12269
  Beta  occ. eigenvalues --   -0.17449  -0.12782  -0.11658
  Beta virt. eigenvalues --   -0.07157  -0.06038  -0.05644  -0.03789  -0.02673
  Beta virt. eigenvalues --   -0.02156  -0.01938  -0.01768  -0.01329  -0.00507
  Beta virt. eigenvalues --   -0.00040   0.00049   0.00318   0.00712   0.00756

 Mulliken charges and spin densities:
               1          2
     1  Na   0.055658  -0.071792
     2  Na  -0.456014   0.737722
     3  Na   0.182855   0.104040
     4  Na   0.085766  -0.083317
     5  Na   0.020491  -0.131118
     6  Na  -0.063497   0.031088
     7  Na   0.174741   0.413377
 Sum of Mulliken charges =  -0.00000   1.00000

 Dipole moment (field-independent basis, Debye):
    X=              0.0388    Y=              0.2645    Z=              0.3889  Tot=              0.4719
 Quadrupole moment (field-independent basis, Debye-Ang):
   XX=            -52.0260   YY=            -68.6879   ZZ=            -72.7958
   XY=             -0.0480   XZ=             -0.9812   YZ=             -0.2599

 Normal termination of Gaussian 16 at Thu Dec  7 18:05:21 2023.
