 Gaussian 16, Revision B.01,
 Gaussian 16:  ES64L-G16RevB.01 20-Dec-2017

 -------------------------
 #P B3LYP/6-311+g(d) force
 -------------------------

 -----
 DPGEN
 -----
 Symbolic Z-matrix:
 Charge =  0 Multiplicity = 2

                         Standard orientation:
 ---------------------------------------------------------------------
 Center     Atomic      Atomic             Coordinates (Angstroms)
 Number     Number       Type             X           Y           Z
 ---------------------------------------------------------------------
      1         11           0       -3.103768    1.107185   -0.476608
      2         11           0        0.367153    0.498166   -1.514904
      3         11           0       -0.185703   -0.752045    1.993020
      4         11           0       -3.231321   -2.301811    0.049026
      5         11           0        3.379982    0.619837    0.590215
      6         11           0        2.812642   -2.239680   -0.846690
      7         11           0       -0.038986    3.068348    0.205942
 ---------------------------------------------------------------------

 SCF Done:  E(UB3LYP) =  -1136.12280768     A.U. after   21 cycles

 The electronic state is 2-A.
 Alpha  occ. eigenvalues --  -38.45140 -38.44390 -38.44221 -38.44067 -38.43987
 Alpha  occ. eigenvalues --  -38.43861 -38.42992  -2.20939  -2.20195  -2.20017
 Alpha  occ. eigenvalues --   -2.19950  -2.19801  -2.19623  -2.18826  -1.14610
 Alpha  occ. eigenvalues --   -1.14599  -1.14585  -1.13887  -1.13859  -1.13807
 Alpha  occ. eigenvalues --   -1.13695  -1.13664  -1.13645  -1.13626  -1.13611
 Alpha  occ. eigenvalues --   -1.13557  -1.13462  -1.13447  -1.13437  -1.13295
 Alpha  occ. eigenvalues --   -1.13289  -1.13265  -1.12517  -1.12481  -1.12457
 Alpha  occ. eigenvalues --   -0.17527  -0.13593  -0.11644  -0.10350
 Alpha virt. eigenvalues --   -0.06500  -0.05802  -0.04709  -0.03264  -0.02810
 Alpha virt. eigenvalues --   -0.02321  -0.02146  -0.01437  -0.00985  -0.00519
 Alpha virt. eigenvalues --   -0.00227   0.00215   0.00467   0.00572   0.00668

  Beta  occ. eigenvalues --  -38.45136 -38.44374 -38.44130 -38.44036 -38.43956
  Beta  occ. eigenvalues --  -38.43870 -38.42991  -2.20935  -2.20167  -2.19892
  Beta  occ. eigenvalues --   -2.19848  -2.19744  -2.19640  -2.18825  -1.14603
  Beta  occ. eigenvalues --   -1.14599  -1.14563  -1.13859  -1.13840  -1.13793
  Beta  occ. eigenvalues --   -1.13605  -1.13588  -1.13570  -1.13548  -1.13513
  Beta  occ. eigenvalues --   -1.13488  -1.13425  -1.13402  -1.13397  -1.13309
  Beta  occ. eigenvalues --   -1.13294  -1.13276  -1.12517  -1.12481  -1.12441
  Beta  occ. eigenvalues --   -0.16885  -0.13385  -0.11477
  Beta virt. eigenvalues --   -0.06700  -0.06252  -0.05634  -0.04505  -0.02800
  Beta virt. eigenvalues --   -0.02259  -0.02022  -0.01604  -0.01171  -0.00904
  Beta virt. eigenvalues --   -0.00445  -0.00035   0.00280   0.00598   0.00683

 Mulliken charges and spin densities:
               1          2
     1  Na   0.072323   0.058443
     2  Na   0.122245   0.076670
     3  Na  -0.413499   0.561113
     4  Na   0.038552  -0.078921
     5  Na   0.225357   0.146087
     6  Na   0.035921   0.154760
     7  Na  -0.080899   0.081849
 Sum of Mulliken charges =  -0.00000   1.00000

 Dipole moment (field-independent basis, Debye):
    X=              0.5656    Y=              0.1380    Z=              0.1496  Tot=              0.6011
 Quadrupole moment (field-independent basis, Debye-Ang):
   XX=            -56.1979   YY=            -64.2698   ZZ=            -75.2668
   XY=              0.7739   XZ=              2.7683   YZ=              3.5931

 Normal termination of Gaussian 16 at Thu Dec  7 09:53:12 2023.
