 Gaussian 16, Revision B.01,
 Gaussian 16:  ES64L-G16RevB.01 20-Dec-2017

 -------------------------
 #P B3LYP/6-311+g(d) force
 -------------------------

 -----
 DPGEN
 -----
 Symbolic Z-matrix:
 Charge =  0 Multiplicity = 2

                         Standard orientation:
 ---------------------------------------------------------------------
 Center     Atomic      Atomic             Coordinates (Angstroms)
 Number     Number       Type             X           Y           Z
 ---------------------------------------------------------------------
      1         11           0       -0.992038    0.841628    2.067774
      2         11           0        3.365700   -0.217754   -1.269373
      3         11           0        1.434519    1.864099    0.256405
      4         11           0       -3.356927   -1.442541   -0.289387
      5         11           0        1.533586   -1.519378    1.760396
      6         11           0       -0.008667   -1.363184   -1.375751
      7         11           0       -1.976173    1.837130   -1.150064
 ---------------------------------------------------------------------

 SCF Done:  E(UB3LYP) =  -1136.12946558     A.U. after   22 cycles

 The electronic state is 2-A.
 Alpha  occ. eigenvalues --  -38.44709 -38.44415 -38.44195 -38.43973 -38.43247
 Alpha  occ. eigenvalues --  -38.43121 -38.42931  -2.20560  -2.20241  -2.20031
 Alpha  occ. eigenvalues --   -2.19755  -2.19091  -2.19003  -2.18842  -1.14238
 Alpha  occ. eigenvalues --   -1.14190  -1.14167  -1.13928  -1.13890  -1.13843
 Alpha  occ. eigenvalues --   -1.13716  -1.13684  -1.13647  -1.13427  -1.13414
 Alpha  occ. eigenvalues --   -1.13394  -1.12803  -1.12786  -1.12718  -1.12683
 Alpha  occ. eigenvalues --   -1.12656  -1.12635  -1.12519  -1.12499  -1.12462
 Alpha  occ. eigenvalues --   -0.18299  -0.13453  -0.11789  -0.11146
 Alpha virt. eigenvalues --   -0.06148  -0.05194  -0.04519  -0.03264  -0.02911
 Alpha virt. eigenvalues --   -0.02809  -0.01915  -0.00953  -0.00751  -0.00085
 Alpha virt. eigenvalues --    0.00184   0.00291   0.00449   0.00637   0.00805

  Beta  occ. eigenvalues --  -38.44630 -38.44377 -38.44169 -38.43977 -38.43237
  Beta  occ. eigenvalues --  -38.43093 -38.42911  -2.20415  -2.20170  -2.19984
  Beta  occ. eigenvalues --   -2.19763  -2.19077  -2.18955  -2.18809  -1.14136
  Beta  occ. eigenvalues --   -1.14092  -1.14056  -1.13874  -1.13847  -1.13793
  Beta  occ. eigenvalues --   -1.13677  -1.13649  -1.13617  -1.13428  -1.13420
  Beta  occ. eigenvalues --   -1.13400  -1.12784  -1.12761  -1.12691  -1.12678
  Beta  occ. eigenvalues --   -1.12616  -1.12581  -1.12498  -1.12450  -1.12441
  Beta  occ. eigenvalues --   -0.17537  -0.13252  -0.10999
  Beta virt. eigenvalues --   -0.07855  -0.05859  -0.04776  -0.04262  -0.02974
  Beta virt. eigenvalues --   -0.02324  -0.02143  -0.01769  -0.00708  -0.00435
  Beta virt. eigenvalues --    0.00054   0.00287   0.00341   0.00547   0.00699

 Mulliken charges and spin densities:
               1          2
     1  Na   0.389558   0.341166
     2  Na   0.448582  -0.107199
     3  Na  -0.246753   0.397934
     4  Na   0.078613  -0.063593
     5  Na  -0.247383   0.080439
     6  Na  -0.372643   0.459227
     7  Na  -0.049975  -0.107974
 Sum of Mulliken charges =  -0.00000   1.00000

 Dipole moment (field-independent basis, Debye):
    X=              0.0785    Y=             -0.0631    Z=              0.0518  Tot=              0.1132
 Quadrupole moment (field-independent basis, Debye-Ang):
   XX=            -53.9931   YY=            -72.6698   ZZ=            -68.2485
   XY=             -1.2447   XZ=             -1.7738   YZ=             -7.8060

 Normal termination of Gaussian 16 at Tue Dec  5 20:24:52 2023.
