 Gaussian 16, Revision B.01,
 Gaussian 16:  ES64L-G16RevB.01 20-Dec-2017

 -------------------------
 #P B3LYP/6-311+g(d) force
 -------------------------

 -----
 DPGEN
 -----
 Symbolic Z-matrix:
 Charge =  0 Multiplicity = 2

                         Standard orientation:
 ---------------------------------------------------------------------
 Center     Atomic      Atomic             Coordinates (Angstroms)
 Number     Number       Type             X           Y           Z
 ---------------------------------------------------------------------
      1         11           0        2.979113   -2.157887    0.648795
      2         11           0        2.959318    0.348026   -1.491267
      3         11           0       -0.790635    3.106219   -0.902954
      4         11           0       -3.346123   -2.668183   -0.665252
      5         11           0        1.366645    1.389294    1.527139
      6         11           0       -0.148626   -1.053593    0.042262
      7         11           0       -3.019692    1.036124    0.841278
 ---------------------------------------------------------------------

 SCF Done:  E(UB3LYP) =  -1136.12018250     A.U. after   25 cycles

 The electronic state is 2-A.
 Alpha  occ. eigenvalues --  -38.45091 -38.44949 -38.44214 -38.43972 -38.43734
 Alpha  occ. eigenvalues --  -38.43727 -38.43495  -2.20857  -2.20768  -2.20070
 Alpha  occ. eigenvalues --   -2.19752  -2.19592  -2.19485  -2.19391  -1.14553
 Alpha  occ. eigenvalues --   -1.14534  -1.14462  -1.14445  -1.14429  -1.14399
 Alpha  occ. eigenvalues --   -1.13785  -1.13733  -1.13657  -1.13427  -1.13408
 Alpha  occ. eigenvalues --   -1.13391  -1.13254  -1.13232  -1.13211  -1.13156
 Alpha  occ. eigenvalues --   -1.13150  -1.13111  -1.13100  -1.13077  -1.12992
 Alpha  occ. eigenvalues --   -0.17642  -0.13659  -0.11837  -0.09855
 Alpha virt. eigenvalues --   -0.06710  -0.05742  -0.05353  -0.03169  -0.02560
 Alpha virt. eigenvalues --   -0.02251  -0.01786  -0.01465  -0.01254  -0.00704
 Alpha virt. eigenvalues --   -0.00163   0.00169   0.00186   0.00376   0.00589

  Beta  occ. eigenvalues --  -38.45093 -38.44940 -38.44166 -38.43965 -38.43716
  Beta  occ. eigenvalues --  -38.43660 -38.43477  -2.20861  -2.20756  -2.19986
  Beta  occ. eigenvalues --   -2.19739  -2.19462  -2.19454  -2.19363  -1.14550
  Beta  occ. eigenvalues --   -1.14535  -1.14466  -1.14439  -1.14409  -1.14378
  Beta  occ. eigenvalues --   -1.13727  -1.13655  -1.13596  -1.13417  -1.13396
  Beta  occ. eigenvalues --   -1.13378  -1.13159  -1.13139  -1.13137  -1.13134
  Beta  occ. eigenvalues --   -1.13115  -1.13096  -1.13064  -1.13043  -1.12976
  Beta  occ. eigenvalues --   -0.17025  -0.13461  -0.11669
  Beta virt. eigenvalues --   -0.06617  -0.06217  -0.05504  -0.04987  -0.02786
  Beta virt. eigenvalues --   -0.02242  -0.02111  -0.01544  -0.01069  -0.00879
  Beta virt. eigenvalues --   -0.00470   0.00122   0.00265   0.00299   0.00466

 Mulliken charges and spin densities:
               1          2
     1  Na   1.576027  -0.017616
     2  Na   0.043978   0.400224
     3  Na   0.014432   0.098967
     4  Na  -0.040781   0.086211
     5  Na   0.875871   0.156149
     6  Na  -2.619145   0.268346
     7  Na   0.149619   0.007717
 Sum of Mulliken charges =  -0.00000   1.00000

 Dipole moment (field-independent basis, Debye):
    X=              0.0952    Y=              0.0536    Z=              0.8823  Tot=              0.8890
 Quadrupole moment (field-independent basis, Debye-Ang):
   XX=            -57.0930   YY=            -63.1779   ZZ=            -73.6806
   XY=             -6.6591   XZ=              3.0394   YZ=              0.5011

 Normal termination of Gaussian 16 at Tue Dec  5 14:48:28 2023.
