 Gaussian 16, Revision B.01,
 Gaussian 16:  ES64L-G16RevB.01 20-Dec-2017

 -------------------------
 #P B3LYP/6-311+g(d) force
 -------------------------

 -----
 DPGEN
 -----
 Symbolic Z-matrix:
 Charge =  0 Multiplicity = 2

                         Standard orientation:
 ---------------------------------------------------------------------
 Center     Atomic      Atomic             Coordinates (Angstroms)
 Number     Number       Type             X           Y           Z
 ---------------------------------------------------------------------
      1         11           0       -3.401929   -2.061659   -0.385996
      2         11           0        3.291138    0.634813   -0.715850
      3         11           0       -2.598567    1.683876    0.035992
      4         11           0        0.390724    2.890223   -0.226137
      5         11           0        0.208360    0.170411    1.985820
      6         11           0        2.276055   -2.638180    0.285001
      7         11           0       -0.165781   -0.679484   -0.978829
 ---------------------------------------------------------------------

 SCF Done:  E(UB3LYP) =  -1136.12754831     A.U. after   22 cycles

 The electronic state is 2-A.
 Alpha  occ. eigenvalues --  -38.44374 -38.44372 -38.44146 -38.43874 -38.43807
 Alpha  occ. eigenvalues --  -38.43599 -38.43052  -2.20210  -2.20174  -2.19960
 Alpha  occ. eigenvalues --   -2.19704  -2.19641  -2.19538  -2.18916  -1.13906
 Alpha  occ. eigenvalues --   -1.13879  -1.13853  -1.13828  -1.13825  -1.13816
 Alpha  occ. eigenvalues --   -1.13633  -1.13607  -1.13581  -1.13465  -1.13330
 Alpha  occ. eigenvalues --   -1.13311  -1.13299  -1.13284  -1.13273  -1.13243
 Alpha  occ. eigenvalues --   -1.13194  -1.13124  -1.12595  -1.12578  -1.12559
 Alpha  occ. eigenvalues --   -0.18172  -0.13383  -0.12091  -0.10189
 Alpha virt. eigenvalues --   -0.06287  -0.05879  -0.04652  -0.03038  -0.02579
 Alpha virt. eigenvalues --   -0.02110  -0.01964  -0.01588  -0.01038  -0.00430
 Alpha virt. eigenvalues --   -0.00120   0.00182   0.00600   0.00639   0.00749

  Beta  occ. eigenvalues --  -38.44372 -38.44367 -38.44102 -38.43859 -38.43710
  Beta  occ. eigenvalues --  -38.43587 -38.43047  -2.20209  -2.20166  -2.19879
  Beta  occ. eigenvalues --   -2.19613  -2.19529  -2.19517  -2.18910  -1.13907
  Beta  occ. eigenvalues --   -1.13869  -1.13850  -1.13824  -1.13813  -1.13801
  Beta  occ. eigenvalues --   -1.13569  -1.13554  -1.13523  -1.13369  -1.13290
  Beta  occ. eigenvalues --   -1.13279  -1.13256  -1.13213  -1.13187  -1.13178
  Beta  occ. eigenvalues --   -1.13145  -1.13115  -1.12593  -1.12575  -1.12529
  Beta  occ. eigenvalues --   -0.17566  -0.13122  -0.11773
  Beta virt. eigenvalues --   -0.06657  -0.06028  -0.05659  -0.04515  -0.02493
  Beta virt. eigenvalues --   -0.02103  -0.01805  -0.01651  -0.01049  -0.00947
  Beta virt. eigenvalues --   -0.00378   0.00079   0.00286   0.00638   0.00717

 Mulliken charges and spin densities:
               1          2
     1  Na   0.195767   0.096666
     2  Na   0.296592   0.256539
     3  Na   0.330635   0.019302
     4  Na  -0.181778   0.058743
     5  Na  -0.102056   0.334367
     6  Na   0.072945   0.045565
     7  Na  -0.612106   0.188818
 Sum of Mulliken charges =  -0.00000   1.00000

 Dipole moment (field-independent basis, Debye):
    X=              0.1815    Y=             -0.2687    Z=              0.5863  Tot=              0.6700
 Quadrupole moment (field-independent basis, Debye-Ang):
   XX=            -56.7667   YY=            -61.9476   ZZ=            -74.9303
   XY=             -4.1649   XZ=             -0.4908   YZ=             -0.8751

 Normal termination of Gaussian 16 at Thu Dec  7 04:25:10 2023.
