 Gaussian 16, Revision B.01,
 Gaussian 16:  ES64L-G16RevB.01 20-Dec-2017

 -------------------------
 #P B3LYP/6-311+g(d) force
 -------------------------

 -----
 DPGEN
 -----
 Symbolic Z-matrix:
 Charge =  0 Multiplicity = 2

                         Standard orientation:
 ---------------------------------------------------------------------
 Center     Atomic      Atomic             Coordinates (Angstroms)
 Number     Number       Type             X           Y           Z
 ---------------------------------------------------------------------
      1         11           0       -1.388841   -0.097310    1.480396
      2         11           0       -2.421086    2.134344   -0.452687
      3         11           0        1.658442   -1.181177    1.538255
      4         11           0       -0.397614   -0.001871   -1.650307
      5         11           0        1.367495    2.546216    0.576112
      6         11           0       -1.755838   -2.875688   -0.286985
      7         11           0        2.937441   -0.524514   -1.204784
 ---------------------------------------------------------------------

 SCF Done:  E(UB3LYP) =  -1136.12915942     A.U. after   19 cycles

 The electronic state is 2-A.
 Alpha  occ. eigenvalues --  -38.44392 -38.43830 -38.43742 -38.43675 -38.43655
 Alpha  occ. eigenvalues --  -38.43357 -38.43219  -2.20169  -2.19686  -2.19630
 Alpha  occ. eigenvalues --   -2.19517  -2.19480  -2.19327  -2.19206  -1.13854
 Alpha  occ. eigenvalues --   -1.13835  -1.13787  -1.13436  -1.13359  -1.13329
 Alpha  occ. eigenvalues --   -1.13301  -1.13244  -1.13242  -1.13214  -1.13210
 Alpha  occ. eigenvalues --   -1.13157  -1.13153  -1.13120  -1.13118  -1.13024
 Alpha  occ. eigenvalues --   -1.12958  -1.12933  -1.12888  -1.12849  -1.12789
 Alpha  occ. eigenvalues --   -0.18543  -0.12952  -0.12014  -0.11277
 Alpha virt. eigenvalues --   -0.05785  -0.05036  -0.04301  -0.03432  -0.02943
 Alpha virt. eigenvalues --   -0.02698  -0.01496  -0.01280  -0.00453   0.00182
 Alpha virt. eigenvalues --    0.00260   0.00382   0.00483   0.00753   0.00912

  Beta  occ. eigenvalues --  -38.44381 -38.43803 -38.43700 -38.43676 -38.43650
  Beta  occ. eigenvalues --  -38.43291 -38.43172  -2.20150  -2.19637  -2.19556
  Beta  occ. eigenvalues --   -2.19510  -2.19483  -2.19208  -2.19124  -1.13826
  Beta  occ. eigenvalues --   -1.13820  -1.13778  -1.13396  -1.13309  -1.13272
  Beta  occ. eigenvalues --   -1.13266  -1.13232  -1.13192  -1.13188  -1.13166
  Beta  occ. eigenvalues --   -1.13154  -1.13146  -1.13119  -1.13115  -1.12949
  Beta  occ. eigenvalues --   -1.12873  -1.12853  -1.12828  -1.12772  -1.12732
  Beta  occ. eigenvalues --   -0.17786  -0.12767  -0.11826
  Beta virt. eigenvalues --   -0.07293  -0.05742  -0.04871  -0.03917  -0.03062
  Beta virt. eigenvalues --   -0.02283  -0.01789  -0.01366  -0.01208  -0.00142
  Beta virt. eigenvalues --    0.00179   0.00272   0.00415   0.00588   0.00756

 Mulliken charges and spin densities:
               1          2
     1  Na  -0.023998   0.368691
     2  Na   0.435173  -0.064459
     3  Na  -0.016284   0.144552
     4  Na  -0.380137   0.428294
     5  Na  -0.307268   0.078747
     6  Na   0.042447  -0.001728
     7  Na   0.250067   0.045903
 Sum of Mulliken charges =  -0.00000   1.00000

 Dipole moment (field-independent basis, Debye):
    X=              0.1858    Y=              0.2515    Z=             -0.0669  Tot=              0.3197
 Quadrupole moment (field-independent basis, Debye-Ang):
   XX=            -60.8695   YY=            -62.6367   ZZ=            -69.7389
   XY=              0.2595   XZ=              0.2470   YZ=              1.2185

 Normal termination of Gaussian 16 at Thu Dec  7 05:31:38 2023.
