 Gaussian 16, Revision B.01,
 Gaussian 16:  ES64L-G16RevB.01 20-Dec-2017

 -------------------------
 #P B3LYP/6-311+g(d) force
 -------------------------

 -----
 DPGEN
 -----
 Symbolic Z-matrix:
 Charge =  0 Multiplicity = 2

                         Standard orientation:
 ---------------------------------------------------------------------
 Center     Atomic      Atomic             Coordinates (Angstroms)
 Number     Number       Type             X           Y           Z
 ---------------------------------------------------------------------
      1         11           0        5.196374   -0.279101    0.110794
      2         11           0       -1.087512   -2.687017   -0.574514
      3         11           0       -4.659617   -1.745117   -0.484152
      4         11           0       -3.715830    1.974483    0.900522
      5         11           0       -0.926799    3.113455   -0.181915
      6         11           0        3.041644    1.606383   -0.867744
      7         11           0        2.151739   -1.983085    1.097009
 ---------------------------------------------------------------------

 SCF Done:  E(UB3LYP) =  -1136.10527600     A.U. after   24 cycles

 The electronic state is 2-A.
 Alpha  occ. eigenvalues --  -38.45802 -38.44925 -38.44921 -38.44854 -38.43992
 Alpha  occ. eigenvalues --  -38.43987 -38.43416  -2.21597  -2.20766  -2.20679
 Alpha  occ. eigenvalues --   -2.20642  -2.19765  -2.19723  -2.19205  -1.15280
 Alpha  occ. eigenvalues --   -1.15261  -1.15243  -1.14431  -1.14406  -1.14390
 Alpha  occ. eigenvalues --   -1.14362  -1.14360  -1.14318  -1.14314  -1.14299
 Alpha  occ. eigenvalues --   -1.14241  -1.13425  -1.13420  -1.13412  -1.13402
 Alpha  occ. eigenvalues --   -1.13394  -1.13346  -1.12863  -1.12862  -1.12845
 Alpha  occ. eigenvalues --   -0.16031  -0.13937  -0.12361  -0.10830
 Alpha virt. eigenvalues --   -0.07622  -0.05175  -0.04762  -0.03737  -0.03259
 Alpha virt. eigenvalues --   -0.02459  -0.02304  -0.01480  -0.01328  -0.00944
 Alpha virt. eigenvalues --   -0.00624  -0.00476   0.00187   0.00383   0.00448

  Beta  occ. eigenvalues --  -38.45779 -38.44941 -38.44885 -38.44788 -38.43998
  Beta  occ. eigenvalues --  -38.43924 -38.43388  -2.21559  -2.20710  -2.20701
  Beta  occ. eigenvalues --   -2.20520  -2.19749  -2.19637  -2.19150  -1.15246
  Beta  occ. eigenvalues --   -1.15231  -1.15205  -1.14386  -1.14379  -1.14377
  Beta  occ. eigenvalues --   -1.14363  -1.14347  -1.14324  -1.14232  -1.14216
  Beta  occ. eigenvalues --   -1.14150  -1.13443  -1.13431  -1.13347  -1.13337
  Beta  occ. eigenvalues --   -1.13313  -1.13302  -1.12828  -1.12825  -1.12812
  Beta  occ. eigenvalues --   -0.15444  -0.13572  -0.11812
  Beta virt. eigenvalues --   -0.07576  -0.07519  -0.04657  -0.04338  -0.03518
  Beta virt. eigenvalues --   -0.02910  -0.02332  -0.02136  -0.01202  -0.00840
  Beta virt. eigenvalues --   -0.00750  -0.00421  -0.00357   0.00282   0.00497

 Mulliken charges and spin densities:
               1          2
     1  Na   0.955475   0.122587
     2  Na  -0.321537  -0.103592
     3  Na   0.308462   0.420209
     4  Na  -0.070569  -0.052711
     5  Na  -0.166115   0.146424
     6  Na  -0.362992   0.173634
     7  Na  -0.342725   0.293450
 Sum of Mulliken charges =  -0.00000   1.00000

 Dipole moment (field-independent basis, Debye):
    X=              2.1409    Y=              0.1124    Z=              0.2055  Tot=              2.1537
 Quadrupole moment (field-independent basis, Debye-Ang):
   XX=            -53.3653   YY=            -75.6865   ZZ=            -69.7800
   XY=             -4.3148   XZ=             -0.3802   YZ=             -1.3300

 Normal termination of Gaussian 16 at Sun Dec  3 15:09:47 2023.
