 Gaussian 16, Revision B.01,
 Gaussian 16:  ES64L-G16RevB.01 20-Dec-2017

 -------------------------
 #P B3LYP/6-311+g(d) force
 -------------------------

 -----
 DPGEN
 -----
 Symbolic Z-matrix:
 Charge =  0 Multiplicity = 2

                         Standard orientation:
 ---------------------------------------------------------------------
 Center     Atomic      Atomic             Coordinates (Angstroms)
 Number     Number       Type             X           Y           Z
 ---------------------------------------------------------------------
      1         11           0        0.555527    2.582642   -0.231809
      2         11           0       -0.745352   -0.162393    2.227165
      3         11           0       -3.349711    1.429531   -0.247848
      4         11           0       -3.737079   -2.365288   -0.178926
      5         11           0       -0.964932   -0.439599   -1.387546
      6         11           0        2.938406    0.206992    0.037600
      7         11           0        5.303141   -1.251886   -0.218636
 ---------------------------------------------------------------------

 SCF Done:  E(UB3LYP) =  -1136.10929226     A.U. after   25 cycles

 The electronic state is 2-A.
 Alpha  occ. eigenvalues --  -38.45884 -38.45575 -38.44395 -38.44232 -38.43723
 Alpha  occ. eigenvalues --  -38.43418 -38.42974  -2.21695  -2.21435  -2.20222
 Alpha  occ. eigenvalues --   -2.20002  -2.19547  -2.19254  -2.18872  -1.15395
 Alpha  occ. eigenvalues --   -1.15362  -1.15286  -1.15128  -1.15110  -1.15027
 Alpha  occ. eigenvalues --   -1.13886  -1.13855  -1.13811  -1.13686  -1.13662
 Alpha  occ. eigenvalues --   -1.13631  -1.13232  -1.13210  -1.13181  -1.13094
 Alpha  occ. eigenvalues --   -1.12881  -1.12880  -1.12531  -1.12520  -1.12455
 Alpha  occ. eigenvalues --   -0.17837  -0.13728  -0.11370  -0.10809
 Alpha virt. eigenvalues --   -0.07553  -0.05966  -0.04025  -0.03268  -0.02935
 Alpha virt. eigenvalues --   -0.02597  -0.02023  -0.01859  -0.01153  -0.00771
 Alpha virt. eigenvalues --   -0.00625  -0.00021   0.00202   0.00425   0.00493

  Beta  occ. eigenvalues --  -38.45845 -38.45557 -38.44279 -38.44230 -38.43721
  Beta  occ. eigenvalues --  -38.43422 -38.42973  -2.21625  -2.21407  -2.20006
  Beta  occ. eigenvalues --   -2.20000  -2.19544  -2.19261  -2.18870  -1.15343
  Beta  occ. eigenvalues --   -1.15304  -1.15236  -1.15094  -1.15071  -1.15013
  Beta  occ. eigenvalues --   -1.13737  -1.13710  -1.13686  -1.13659  -1.13650
  Beta  occ. eigenvalues --   -1.13631  -1.13233  -1.13191  -1.13179  -1.13099
  Beta  occ. eigenvalues --   -1.12885  -1.12885  -1.12530  -1.12515  -1.12456
  Beta  occ. eigenvalues --   -0.17137  -0.13621  -0.11244
  Beta virt. eigenvalues --   -0.07354  -0.06762  -0.05876  -0.03811  -0.02847
  Beta virt. eigenvalues --   -0.02624  -0.01983  -0.01572  -0.01512  -0.01075
  Beta virt. eigenvalues --   -0.00559  -0.00431   0.00031   0.00339   0.00484

 Mulliken charges and spin densities:
               1          2
     1  Na   1.237098   0.084206
     2  Na  -0.267191   0.558216
     3  Na   0.263151   0.101667
     4  Na   0.241447  -0.008062
     5  Na  -0.168611   0.298076
     6  Na  -0.225779   0.094603
     7  Na  -1.080115  -0.128706
 Sum of Mulliken charges =  -0.00000   1.00000

 Dipole moment (field-independent basis, Debye):
    X=             -2.5902    Y=              0.5962    Z=              0.0293  Tot=              2.6581
 Quadrupole moment (field-independent basis, Debye-Ang):
   XX=            -64.3910   YY=            -64.1655   ZZ=            -73.0205
   XY=             -2.4282   XZ=             -2.9597   YZ=              3.2839

 Normal termination of Gaussian 16 at Thu Dec  7 05:04:07 2023.
