 Gaussian 16, Revision B.01,
 Gaussian 16:  ES64L-G16RevB.01 20-Dec-2017

 -------------------------
 #P B3LYP/6-311+g(d) force
 -------------------------

 -----
 DPGEN
 -----
 Symbolic Z-matrix:
 Charge =  0 Multiplicity = 2

                         Standard orientation:
 ---------------------------------------------------------------------
 Center     Atomic      Atomic             Coordinates (Angstroms)
 Number     Number       Type             X           Y           Z
 ---------------------------------------------------------------------
      1         11           0       -4.509706    2.941951    0.284085
      2         11           0       -1.585911   -0.734020    1.520040
      3         11           0        7.734195    0.900288   -0.133636
      4         11           0        4.816865   -0.597122   -0.468152
      5         11           0        1.680822    0.015862    0.203212
      6         11           0       -4.865532    0.172541   -1.280190
      7         11           0       -3.270733   -2.699501   -0.125358
 ---------------------------------------------------------------------

 SCF Done:  E(UB3LYP) =  -1136.10483523     A.U. after   20 cycles

 The electronic state is 2-A.
 Alpha  occ. eigenvalues --  -38.44885 -38.44871 -38.44743 -38.44195 -38.44172
 Alpha  occ. eigenvalues --  -38.44094 -38.43905  -2.20724  -2.20673  -2.20537
 Alpha  occ. eigenvalues --   -2.20003  -2.19971  -2.19899  -2.19706  -1.14441
 Alpha  occ. eigenvalues --   -1.14358  -1.14344  -1.14314  -1.14313  -1.14300
 Alpha  occ. eigenvalues --   -1.14211  -1.14198  -1.14166  -1.13685  -1.13669
 Alpha  occ. eigenvalues --   -1.13656  -1.13652  -1.13627  -1.13626  -1.13541
 Alpha  occ. eigenvalues --   -1.13540  -1.13498  -1.13378  -1.13376  -1.13362
 Alpha  occ. eigenvalues --   -0.16020  -0.14299  -0.12209  -0.11443
 Alpha virt. eigenvalues --   -0.07306  -0.05186  -0.04173  -0.03486  -0.03279
 Alpha virt. eigenvalues --   -0.02613  -0.02210  -0.02101  -0.01289  -0.00920
 Alpha virt. eigenvalues --   -0.00685  -0.00556   0.00058   0.00307   0.00457

  Beta  occ. eigenvalues --  -38.44812 -38.44797 -38.44771 -38.44190 -38.44132
  Beta  occ. eigenvalues --  -38.44031 -38.43918  -2.20597  -2.20583  -2.20537
  Beta  occ. eigenvalues --   -2.20011  -2.19886  -2.19781  -2.19736  -1.14388
  Beta  occ. eigenvalues --   -1.14271  -1.14256  -1.14240  -1.14222  -1.14222
  Beta  occ. eigenvalues --   -1.14220  -1.14212  -1.14161  -1.13684  -1.13682
  Beta  occ. eigenvalues --   -1.13638  -1.13596  -1.13574  -1.13557  -1.13461
  Beta  occ. eigenvalues --   -1.13459  -1.13434  -1.13404  -1.13400  -1.13338
  Beta  occ. eigenvalues --   -0.15578  -0.13708  -0.11562
  Beta virt. eigenvalues --   -0.08352  -0.06854  -0.04754  -0.03793  -0.03335
  Beta virt. eigenvalues --   -0.03127  -0.02391  -0.01945  -0.01881  -0.00926
  Beta virt. eigenvalues --   -0.00665  -0.00421  -0.00251   0.00243   0.00352

 Mulliken charges and spin densities:
               1          2
     1  Na   0.216098   0.322723
     2  Na  -0.558567  -0.158596
     3  Na   0.227632   0.333268
     4  Na  -0.106021  -0.030043
     5  Na  -0.084804   0.292046
     6  Na  -0.219812  -0.091912
     7  Na   0.525474   0.332515
 Sum of Mulliken charges =  -0.00000   1.00000

 Dipole moment (field-independent basis, Debye):
    X=              0.0071    Y=             -0.2602    Z=              0.1146  Tot=              0.2844
 Quadrupole moment (field-independent basis, Debye-Ang):
   XX=            -62.2507   YY=            -65.5775   ZZ=            -69.3454
   XY=              9.4520   XZ=              0.3488   YZ=              5.5236

 Normal termination of Gaussian 16 at Sun Dec  3 14:29:38 2023.
