 Gaussian 16, Revision B.01,
 Gaussian 16:  ES64L-G16RevB.01 20-Dec-2017

 -------------------------
 #P B3LYP/6-311+g(d) force
 -------------------------

 -----
 DPGEN
 -----
 Symbolic Z-matrix:
 Charge =  0 Multiplicity = 2

                         Standard orientation:
 ---------------------------------------------------------------------
 Center     Atomic      Atomic             Coordinates (Angstroms)
 Number     Number       Type             X           Y           Z
 ---------------------------------------------------------------------
      1         11           0        2.364780    1.593250   -0.677031
      2         11           0       -1.062352   -2.605163   -0.261268
      3         11           0        2.731619   -1.643738    0.538982
      4         11           0        0.066343    0.008012    1.804045
      5         11           0       -3.411495   -0.027654   -0.045716
      6         11           0        0.075339   -0.113792   -1.742637
      7         11           0       -0.764236    2.789086    0.383625
 ---------------------------------------------------------------------

 SCF Done:  E(UB3LYP) =  -1136.13507139     A.U. after   19 cycles

 The electronic state is 2-A.
 Alpha  occ. eigenvalues --  -38.44532 -38.43815 -38.43602 -38.43463 -38.43427
 Alpha  occ. eigenvalues --  -38.43384 -38.43095  -2.20314  -2.19644  -2.19499
 Alpha  occ. eigenvalues --   -2.19444  -2.19375  -2.19252  -2.18946  -1.13995
 Alpha  occ. eigenvalues --   -1.13962  -1.13958  -1.13330  -1.13309  -1.13290
 Alpha  occ. eigenvalues --   -1.13279  -1.13163  -1.13132  -1.13111  -1.13072
 Alpha  occ. eigenvalues --   -1.13048  -1.13029  -1.13023  -1.12988  -1.12921
 Alpha  occ. eigenvalues --   -1.12909  -1.12851  -1.12635  -1.12601  -1.12569
 Alpha  occ. eigenvalues --   -0.18713  -0.13069  -0.12290  -0.10913
 Alpha virt. eigenvalues --   -0.05937  -0.04848  -0.04498  -0.03262  -0.02907
 Alpha virt. eigenvalues --   -0.02543  -0.01801  -0.01059  -0.00291  -0.00189
 Alpha virt. eigenvalues --    0.00033   0.00328   0.00792   0.00871   0.00886

  Beta  occ. eigenvalues --  -38.44535 -38.43801 -38.43579 -38.43388 -38.43376
  Beta  occ. eigenvalues --  -38.43349 -38.43088  -2.20320  -2.19621  -2.19460
  Beta  occ. eigenvalues --   -2.19308  -2.19241  -2.19233  -2.18936  -1.13993
  Beta  occ. eigenvalues --   -1.13966  -1.13959  -1.13306  -1.13277  -1.13266
  Beta  occ. eigenvalues --   -1.13234  -1.13101  -1.13090  -1.13072  -1.12996
  Beta  occ. eigenvalues --   -1.12955  -1.12942  -1.12932  -1.12889  -1.12880
  Beta  occ. eigenvalues --   -1.12876  -1.12842  -1.12618  -1.12586  -1.12559
  Beta  occ. eigenvalues --   -0.18002  -0.12818  -0.11999
  Beta virt. eigenvalues --   -0.07009  -0.05903  -0.04792  -0.04464  -0.02536
  Beta virt. eigenvalues --   -0.02154  -0.01720  -0.01496  -0.00955  -0.00285
  Beta virt. eigenvalues --   -0.00203   0.00122   0.00354   0.00829   0.00903

 Mulliken charges and spin densities:
               1          2
     1  Na   0.223773   0.073179
     2  Na   0.088968  -0.076521
     3  Na   0.002937   0.004115
     4  Na  -0.170449   0.690359
     5  Na  -0.135397  -0.098795
     6  Na   0.047966   0.466477
     7  Na  -0.057798  -0.058814
 Sum of Mulliken charges =  -0.00000   1.00000

 Dipole moment (field-independent basis, Debye):
    X=             -0.3073    Y=             -0.1318    Z=              0.0619  Tot=              0.3401
 Quadrupole moment (field-independent basis, Debye-Ang):
   XX=            -53.9622   YY=            -64.8213   ZZ=            -74.0062
   XY=             -0.8640   XZ=              0.0564   YZ=             -0.7158

 Normal termination of Gaussian 16 at Sat Dec  9 06:10:17 2023.
