 Gaussian 16, Revision B.01,
 Gaussian 16:  ES64L-G16RevB.01 20-Dec-2017

 -------------------------
 #P B3LYP/6-311+g(d) force
 -------------------------

 -----
 DPGEN
 -----
 Symbolic Z-matrix:
 Charge =  0 Multiplicity = 2

                         Standard orientation:
 ---------------------------------------------------------------------
 Center     Atomic      Atomic             Coordinates (Angstroms)
 Number     Number       Type             X           Y           Z
 ---------------------------------------------------------------------
      1         11           0       -3.674638   -2.003905    0.622409
      2         11           0        3.668323   -1.435373   -0.845819
      3         11           0        0.301252    2.518764    1.668013
      4         11           0        1.785457   -1.023197    1.937730
      5         11           0       -2.332133    1.935812   -0.886162
      6         11           0       -0.982921   -1.566886   -1.101612
      7         11           0        1.234660    1.574785   -1.394558
 ---------------------------------------------------------------------

 SCF Done:  E(UB3LYP) =  -1136.12265987     A.U. after   19 cycles

 The electronic state is 2-A.
 Alpha  occ. eigenvalues --  -38.44775 -38.44238 -38.44223 -38.43955 -38.43951
 Alpha  occ. eigenvalues --  -38.43908 -38.43757  -2.20550  -2.20037  -2.20000
 Alpha  occ. eigenvalues --   -2.19794  -2.19761  -2.19687  -2.19578  -1.14242
 Alpha  occ. eigenvalues --   -1.14217  -1.14158  -1.13708  -1.13699  -1.13684
 Alpha  occ. eigenvalues --   -1.13664  -1.13651  -1.13612  -1.13490  -1.13479
 Alpha  occ. eigenvalues --   -1.13463  -1.13437  -1.13411  -1.13390  -1.13345
 Alpha  occ. eigenvalues --   -1.13339  -1.13293  -1.13250  -1.13234  -1.13182
 Alpha  occ. eigenvalues --   -0.17148  -0.12981  -0.12012  -0.10857
 Alpha virt. eigenvalues --   -0.06099  -0.05955  -0.04358  -0.03357  -0.03299
 Alpha virt. eigenvalues --   -0.02608  -0.01914  -0.01393  -0.00751  -0.00327
 Alpha virt. eigenvalues --   -0.00087   0.00156   0.00267   0.00575   0.00671

  Beta  occ. eigenvalues --  -38.44767 -38.44211 -38.44189 -38.43942 -38.43918
  Beta  occ. eigenvalues --  -38.43902 -38.43709  -2.20536  -2.19979  -2.19946
  Beta  occ. eigenvalues --   -2.19746  -2.19728  -2.19674  -2.19490  -1.14218
  Beta  occ. eigenvalues --   -1.14209  -1.14152  -1.13668  -1.13652  -1.13644
  Beta  occ. eigenvalues --   -1.13626  -1.13615  -1.13567  -1.13445  -1.13441
  Beta  occ. eigenvalues --   -1.13425  -1.13419  -1.13403  -1.13343  -1.13335
  Beta  occ. eigenvalues --   -1.13329  -1.13282  -1.13192  -1.13173  -1.13111
  Beta  occ. eigenvalues --   -0.16493  -0.12788  -0.11884
  Beta virt. eigenvalues --   -0.07178  -0.05957  -0.05581  -0.03875  -0.03148
  Beta virt. eigenvalues --   -0.02937  -0.01879  -0.01767  -0.01178  -0.00484
  Beta virt. eigenvalues --   -0.00218   0.00087   0.00218   0.00359   0.00670

 Mulliken charges and spin densities:
               1          2
     1  Na   0.149739  -0.026698
     2  Na   0.307821   0.075538
     3  Na  -0.100990   0.320373
     4  Na  -0.257064   0.214655
     5  Na   0.054999  -0.054147
     6  Na  -0.404341   0.180102
     7  Na   0.249836   0.290177
 Sum of Mulliken charges =  -0.00000   1.00000

 Dipole moment (field-independent basis, Debye):
    X=             -0.2986    Y=              0.3765    Z=             -0.0208  Tot=              0.4810
 Quadrupole moment (field-independent basis, Debye-Ang):
   XX=            -57.0310   YY=            -69.8806   ZZ=            -68.9181
   XY=             -4.4015   XZ=             -4.1005   YZ=             -1.1350

 Normal termination of Gaussian 16 at Mon Dec  4 01:13:24 2023.
