 Gaussian 16, Revision B.01,
 Gaussian 16:  ES64L-G16RevB.01 20-Dec-2017

 -------------------------
 #P B3LYP/6-311+g(d) force
 -------------------------

 -----
 DPGEN
 -----
 Symbolic Z-matrix:
 Charge =  0 Multiplicity = 2

                         Standard orientation:
 ---------------------------------------------------------------------
 Center     Atomic      Atomic             Coordinates (Angstroms)
 Number     Number       Type             X           Y           Z
 ---------------------------------------------------------------------
      1         11           0       -3.512840    0.004483    0.258148
      2         11           0       -0.761333    2.957788   -0.206395
      3         11           0       -1.302512   -2.609964   -0.701693
      4         11           0        2.915545    1.364345    0.220533
      5         11           0       -0.323797   -0.256678    1.963618
      6         11           0        0.270812    0.503525   -1.634100
      7         11           0        2.714125   -1.963499    0.099888
 ---------------------------------------------------------------------

 SCF Done:  E(UB3LYP) =  -1136.13115464     A.U. after   20 cycles

 The electronic state is 2-A.
 Alpha  occ. eigenvalues --  -38.44857 -38.44356 -38.43973 -38.43924 -38.43495
 Alpha  occ. eigenvalues --  -38.43302 -38.43160  -2.20632  -2.20180  -2.19770
 Alpha  occ. eigenvalues --   -2.19765  -2.19309  -2.19137  -2.19106  -1.14307
 Alpha  occ. eigenvalues --   -1.14281  -1.14275  -1.13869  -1.13843  -1.13810
 Alpha  occ. eigenvalues --   -1.13449  -1.13437  -1.13426  -1.13413  -1.13405
 Alpha  occ. eigenvalues --   -1.13380  -1.12989  -1.12968  -1.12945  -1.12937
 Alpha  occ. eigenvalues --   -1.12796  -1.12761  -1.12759  -1.12725  -1.12680
 Alpha  occ. eigenvalues --   -0.18038  -0.13182  -0.12041  -0.10442
 Alpha virt. eigenvalues --   -0.06273  -0.05380  -0.04563  -0.03298  -0.02744
 Alpha virt. eigenvalues --   -0.02346  -0.02024  -0.01232  -0.00669  -0.00463
 Alpha virt. eigenvalues --   -0.00052   0.00318   0.00689   0.00749   0.00796

  Beta  occ. eigenvalues --  -38.44853 -38.44351 -38.43973 -38.43848 -38.43471
  Beta  occ. eigenvalues --  -38.43297 -38.43097  -2.20627  -2.20173  -2.19770
  Beta  occ. eigenvalues --   -2.19628  -2.19267  -2.19131  -2.18992  -1.14285
  Beta  occ. eigenvalues --   -1.14280  -1.14274  -1.13861  -1.13828  -1.13804
  Beta  occ. eigenvalues --   -1.13435  -1.13423  -1.13409  -1.13352  -1.13309
  Beta  occ. eigenvalues --   -1.13276  -1.12954  -1.12930  -1.12913  -1.12908
  Beta  occ. eigenvalues --   -1.12773  -1.12751  -1.12691  -1.12650  -1.12611
  Beta  occ. eigenvalues --   -0.17358  -0.12984  -0.11789
  Beta virt. eigenvalues --   -0.06690  -0.06112  -0.05397  -0.04428  -0.02616
  Beta virt. eigenvalues --   -0.02062  -0.01899  -0.01380  -0.01175  -0.00685
  Beta virt. eigenvalues --   -0.00446   0.00102   0.00354   0.00756   0.00794

 Mulliken charges and spin densities:
               1          2
     1  Na   0.092100   0.003255
     2  Na   0.000514  -0.128646
     3  Na  -0.090094   0.049852
     4  Na   0.070692  -0.041238
     5  Na  -0.252869   0.675398
     6  Na   0.190733   0.469697
     7  Na  -0.011074  -0.028318
 Sum of Mulliken charges =  -0.00000   1.00000

 Dipole moment (field-independent basis, Debye):
    X=             -0.1655    Y=              0.0625    Z=              0.2564  Tot=              0.3116
 Quadrupole moment (field-independent basis, Debye-Ang):
   XX=            -52.2933   YY=            -64.7048   ZZ=            -75.7903
   XY=             -0.5958   XZ=              0.8705   YZ=              1.8627

 Normal termination of Gaussian 16 at Thu Dec  7 03:35:45 2023.
