 Gaussian 16, Revision B.01,
 Gaussian 16:  ES64L-G16RevB.01 20-Dec-2017

 -------------------------
 #P B3LYP/6-311+g(d) force
 -------------------------

 -----
 DPGEN
 -----
 Symbolic Z-matrix:
 Charge =  0 Multiplicity = 2

                         Standard orientation:
 ---------------------------------------------------------------------
 Center     Atomic      Atomic             Coordinates (Angstroms)
 Number     Number       Type             X           Y           Z
 ---------------------------------------------------------------------
      1         11           0       -2.157438    0.326760   -0.786585
      2         11           0        3.610748   -0.710113    0.782355
      3         11           0       -2.448762   -2.798545    0.243358
      4         11           0        1.219459    1.512007   -1.459775
      5         11           0        1.102605   -1.690958   -1.117392
      6         11           0       -1.111270    3.169460    0.457977
      7         11           0       -0.215341    0.191389    1.880061
 ---------------------------------------------------------------------

 SCF Done:  E(UB3LYP) =  -1136.13382831     A.U. after   19 cycles

 The electronic state is 2-A.
 Alpha  occ. eigenvalues --  -38.44158 -38.44073 -38.43711 -38.43557 -38.43463
 Alpha  occ. eigenvalues --  -38.43439 -38.43429  -2.19953  -2.19946  -2.19596
 Alpha  occ. eigenvalues --   -2.19438  -2.19365  -2.19292  -2.19257  -1.13642
 Alpha  occ. eigenvalues --   -1.13628  -1.13606  -1.13588  -1.13572  -1.13568
 Alpha  occ. eigenvalues --   -1.13327  -1.13248  -1.13206  -1.13127  -1.13106
 Alpha  occ. eigenvalues --   -1.13073  -1.13047  -1.13028  -1.13023  -1.12951
 Alpha  occ. eigenvalues --   -1.12943  -1.12931  -1.12916  -1.12907  -1.12869
 Alpha  occ. eigenvalues --   -0.18323  -0.13006  -0.12298  -0.10849
 Alpha virt. eigenvalues --   -0.05781  -0.05065  -0.04672  -0.03492  -0.02801
 Alpha virt. eigenvalues --   -0.02538  -0.01583  -0.01403  -0.00563  -0.00175
 Alpha virt. eigenvalues --    0.00269   0.00310   0.00714   0.00764   0.00814

  Beta  occ. eigenvalues --  -38.44143 -38.43998 -38.43658 -38.43533 -38.43467
  Beta  occ. eigenvalues --  -38.43425 -38.43424  -2.19925  -2.19810  -2.19501
  Beta  occ. eigenvalues --   -2.19398  -2.19341  -2.19287  -2.19265  -1.13611
  Beta  occ. eigenvalues --   -1.13575  -1.13570  -1.13549  -1.13473  -1.13470
  Beta  occ. eigenvalues --   -1.13259  -1.13174  -1.13143  -1.13095  -1.13058
  Beta  occ. eigenvalues --   -1.13049  -1.13030  -1.13003  -1.12994  -1.12947
  Beta  occ. eigenvalues --   -1.12933  -1.12917  -1.12915  -1.12907  -1.12868
  Beta  occ. eigenvalues --   -0.17570  -0.12792  -0.12170
  Beta virt. eigenvalues --   -0.06975  -0.05531  -0.04977  -0.04571  -0.02866
  Beta virt. eigenvalues --   -0.02282  -0.01670  -0.01422  -0.01313  -0.00339
  Beta virt. eigenvalues --   -0.00093   0.00308   0.00392   0.00764   0.00834

 Mulliken charges and spin densities:
               1          2
     1  Na  -0.044453   0.223040
     2  Na  -0.063848  -0.103555
     3  Na   0.228412  -0.134501
     4  Na  -0.136648   0.183300
     5  Na   0.012279   0.207886
     6  Na   0.517338  -0.061819
     7  Na  -0.513080   0.685649
 Sum of Mulliken charges =  -0.00000   1.00000

 Dipole moment (field-independent basis, Debye):
    X=              0.4059    Y=              0.1840    Z=              0.2514  Tot=              0.5117
 Quadrupole moment (field-independent basis, Debye-Ang):
   XX=            -60.3695   YY=            -61.1093   ZZ=            -71.6410
   XY=             -0.1872   XZ=              1.3560   YZ=             -0.5232

 Normal termination of Gaussian 16 at Tue Dec  5 18:56:35 2023.
