 Gaussian 16, Revision B.01,
 Gaussian 16:  ES64L-G16RevB.01 20-Dec-2017

 -------------------------
 #P B3LYP/6-311+g(d) force
 -------------------------

 -----
 DPGEN
 -----
 Symbolic Z-matrix:
 Charge =  0 Multiplicity = 2

                         Standard orientation:
 ---------------------------------------------------------------------
 Center     Atomic      Atomic             Coordinates (Angstroms)
 Number     Number       Type             X           Y           Z
 ---------------------------------------------------------------------
      1         11           0        2.751106    2.067123    0.777877
      2         11           0        1.478063   -0.651770    1.638297
      3         11           0        3.095673   -0.815176   -1.136246
      4         11           0        0.066145    0.995979   -1.267423
      5         11           0       -4.135594    1.356839   -0.548459
      6         11           0       -2.764713   -0.833972    1.304057
      7         11           0       -0.490681   -2.119022   -0.768103
 ---------------------------------------------------------------------

 SCF Done:  E(UB3LYP) =  -1136.11701863     A.U. after   27 cycles

 The electronic state is 2-A.
 Alpha  occ. eigenvalues --  -38.45551 -38.44639 -38.44275 -38.44162 -38.43806
 Alpha  occ. eigenvalues --  -38.43253 -38.42520  -2.21410  -2.20520  -2.20117
 Alpha  occ. eigenvalues --   -2.19937  -2.19759  -2.19131  -2.18418  -1.15109
 Alpha  occ. eigenvalues --   -1.15064  -1.15010  -1.14210  -1.14190  -1.14117
 Alpha  occ. eigenvalues --   -1.13801  -1.13791  -1.13763  -1.13601  -1.13595
 Alpha  occ. eigenvalues --   -1.13570  -1.13448  -1.13428  -1.13361  -1.12809
 Alpha  occ. eigenvalues --   -1.12780  -1.12761  -1.12128  -1.12071  -1.12047
 Alpha  occ. eigenvalues --   -0.18501  -0.14125  -0.11157  -0.10895
 Alpha virt. eigenvalues --   -0.07160  -0.05493  -0.04430  -0.02999  -0.02850
 Alpha virt. eigenvalues --   -0.02411  -0.02309  -0.01219  -0.00916  -0.00319
 Alpha virt. eigenvalues --    0.00022   0.00086   0.00215   0.00500   0.00707

  Beta  occ. eigenvalues --  -38.45525 -38.44577 -38.44258 -38.44175 -38.43741
  Beta  occ. eigenvalues --  -38.43235 -38.42517  -2.21364  -2.20409  -2.20084
  Beta  occ. eigenvalues --   -2.19961  -2.19640  -2.19102  -2.18417  -1.15065
  Beta  occ. eigenvalues --   -1.15025  -1.14977  -1.14136  -1.14101  -1.14034
  Beta  occ. eigenvalues --   -1.13778  -1.13772  -1.13746  -1.13618  -1.13606
  Beta  occ. eigenvalues --   -1.13580  -1.13366  -1.13344  -1.13268  -1.12783
  Beta  occ. eigenvalues --   -1.12757  -1.12732  -1.12129  -1.12053  -1.12032
  Beta  occ. eigenvalues --   -0.17770  -0.14032  -0.10868
  Beta virt. eigenvalues --   -0.07154  -0.06948  -0.05152  -0.04088  -0.02798
  Beta virt. eigenvalues --   -0.02643  -0.01916  -0.01502  -0.00934  -0.00590
  Beta virt. eigenvalues --   -0.00346   0.00090   0.00124   0.00345   0.00613

 Mulliken charges and spin densities:
               1          2
     1  Na   0.286011  -0.134807
     2  Na  -0.435330   0.527200
     3  Na   0.676952   0.100297
     4  Na  -0.960309   0.519596
     5  Na  -0.029565  -0.039986
     6  Na   0.140869  -0.005294
     7  Na   0.321373   0.032995
 Sum of Mulliken charges =  -0.00000   1.00000

 Dipole moment (field-independent basis, Debye):
    X=              0.7565    Y=             -0.4024    Z=             -0.4594  Tot=              0.9722
 Quadrupole moment (field-independent basis, Debye-Ang):
   XX=            -54.6728   YY=            -71.8217   ZZ=            -70.2520
   XY=             -2.4047   XZ=             -3.0386   YZ=             -0.3757

 Normal termination of Gaussian 16 at Thu Dec  7 04:51:08 2023.
