 Gaussian 16, Revision B.01,
 Gaussian 16:  ES64L-G16RevB.01 20-Dec-2017

 -------------------------
 #P B3LYP/6-311+g(d) force
 -------------------------

 -----
 DPGEN
 -----
 Symbolic Z-matrix:
 Charge =  0 Multiplicity = 2

                         Standard orientation:
 ---------------------------------------------------------------------
 Center     Atomic      Atomic             Coordinates (Angstroms)
 Number     Number       Type             X           Y           Z
 ---------------------------------------------------------------------
      1         11           0       -3.195225   -0.636100    0.042018
      2         11           0       -1.400822    2.442709   -0.190123
      3         11           0       -0.440368   -2.645628    0.083639
      4         11           0       -0.002200    0.160530   -1.683762
      5         11           0        2.854939   -1.572541   -0.155802
      6         11           0       -0.087689    0.169045    1.686643
      7         11           0        2.271366    2.081985    0.217386
 ---------------------------------------------------------------------

 SCF Done:  E(UB3LYP) =  -1136.13733516     A.U. after   20 cycles

 The electronic state is 2-A.
 Alpha  occ. eigenvalues --  -38.44108 -38.43984 -38.43839 -38.43443 -38.43108
 Alpha  occ. eigenvalues --  -38.43025 -38.43005  -2.19942  -2.19792  -2.19674
 Alpha  occ. eigenvalues --   -2.19350  -2.19025  -2.19007  -2.19003  -1.13609
 Alpha  occ. eigenvalues --   -1.13602  -1.13591  -1.13464  -1.13448  -1.13442
 Alpha  occ. eigenvalues --   -1.13356  -1.13339  -1.13301  -1.13098  -1.13032
 Alpha  occ. eigenvalues --   -1.12947  -1.12781  -1.12712  -1.12699  -1.12660
 Alpha  occ. eigenvalues --   -1.12633  -1.12622  -1.12615  -1.12612  -1.12596
 Alpha  occ. eigenvalues --   -0.18979  -0.13062  -0.12605  -0.10426
 Alpha virt. eigenvalues --   -0.05719  -0.05413  -0.04479  -0.02976  -0.02773
 Alpha virt. eigenvalues --   -0.02142  -0.01758  -0.01261  -0.00347  -0.00221
 Alpha virt. eigenvalues --    0.00023   0.00332   0.00768   0.00855   0.00908

  Beta  occ. eigenvalues --  -38.44106 -38.43982 -38.43832 -38.43431 -38.43100
  Beta  occ. eigenvalues --  -38.42948 -38.42929  -2.19941  -2.19792  -2.19664
  Beta  occ. eigenvalues --   -2.19333  -2.18996  -2.18885  -2.18864  -1.13607
  Beta  occ. eigenvalues --   -1.13595  -1.13579  -1.13452  -1.13448  -1.13441
  Beta  occ. eigenvalues --   -1.13343  -1.13316  -1.13299  -1.13080  -1.12985
  Beta  occ. eigenvalues --   -1.12939  -1.12739  -1.12655  -1.12633  -1.12615
  Beta  occ. eigenvalues --   -1.12565  -1.12540  -1.12525  -1.12519  -1.12497
  Beta  occ. eigenvalues --   -0.18258  -0.12825  -0.12322
  Beta virt. eigenvalues --   -0.06519  -0.05692  -0.05401  -0.04474  -0.02227
  Beta virt. eigenvalues --   -0.01968  -0.01672  -0.01210  -0.01100  -0.00402
  Beta virt. eigenvalues --   -0.00259   0.00153   0.00362   0.00811   0.00856

 Mulliken charges and spin densities:
               1          2
     1  Na   0.162418  -0.063292
     2  Na   0.335406  -0.090998
     3  Na   0.099968  -0.093760
     4  Na  -0.359798   0.711472
     5  Na  -0.021839  -0.085780
     6  Na  -0.331383   0.724094
     7  Na   0.115228  -0.101736
 Sum of Mulliken charges =  -0.00000   1.00000

 Dipole moment (field-independent basis, Debye):
    X=              0.0733    Y=              0.0835    Z=              0.0086  Tot=              0.1114
 Quadrupole moment (field-independent basis, Debye-Ang):
   XX=            -52.2765   YY=            -62.7980   ZZ=            -76.2504
   XY=              0.2884   XZ=              0.0612   YZ=              0.1397

 Normal termination of Gaussian 16 at Fri Dec  8 02:52:03 2023.
