 Gaussian 16, Revision B.01,
 Gaussian 16:  ES64L-G16RevB.01 20-Dec-2017

 -------------------------
 #P B3LYP/6-311+g(d) force
 -------------------------

 -----
 DPGEN
 -----
 Symbolic Z-matrix:
 Charge =  0 Multiplicity = 2

                         Standard orientation:
 ---------------------------------------------------------------------
 Center     Atomic      Atomic             Coordinates (Angstroms)
 Number     Number       Type             X           Y           Z
 ---------------------------------------------------------------------
      1         11           0        0.103148   -2.262008   -0.763202
      2         11           0       -3.574434   -1.260801   -0.640356
      3         11           0        3.338077   -0.472254    0.801778
      4         11           0        0.551766    2.291127    0.258964
      5         11           0        2.225543    0.601991   -2.163343
      6         11           0       -2.773459    1.875205    0.185701
      7         11           0        0.129360   -0.773261    2.320458
 ---------------------------------------------------------------------

 SCF Done:  E(UB3LYP) =  -1136.12190533     A.U. after   23 cycles

 The electronic state is 2-A.
 Alpha  occ. eigenvalues --  -38.45370 -38.44604 -38.44535 -38.44376 -38.43666
 Alpha  occ. eigenvalues --  -38.43556 -38.42924  -2.21173  -2.20439  -2.20309
 Alpha  occ. eigenvalues --   -2.20225  -2.19459  -2.19357  -2.18763  -1.14856
 Alpha  occ. eigenvalues --   -1.14827  -1.14812  -1.14104  -1.14069  -1.14056
 Alpha  occ. eigenvalues --   -1.13980  -1.13971  -1.13938  -1.13881  -1.13859
 Alpha  occ. eigenvalues --   -1.13847  -1.13153  -1.13142  -1.13071  -1.13029
 Alpha  occ. eigenvalues --   -1.13026  -1.13009  -1.12452  -1.12441  -1.12385
 Alpha  occ. eigenvalues --   -0.17693  -0.13477  -0.11611  -0.11354
 Alpha virt. eigenvalues --   -0.06776  -0.05233  -0.04553  -0.03345  -0.03211
 Alpha virt. eigenvalues --   -0.02721  -0.02140  -0.00963  -0.00624  -0.00298
 Alpha virt. eigenvalues --   -0.00103   0.00000   0.00216   0.00602   0.00805

  Beta  occ. eigenvalues --  -38.45362 -38.44521 -38.44516 -38.44307 -38.43658
  Beta  occ. eigenvalues --  -38.43559 -38.42912  -2.21163  -2.20288  -2.20274
  Beta  occ. eigenvalues --   -2.20096  -2.19446  -2.19364  -2.18744  -1.14828
  Beta  occ. eigenvalues --   -1.14822  -1.14797  -1.14006  -1.13959  -1.13954
  Beta  occ. eigenvalues --   -1.13949  -1.13946  -1.13916  -1.13793  -1.13779
  Beta  occ. eigenvalues --   -1.13754  -1.13147  -1.13115  -1.13062  -1.13034
  Beta  occ. eigenvalues --   -1.13024  -1.13012  -1.12442  -1.12404  -1.12376
  Beta  occ. eigenvalues --   -0.16961  -0.13213  -0.11202
  Beta virt. eigenvalues --   -0.07819  -0.06571  -0.05051  -0.03861  -0.03208
  Beta virt. eigenvalues --   -0.02580  -0.02084  -0.01953  -0.00915  -0.00332
  Beta virt. eigenvalues --   -0.00169  -0.00014   0.00162   0.00293   0.00700

 Mulliken charges and spin densities:
               1          2
     1  Na  -0.256516   0.169452
     2  Na   0.120197  -0.020791
     3  Na   0.454448   0.046666
     4  Na  -0.238812   0.076265
     5  Na   0.157893   0.347208
     6  Na  -0.095213  -0.068490
     7  Na  -0.141996   0.449690
 Sum of Mulliken charges =  -0.00000   1.00000

 Dipole moment (field-independent basis, Debye):
    X=              0.7571    Y=             -0.5865    Z=              0.1319  Tot=              0.9667
 Quadrupole moment (field-independent basis, Debye-Ang):
   XX=            -52.6309   YY=            -77.7141   ZZ=            -66.3037
   XY=              0.0607   XZ=              1.4854   YZ=              0.8486

 Normal termination of Gaussian 16 at Sun Dec  3 15:07:02 2023.
