 Gaussian 16, Revision B.01,
 Gaussian 16:  ES64L-G16RevB.01 20-Dec-2017

 -------------------------
 #P B3LYP/6-311+g(d) force
 -------------------------

 -----
 DPGEN
 -----
 Symbolic Z-matrix:
 Charge =  0 Multiplicity = 2

                         Standard orientation:
 ---------------------------------------------------------------------
 Center     Atomic      Atomic             Coordinates (Angstroms)
 Number     Number       Type             X           Y           Z
 ---------------------------------------------------------------------
      1         11           0        1.346002   -2.163290    0.643851
      2         11           0        4.892355   -2.120478   -0.580963
      3         11           0        3.015793    0.757438    0.065670
      4         11           0        1.700097    3.855165   -0.009339
      5         11           0       -0.605287    0.774031    0.134210
      6         11           0       -3.654829   -0.811606    0.058645
      7         11           0       -6.694131   -0.291259   -0.312073
 ---------------------------------------------------------------------

 SCF Done:  E(UB3LYP) =  -1136.12136494     A.U. after   21 cycles

 The electronic state is 2-A.
 Alpha  occ. eigenvalues --  -38.45106 -38.44488 -38.44351 -38.44044 -38.43855
 Alpha  occ. eigenvalues --  -38.43673 -38.43597  -2.20910  -2.20299  -2.20136
 Alpha  occ. eigenvalues --   -2.19882  -2.19733  -2.19474  -2.19412  -1.14607
 Alpha  occ. eigenvalues --   -1.14592  -1.14495  -1.13955  -1.13933  -1.13931
 Alpha  occ. eigenvalues --   -1.13808  -1.13799  -1.13747  -1.13571  -1.13568
 Alpha  occ. eigenvalues --   -1.13487  -1.13444  -1.13434  -1.13318  -1.13134
 Alpha  occ. eigenvalues --   -1.13131  -1.13092  -1.13085  -1.13081  -1.13067
 Alpha  occ. eigenvalues --   -0.16768  -0.13890  -0.12335  -0.11442
 Alpha virt. eigenvalues --   -0.06387  -0.05172  -0.04399  -0.03919  -0.02745
 Alpha virt. eigenvalues --   -0.02335  -0.02223  -0.01484  -0.01445  -0.00746
 Alpha virt. eigenvalues --   -0.00649  -0.00113   0.00106   0.00354   0.00727

  Beta  occ. eigenvalues --  -38.45072 -38.44419 -38.44326 -38.44005 -38.43835
  Beta  occ. eigenvalues --  -38.43640 -38.43604  -2.20850  -2.20172  -2.20090
  Beta  occ. eigenvalues --   -2.19815  -2.19700  -2.19433  -2.19413  -1.14570
  Beta  occ. eigenvalues --   -1.14553  -1.14431  -1.13872  -1.13845  -1.13844
  Beta  occ. eigenvalues --   -1.13772  -1.13767  -1.13720  -1.13528  -1.13524
  Beta  occ. eigenvalues --   -1.13422  -1.13418  -1.13402  -1.13290  -1.13109
  Beta  occ. eigenvalues --   -1.13102  -1.13090  -1.13087  -1.13050  -1.13031
  Beta  occ. eigenvalues --   -0.16125  -0.13311  -0.11963
  Beta virt. eigenvalues --   -0.08129  -0.05861  -0.04884  -0.04075  -0.03728
  Beta virt. eigenvalues --   -0.02450  -0.02158  -0.01774  -0.01340  -0.01212
  Beta virt. eigenvalues --   -0.00394  -0.00382   0.00114   0.00250   0.00404

 Mulliken charges and spin densities:
               1          2
     1  Na  -0.267637  -0.044630
     2  Na   0.832092   0.124048
     3  Na  -0.716895   0.409558
     4  Na   0.774145   0.158065
     5  Na  -1.736397  -0.011690
     6  Na  -0.203901   0.071569
     7  Na   1.318593   0.293080
 Sum of Mulliken charges =  -0.00000   1.00000

 Dipole moment (field-independent basis, Debye):
    X=              0.6435    Y=             -0.4681    Z=             -0.0943  Tot=              0.8013
 Quadrupole moment (field-independent basis, Debye-Ang):
   XX=            -54.5698   YY=            -62.7375   ZZ=            -72.9267
   XY=             -4.7039   XZ=             -1.0411   YZ=             -0.6016

 Normal termination of Gaussian 16 at Wed Nov 29 02:53:07 2023.
