 Gaussian 16, Revision B.01,
 Gaussian 16:  ES64L-G16RevB.01 20-Dec-2017

 -------------------------
 #P B3LYP/6-311+g(d) force
 -------------------------

 -----
 DPGEN
 -----
 Symbolic Z-matrix:
 Charge =  0 Multiplicity = 2

                         Standard orientation:
 ---------------------------------------------------------------------
 Center     Atomic      Atomic             Coordinates (Angstroms)
 Number     Number       Type             X           Y           Z
 ---------------------------------------------------------------------
      1         11           0        2.875241   -0.708412    1.254156
      2         11           0       -2.252536   -2.624358   -0.099804
      3         11           0        1.184602    2.871800   -0.041626
      4         11           0       -4.331223   -0.049470   -0.025619
      5         11           0       -1.258291    0.975584   -1.870871
      6         11           0       -0.858243    0.746498    1.797442
      7         11           0        4.640450   -1.211643   -1.013679
 ---------------------------------------------------------------------

 SCF Done:  E(UB3LYP) =  -1136.11260955     A.U. after   21 cycles

 The electronic state is 2-A.
 Alpha  occ. eigenvalues --  -38.45545 -38.45473 -38.44160 -38.44065 -38.43790
 Alpha  occ. eigenvalues --  -38.43232 -38.43035  -2.21337  -2.21244  -2.19983
 Alpha  occ. eigenvalues --   -2.19845  -2.19631  -2.19063  -2.18863  -1.15011
 Alpha  occ. eigenvalues --   -1.14999  -1.14986  -1.14917  -1.14898  -1.14856
 Alpha  occ. eigenvalues --   -1.13662  -1.13636  -1.13586  -1.13520  -1.13502
 Alpha  occ. eigenvalues --   -1.13486  -1.13310  -1.13283  -1.13232  -1.12852
 Alpha  occ. eigenvalues --   -1.12728  -1.12700  -1.12495  -1.12492  -1.12462
 Alpha  occ. eigenvalues --   -0.17056  -0.13642  -0.11593  -0.10415
 Alpha virt. eigenvalues --   -0.06943  -0.05808  -0.04797  -0.03067  -0.03006
 Alpha virt. eigenvalues --   -0.02437  -0.02239  -0.01369  -0.01047  -0.00940
 Alpha virt. eigenvalues --   -0.00272   0.00008   0.00149   0.00341   0.00510

  Beta  occ. eigenvalues --  -38.45538 -38.45464 -38.44090 -38.44070 -38.43725
  Beta  occ. eigenvalues --  -38.43231 -38.43012  -2.21326  -2.21229  -2.19858
  Beta  occ. eigenvalues --   -2.19853  -2.19510  -2.19064  -2.18820  -1.15006
  Beta  occ. eigenvalues --   -1.14985  -1.14966  -1.14907  -1.14875  -1.14847
  Beta  occ. eigenvalues --   -1.13572  -1.13550  -1.13527  -1.13512  -1.13502
  Beta  occ. eigenvalues --   -1.13471  -1.13228  -1.13193  -1.13148  -1.12830
  Beta  occ. eigenvalues --   -1.12732  -1.12702  -1.12465  -1.12462  -1.12437
  Beta  occ. eigenvalues --   -0.16424  -0.13433  -0.11360
  Beta virt. eigenvalues --   -0.06971  -0.06641  -0.05617  -0.04285  -0.02849
  Beta virt. eigenvalues --   -0.02622  -0.02130  -0.01648  -0.01305  -0.00964
  Beta virt. eigenvalues --   -0.00537  -0.00164   0.00081   0.00281   0.00427

 Mulliken charges and spin densities:
               1          2
     1  Na  -0.620967  -0.094311
     2  Na  -0.056919  -0.025794
     3  Na   0.232482  -0.021024
     4  Na   0.476015   0.082834
     5  Na  -0.321078   0.439610
     6  Na  -0.149161   0.531636
     7  Na   0.439628   0.087049
 Sum of Mulliken charges =  -0.00000   1.00000

 Dipole moment (field-independent basis, Debye):
    X=             -2.6817    Y=              0.1507    Z=             -0.3152  Tot=              2.7043
 Quadrupole moment (field-independent basis, Debye-Ang):
   XX=            -63.4173   YY=            -65.9661   ZZ=            -71.6405
   XY=              4.1491   XZ=             -5.2400   YZ=              3.6269

 Normal termination of Gaussian 16 at Sun Dec  3 12:38:06 2023.
