 Gaussian 16, Revision B.01,
 Gaussian 16:  ES64L-G16RevB.01 20-Dec-2017

 -------------------------
 #P B3LYP/6-311+g(d) force
 -------------------------

 -----
 DPGEN
 -----
 Symbolic Z-matrix:
 Charge =  0 Multiplicity = 2

                         Standard orientation:
 ---------------------------------------------------------------------
 Center     Atomic      Atomic             Coordinates (Angstroms)
 Number     Number       Type             X           Y           Z
 ---------------------------------------------------------------------
      1         11           0       -2.685375   -0.456737    1.933375
      2         11           0        0.650758    1.949630    1.145202
      3         11           0       -1.909385   -2.017104   -1.581657
      4         11           0        1.817588    1.084761   -1.268265
      5         11           0        3.814946   -0.956216    0.330024
      6         11           0       -2.103045    1.920281   -1.074190
      7         11           0        0.414514   -1.524615    0.515511
 ---------------------------------------------------------------------

 SCF Done:  E(UB3LYP) =  -1136.12197864     A.U. after   20 cycles

 The electronic state is 2-A.
 Alpha  occ. eigenvalues --  -38.44615 -38.44406 -38.44064 -38.44062 -38.43711
 Alpha  occ. eigenvalues --  -38.43632 -38.43073  -2.20422  -2.20207  -2.20002
 Alpha  occ. eigenvalues --   -2.19851  -2.19612  -2.19457  -2.18990  -1.14103
 Alpha  occ. eigenvalues --   -1.14075  -1.14064  -1.13877  -1.13854  -1.13844
 Alpha  occ. eigenvalues --   -1.13822  -1.13657  -1.13573  -1.13525  -1.13505
 Alpha  occ. eigenvalues --   -1.13484  -1.13282  -1.13243  -1.13191  -1.13156
 Alpha  occ. eigenvalues --   -1.13092  -1.13074  -1.12698  -1.12681  -1.12588
 Alpha  occ. eigenvalues --   -0.18108  -0.13605  -0.11519  -0.10848
 Alpha virt. eigenvalues --   -0.06442  -0.05179  -0.04632  -0.03230  -0.02845
 Alpha virt. eigenvalues --   -0.02433  -0.02170  -0.01166  -0.00597  -0.00054
 Alpha virt. eigenvalues --    0.00187   0.00203   0.00274   0.00533   0.00820

  Beta  occ. eigenvalues --  -38.44619 -38.44344 -38.44050 -38.44041 -38.43698
  Beta  occ. eigenvalues --  -38.43585 -38.43059  -2.20431  -2.20092  -2.19975
  Beta  occ. eigenvalues --   -2.19812  -2.19589  -2.19369  -2.18969  -1.14107
  Beta  occ. eigenvalues --   -1.14081  -1.14068  -1.13837  -1.13790  -1.13768
  Beta  occ. eigenvalues --   -1.13743  -1.13635  -1.13549  -1.13483  -1.13480
  Beta  occ. eigenvalues --   -1.13459  -1.13268  -1.13209  -1.13175  -1.13098
  Beta  occ. eigenvalues --   -1.13025  -1.13015  -1.12679  -1.12634  -1.12578
  Beta  occ. eigenvalues --   -0.17515  -0.13327  -0.11350
  Beta virt. eigenvalues --   -0.07102  -0.06287  -0.04964  -0.04127  -0.03057
  Beta virt. eigenvalues --   -0.02311  -0.02170  -0.01485  -0.00963  -0.00280
  Beta virt. eigenvalues --    0.00008   0.00242   0.00264   0.00385   0.00665

 Mulliken charges and spin densities:
               1          2
     1  Na   0.053172   0.173907
     2  Na  -0.080065   0.084503
     3  Na  -0.007064   0.066586
     4  Na   0.278065   0.259693
     5  Na   0.169562  -0.166506
     6  Na   0.004021   0.260371
     7  Na  -0.417690   0.321446
 Sum of Mulliken charges =  -0.00000   1.00000

 Dipole moment (field-independent basis, Debye):
    X=              0.4474    Y=              0.2143    Z=              0.0268  Tot=              0.4968
 Quadrupole moment (field-independent basis, Debye-Ang):
   XX=            -50.3723   YY=            -75.4009   ZZ=            -67.4340
   XY=             -2.1786   XZ=              0.7171   YZ=              0.2424

 Normal termination of Gaussian 16 at Tue Dec  5 15:26:51 2023.
