 Gaussian 16, Revision B.01,
 Gaussian 16:  ES64L-G16RevB.01 20-Dec-2017

 -------------------------
 #P B3LYP/6-311+g(d) force
 -------------------------

 -----
 DPGEN
 -----
 Symbolic Z-matrix:
 Charge =  0 Multiplicity = 2

                         Standard orientation:
 ---------------------------------------------------------------------
 Center     Atomic      Atomic             Coordinates (Angstroms)
 Number     Number       Type             X           Y           Z
 ---------------------------------------------------------------------
      1         11           0        2.256690   -1.950219   -0.284130
      2         11           0        0.404146    0.169498   -1.777501
      3         11           0        0.485361    0.159411    1.655545
      4         11           0       -1.293186   -2.649986   -0.583763
      5         11           0       -2.964680   -0.367195    1.269722
      6         11           0        2.915641    1.717795    0.648475
      7         11           0       -1.803971    2.920694   -0.928347
 ---------------------------------------------------------------------

 SCF Done:  E(UB3LYP) =  -1136.12783196     A.U. after   20 cycles

 The electronic state is 2-A.
 Alpha  occ. eigenvalues --  -38.44197 -38.44037 -38.43874 -38.43824 -38.43798
 Alpha  occ. eigenvalues --  -38.43744 -38.43437  -2.20027  -2.19796  -2.19723
 Alpha  occ. eigenvalues --   -2.19692  -2.19689  -2.19686  -2.19267  -1.13760
 Alpha  occ. eigenvalues --   -1.13667  -1.13648  -1.13477  -1.13465  -1.13445
 Alpha  occ. eigenvalues --   -1.13428  -1.13410  -1.13388  -1.13373  -1.13358
 Alpha  occ. eigenvalues --   -1.13347  -1.13339  -1.13314  -1.13308  -1.13296
 Alpha  occ. eigenvalues --   -1.13288  -1.13276  -1.12953  -1.12926  -1.12901
 Alpha  occ. eigenvalues --   -0.18209  -0.13013  -0.12007  -0.11195
 Alpha virt. eigenvalues --   -0.05685  -0.05257  -0.04823  -0.03140  -0.03021
 Alpha virt. eigenvalues --   -0.02621  -0.01661  -0.01379  -0.00559  -0.00067
 Alpha virt. eigenvalues --   -0.00007   0.00279   0.00610   0.00759   0.00814

  Beta  occ. eigenvalues --  -38.44182 -38.44001 -38.43841 -38.43819 -38.43728
  Beta  occ. eigenvalues --  -38.43692 -38.43438  -2.20003  -2.19731  -2.19687
  Beta  occ. eigenvalues --   -2.19628  -2.19595  -2.19593  -2.19272  -1.13730
  Beta  occ. eigenvalues --   -1.13645  -1.13634  -1.13432  -1.13411  -1.13400
  Beta  occ. eigenvalues --   -1.13386  -1.13378  -1.13334  -1.13320  -1.13310
  Beta  occ. eigenvalues --   -1.13292  -1.13276  -1.13266  -1.13264  -1.13254
  Beta  occ. eigenvalues --   -1.13217  -1.13208  -1.12953  -1.12928  -1.12890
  Beta  occ. eigenvalues --   -0.17594  -0.12670  -0.11614
  Beta virt. eigenvalues --   -0.07520  -0.05568  -0.05113  -0.04493  -0.02734
  Beta virt. eigenvalues --   -0.02435  -0.01741  -0.01530  -0.01221  -0.00404
  Beta virt. eigenvalues --   -0.00040   0.00074   0.00337   0.00690   0.00783

 Mulliken charges and spin densities:
               1          2
     1  Na   0.321708   0.020355
     2  Na   0.256492   0.348656
     3  Na  -0.257488   0.299889
     4  Na  -0.515823   0.040668
     5  Na   0.400967   0.113939
     6  Na   0.160360   0.018725
     7  Na  -0.366215   0.157767
 Sum of Mulliken charges =  -0.00000   1.00000

 Dipole moment (field-independent basis, Debye):
    X=              0.5405    Y=              0.0262    Z=              0.0189  Tot=              0.5414
 Quadrupole moment (field-independent basis, Debye-Ang):
   XX=            -57.6272   YY=            -64.3295   ZZ=            -72.1134
   XY=              0.7576   XZ=             -0.6930   YZ=             -0.2305

 Normal termination of Gaussian 16 at Sun Dec  3 21:00:07 2023.
