 Gaussian 16, Revision B.01,
 Gaussian 16:  ES64L-G16RevB.01 20-Dec-2017

 -------------------------
 #P B3LYP/6-311+g(d) force
 -------------------------

 -----
 DPGEN
 -----
 Symbolic Z-matrix:
 Charge =  0 Multiplicity = 2

                         Standard orientation:
 ---------------------------------------------------------------------
 Center     Atomic      Atomic             Coordinates (Angstroms)
 Number     Number       Type             X           Y           Z
 ---------------------------------------------------------------------
      1         11           0        1.731433   -1.763368    0.255958
      2         11           0        5.144039   -2.477223   -0.134728
      3         11           0        3.035059    1.148263   -0.433596
      4         11           0        1.755947    4.005513    0.079322
      5         11           0       -0.881286    0.272805    0.548540
      6         11           0       -3.860032   -0.879302   -0.089676
      7         11           0       -6.925159   -0.306687   -0.225820
 ---------------------------------------------------------------------

 SCF Done:  E(UB3LYP) =  -1136.11382222     A.U. after   22 cycles

 The electronic state is 2-A.
 Alpha  occ. eigenvalues --  -38.44955 -38.44543 -38.44487 -38.44340 -38.44215
 Alpha  occ. eigenvalues --  -38.43867 -38.43858  -2.20767  -2.20390  -2.20335
 Alpha  occ. eigenvalues --   -2.20102  -2.20066  -2.19682  -2.19668  -1.14417
 Alpha  occ. eigenvalues --   -1.14397  -1.14396  -1.14093  -1.14050  -1.14038
 Alpha  occ. eigenvalues --   -1.14010  -1.13991  -1.13930  -1.13771  -1.13770
 Alpha  occ. eigenvalues --   -1.13759  -1.13750  -1.13716  -1.13678  -1.13367
 Alpha  occ. eigenvalues --   -1.13346  -1.13343  -1.13324  -1.13317  -1.13288
 Alpha  occ. eigenvalues --   -0.16575  -0.14200  -0.12165  -0.11757
 Alpha virt. eigenvalues --   -0.06599  -0.05069  -0.04307  -0.03813  -0.02834
 Alpha virt. eigenvalues --   -0.02655  -0.02300  -0.01719  -0.01281  -0.00899
 Alpha virt. eigenvalues --   -0.00793  -0.00136   0.00093   0.00422   0.00679

  Beta  occ. eigenvalues --  -38.44874 -38.44472 -38.44468 -38.44329 -38.44196
  Beta  occ. eigenvalues --  -38.43864 -38.43830  -2.20617  -2.20305  -2.20262
  Beta  occ. eigenvalues --   -2.20081  -2.20032  -2.19702  -2.19601  -1.14318
  Beta  occ. eigenvalues --   -1.14295  -1.14294  -1.14045  -1.13999  -1.13985
  Beta  occ. eigenvalues --   -1.13961  -1.13904  -1.13870  -1.13757  -1.13755
  Beta  occ. eigenvalues --   -1.13734  -1.13724  -1.13701  -1.13649  -1.13374
  Beta  occ. eigenvalues --   -1.13368  -1.13310  -1.13273  -1.13270  -1.13249
  Beta  occ. eigenvalues --   -0.15921  -0.13522  -0.11735
  Beta virt. eigenvalues --   -0.08459  -0.06151  -0.04712  -0.04062  -0.03608
  Beta virt. eigenvalues --   -0.02498  -0.02467  -0.01857  -0.01525  -0.01120
  Beta virt. eigenvalues --   -0.00538  -0.00405  -0.00029   0.00241   0.00460

 Mulliken charges and spin densities:
               1          2
     1  Na  -0.417884   0.104181
     2  Na   0.679073   0.120829
     3  Na  -0.604549   0.252256
     4  Na   0.652939   0.123549
     5  Na  -0.785046   0.008391
     6  Na  -0.501669   0.269391
     7  Na   0.977136   0.121403
 Sum of Mulliken charges =  -0.00000   1.00000

 Dipole moment (field-independent basis, Debye):
    X=             -0.2367    Y=             -0.0250    Z=              0.0494  Tot=              0.2431
 Quadrupole moment (field-independent basis, Debye-Ang):
   XX=            -49.0766   YY=            -66.0381   ZZ=            -73.7258
   XY=             -5.6097   XZ=             -0.5087   YZ=              0.8706

 Normal termination of Gaussian 16 at Mon Nov 27 04:22:22 2023.
