 Gaussian 16, Revision B.01,
 Gaussian 16:  ES64L-G16RevB.01 20-Dec-2017

 -------------------------
 #P B3LYP/6-311+g(d) force
 -------------------------

 -----
 DPGEN
 -----
 Symbolic Z-matrix:
 Charge =  0 Multiplicity = 2

                         Standard orientation:
 ---------------------------------------------------------------------
 Center     Atomic      Atomic             Coordinates (Angstroms)
 Number     Number       Type             X           Y           Z
 ---------------------------------------------------------------------
      1         11           0       -3.263467    1.602066   -0.963916
      2         11           0        3.364821   -2.305992   -0.415181
      3         11           0        3.772094    1.157868   -0.269097
      4         11           0        1.146296    3.145387    0.027849
      5         11           0       -3.697117   -1.637987   -0.426998
      6         11           0       -1.400490    0.601147    1.693530
      7         11           0        0.077862   -2.562489    0.353814
 ---------------------------------------------------------------------

 SCF Done:  E(UB3LYP) =  -1136.11590245     A.U. after   22 cycles

 The electronic state is 2-A.
 Alpha  occ. eigenvalues --  -38.45238 -38.45007 -38.44610 -38.44162 -38.43986
 Alpha  occ. eigenvalues --  -38.43799 -38.43576  -2.21038  -2.20826  -2.20429
 Alpha  occ. eigenvalues --   -2.19953  -2.19772  -2.19566  -2.19367  -1.14717
 Alpha  occ. eigenvalues --   -1.14696  -1.14668  -1.14494  -1.14476  -1.14446
 Alpha  occ. eigenvalues --   -1.14099  -1.14091  -1.14039  -1.13628  -1.13617
 Alpha  occ. eigenvalues --   -1.13598  -1.13443  -1.13435  -1.13416  -1.13243
 Alpha  occ. eigenvalues --   -1.13235  -1.13203  -1.13044  -1.13037  -1.12986
 Alpha  occ. eigenvalues --   -0.16734  -0.13975  -0.12117  -0.10585
 Alpha virt. eigenvalues --   -0.07206  -0.05959  -0.04149  -0.03462  -0.03240
 Alpha virt. eigenvalues --   -0.02224  -0.01884  -0.01701  -0.01507  -0.00757
 Alpha virt. eigenvalues --   -0.00106  -0.00027   0.00319   0.00426   0.00562

  Beta  occ. eigenvalues --  -38.45200 -38.44961 -38.44556 -38.44140 -38.43980
  Beta  occ. eigenvalues --  -38.43803 -38.43548  -2.20972  -2.20744  -2.20329
  Beta  occ. eigenvalues --   -2.19912  -2.19763  -2.19574  -2.19317  -1.14672
  Beta  occ. eigenvalues --   -1.14650  -1.14595  -1.14440  -1.14425  -1.14363
  Beta  occ. eigenvalues --   -1.14033  -1.14014  -1.13964  -1.13601  -1.13591
  Beta  occ. eigenvalues --   -1.13567  -1.13439  -1.13432  -1.13398  -1.13248
  Beta  occ. eigenvalues --   -1.13243  -1.13201  -1.13009  -1.13000  -1.12954
  Beta  occ. eigenvalues --   -0.16042  -0.13493  -0.12071
  Beta virt. eigenvalues --   -0.07134  -0.07027  -0.05552  -0.03865  -0.02988
  Beta virt. eigenvalues --   -0.02741  -0.01978  -0.01756  -0.01607  -0.01001
  Beta virt. eigenvalues --   -0.00736  -0.00005   0.00239   0.00463   0.00558

 Mulliken charges and spin densities:
               1          2
     1  Na   0.052048   0.294454
     2  Na   0.437045   0.146434
     3  Na  -0.272549   0.145016
     4  Na   0.072919  -0.043194
     5  Na   0.320252   0.206100
     6  Na  -0.015600   0.262605
     7  Na  -0.594115  -0.011416
 Sum of Mulliken charges =  -0.00000   1.00000

 Dipole moment (field-independent basis, Debye):
    X=             -1.3235    Y=             -0.0443    Z=             -0.1441  Tot=              1.3321
 Quadrupole moment (field-independent basis, Debye-Ang):
   XX=            -63.7054   YY=            -64.7809   ZZ=            -71.4200
   XY=              1.1678   XZ=             -1.1749   YZ=             -0.3046

 Normal termination of Gaussian 16 at Sun Dec  3 19:57:05 2023.
