 Gaussian 16, Revision B.01,
 Gaussian 16:  ES64L-G16RevB.01 20-Dec-2017

 -------------------------
 #P B3LYP/6-311+g(d) force
 -------------------------

 -----
 DPGEN
 -----
 Symbolic Z-matrix:
 Charge =  0 Multiplicity = 2

                         Standard orientation:
 ---------------------------------------------------------------------
 Center     Atomic      Atomic             Coordinates (Angstroms)
 Number     Number       Type             X           Y           Z
 ---------------------------------------------------------------------
      1         11           0       -2.514534    2.001687    0.135160
      2         11           0       -0.929037   -2.723273   -0.333929
      3         11           0        0.578085    3.602308   -0.490977
      4         11           0        0.728711    0.369414    1.381712
      5         11           0       -4.442071   -1.244261   -0.226395
      6         11           0        2.898443   -2.566608   -0.018439
      7         11           0        3.680403    0.560732   -0.447133
 ---------------------------------------------------------------------

 SCF Done:  E(UB3LYP) =  -1136.12012960     A.U. after   21 cycles

 The electronic state is 2-A.
 Alpha  occ. eigenvalues --  -38.45223 -38.44797 -38.44693 -38.44544 -38.43983
 Alpha  occ. eigenvalues --  -38.43546 -38.43302  -2.21025  -2.20565  -2.20492
 Alpha  occ. eigenvalues --   -2.20315  -2.19750  -2.19396  -2.19090  -1.14726
 Alpha  occ. eigenvalues --   -1.14704  -1.14623  -1.14271  -1.14245  -1.14180
 Alpha  occ. eigenvalues --   -1.14172  -1.14156  -1.14127  -1.13995  -1.13968
 Alpha  occ. eigenvalues --   -1.13949  -1.13440  -1.13421  -1.13360  -1.13050
 Alpha  occ. eigenvalues --   -1.13038  -1.13022  -1.12749  -1.12733  -1.12712
 Alpha  occ. eigenvalues --   -0.16746  -0.13609  -0.12757  -0.09933
 Alpha virt. eigenvalues --   -0.06604  -0.06442  -0.04396  -0.03365  -0.02734
 Alpha virt. eigenvalues --   -0.02392  -0.02273  -0.01709  -0.01273  -0.00892
 Alpha virt. eigenvalues --   -0.00161   0.00254   0.00434   0.00514   0.00627

  Beta  occ. eigenvalues --  -38.45205 -38.44790 -38.44685 -38.44545 -38.43955
  Beta  occ. eigenvalues --  -38.43477 -38.43238  -2.20993  -2.20556  -2.20483
  Beta  occ. eigenvalues --   -2.20318  -2.19701  -2.19268  -2.18969  -1.14706
  Beta  occ. eigenvalues --   -1.14675  -1.14599  -1.14269  -1.14242  -1.14178
  Beta  occ. eigenvalues --   -1.14151  -1.14141  -1.14082  -1.13998  -1.13970
  Beta  occ. eigenvalues --   -1.13945  -1.13409  -1.13388  -1.13311  -1.12962
  Beta  occ. eigenvalues --   -1.12957  -1.12929  -1.12667  -1.12646  -1.12636
  Beta  occ. eigenvalues --   -0.16318  -0.13039  -0.12255
  Beta virt. eigenvalues --   -0.06613  -0.06510  -0.06345  -0.04106  -0.02832
  Beta virt. eigenvalues --   -0.02379  -0.02184  -0.01918  -0.01530  -0.01191
  Beta virt. eigenvalues --   -0.00686   0.00160   0.00437   0.00501   0.00639

 Mulliken charges and spin densities:
               1          2
     1  Na  -0.177709   0.100695
     2  Na  -0.323547   0.121464
     3  Na   0.114259  -0.040756
     4  Na   0.125198  -0.011423
     5  Na   0.124046   0.406453
     6  Na   0.312194  -0.012971
     7  Na  -0.174441   0.436538
 Sum of Mulliken charges =  -0.00000   1.00000

 Dipole moment (field-independent basis, Debye):
    X=              1.0103    Y=              0.6440    Z=              0.0043  Tot=              1.1981
 Quadrupole moment (field-independent basis, Debye-Ang):
   XX=            -75.3616   YY=            -57.9983   ZZ=            -69.5125
   XY=             -3.6700   XZ=             -0.7244   YZ=             -0.9506

 Normal termination of Gaussian 16 at Mon Dec  4 00:35:43 2023.
