 Gaussian 16, Revision B.01,
 Gaussian 16:  ES64L-G16RevB.01 20-Dec-2017

 -------------------------
 #P B3LYP/6-311+g(d) force
 -------------------------

 -----
 DPGEN
 -----
 Symbolic Z-matrix:
 Charge =  0 Multiplicity = 2

                         Standard orientation:
 ---------------------------------------------------------------------
 Center     Atomic      Atomic             Coordinates (Angstroms)
 Number     Number       Type             X           Y           Z
 ---------------------------------------------------------------------
      1         11           0        4.637284    0.018230    0.231510
      2         11           0        2.070403    2.838116   -0.847513
      3         11           0        6.494339   -2.483273   -0.446288
      4         11           0       -1.664935    1.449515    0.112993
      5         11           0       -5.600210    0.229295    0.487935
      6         11           0       -7.498375   -1.883922   -0.637946
      7         11           0        1.561494   -0.167962    1.099308
 ---------------------------------------------------------------------

 SCF Done:  E(UB3LYP) =  -1136.10614834     A.U. after   21 cycles

 The electronic state is 2-A.
 Alpha  occ. eigenvalues --  -38.46501 -38.45761 -38.44250 -38.44194 -38.43797
 Alpha  occ. eigenvalues --  -38.43591 -38.43492  -2.22291  -2.21534  -2.20044
 Alpha  occ. eigenvalues --   -2.19983  -2.19606  -2.19449  -2.19282  -1.15980
 Alpha  occ. eigenvalues --   -1.15971  -1.15904  -1.15209  -1.15178  -1.15151
 Alpha  occ. eigenvalues --   -1.13702  -1.13690  -1.13682  -1.13648  -1.13647
 Alpha  occ. eigenvalues --   -1.13575  -1.13298  -1.13246  -1.13245  -1.13162
 Alpha  occ. eigenvalues --   -1.13120  -1.13066  -1.12951  -1.12946  -1.12916
 Alpha  occ. eigenvalues --   -0.16456  -0.13662  -0.12572  -0.10739
 Alpha virt. eigenvalues --   -0.07631  -0.05840  -0.03988  -0.03640  -0.03058
 Alpha virt. eigenvalues --   -0.02640  -0.02227  -0.01898  -0.01748  -0.01181
 Alpha virt. eigenvalues --   -0.00702  -0.00343   0.00075   0.00160   0.00264

  Beta  occ. eigenvalues --  -38.46506 -38.45717 -38.44203 -38.44116 -38.43755
  Beta  occ. eigenvalues --  -38.43589 -38.43500  -2.22303  -2.21454  -2.19958
  Beta  occ. eigenvalues --   -2.19838  -2.19528  -2.19451  -2.19302  -1.15991
  Beta  occ. eigenvalues --   -1.15951  -1.15923  -1.15155  -1.15109  -1.15100
  Beta  occ. eigenvalues --   -1.13646  -1.13630  -1.13624  -1.13549  -1.13546
  Beta  occ. eigenvalues --   -1.13483  -1.13252  -1.13193  -1.13192  -1.13170
  Beta  occ. eigenvalues --   -1.13126  -1.13027  -1.12968  -1.12962  -1.12895
  Beta  occ. eigenvalues --   -0.16009  -0.13033  -0.12132
  Beta virt. eigenvalues --   -0.07578  -0.07342  -0.05296  -0.03850  -0.03311
  Beta virt. eigenvalues --   -0.02856  -0.02387  -0.02026  -0.01686  -0.01508
  Beta virt. eigenvalues --   -0.00872  -0.00429  -0.00010   0.00126   0.00256

 Mulliken charges and spin densities:
               1          2
     1  Na  -0.524342  -0.074963
     2  Na   0.923691   0.476037
     3  Na   0.122347   0.231770
     4  Na  -0.610276   0.231473
     5  Na  -0.869200  -0.192570
     6  Na   0.481206   0.186606
     7  Na   0.476573   0.141648
 Sum of Mulliken charges =  -0.00000   1.00000

 Dipole moment (field-independent basis, Debye):
    X=              1.7258    Y=              0.7126    Z=             -0.3674  Tot=              1.9029
 Quadrupole moment (field-independent basis, Debye-Ang):
   XX=            -78.9146   YY=            -59.6626   ZZ=            -69.9274
   XY=              3.5743   XZ=              0.1264   YZ=             -2.0681

 Normal termination of Gaussian 16 at Sun Dec  3 16:20:59 2023.
