 Gaussian 16, Revision B.01,
 Gaussian 16:  ES64L-G16RevB.01 20-Dec-2017

 -------------------------
 #P B3LYP/6-311+g(d) force
 -------------------------

 -----
 DPGEN
 -----
 Symbolic Z-matrix:
 Charge =  0 Multiplicity = 2

                         Standard orientation:
 ---------------------------------------------------------------------
 Center     Atomic      Atomic             Coordinates (Angstroms)
 Number     Number       Type             X           Y           Z
 ---------------------------------------------------------------------
      1         11           0       -0.341982    0.547436   -1.468317
      2         11           0       -0.912350   -3.048907   -0.003777
      3         11           0        2.472019   -1.420287   -1.080538
      4         11           0        3.197213    1.796624    0.444874
      5         11           0       -2.913788   -0.588696    0.313053
      6         11           0       -2.086070    3.043952   -0.226696
      7         11           0        0.584958   -0.330122    2.021401
 ---------------------------------------------------------------------

 SCF Done:  E(UB3LYP) =  -1136.13027363     A.U. after   20 cycles

 The electronic state is 2-A.
 Alpha  occ. eigenvalues --  -38.44603 -38.44189 -38.44098 -38.43904 -38.43584
 Alpha  occ. eigenvalues --  -38.43376 -38.43316  -2.20368  -2.20022  -2.19957
 Alpha  occ. eigenvalues --   -2.19736  -2.19374  -2.19289  -2.19151  -1.14034
 Alpha  occ. eigenvalues --   -1.14030  -1.14001  -1.13700  -1.13675  -1.13663
 Alpha  occ. eigenvalues --   -1.13630  -1.13613  -1.13572  -1.13420  -1.13387
 Alpha  occ. eigenvalues --   -1.13347  -1.13066  -1.13033  -1.13016  -1.12980
 Alpha  occ. eigenvalues --   -1.12938  -1.12889  -1.12831  -1.12807  -1.12794
 Alpha  occ. eigenvalues --   -0.17916  -0.13149  -0.12015  -0.10652
 Alpha virt. eigenvalues --   -0.06138  -0.05329  -0.04760  -0.03318  -0.02654
 Alpha virt. eigenvalues --   -0.02495  -0.01864  -0.01442  -0.00718  -0.00360
 Alpha virt. eigenvalues --   -0.00094   0.00279   0.00640   0.00702   0.00762

  Beta  occ. eigenvalues --  -38.44591 -38.44112 -38.44093 -38.43860 -38.43587
  Beta  occ. eigenvalues --  -38.43332 -38.43315  -2.20347  -2.19948  -2.19880
  Beta  occ. eigenvalues --   -2.19657  -2.19380  -2.19210  -2.19154  -1.14019
  Beta  occ. eigenvalues --   -1.14003  -1.13990  -1.13658  -1.13615  -1.13601
  Beta  occ. eigenvalues --   -1.13578  -1.13564  -1.13509  -1.13357  -1.13331
  Beta  occ. eigenvalues --   -1.13289  -1.13061  -1.13033  -1.13019  -1.12925
  Beta  occ. eigenvalues --   -1.12888  -1.12837  -1.12827  -1.12804  -1.12778
  Beta  occ. eigenvalues --   -0.17247  -0.12914  -0.11837
  Beta virt. eigenvalues --   -0.06859  -0.05948  -0.05174  -0.04661  -0.02720
  Beta virt. eigenvalues --   -0.02119  -0.01709  -0.01637  -0.01246  -0.00700
  Beta virt. eigenvalues --   -0.00296   0.00071   0.00337   0.00722   0.00757

 Mulliken charges and spin densities:
               1          2
     1  Na   0.035253   0.182430
     2  Na   0.035100   0.008913
     3  Na   0.234348   0.161528
     4  Na  -0.093755   0.080846
     5  Na  -0.049958   0.023003
     6  Na   0.085066  -0.039909
     7  Na  -0.246054   0.583190
 Sum of Mulliken charges =  -0.00000   1.00000

 Dipole moment (field-independent basis, Debye):
    X=              0.3521    Y=              0.2642    Z=              0.3059  Tot=              0.5361
 Quadrupole moment (field-independent basis, Debye-Ang):
   XX=            -58.0483   YY=            -60.9964   ZZ=            -74.6192
   XY=              1.7975   XZ=             -2.0577   YZ=              2.1898

 Normal termination of Gaussian 16 at Thu Dec  7 09:36:50 2023.
