 Gaussian 16, Revision B.01,
 Gaussian 16:  ES64L-G16RevB.01 20-Dec-2017

 -------------------------
 #P B3LYP/6-311+g(d) force
 -------------------------

 -----
 DPGEN
 -----
 Symbolic Z-matrix:
 Charge =  0 Multiplicity = 2

                         Standard orientation:
 ---------------------------------------------------------------------
 Center     Atomic      Atomic             Coordinates (Angstroms)
 Number     Number       Type             X           Y           Z
 ---------------------------------------------------------------------
      1         11           0       -0.072329   -0.232419   -1.740976
      2         11           0       -0.961790   -2.042046    0.427202
      3         11           0        2.007497   -1.664748   -0.387603
      4         11           0        2.284398    1.311437    0.319692
      5         11           0       -0.518838    2.269384   -0.416046
      6         11           0       -0.060260    0.192009    1.883750
      7         11           0       -2.678678    0.166383   -0.086019
 ---------------------------------------------------------------------

 SCF Done:  E(UB3LYP) =  -1136.10685307     A.U. after   20 cycles

 The electronic state is 2-A.
 Alpha  occ. eigenvalues --  -38.44061 -38.43916 -38.43650 -38.43448 -38.43376
 Alpha  occ. eigenvalues --  -38.43304 -38.43085  -2.20184  -2.20112  -2.19693
 Alpha  occ. eigenvalues --   -2.19444  -2.19420  -2.19381  -2.19147  -1.13971
 Alpha  occ. eigenvalues --   -1.13875  -1.13870  -1.13814  -1.13780  -1.13746
 Alpha  occ. eigenvalues --   -1.13478  -1.13366  -1.13309  -1.13170  -1.13147
 Alpha  occ. eigenvalues --   -1.13115  -1.13097  -1.13056  -1.13037  -1.13013
 Alpha  occ. eigenvalues --   -1.12948  -1.12907  -1.12832  -1.12778  -1.12726
 Alpha  occ. eigenvalues --   -0.20936  -0.13602  -0.12824  -0.12129
 Alpha virt. eigenvalues --   -0.05055  -0.04400  -0.04086  -0.03662  -0.03273
 Alpha virt. eigenvalues --   -0.03061  -0.01082  -0.00570  -0.00102   0.00334
 Alpha virt. eigenvalues --    0.00658   0.00725   0.01018   0.01098   0.01116

  Beta  occ. eigenvalues --  -38.43966 -38.43829 -38.43641 -38.43439 -38.43365
  Beta  occ. eigenvalues --  -38.43285 -38.43069  -2.20012  -2.19954  -2.19681
  Beta  occ. eigenvalues --   -2.19431  -2.19391  -2.19365  -2.19123  -1.13862
  Beta  occ. eigenvalues --   -1.13760  -1.13752  -1.13712  -1.13662  -1.13640
  Beta  occ. eigenvalues --   -1.13463  -1.13356  -1.13261  -1.13164  -1.13140
  Beta  occ. eigenvalues --   -1.13100  -1.13053  -1.13021  -1.12987  -1.12968
  Beta  occ. eigenvalues --   -1.12935  -1.12895  -1.12811  -1.12731  -1.12708
  Beta  occ. eigenvalues --   -0.20140  -0.13260  -0.12491
  Beta virt. eigenvalues --   -0.07982  -0.05073  -0.04385  -0.04073  -0.02733
  Beta virt. eigenvalues --   -0.02391  -0.01917  -0.01012  -0.00527   0.00046
  Beta virt. eigenvalues --    0.00346   0.00629   0.00696   0.01064   0.01085

 Mulliken charges and spin densities:
               1          2
     1  Na  -1.193835   0.375204
     2  Na   0.922001   0.175328
     3  Na   0.310907   0.011476
     4  Na   0.258811   0.031210
     5  Na   0.641902   0.078111
     6  Na  -1.100745   0.396814
     7  Na   0.160959  -0.068144
 Sum of Mulliken charges =  -0.00000   1.00000

 Dipole moment (field-independent basis, Debye):
    X=              0.1121    Y=              0.1043    Z=              0.1289  Tot=              0.2001
 Quadrupole moment (field-independent basis, Debye-Ang):
   XX=            -60.1110   YY=            -68.3096   ZZ=            -68.6503
   XY=             -0.3327   XZ=              0.1571   YZ=             -0.3835

 Normal termination of Gaussian 16 at Fri Dec  8 06:20:17 2023.
