 Gaussian 16, Revision B.01,
 Gaussian 16:  ES64L-G16RevB.01 20-Dec-2017

 -------------------------
 #P B3LYP/6-311+g(d) force
 -------------------------

 -----
 DPGEN
 -----
 Symbolic Z-matrix:
 Charge =  0 Multiplicity = 2

                         Standard orientation:
 ---------------------------------------------------------------------
 Center     Atomic      Atomic             Coordinates (Angstroms)
 Number     Number       Type             X           Y           Z
 ---------------------------------------------------------------------
      1         11           0        2.701547   -1.539207   -0.920886
      2         11           0        0.051174   -0.437681   -1.559512
      3         11           0       -3.755154    0.078812   -1.001512
      4         11           0        2.035356    2.351087   -0.601871
      5         11           0       -1.747308    1.419018    1.050877
      6         11           0       -0.868441   -2.094364    1.196338
      7         11           0        1.582827    0.222335    1.836567
 ---------------------------------------------------------------------

 SCF Done:  E(UB3LYP) =  -1136.12609953     A.U. after   23 cycles

 The electronic state is 2-A.
 Alpha  occ. eigenvalues --  -38.44705 -38.44094 -38.43809 -38.43778 -38.43613
 Alpha  occ. eigenvalues --  -38.43612 -38.42984  -2.20511  -2.19963  -2.19742
 Alpha  occ. eigenvalues --   -2.19733  -2.19475  -2.19465  -2.18813  -1.14187
 Alpha  occ. eigenvalues --   -1.14165  -1.14134  -1.13761  -1.13616  -1.13555
 Alpha  occ. eigenvalues --   -1.13435  -1.13413  -1.13381  -1.13363  -1.13348
 Alpha  occ. eigenvalues --   -1.13344  -1.13174  -1.13150  -1.13144  -1.13118
 Alpha  occ. eigenvalues --   -1.13094  -1.13061  -1.12492  -1.12476  -1.12443
 Alpha  occ. eigenvalues --   -0.18596  -0.13649  -0.11684  -0.11094
 Alpha virt. eigenvalues --   -0.06198  -0.05005  -0.04474  -0.03138  -0.02853
 Alpha virt. eigenvalues --   -0.02690  -0.01982  -0.00989  -0.00759   0.00066
 Alpha virt. eigenvalues --    0.00185   0.00308   0.00369   0.00685   0.00838

  Beta  occ. eigenvalues --  -38.44682 -38.44073 -38.43751 -38.43733 -38.43599
  Beta  occ. eigenvalues --  -38.43571 -38.42979  -2.20469  -2.19927  -2.19660
  Beta  occ. eigenvalues --   -2.19630  -2.19455  -2.19394  -2.18804  -1.14162
  Beta  occ. eigenvalues --   -1.14131  -1.14107  -1.13720  -1.13590  -1.13527
  Beta  occ. eigenvalues --   -1.13369  -1.13338  -1.13309  -1.13303  -1.13288
  Beta  occ. eigenvalues --   -1.13272  -1.13152  -1.13114  -1.13096  -1.13081
  Beta  occ. eigenvalues --   -1.13047  -1.13019  -1.12480  -1.12472  -1.12430
  Beta  occ. eigenvalues --   -0.17826  -0.13368  -0.10919
  Beta virt. eigenvalues --   -0.07738  -0.05983  -0.04831  -0.04026  -0.02907
  Beta virt. eigenvalues --   -0.02270  -0.01901  -0.01758  -0.00807  -0.00489
  Beta virt. eigenvalues --    0.00149   0.00235   0.00356   0.00459   0.00743

 Mulliken charges and spin densities:
               1          2
     1  Na   0.402218  -0.040995
     2  Na  -0.408767   0.518731
     3  Na   0.255959  -0.001176
     4  Na  -0.191748  -0.015176
     5  Na  -0.208112   0.072114
     6  Na  -0.187514   0.117629
     7  Na   0.337965   0.348874
 Sum of Mulliken charges =  -0.00000   1.00000

 Dipole moment (field-independent basis, Debye):
    X=             -0.5225    Y=             -0.4246    Z=             -0.1608  Tot=              0.6922
 Quadrupole moment (field-independent basis, Debye-Ang):
   XX=            -52.5378   YY=            -74.5247   ZZ=            -66.6516
   XY=             -0.4403   XZ=              1.4067   YZ=             -2.1135

 Normal termination of Gaussian 16 at Wed Nov 29 15:47:39 2023.
