 Gaussian 16, Revision B.01,
 Gaussian 16:  ES64L-G16RevB.01 20-Dec-2017

 -------------------------
 #P B3LYP/6-311+g(d) force
 -------------------------

 -----
 DPGEN
 -----
 Symbolic Z-matrix:
 Charge =  0 Multiplicity = 2

                         Standard orientation:
 ---------------------------------------------------------------------
 Center     Atomic      Atomic             Coordinates (Angstroms)
 Number     Number       Type             X           Y           Z
 ---------------------------------------------------------------------
      1         11           0        5.694154   -0.115137    0.949892
      2         11           0        0.181596    2.638579    0.648423
      3         11           0       -3.259337    1.868709   -0.509398
      4         11           0       -5.561209   -0.515676   -0.885481
      5         11           0       -7.521137   -2.383428    0.849862
      6         11           0        2.945096    0.720694   -0.481319
      7         11           0        7.520837   -2.213741   -0.571980
 ---------------------------------------------------------------------

 SCF Done:  E(UB3LYP) =  -1136.10689835     A.U. after   19 cycles

 The electronic state is 2-A.
 Alpha  occ. eigenvalues --  -38.45130 -38.44747 -38.44671 -38.44442 -38.44421
 Alpha  occ. eigenvalues --  -38.44380 -38.43730  -2.20926  -2.20546  -2.20486
 Alpha  occ. eigenvalues --   -2.20245  -2.20182  -2.20177  -2.19533  -1.14577
 Alpha  occ. eigenvalues --   -1.14568  -1.14560  -1.14183  -1.14182  -1.14181
 Alpha  occ. eigenvalues --   -1.14170  -1.14141  -1.14104  -1.13909  -1.13907
 Alpha  occ. eigenvalues --   -1.13893  -1.13871  -1.13860  -1.13838  -1.13834
 Alpha  occ. eigenvalues --   -1.13831  -1.13788  -1.13206  -1.13205  -1.13202
 Alpha  occ. eigenvalues --   -0.15284  -0.14485  -0.12829  -0.11290
 Alpha virt. eigenvalues --   -0.07289  -0.05143  -0.04151  -0.03450  -0.02961
 Alpha virt. eigenvalues --   -0.02798  -0.02521  -0.01950  -0.01691  -0.01012
 Alpha virt. eigenvalues --   -0.00576  -0.00485  -0.00398   0.00314   0.00428

  Beta  occ. eigenvalues --  -38.45066 -38.44672 -38.44613 -38.44476 -38.44429
  Beta  occ. eigenvalues --  -38.44305 -38.43741  -2.20806  -2.20405  -2.20377
  Beta  occ. eigenvalues --   -2.20266  -2.20246  -2.20040  -2.19561  -1.14497
  Beta  occ. eigenvalues --   -1.14485  -1.14480  -1.14104  -1.14090  -1.14087
  Beta  occ. eigenvalues --   -1.14085  -1.14066  -1.14038  -1.13927  -1.13920
  Beta  occ. eigenvalues --   -1.13919  -1.13907  -1.13870  -1.13849  -1.13742
  Beta  occ. eigenvalues --   -1.13737  -1.13709  -1.13230  -1.13229  -1.13171
  Beta  occ. eigenvalues --   -0.14776  -0.13814  -0.12294
  Beta virt. eigenvalues --   -0.08258  -0.06679  -0.04815  -0.03848  -0.03306
  Beta virt. eigenvalues --   -0.02773  -0.02616  -0.02289  -0.01580  -0.01515
  Beta virt. eigenvalues --   -0.00647  -0.00317  -0.00283  -0.00095   0.00437

 Mulliken charges and spin densities:
               1          2
     1  Na   0.017936   0.048440
     2  Na   0.187706  -0.140929
     3  Na  -0.145112   0.333767
     4  Na  -0.372468  -0.058953
     5  Na   0.438416   0.357581
     6  Na  -0.214090   0.191627
     7  Na   0.087613   0.268467
 Sum of Mulliken charges =  -0.00000   1.00000

 Dipole moment (field-independent basis, Debye):
    X=              1.3501    Y=             -0.8741    Z=              0.1562  Tot=              1.6159
 Quadrupole moment (field-independent basis, Debye-Ang):
   XX=            -54.5174   YY=            -65.4758   ZZ=            -67.9093
   XY=             -1.3220   XZ=             -6.2921   YZ=              2.0850

 Normal termination of Gaussian 16 at Mon Dec  4 01:35:02 2023.
