 Gaussian 16, Revision B.01,
 Gaussian 16:  ES64L-G16RevB.01 20-Dec-2017

 -------------------------
 #P B3LYP/6-311+g(d) force
 -------------------------

 -----
 DPGEN
 -----
 Symbolic Z-matrix:
 Charge =  0 Multiplicity = 2

                         Standard orientation:
 ---------------------------------------------------------------------
 Center     Atomic      Atomic             Coordinates (Angstroms)
 Number     Number       Type             X           Y           Z
 ---------------------------------------------------------------------
      1         11           0        3.903387   -2.133864    0.564838
      2         11           0        1.121744   -2.578812   -0.771160
      3         11           0        2.828214    3.051030   -1.164089
      4         11           0        4.768374    1.675208    0.791624
      5         11           0       -2.599974   -1.999947   -0.580055
      6         11           0       -4.054950    0.657802    1.874755
      7         11           0       -5.966795    1.328582   -0.715913
 ---------------------------------------------------------------------

 SCF Done:  E(UB3LYP) =  -1136.10348134     A.U. after   20 cycles

 The electronic state is 2-A.
 Alpha  occ. eigenvalues --  -38.45605 -38.45374 -38.44522 -38.44083 -38.43796
 Alpha  occ. eigenvalues --  -38.43669 -38.43197  -2.21366  -2.21152  -2.20303
 Alpha  occ. eigenvalues --   -2.19882  -2.19587  -2.19493  -2.18980  -1.15043
 Alpha  occ. eigenvalues --   -1.15032  -1.15016  -1.14807  -1.14803  -1.14761
 Alpha  occ. eigenvalues --   -1.13968  -1.13957  -1.13893  -1.13569  -1.13527
 Alpha  occ. eigenvalues --   -1.13523  -1.13254  -1.13239  -1.13231  -1.13167
 Alpha  occ. eigenvalues --   -1.13136  -1.13110  -1.12661  -1.12659  -1.12632
 Alpha  occ. eigenvalues --   -0.15134  -0.14221  -0.12229  -0.10753
 Alpha virt. eigenvalues --   -0.06740  -0.06020  -0.04140  -0.03485  -0.02921
 Alpha virt. eigenvalues --   -0.02635  -0.02200  -0.01827  -0.01395  -0.01017
 Alpha virt. eigenvalues --   -0.00567  -0.00244  -0.00203   0.00294   0.00375

  Beta  occ. eigenvalues --  -38.45612 -38.45331 -38.44432 -38.44044 -38.43808
  Beta  occ. eigenvalues --  -38.43598 -38.43214  -2.21383  -2.21070  -2.20136
  Beta  occ. eigenvalues --   -2.19809  -2.19613  -2.19361  -2.19019  -1.15056
  Beta  occ. eigenvalues --   -1.15031  -1.15019  -1.14752  -1.14743  -1.14713
  Beta  occ. eigenvalues --   -1.13854  -1.13844  -1.13781  -1.13528  -1.13477
  Beta  occ. eigenvalues --   -1.13472  -1.13274  -1.13256  -1.13223  -1.13089
  Beta  occ. eigenvalues --   -1.13045  -1.13022  -1.12692  -1.12691  -1.12612
  Beta  occ. eigenvalues --   -0.14580  -0.13769  -0.11648
  Beta virt. eigenvalues --   -0.07603  -0.06443  -0.05688  -0.03734  -0.03309
  Beta virt. eigenvalues --   -0.02741  -0.02453  -0.01854  -0.01514  -0.01215
  Beta virt. eigenvalues --   -0.00773  -0.00276  -0.00105   0.00024   0.00340

 Mulliken charges and spin densities:
               1          2
     1  Na   0.633031   0.360214
     2  Na  -0.739657  -0.119654
     3  Na   0.082582   0.194306
     4  Na  -0.141114  -0.058812
     5  Na  -0.001016   0.407323
     6  Na  -0.073637   0.003540
     7  Na   0.239810   0.213083
 Sum of Mulliken charges =  -0.00000   1.00000

 Dipole moment (field-independent basis, Debye):
    X=             -2.8305    Y=              1.2656    Z=              0.2748  Tot=              3.1128
 Quadrupole moment (field-independent basis, Debye-Ang):
   XX=            -57.6927   YY=            -78.5689   ZZ=            -61.7181
   XY=             -4.4257   XZ=              7.8239   YZ=             -2.1524

 Normal termination of Gaussian 16 at Mon Dec  4 01:51:27 2023.
