 Gaussian 16, Revision B.01,
 Gaussian 16:  ES64L-G16RevB.01 20-Dec-2017

 -------------------------
 #P B3LYP/6-311+g(d) force
 -------------------------

 -----
 DPGEN
 -----
 Symbolic Z-matrix:
 Charge =  0 Multiplicity = 2

                         Standard orientation:
 ---------------------------------------------------------------------
 Center     Atomic      Atomic             Coordinates (Angstroms)
 Number     Number       Type             X           Y           Z
 ---------------------------------------------------------------------
      1         11           0       -0.305553    3.164643    0.096850
      2         11           0        5.611811   -0.811221   -0.959174
      3         11           0        2.796414    1.360652   -0.069678
      4         11           0        3.503950   -1.830853    1.347224
      5         11           0       -0.635129   -0.184522    0.120098
      6         11           0       -4.374701   -1.437158   -1.155930
      7         11           0       -6.596792   -0.261540    0.620610
 ---------------------------------------------------------------------

 SCF Done:  E(UB3LYP) =  -1136.11330814     A.U. after   19 cycles

 The electronic state is 2-A.
 Alpha  occ. eigenvalues --  -38.44621 -38.44562 -38.44395 -38.44231 -38.43968
 Alpha  occ. eigenvalues --  -38.43879 -38.43870  -2.20431  -2.20364  -2.20215
 Alpha  occ. eigenvalues --   -2.20023  -2.19758  -2.19683  -2.19671  -1.14114
 Alpha  occ. eigenvalues --   -1.14095  -1.14079  -1.14027  -1.14020  -1.13963
 Alpha  occ. eigenvalues --   -1.13931  -1.13909  -1.13788  -1.13717  -1.13673
 Alpha  occ. eigenvalues --   -1.13671  -1.13421  -1.13410  -1.13392  -1.13370
 Alpha  occ. eigenvalues --   -1.13356  -1.13343  -1.13324  -1.13314  -1.13261
 Alpha  occ. eigenvalues --   -0.16181  -0.13774  -0.12519  -0.09922
 Alpha virt. eigenvalues --   -0.06817  -0.05796  -0.04781  -0.03512  -0.02830
 Alpha virt. eigenvalues --   -0.02342  -0.02007  -0.01854  -0.01394  -0.01065
 Alpha virt. eigenvalues --   -0.00453  -0.00110   0.00318   0.00393   0.00491

  Beta  occ. eigenvalues --  -38.44586 -38.44546 -38.44368 -38.44211 -38.43972
  Beta  occ. eigenvalues --  -38.43857 -38.43825  -2.20367  -2.20333  -2.20168
  Beta  occ. eigenvalues --   -2.19985  -2.19768  -2.19642  -2.19589  -1.14072
  Beta  occ. eigenvalues --   -1.14056  -1.14031  -1.14005  -1.13989  -1.13933
  Beta  occ. eigenvalues --   -1.13901  -1.13855  -1.13755  -1.13696  -1.13647
  Beta  occ. eigenvalues --   -1.13644  -1.13429  -1.13416  -1.13382  -1.13329
  Beta  occ. eigenvalues --   -1.13320  -1.13299  -1.13288  -1.13258  -1.13209
  Beta  occ. eigenvalues --   -0.15646  -0.13583  -0.12306
  Beta virt. eigenvalues --   -0.06771  -0.06128  -0.05481  -0.04416  -0.03298
  Beta virt. eigenvalues --   -0.02645  -0.02123  -0.01840  -0.01485  -0.01198
  Beta virt. eigenvalues --   -0.00755  -0.00164   0.00102   0.00410   0.00540

 Mulliken charges and spin densities:
               1          2
     1  Na   0.284976   0.187683
     2  Na   0.719350   0.040625
     3  Na  -0.396389   0.186934
     4  Na   0.181824   0.133978
     5  Na  -0.771512   0.381380
     6  Na  -0.105579  -0.025408
     7  Na   0.087330   0.094807
 Sum of Mulliken charges =  -0.00000   1.00000

 Dipole moment (field-independent basis, Debye):
    X=              0.9213    Y=              0.0740    Z=              0.0828  Tot=              0.9280
 Quadrupole moment (field-independent basis, Debye-Ang):
   XX=            -56.7307   YY=            -68.6565   ZZ=            -67.5525
   XY=             -9.7621   XZ=             -6.1083   YZ=              2.5964

 Normal termination of Gaussian 16 at Tue Nov 28 20:10:31 2023.
