 Gaussian 16, Revision B.01,
 Gaussian 16:  ES64L-G16RevB.01 20-Dec-2017

 -------------------------
 #P B3LYP/6-311+g(d) force
 -------------------------

 -----
 DPGEN
 -----
 Symbolic Z-matrix:
 Charge =  0 Multiplicity = 2

                         Standard orientation:
 ---------------------------------------------------------------------
 Center     Atomic      Atomic             Coordinates (Angstroms)
 Number     Number       Type             X           Y           Z
 ---------------------------------------------------------------------
      1         11           0        0.150791    0.113352   -1.839620
      2         11           0       -2.230227   -1.743521   -0.264144
      3         11           0       -0.287612    0.018752    2.342802
      4         11           0        0.820313    2.639260    0.066594
      5         11           0       -2.607355    1.196543   -0.235167
      6         11           0        1.372393   -2.300581    0.077815
      7         11           0        2.781699    0.076195   -0.148279
 ---------------------------------------------------------------------

 SCF Done:  E(UB3LYP) =  -1136.12917259     A.U. after   19 cycles

 The electronic state is 2-A.
 Alpha  occ. eigenvalues --  -38.44497 -38.43850 -38.43800 -38.43709 -38.43510
 Alpha  occ. eigenvalues --  -38.43153 -38.42856  -2.20360  -2.19828  -2.19725
 Alpha  occ. eigenvalues --   -2.19699  -2.19409  -2.19093  -2.18743  -1.14010
 Alpha  occ. eigenvalues --   -1.13986  -1.13981  -1.13651  -1.13529  -1.13471
 Alpha  occ. eigenvalues --   -1.13446  -1.13394  -1.13368  -1.13350  -1.13333
 Alpha  occ. eigenvalues --   -1.13307  -1.13067  -1.13049  -1.13031  -1.12763
 Alpha  occ. eigenvalues --   -1.12723  -1.12706  -1.12428  -1.12403  -1.12374
 Alpha  occ. eigenvalues --   -0.19321  -0.13469  -0.12187  -0.11731
 Alpha virt. eigenvalues --   -0.05367  -0.04848  -0.04146  -0.03749  -0.03383
 Alpha virt. eigenvalues --   -0.03054  -0.01192  -0.00759  -0.00148   0.00150
 Alpha virt. eigenvalues --    0.00199   0.00419   0.00823   0.00965   0.00981

  Beta  occ. eigenvalues --  -38.44390 -38.43844 -38.43795 -38.43639 -38.43504
  Beta  occ. eigenvalues --  -38.43148 -38.42852  -2.20163  -2.19822  -2.19692
  Beta  occ. eigenvalues --   -2.19599  -2.19401  -2.19088  -2.18739  -1.13880
  Beta  occ. eigenvalues --   -1.13847  -1.13840  -1.13648  -1.13505  -1.13462
  Beta  occ. eigenvalues --   -1.13422  -1.13355  -1.13316  -1.13304  -1.13262
  Beta  occ. eigenvalues --   -1.13239  -1.13057  -1.13034  -1.13019  -1.12762
  Beta  occ. eigenvalues --   -1.12712  -1.12682  -1.12427  -1.12383  -1.12367
  Beta  occ. eigenvalues --   -0.18531  -0.13215  -0.11951
  Beta virt. eigenvalues --   -0.07701  -0.05307  -0.04858  -0.04104  -0.02885
  Beta virt. eigenvalues --   -0.02288  -0.02228  -0.01103  -0.00705   0.00035
  Beta virt. eigenvalues --    0.00097   0.00156   0.00432   0.00937   0.00974

 Mulliken charges and spin densities:
               1          2
     1  Na  -0.443189   0.233503
     2  Na   0.214635   0.024086
     3  Na  -0.823909   0.601557
     4  Na   0.233717   0.026183
     5  Na   0.258474  -0.007152
     6  Na   0.206181   0.065583
     7  Na   0.354091   0.056240
 Sum of Mulliken charges =  -0.00000   1.00000

 Dipole moment (field-independent basis, Debye):
    X=             -0.3281    Y=              0.0954    Z=              0.3375  Tot=              0.4803
 Quadrupole moment (field-independent basis, Debye-Ang):
   XX=            -61.0206   YY=            -67.6348   ZZ=            -68.5721
   XY=              0.1359   XZ=              0.5120   YZ=              0.2536

 Normal termination of Gaussian 16 at Fri Dec  8 01:19:08 2023.
