 Gaussian 16, Revision B.01,
 Gaussian 16:  ES64L-G16RevB.01 20-Dec-2017

 -------------------------
 #P B3LYP/6-311+g(d) force
 -------------------------

 -----
 DPGEN
 -----
 Symbolic Z-matrix:
 Charge =  0 Multiplicity = 2

                         Standard orientation:
 ---------------------------------------------------------------------
 Center     Atomic      Atomic             Coordinates (Angstroms)
 Number     Number       Type             X           Y           Z
 ---------------------------------------------------------------------
      1         11           0       -1.372185    0.345852    1.766096
      2         11           0        1.964835   -1.401768    0.881834
      3         11           0       -3.804560   -0.910079   -0.104497
      4         11           0        1.537702    1.177199   -0.991004
      5         11           0       -2.500345    2.401272   -0.370215
      6         11           0       -0.657900   -2.140556   -1.202907
      7         11           0        4.832452    0.528080    0.020693
 ---------------------------------------------------------------------

 SCF Done:  E(UB3LYP) =  -1136.11621684     A.U. after   29 cycles

 The electronic state is 2-A.
 Alpha  occ. eigenvalues --  -38.45085 -38.44843 -38.44174 -38.43778 -38.43616
 Alpha  occ. eigenvalues --  -38.43603 -38.43241  -2.20957  -2.20659  -2.20047
 Alpha  occ. eigenvalues --   -2.19643  -2.19443  -2.19425  -2.19064  -1.14643
 Alpha  occ. eigenvalues --   -1.14627  -1.14574  -1.14361  -1.14342  -1.14279
 Alpha  occ. eigenvalues --   -1.13737  -1.13735  -1.13646  -1.13317  -1.13285
 Alpha  occ. eigenvalues --   -1.13244  -1.13105  -1.13096  -1.13091  -1.13087
 Alpha  occ. eigenvalues --   -1.13057  -1.13053  -1.12753  -1.12712  -1.12703
 Alpha  occ. eigenvalues --   -0.17815  -0.14469  -0.11284  -0.10457
 Alpha virt. eigenvalues --   -0.07500  -0.05326  -0.04304  -0.03665  -0.03105
 Alpha virt. eigenvalues --   -0.02291  -0.01613  -0.01576  -0.00961  -0.00834
 Alpha virt. eigenvalues --   -0.00541   0.00071   0.00234   0.00591   0.00718

  Beta  occ. eigenvalues --  -38.45061 -38.44844 -38.44164 -38.43700 -38.43601
  Beta  occ. eigenvalues --  -38.43541 -38.43232  -2.20917  -2.20666  -2.20033
  Beta  occ. eigenvalues --   -2.19498  -2.19424  -2.19301  -2.19050  -1.14618
  Beta  occ. eigenvalues --   -1.14573  -1.14546  -1.14369  -1.14347  -1.14257
  Beta  occ. eigenvalues --   -1.13730  -1.13717  -1.13623  -1.13219  -1.13193
  Beta  occ. eigenvalues --   -1.13143  -1.13103  -1.13092  -1.13036  -1.12998
  Beta  occ. eigenvalues --   -1.12989  -1.12964  -1.12747  -1.12704  -1.12674
  Beta  occ. eigenvalues --   -0.17250  -0.13868  -0.10973
  Beta virt. eigenvalues --   -0.07291  -0.06999  -0.05307  -0.03517  -0.03370
  Beta virt. eigenvalues --   -0.02914  -0.02159  -0.01509  -0.01144  -0.00478
  Beta virt. eigenvalues --   -0.00419  -0.00306   0.00163   0.00339   0.00646

 Mulliken charges and spin densities:
               1          2
     1  Na  -0.110508   0.183467
     2  Na   0.123148   0.008392
     3  Na   0.154906   0.467431
     4  Na  -0.424691  -0.052197
     5  Na   0.107338  -0.071626
     6  Na  -0.156819   0.040484
     7  Na   0.306627   0.424048
 Sum of Mulliken charges =  -0.00000   1.00000

 Dipole moment (field-independent basis, Debye):
    X=              0.0039    Y=              0.0322    Z=              0.3823  Tot=              0.3837
 Quadrupole moment (field-independent basis, Debye-Ang):
   XX=            -70.8616   YY=            -76.4988   ZZ=            -59.8417
   XY=             -3.3028   XZ=              1.4632   YZ=             -4.7139

 Normal termination of Gaussian 16 at Wed Nov 29 01:47:18 2023.
