 Gaussian 16, Revision B.01,
 Gaussian 16:  ES64L-G16RevB.01 20-Dec-2017

 -------------------------
 #P B3LYP/6-311+g(d) force
 -------------------------

 -----
 DPGEN
 -----
 Symbolic Z-matrix:
 Charge =  0 Multiplicity = 2

                         Standard orientation:
 ---------------------------------------------------------------------
 Center     Atomic      Atomic             Coordinates (Angstroms)
 Number     Number       Type             X           Y           Z
 ---------------------------------------------------------------------
      1         11           0        4.220183   -2.781025   -0.695856
      2         11           0       -5.048799   -1.598236   -0.557041
      3         11           0       -2.303995   -1.128729    0.994585
      4         11           0        1.306926    4.051518   -0.499329
      5         11           0       -2.095877    2.211170   -0.289700
      6         11           0        2.493144    1.393789    0.906467
      7         11           0        1.428417   -2.148488    0.140875
 ---------------------------------------------------------------------

 SCF Done:  E(UB3LYP) =  -1136.10720293     A.U. after   24 cycles

 The electronic state is 2-A.
 Alpha  occ. eigenvalues --  -38.45675 -38.44668 -38.44464 -38.44454 -38.43813
 Alpha  occ. eigenvalues --  -38.43813 -38.43736  -2.21465  -2.20496  -2.20259
 Alpha  occ. eigenvalues --   -2.20234  -2.19634  -2.19626  -2.19525  -1.15167
 Alpha  occ. eigenvalues --   -1.15115  -1.15101  -1.14166  -1.14148  -1.14131
 Alpha  occ. eigenvalues --   -1.13935  -1.13922  -1.13904  -1.13880  -1.13877
 Alpha  occ. eigenvalues --   -1.13836  -1.13365  -1.13303  -1.13285  -1.13267
 Alpha  occ. eigenvalues --   -1.13262  -1.13206  -1.13195  -1.13189  -1.13166
 Alpha  occ. eigenvalues --   -0.16070  -0.13888  -0.12939  -0.09796
 Alpha virt. eigenvalues --   -0.07648  -0.05547  -0.04557  -0.03736  -0.02667
 Alpha virt. eigenvalues --   -0.02501  -0.02328  -0.01626  -0.01315  -0.01083
 Alpha virt. eigenvalues --   -0.00246  -0.00031   0.00119   0.00292   0.00417

  Beta  occ. eigenvalues --  -38.45683 -38.44661 -38.44421 -38.44381 -38.43820
  Beta  occ. eigenvalues --  -38.43734 -38.43720  -2.21480  -2.20482  -2.20181
  Beta  occ. eigenvalues --   -2.20096  -2.19646  -2.19525  -2.19461  -1.15176
  Beta  occ. eigenvalues --   -1.15126  -1.15110  -1.14158  -1.14138  -1.14124
  Beta  occ. eigenvalues --   -1.13879  -1.13862  -1.13823  -1.13809  -1.13785
  Beta  occ. eigenvalues --   -1.13751  -1.13335  -1.13320  -1.13272  -1.13198
  Beta  occ. eigenvalues --   -1.13182  -1.13152  -1.13151  -1.13146  -1.13118
  Beta  occ. eigenvalues --   -0.15739  -0.13413  -0.12459
  Beta virt. eigenvalues --   -0.07394  -0.06406  -0.05321  -0.04277  -0.03549
  Beta virt. eigenvalues --   -0.02530  -0.02188  -0.02011  -0.01370  -0.00978
  Beta virt. eigenvalues --   -0.00960  -0.00043   0.00192   0.00269   0.00491

 Mulliken charges and spin densities:
               1          2
     1  Na   1.107493  -0.063089
     2  Na   0.253165   0.464216
     3  Na  -0.379494   0.091746
     4  Na   0.424738   0.028434
     5  Na  -0.151410   0.260044
     6  Na  -0.446773   0.265728
     7  Na  -0.807719  -0.047078
 Sum of Mulliken charges =  -0.00000   1.00000

 Dipole moment (field-independent basis, Debye):
    X=              2.0560    Y=             -0.5012    Z=             -0.6639  Tot=              2.2179
 Quadrupole moment (field-independent basis, Debye-Ang):
   XX=            -63.1031   YY=            -66.9353   ZZ=            -69.4000
   XY=            -14.5221   XZ=             -0.6450   YZ=             -2.1342

 Normal termination of Gaussian 16 at Sun Dec  3 17:10:56 2023.
