 Gaussian 16, Revision B.01,
 Gaussian 16:  ES64L-G16RevB.01 20-Dec-2017

 -------------------------
 #P B3LYP/6-311+g(d) force
 -------------------------

 -----
 DPGEN
 -----
 Symbolic Z-matrix:
 Charge =  0 Multiplicity = 2

                         Standard orientation:
 ---------------------------------------------------------------------
 Center     Atomic      Atomic             Coordinates (Angstroms)
 Number     Number       Type             X           Y           Z
 ---------------------------------------------------------------------
      1         11           0        1.922654    2.242770   -0.268914
      2         11           0        0.082108   -0.002543   -1.835904
      3         11           0       -0.361334   -2.823412   -0.466003
      4         11           0       -1.424624    2.556476    0.158243
      5         11           0       -3.149554   -0.535900    0.088112
      6         11           0        3.066753   -1.115717    0.411669
      7         11           0       -0.136004   -0.321674    1.912796
 ---------------------------------------------------------------------

 SCF Done:  E(UB3LYP) =  -1136.13937779     A.U. after   19 cycles

 The electronic state is 2-A.
 Alpha  occ. eigenvalues --  -38.44031 -38.44011 -38.43634 -38.43454 -38.43435
 Alpha  occ. eigenvalues --  -38.43418 -38.43283  -2.19832  -2.19826  -2.19534
 Alpha  occ. eigenvalues --   -2.19364  -2.19316  -2.19287  -2.19135  -1.13508
 Alpha  occ. eigenvalues --   -1.13502  -1.13494  -1.13480  -1.13473  -1.13468
 Alpha  occ. eigenvalues --   -1.13214  -1.13177  -1.13146  -1.13106  -1.13054
 Alpha  occ. eigenvalues --   -1.12993  -1.12971  -1.12958  -1.12951  -1.12925
 Alpha  occ. eigenvalues --   -1.12922  -1.12917  -1.12807  -1.12800  -1.12763
 Alpha  occ. eigenvalues --   -0.18557  -0.12839  -0.12501  -0.10876
 Alpha virt. eigenvalues --   -0.05676  -0.05019  -0.04716  -0.03164  -0.03029
 Alpha virt. eigenvalues --   -0.02635  -0.01604  -0.01072  -0.00379  -0.00252
 Alpha virt. eigenvalues --   -0.00015   0.00357   0.00810   0.00865   0.00902

  Beta  occ. eigenvalues --  -38.44022 -38.44008 -38.43557 -38.43439 -38.43430
  Beta  occ. eigenvalues --  -38.43338 -38.43280  -2.19831  -2.19813  -2.19393
  Beta  occ. eigenvalues --   -2.19293  -2.19280  -2.19217  -2.19132  -1.13495
  Beta  occ. eigenvalues --   -1.13493  -1.13478  -1.13469  -1.13466  -1.13462
  Beta  occ. eigenvalues --   -1.13123  -1.13083  -1.13043  -1.13039  -1.12997
  Beta  occ. eigenvalues --   -1.12943  -1.12940  -1.12915  -1.12912  -1.12910
  Beta  occ. eigenvalues --   -1.12873  -1.12847  -1.12800  -1.12790  -1.12754
  Beta  occ. eigenvalues --   -0.17830  -0.12601  -0.12235
  Beta virt. eigenvalues --   -0.06999  -0.05615  -0.05021  -0.04642  -0.02429
  Beta virt. eigenvalues --   -0.02254  -0.01599  -0.01488  -0.00997  -0.00411
  Beta virt. eigenvalues --   -0.00295   0.00106   0.00380   0.00858   0.00866

 Mulliken charges and spin densities:
               1          2
     1  Na   0.100479  -0.055411
     2  Na  -0.076569   0.569283
     3  Na   0.179633  -0.062764
     4  Na  -0.013855  -0.084627
     5  Na   0.123767  -0.082494
     6  Na   0.006302  -0.027298
     7  Na  -0.319757   0.743311
 Sum of Mulliken charges =  -0.00000   1.00000

 Dipole moment (field-independent basis, Debye):
    X=             -0.0366    Y=             -0.1971    Z=              0.1165  Tot=              0.2319
 Quadrupole moment (field-independent basis, Debye-Ang):
   XX=            -56.3930   YY=            -63.5504   ZZ=            -73.6547
   XY=             -0.1029   XZ=              0.4964   YZ=              0.4467

 Normal termination of Gaussian 16 at Wed Nov 29 16:28:50 2023.
