 Gaussian 16, Revision B.01,
 Gaussian 16:  ES64L-G16RevB.01 20-Dec-2017

 -------------------------
 #P B3LYP/6-311+g(d) force
 -------------------------

 -----
 DPGEN
 -----
 Symbolic Z-matrix:
 Charge =  0 Multiplicity = 2

                         Standard orientation:
 ---------------------------------------------------------------------
 Center     Atomic      Atomic             Coordinates (Angstroms)
 Number     Number       Type             X           Y           Z
 ---------------------------------------------------------------------
      1         11           0       -0.143217    3.380685   -0.260509
      2         11           0       -3.366241    2.857816   -0.207757
      3         11           0       -6.177629   -3.516271   -0.131397
      4         11           0       -5.503748   -0.867834    0.138163
      5         11           0        5.467264   -0.008858   -0.468108
      6         11           0        7.120477   -2.554965   -0.143570
      7         11           0        2.603094    0.709428    1.073178
 ---------------------------------------------------------------------

 SCF Done:  E(UB3LYP) =  -1136.10138022     A.U. after   18 cycles

 The electronic state is 2-A.
 Alpha  occ. eigenvalues --  -38.45141 -38.45067 -38.44573 -38.44529 -38.44304
 Alpha  occ. eigenvalues --  -38.44167 -38.43990  -2.20940  -2.20887  -2.20327
 Alpha  occ. eigenvalues --   -2.20316  -2.20151  -2.19996  -2.19825  -1.14588
 Alpha  occ. eigenvalues --   -1.14584  -1.14554  -1.14548  -1.14515  -1.14511
 Alpha  occ. eigenvalues --   -1.14037  -1.14032  -1.14010  -1.13995  -1.13967
 Alpha  occ. eigenvalues --   -1.13960  -1.13902  -1.13771  -1.13771  -1.13675
 Alpha  occ. eigenvalues --   -1.13659  -1.13658  -1.13456  -1.13454  -1.13406
 Alpha  occ. eigenvalues --   -0.15255  -0.14176  -0.13078  -0.11605
 Alpha virt. eigenvalues --   -0.06878  -0.05223  -0.04205  -0.03438  -0.02943
 Alpha virt. eigenvalues --   -0.02745  -0.02593  -0.02053  -0.01814  -0.01341
 Alpha virt. eigenvalues --   -0.00791  -0.00638  -0.00326   0.00301   0.00524

  Beta  occ. eigenvalues --  -38.45046 -38.44984 -38.44592 -38.44477 -38.44291
  Beta  occ. eigenvalues --  -38.44172 -38.43992  -2.20763  -2.20732  -2.20367
  Beta  occ. eigenvalues --   -2.20218  -2.20128  -2.20013  -2.19830  -1.14467
  Beta  occ. eigenvalues --   -1.14463  -1.14451  -1.14435  -1.14408  -1.14405
  Beta  occ. eigenvalues --   -1.14041  -1.14040  -1.14023  -1.13998  -1.13902
  Beta  occ. eigenvalues --   -1.13895  -1.13858  -1.13755  -1.13755  -1.13680
  Beta  occ. eigenvalues --   -1.13678  -1.13622  -1.13461  -1.13459  -1.13396
  Beta  occ. eigenvalues --   -0.14415  -0.13755  -0.12714
  Beta virt. eigenvalues --   -0.08324  -0.06445  -0.04728  -0.03940  -0.03226
  Beta virt. eigenvalues --   -0.02827  -0.02630  -0.02316  -0.01832  -0.01645
  Beta virt. eigenvalues --   -0.00890  -0.00493  -0.00244  -0.00160   0.00413

 Mulliken charges and spin densities:
               1          2
     1  Na   0.038581  -0.094642
     2  Na   0.081973   0.233769
     3  Na   0.806091   0.043328
     4  Na  -0.825165   0.032007
     5  Na  -0.102681   0.107612
     6  Na   0.165645   0.280422
     7  Na  -0.164444   0.397505
 Sum of Mulliken charges =  -0.00000   1.00000

 Dipole moment (field-independent basis, Debye):
    X=              1.2051    Y=             -0.8805    Z=              0.1685  Tot=              1.5020
 Quadrupole moment (field-independent basis, Debye-Ang):
   XX=            -62.3554   YY=            -58.6186   ZZ=            -73.6786
   XY=             -2.6804   XZ=              0.3998   YZ=             -1.2828

 Normal termination of Gaussian 16 at Sun Dec  3 22:19:47 2023.
