 Gaussian 16, Revision B.01,
 Gaussian 16:  ES64L-G16RevB.01 20-Dec-2017

 -------------------------
 #P B3LYP/6-311+g(d) force
 -------------------------

 -----
 DPGEN
 -----
 Symbolic Z-matrix:
 Charge =  0 Multiplicity = 2

                         Standard orientation:
 ---------------------------------------------------------------------
 Center     Atomic      Atomic             Coordinates (Angstroms)
 Number     Number       Type             X           Y           Z
 ---------------------------------------------------------------------
      1         11           0        3.429754    0.120921   -0.932520
      2         11           0        0.880761   -0.440953    1.627602
      3         11           0        1.980419    2.663525   -0.426572
      4         11           0       -2.147620    2.011103    1.008855
      5         11           0        1.737057   -2.658274   -0.249171
      6         11           0       -1.978138   -1.550876    0.622000
      7         11           0       -3.902233   -0.145446   -1.650194
 ---------------------------------------------------------------------

 SCF Done:  E(UB3LYP) =  -1136.12107193     A.U. after   21 cycles

 The electronic state is 2-A.
 Alpha  occ. eigenvalues --  -38.44772 -38.44402 -38.44044 -38.43884 -38.43865
 Alpha  occ. eigenvalues --  -38.43581 -38.43453  -2.20541  -2.20224  -2.19907
 Alpha  occ. eigenvalues --   -2.19821  -2.19757  -2.19442  -2.19272  -1.14220
 Alpha  occ. eigenvalues --   -1.14207  -1.14168  -1.13887  -1.13863  -1.13830
 Alpha  occ. eigenvalues --   -1.13643  -1.13594  -1.13534  -1.13509  -1.13478
 Alpha  occ. eigenvalues --   -1.13473  -1.13435  -1.13410  -1.13386  -1.13103
 Alpha  occ. eigenvalues --   -1.13097  -1.13063  -1.12941  -1.12926  -1.12902
 Alpha  occ. eigenvalues --   -0.17500  -0.14337  -0.11804  -0.11025
 Alpha virt. eigenvalues --   -0.06268  -0.05083  -0.04928  -0.03854  -0.02730
 Alpha virt. eigenvalues --   -0.02351  -0.01698  -0.01207  -0.00740  -0.00453
 Alpha virt. eigenvalues --   -0.00320   0.00159   0.00358   0.00396   0.00625

  Beta  occ. eigenvalues --  -38.44753 -38.44313 -38.44030 -38.43838 -38.43832
  Beta  occ. eigenvalues --  -38.43578 -38.43458  -2.20508  -2.20058  -2.19889
  Beta  occ. eigenvalues --   -2.19740  -2.19696  -2.19439  -2.19281  -1.14195
  Beta  occ. eigenvalues --   -1.14181  -1.14134  -1.13773  -1.13749  -1.13724
  Beta  occ. eigenvalues --   -1.13602  -1.13564  -1.13510  -1.13470  -1.13442
  Beta  occ. eigenvalues --   -1.13408  -1.13380  -1.13367  -1.13342  -1.13097
  Beta  occ. eigenvalues --   -1.13094  -1.13048  -1.12943  -1.12935  -1.12895
  Beta  occ. eigenvalues --   -0.16921  -0.13739  -0.11671
  Beta virt. eigenvalues --   -0.07444  -0.06025  -0.04792  -0.04424  -0.03755
  Beta virt. eigenvalues --   -0.02179  -0.01678  -0.01522  -0.01042  -0.00627
  Beta virt. eigenvalues --   -0.00434  -0.00013   0.00329   0.00505   0.00591

 Mulliken charges and spin densities:
               1          2
     1  Na  -0.123407   0.179732
     2  Na   1.467352   0.108248
     3  Na  -0.326419   0.013961
     4  Na  -0.207880   0.083376
     5  Na  -0.314151   0.085524
     6  Na  -0.575769   0.119775
     7  Na   0.080274   0.409383
 Sum of Mulliken charges =  -0.00000   1.00000

 Dipole moment (field-independent basis, Debye):
    X=             -0.5259    Y=             -0.0184    Z=             -0.2381  Tot=              0.5776
 Quadrupole moment (field-independent basis, Debye-Ang):
   XX=            -64.5959   YY=            -67.0177   ZZ=            -68.0024
   XY=             -5.1428   XZ=             -0.7028   YZ=              2.3098

 Normal termination of Gaussian 16 at Sun Dec  3 18:28:37 2023.
