 Gaussian 16, Revision B.01,
 Gaussian 16:  ES64L-G16RevB.01 20-Dec-2017

 -------------------------
 #P B3LYP/6-311+g(d) force
 -------------------------

 -----
 DPGEN
 -----
 Symbolic Z-matrix:
 Charge =  0 Multiplicity = 2

                         Standard orientation:
 ---------------------------------------------------------------------
 Center     Atomic      Atomic             Coordinates (Angstroms)
 Number     Number       Type             X           Y           Z
 ---------------------------------------------------------------------
      1         11           0        2.527302   -0.411229    1.690445
      2         11           0       -0.655890    1.133267    1.652171
      3         11           0        1.493947    2.190745   -0.694003
      4         11           0       -1.704725    1.492437   -1.236877
      5         11           0        3.143535   -1.569259   -1.417642
      6         11           0       -4.190787   -1.187294   -0.055816
      7         11           0       -0.613382   -1.648667    0.061724
 ---------------------------------------------------------------------

 SCF Done:  E(UB3LYP) =  -1136.12567074     A.U. after   22 cycles

 The electronic state is 2-A.
 Alpha  occ. eigenvalues --  -38.44543 -38.44195 -38.44023 -38.43792 -38.43637
 Alpha  occ. eigenvalues --  -38.43593 -38.43404  -2.20301  -2.20039  -2.19876
 Alpha  occ. eigenvalues --   -2.19594  -2.19556  -2.19537  -2.19264  -1.13976
 Alpha  occ. eigenvalues --   -1.13973  -1.13925  -1.13779  -1.13740  -1.13608
 Alpha  occ. eigenvalues --   -1.13547  -1.13539  -1.13513  -1.13332  -1.13252
 Alpha  occ. eigenvalues --   -1.13240  -1.13240  -1.13221  -1.13217  -1.13167
 Alpha  occ. eigenvalues --   -1.13134  -1.13109  -1.12941  -1.12920  -1.12876
 Alpha  occ. eigenvalues --   -0.18248  -0.13588  -0.11554  -0.11001
 Alpha virt. eigenvalues --   -0.06497  -0.05168  -0.04658  -0.03230  -0.02662
 Alpha virt. eigenvalues --   -0.02487  -0.02329  -0.01115  -0.00703  -0.00241
 Alpha virt. eigenvalues --    0.00096   0.00250   0.00340   0.00546   0.00737

  Beta  occ. eigenvalues --  -38.44548 -38.44182 -38.43992 -38.43748 -38.43611
  Beta  occ. eigenvalues --  -38.43543 -38.43382  -2.20310  -2.20018  -2.19825
  Beta  occ. eigenvalues --   -2.19510  -2.19491  -2.19463  -2.19224  -1.13981
  Beta  occ. eigenvalues --   -1.13978  -1.13931  -1.13758  -1.13702  -1.13600
  Beta  occ. eigenvalues --   -1.13512  -1.13504  -1.13450  -1.13290  -1.13194
  Beta  occ. eigenvalues --   -1.13192  -1.13177  -1.13167  -1.13165  -1.13112
  Beta  occ. eigenvalues --   -1.13078  -1.13051  -1.12905  -1.12884  -1.12849
  Beta  occ. eigenvalues --   -0.17562  -0.13352  -0.11354
  Beta virt. eigenvalues --   -0.07163  -0.06384  -0.04996  -0.04073  -0.03029
  Beta virt. eigenvalues --   -0.02460  -0.02116  -0.01526  -0.01033  -0.00304
  Beta virt. eigenvalues --   -0.00149   0.00148   0.00305   0.00462   0.00628

 Mulliken charges and spin densities:
               1          2
     1  Na   0.399729   0.081895
     2  Na   0.285440   0.241217
     3  Na  -0.327399   0.399331
     4  Na   0.155279   0.075262
     5  Na   0.137252   0.156315
     6  Na   0.318477  -0.057614
     7  Na  -0.968778   0.103594
 Sum of Mulliken charges =  -0.00000   1.00000

 Dipole moment (field-independent basis, Debye):
    X=             -0.6235    Y=              0.2111    Z=              0.1410  Tot=              0.6732
 Quadrupole moment (field-independent basis, Debye-Ang):
   XX=            -53.1194   YY=            -73.9882   ZZ=            -67.7693
   XY=              1.5807   XZ=              0.4023   YZ=              1.0566

 Normal termination of Gaussian 16 at Thu Dec  7 01:42:35 2023.
