 Gaussian 16, Revision B.01,
 Gaussian 16:  ES64L-G16RevB.01 20-Dec-2017

 -------------------------
 #P B3LYP/6-311+g(d) force
 -------------------------

 -----
 DPGEN
 -----
 Symbolic Z-matrix:
 Charge =  0 Multiplicity = 2

                         Standard orientation:
 ---------------------------------------------------------------------
 Center     Atomic      Atomic             Coordinates (Angstroms)
 Number     Number       Type             X           Y           Z
 ---------------------------------------------------------------------
      1         11           0        2.692029   -2.449543   -0.686086
      2         11           0       -0.791712   -3.527239   -0.151560
      3         11           0        4.800933   -0.250210    0.323900
      4         11           0       -3.746189    1.470679   -0.346616
      5         11           0       -1.272450    3.404000   -0.645384
      6         11           0       -4.335735   -1.610553    0.850309
      7         11           0        2.653124    2.962867    0.655437
 ---------------------------------------------------------------------

 SCF Done:  E(UB3LYP) =  -1136.10037356     A.U. after   26 cycles

 The electronic state is 2-A.
 Alpha  occ. eigenvalues --  -38.46140 -38.45365 -38.44722 -38.44721 -38.44561
 Alpha  occ. eigenvalues --  -38.44029 -38.43908  -2.21830  -2.21106  -2.20534
 Alpha  occ. eigenvalues --   -2.20511  -2.20341  -2.19828  -2.19713  -1.15529
 Alpha  occ. eigenvalues --   -1.15511  -1.15459  -1.14781  -1.14770  -1.14717
 Alpha  occ. eigenvalues --   -1.14221  -1.14205  -1.14205  -1.14187  -1.14174
 Alpha  occ. eigenvalues --   -1.14138  -1.14019  -1.14011  -1.13964  -1.13476
 Alpha  occ. eigenvalues --   -1.13473  -1.13454  -1.13374  -1.13360  -1.13335
 Alpha  occ. eigenvalues --   -0.15337  -0.14184  -0.13068  -0.10924
 Alpha virt. eigenvalues --   -0.08112  -0.04920  -0.04649  -0.03591  -0.03469
 Alpha virt. eigenvalues --   -0.02424  -0.02277  -0.01713  -0.01302  -0.01247
 Alpha virt. eigenvalues --   -0.01099  -0.00182  -0.00094   0.00317   0.00517

  Beta  occ. eigenvalues --  -38.46159 -38.45314 -38.44700 -38.44697 -38.44554
  Beta  occ. eigenvalues --  -38.43958 -38.43851  -2.21867  -2.21016  -2.20501
  Beta  occ. eigenvalues --   -2.20466  -2.20332  -2.19696  -2.19607  -1.15556
  Beta  occ. eigenvalues --   -1.15538  -1.15471  -1.14722  -1.14712  -1.14633
  Beta  occ. eigenvalues --   -1.14192  -1.14188  -1.14184  -1.14142  -1.14123
  Beta  occ. eigenvalues --   -1.14104  -1.14016  -1.14006  -1.13934  -1.13387
  Beta  occ. eigenvalues --   -1.13382  -1.13365  -1.13301  -1.13289  -1.13266
  Beta  occ. eigenvalues --   -0.14836  -0.13502  -0.12286
  Beta virt. eigenvalues --   -0.08391  -0.07718  -0.04335  -0.04137  -0.03450
  Beta virt. eigenvalues --   -0.03295  -0.02213  -0.02134  -0.01554  -0.01121
  Beta virt. eigenvalues --   -0.00887  -0.00802  -0.00020   0.00148   0.00367

 Mulliken charges and spin densities:
               1          2
     1  Na  -0.379532  -0.055297
     2  Na  -0.108606   0.253322
     3  Na   0.564188   0.164329
     4  Na  -0.140881   0.173216
     5  Na   0.049395   0.230387
     6  Na   0.136013   0.322603
     7  Na  -0.120577  -0.088560
 Sum of Mulliken charges =  -0.00000   1.00000

 Dipole moment (field-independent basis, Debye):
    X=              1.0337    Y=              0.0260    Z=              0.2644  Tot=              1.0673
 Quadrupole moment (field-independent basis, Debye-Ang):
   XX=            -61.3624   YY=            -65.9610   ZZ=            -73.0678
   XY=              3.2120   XZ=              0.8309   YZ=              0.3882

 Normal termination of Gaussian 16 at Sun Dec  3 17:16:12 2023.
