 Gaussian 16, Revision B.01,
 Gaussian 16:  ES64L-G16RevB.01 20-Dec-2017

 -------------------------
 #P B3LYP/6-311+g(d) force
 -------------------------

 -----
 DPGEN
 -----
 Symbolic Z-matrix:
 Charge =  0 Multiplicity = 2

                         Standard orientation:
 ---------------------------------------------------------------------
 Center     Atomic      Atomic             Coordinates (Angstroms)
 Number     Number       Type             X           Y           Z
 ---------------------------------------------------------------------
      1         11           0       -2.695949   -1.628432    0.279164
      2         11           0       -5.649308   -0.328037    0.678717
      3         11           0       -3.875410    1.917013    0.412899
      4         11           0        0.161658    1.342287   -1.176522
      5         11           0        0.529666   -1.686789   -0.933968
      6         11           0        4.418156    0.322345   -0.598474
      7         11           0        7.111187    0.061612    1.338185
 ---------------------------------------------------------------------

 SCF Done:  E(UB3LYP) =  -1136.11169559     A.U. after   19 cycles

 The electronic state is 2-A.
 Alpha  occ. eigenvalues --  -38.44952 -38.44854 -38.44581 -38.44473 -38.44315
 Alpha  occ. eigenvalues --  -38.43785 -38.43748  -2.20816  -2.20731  -2.20397
 Alpha  occ. eigenvalues --   -2.20332  -2.20156  -2.19543  -2.19510  -1.14656
 Alpha  occ. eigenvalues --   -1.14462  -1.14451  -1.14380  -1.14361  -1.14274
 Alpha  occ. eigenvalues --   -1.14104  -1.14057  -1.14026  -1.14008  -1.13984
 Alpha  occ. eigenvalues --   -1.13948  -1.13814  -1.13795  -1.13784  -1.13215
 Alpha  occ. eigenvalues --   -1.13211  -1.13208  -1.13194  -1.13184  -1.13095
 Alpha  occ. eigenvalues --   -0.16990  -0.14229  -0.12054  -0.11038
 Alpha virt. eigenvalues --   -0.06917  -0.05766  -0.04648  -0.03853  -0.03070
 Alpha virt. eigenvalues --   -0.02603  -0.02188  -0.01588  -0.01098  -0.00854
 Alpha virt. eigenvalues --   -0.00577  -0.00289   0.00079   0.00121   0.00548

  Beta  occ. eigenvalues --  -38.44902 -38.44850 -38.44540 -38.44401 -38.44304
  Beta  occ. eigenvalues --  -38.43786 -38.43747  -2.20742  -2.20708  -2.20318
  Beta  occ. eigenvalues --   -2.20201  -2.20138  -2.19546  -2.19507  -1.14616
  Beta  occ. eigenvalues --   -1.14406  -1.14399  -1.14352  -1.14348  -1.14238
  Beta  occ. eigenvalues --   -1.14058  -1.14004  -1.13970  -1.13921  -1.13890
  Beta  occ. eigenvalues --   -1.13855  -1.13803  -1.13779  -1.13744  -1.13216
  Beta  occ. eigenvalues --   -1.13212  -1.13210  -1.13192  -1.13183  -1.13094
  Beta  occ. eigenvalues --   -0.16313  -0.14119  -0.11907
  Beta virt. eigenvalues --   -0.07426  -0.06542  -0.04925  -0.04507  -0.03706
  Beta virt. eigenvalues --   -0.02602  -0.02366  -0.01914  -0.01494  -0.01026
  Beta virt. eigenvalues --   -0.00446  -0.00267   0.00054   0.00141   0.00354

 Mulliken charges and spin densities:
               1          2
     1  Na  -0.347464   0.447773
     2  Na   0.547716  -0.009986
     3  Na  -0.196435   0.243444
     4  Na  -0.135927   0.312573
     5  Na   0.101911   0.022175
     6  Na  -0.353846  -0.008760
     7  Na   0.384044  -0.007219
 Sum of Mulliken charges =  -0.00000   1.00000

 Dipole moment (field-independent basis, Debye):
    X=             -2.5486    Y=             -0.1026    Z=              0.1827  Tot=              2.5572
 Quadrupole moment (field-independent basis, Debye-Ang):
   XX=            -58.6494   YY=            -69.9640   ZZ=            -70.3435
   XY=             -1.2159   XZ=              1.0557   YZ=             -0.1554

 Normal termination of Gaussian 16 at Tue Nov 28 23:16:31 2023.
