 Gaussian 16, Revision B.01,
 Gaussian 16:  ES64L-G16RevB.01 20-Dec-2017

 -------------------------
 #P B3LYP/6-311+g(d) force
 -------------------------

 -----
 DPGEN
 -----
 Symbolic Z-matrix:
 Charge =  0 Multiplicity = 2

                         Standard orientation:
 ---------------------------------------------------------------------
 Center     Atomic      Atomic             Coordinates (Angstroms)
 Number     Number       Type             X           Y           Z
 ---------------------------------------------------------------------
      1         11           0        0.585205    2.815711   -0.672407
      2         11           0        1.876202    0.309606   -2.004477
      3         11           0       -1.026249   -1.924135   -0.209382
      4         11           0        2.861229   -2.515817    0.273538
      5         11           0        2.042271    0.852021    2.073664
      6         11           0       -2.197369    1.631136    0.593750
      7         11           0       -4.141289   -1.168522   -0.054686
 ---------------------------------------------------------------------

 SCF Done:  E(UB3LYP) =  -1136.12425855     A.U. after   20 cycles

 The electronic state is 2-A.
 Alpha  occ. eigenvalues --  -38.44522 -38.44517 -38.44413 -38.44384 -38.44106
 Alpha  occ. eigenvalues --  -38.44032 -38.43028  -2.20323  -2.20312  -2.20206
 Alpha  occ. eigenvalues --   -2.20199  -2.19883  -2.19866  -2.18901  -1.14014
 Alpha  occ. eigenvalues --   -1.14009  -1.13981  -1.13951  -1.13946  -1.13919
 Alpha  occ. eigenvalues --   -1.13915  -1.13905  -1.13895  -1.13855  -1.13835
 Alpha  occ. eigenvalues --   -1.13760  -1.13561  -1.13543  -1.13540  -1.13526
 Alpha  occ. eigenvalues --   -1.13511  -1.13479  -1.12584  -1.12567  -1.12533
 Alpha  occ. eigenvalues --   -0.17239  -0.13700  -0.12165  -0.10756
 Alpha virt. eigenvalues --   -0.06349  -0.05911  -0.04490  -0.03273  -0.03023
 Alpha virt. eigenvalues --   -0.02728  -0.02093  -0.01414  -0.00927  -0.00332
 Alpha virt. eigenvalues --   -0.00214   0.00250   0.00276   0.00586   0.00755

  Beta  occ. eigenvalues --  -38.44514 -38.44432 -38.44409 -38.44390 -38.44104
  Beta  occ. eigenvalues --  -38.43954 -38.43015  -2.20318  -2.20210  -2.20198
  Beta  occ. eigenvalues --   -2.20143  -2.19865  -2.19740  -2.18882  -1.14010
  Beta  occ. eigenvalues --   -1.14001  -1.13951  -1.13920  -1.13892  -1.13891
  Beta  occ. eigenvalues --   -1.13865  -1.13860  -1.13841  -1.13834  -1.13798
  Beta  occ. eigenvalues --   -1.13762  -1.13542  -1.13512  -1.13508  -1.13463
  Beta  occ. eigenvalues --   -1.13441  -1.13378  -1.12562  -1.12560  -1.12493
  Beta  occ. eigenvalues --   -0.16691  -0.13426  -0.12050
  Beta virt. eigenvalues --   -0.06888  -0.06081  -0.05778  -0.04359  -0.02902
  Beta virt. eigenvalues --   -0.02422  -0.02111  -0.01789  -0.01212  -0.00857
  Beta virt. eigenvalues --   -0.00161   0.00050   0.00316   0.00428   0.00669

 Mulliken charges and spin densities:
               1          2
     1  Na   0.177588   0.185345
     2  Na   0.094362   0.274716
     3  Na  -1.148147   0.062332
     4  Na   0.224845   0.082976
     5  Na   0.022280   0.456482
     6  Na  -0.432358   0.017494
     7  Na   1.061431  -0.079345
 Sum of Mulliken charges =  -0.00000   1.00000

 Dipole moment (field-independent basis, Debye):
    X=             -0.9827    Y=             -0.5166    Z=              0.1132  Tot=              1.1160
 Quadrupole moment (field-independent basis, Debye-Ang):
   XX=            -54.2282   YY=            -67.7035   ZZ=            -73.8456
   XY=             -1.1473   XZ=             -0.2988   YZ=              0.4451

 Normal termination of Gaussian 16 at Sun Dec  3 22:41:17 2023.
