 Gaussian 16, Revision B.01,
 Gaussian 16:  ES64L-G16RevB.01 20-Dec-2017

 -------------------------
 #P B3LYP/6-311+g(d) force
 -------------------------

 -----
 DPGEN
 -----
 Symbolic Z-matrix:
 Charge =  0 Multiplicity = 2

                         Standard orientation:
 ---------------------------------------------------------------------
 Center     Atomic      Atomic             Coordinates (Angstroms)
 Number     Number       Type             X           Y           Z
 ---------------------------------------------------------------------
      1         11           0        2.031744   -2.460711    0.184306
      2         11           0       -0.836606    0.126952    2.365134
      3         11           0       -2.316902    1.961070   -0.497411
      4         11           0        1.263999    2.395916   -0.058546
      5         11           0        3.662358    0.171042   -0.330516
      6         11           0       -0.288798   -0.533036   -1.273757
      7         11           0       -3.515796   -1.661233   -0.389210
 ---------------------------------------------------------------------

 SCF Done:  E(UB3LYP) =  -1136.12317733     A.U. after   24 cycles

 The electronic state is 2-A.
 Alpha  occ. eigenvalues --  -38.44765 -38.44717 -38.44285 -38.43963 -38.43884
 Alpha  occ. eigenvalues --  -38.43832 -38.42858  -2.20600  -2.20483  -2.20117
 Alpha  occ. eigenvalues --   -2.19872  -2.19713  -2.19661  -2.18701  -1.14271
 Alpha  occ. eigenvalues --   -1.14262  -1.14247  -1.14153  -1.14141  -1.14118
 Alpha  occ. eigenvalues --   -1.13825  -1.13783  -1.13726  -1.13581  -1.13541
 Alpha  occ. eigenvalues --   -1.13489  -1.13359  -1.13337  -1.13327  -1.13324
 Alpha  occ. eigenvalues --   -1.13317  -1.13300  -1.12388  -1.12366  -1.12340
 Alpha  occ. eigenvalues --   -0.17943  -0.13805  -0.11545  -0.10602
 Alpha virt. eigenvalues --   -0.06805  -0.05867  -0.04037  -0.03315  -0.02699
 Alpha virt. eigenvalues --   -0.02439  -0.02305  -0.01561  -0.00852  -0.00241
 Alpha virt. eigenvalues --   -0.00125   0.00121   0.00526   0.00657   0.00730

  Beta  occ. eigenvalues --  -38.44760 -38.44707 -38.44274 -38.43941 -38.43830
  Beta  occ. eigenvalues --  -38.43763 -38.42855  -2.20591  -2.20466  -2.20099
  Beta  occ. eigenvalues --   -2.19833  -2.19658  -2.19489  -2.18697  -1.14264
  Beta  occ. eigenvalues --   -1.14257  -1.14239  -1.14139  -1.14120  -1.14108
  Beta  occ. eigenvalues --   -1.13808  -1.13757  -1.13711  -1.13536  -1.13515
  Beta  occ. eigenvalues --   -1.13462  -1.13323  -1.13317  -1.13288  -1.13207
  Beta  occ. eigenvalues --   -1.13186  -1.13167  -1.12386  -1.12356  -1.12329
  Beta  occ. eigenvalues --   -0.17338  -0.13573  -0.11388
  Beta virt. eigenvalues --   -0.06845  -0.06458  -0.05780  -0.03928  -0.02801
  Beta virt. eigenvalues --   -0.02361  -0.01735  -0.01627  -0.01424  -0.00799
  Beta virt. eigenvalues --   -0.00156   0.00050   0.00186   0.00666   0.00682

 Mulliken charges and spin densities:
               1          2
     1  Na   0.548215   0.089195
     2  Na  -0.502960   0.650130
     3  Na   0.317221   0.053248
     4  Na   0.102039   0.041512
     5  Na  -0.063856  -0.018575
     6  Na  -0.595920   0.119864
     7  Na   0.195262   0.064626
 Sum of Mulliken charges =  -0.00000   1.00000

 Dipole moment (field-independent basis, Debye):
    X=             -0.3254    Y=             -0.1603    Z=              0.0451  Tot=              0.3656
 Quadrupole moment (field-independent basis, Debye-Ang):
   XX=            -49.9455   YY=            -68.9909   ZZ=            -75.2767
   XY=              0.2496   XZ=              0.0279   YZ=             -1.1603

 Normal termination of Gaussian 16 at Fri Dec  8 00:15:49 2023.
