 Gaussian 16, Revision B.01,
 Gaussian 16:  ES64L-G16RevB.01 20-Dec-2017

 -------------------------
 #P B3LYP/6-311+g(d) force
 -------------------------

 -----
 DPGEN
 -----
 Symbolic Z-matrix:
 Charge =  0 Multiplicity = 2

                         Standard orientation:
 ---------------------------------------------------------------------
 Center     Atomic      Atomic             Coordinates (Angstroms)
 Number     Number       Type             X           Y           Z
 ---------------------------------------------------------------------
      1         11           0       -1.414555   -2.633169   -0.262121
      2         11           0       -3.039611   -0.110241   -0.294024
      3         11           0        2.420849   -1.920272    0.333061
      4         11           0       -0.971322    3.009023    0.024061
      5         11           0        0.342582    0.194245   -1.552293
      6         11           0       -0.265494    0.260070    2.080367
      7         11           0        2.927551    1.200343   -0.329050
 ---------------------------------------------------------------------

 SCF Done:  E(UB3LYP) =  -1136.13361107     A.U. after   19 cycles

 The electronic state is 2-A.
 Alpha  occ. eigenvalues --  -38.44258 -38.44078 -38.43895 -38.43650 -38.43405
 Alpha  occ. eigenvalues --  -38.43302 -38.43286  -2.20122  -2.19951  -2.19730
 Alpha  occ. eigenvalues --   -2.19521  -2.19278  -2.19218  -2.19148  -1.13852
 Alpha  occ. eigenvalues --   -1.13776  -1.13743  -1.13664  -1.13612  -1.13578
 Alpha  occ. eigenvalues --   -1.13394  -1.13392  -1.13371  -1.13188  -1.13152
 Alpha  occ. eigenvalues --   -1.13137  -1.12962  -1.12932  -1.12917  -1.12885
 Alpha  occ. eigenvalues --   -1.12862  -1.12856  -1.12825  -1.12799  -1.12780
 Alpha  occ. eigenvalues --   -0.18517  -0.13411  -0.12192  -0.10688
 Alpha virt. eigenvalues --   -0.05732  -0.05313  -0.04658  -0.03354  -0.02765
 Alpha virt. eigenvalues --   -0.02529  -0.01609  -0.01209  -0.00462  -0.00347
 Alpha virt. eigenvalues --   -0.00016   0.00348   0.00771   0.00833   0.00885

  Beta  occ. eigenvalues --  -38.44248 -38.44069 -38.43887 -38.43554 -38.43403
  Beta  occ. eigenvalues --  -38.43281 -38.43247  -2.20107  -2.19939  -2.19719
  Beta  occ. eigenvalues --   -2.19344  -2.19219  -2.19178  -2.19142  -1.13833
  Beta  occ. eigenvalues --   -1.13756  -1.13731  -1.13659  -1.13586  -1.13566
  Beta  occ. eigenvalues --   -1.13388  -1.13376  -1.13354  -1.13071  -1.13031
  Beta  occ. eigenvalues --   -1.13008  -1.12903  -1.12879  -1.12871  -1.12862
  Beta  occ. eigenvalues --   -1.12855  -1.12822  -1.12814  -1.12785  -1.12762
  Beta  occ. eigenvalues --   -0.17817  -0.13168  -0.11965
  Beta virt. eigenvalues --   -0.06817  -0.05673  -0.05222  -0.04639  -0.02589
  Beta virt. eigenvalues --   -0.02054  -0.01507  -0.01495  -0.01113  -0.00498
  Beta virt. eigenvalues --   -0.00376   0.00134   0.00388   0.00826   0.00856

 Mulliken charges and spin densities:
               1          2
     1  Na   0.005463   0.023776
     2  Na   0.214778   0.001523
     3  Na   0.014283   0.093733
     4  Na   0.092542  -0.091605
     5  Na  -0.174535   0.285213
     6  Na  -0.497376   0.728139
     7  Na   0.344844  -0.040779
 Sum of Mulliken charges =  -0.00000   1.00000

 Dipole moment (field-independent basis, Debye):
    X=              0.2872    Y=              0.1763    Z=              0.1537  Tot=              0.3704
 Quadrupole moment (field-independent basis, Debye-Ang):
   XX=            -56.7963   YY=            -62.5398   ZZ=            -74.8097
   XY=             -0.7887   XZ=              1.1299   YZ=             -0.6230

 Normal termination of Gaussian 16 at Thu Dec  7 23:33:08 2023.
