 Gaussian 16, Revision B.01,
 Gaussian 16:  ES64L-G16RevB.01 20-Dec-2017

 -------------------------
 #P B3LYP/6-311+g(d) force
 -------------------------

 -----
 DPGEN
 -----
 Symbolic Z-matrix:
 Charge =  0 Multiplicity = 2

                         Standard orientation:
 ---------------------------------------------------------------------
 Center     Atomic      Atomic             Coordinates (Angstroms)
 Number     Number       Type             X           Y           Z
 ---------------------------------------------------------------------
      1         11           0       -2.354671    1.914555    0.125792
      2         11           0       -0.250690    0.238882    1.906580
      3         11           0        0.772886   -2.803986    0.184505
      4         11           0        1.255014    2.736323   -0.437949
      5         11           0        3.027498   -0.144797    0.267681
      6         11           0       -2.476965   -1.514325   -0.170093
      7         11           0        0.026928   -0.426652   -1.876517
 ---------------------------------------------------------------------

 SCF Done:  E(UB3LYP) =  -1136.14052605     A.U. after   18 cycles

 The electronic state is 2-A.
 Alpha  occ. eigenvalues --  -38.43688 -38.43611 -38.43582 -38.43553 -38.43507
 Alpha  occ. eigenvalues --  -38.43480 -38.43376  -2.19524  -2.19460  -2.19439
 Alpha  occ. eigenvalues --   -2.19432  -2.19420  -2.19401  -2.19250  -1.13207
 Alpha  occ. eigenvalues --   -1.13200  -1.13194  -1.13182  -1.13176  -1.13126
 Alpha  occ. eigenvalues --   -1.13119  -1.13110  -1.13084  -1.13083  -1.13081
 Alpha  occ. eigenvalues --   -1.13063  -1.13051  -1.13044  -1.13040  -1.13035
 Alpha  occ. eigenvalues --   -1.13031  -1.13015  -1.12911  -1.12909  -1.12875
 Alpha  occ. eigenvalues --   -0.18746  -0.12893  -0.12623  -0.10915
 Alpha virt. eigenvalues --   -0.05238  -0.05165  -0.04861  -0.03198  -0.03137
 Alpha virt. eigenvalues --   -0.02623  -0.01252  -0.01120  -0.00328  -0.00224
 Alpha virt. eigenvalues --   -0.00014   0.00381   0.00863   0.00908   0.00912

  Beta  occ. eigenvalues --  -38.43684 -38.43607 -38.43573 -38.43545 -38.43428
  Beta  occ. eigenvalues --  -38.43402 -38.43370  -2.19519  -2.19456  -2.19428
  Beta  occ. eigenvalues --   -2.19388  -2.19287  -2.19277  -2.19242  -1.13195
  Beta  occ. eigenvalues --   -1.13180  -1.13179  -1.13165  -1.13147  -1.13113
  Beta  occ. eigenvalues --   -1.13095  -1.13081  -1.13056  -1.13045  -1.13043
  Beta  occ. eigenvalues --   -1.13027  -1.13016  -1.12995  -1.12964  -1.12950
  Beta  occ. eigenvalues --   -1.12939  -1.12924  -1.12891  -1.12882  -1.12858
  Beta  occ. eigenvalues --   -0.18004  -0.12648  -0.12380
  Beta virt. eigenvalues --   -0.07024  -0.05212  -0.05165  -0.04757  -0.02411
  Beta virt. eigenvalues --   -0.02357  -0.01599  -0.01168  -0.01041  -0.00359
  Beta virt. eigenvalues --   -0.00280   0.00115   0.00401   0.00893   0.00902

 Mulliken charges and spin densities:
               1          2
     1  Na   0.146096  -0.075097
     2  Na  -0.310334   0.659065
     3  Na   0.156920  -0.073462
     4  Na  -0.027881  -0.040545
     5  Na   0.021007  -0.055115
     6  Na   0.302885  -0.080429
     7  Na  -0.288694   0.665584
 Sum of Mulliken charges =  -0.00000   1.00000

 Dipole moment (field-independent basis, Debye):
    X=             -0.0164    Y=              0.0398    Z=              0.0206  Tot=              0.0478
 Quadrupole moment (field-independent basis, Debye-Ang):
   XX=            -59.6228   YY=            -61.5962   ZZ=            -73.0686
   XY=             -0.2935   XZ=              0.7352   YZ=             -1.5787

 Normal termination of Gaussian 16 at Wed Nov 29 16:07:26 2023.
