 Gaussian 16, Revision B.01,
 Gaussian 16:  ES64L-G16RevB.01 20-Dec-2017

 -------------------------
 #P B3LYP/6-311+g(d) force
 -------------------------

 -----
 DPGEN
 -----
 Symbolic Z-matrix:
 Charge =  0 Multiplicity = 2

                         Standard orientation:
 ---------------------------------------------------------------------
 Center     Atomic      Atomic             Coordinates (Angstroms)
 Number     Number       Type             X           Y           Z
 ---------------------------------------------------------------------
      1         11           0       -0.723456   -1.471762    0.924189
      2         11           0       -1.328999   -0.055655   -1.516647
      3         11           0       -4.109529   -0.586496    0.324670
      4         11           0       -1.205225    2.570191    0.379775
      5         11           0        2.181975   -2.527766   -0.866775
      6         11           0        2.439633    2.036954   -0.862441
      7         11           0        2.745601    0.034534    1.617228
 ---------------------------------------------------------------------

 SCF Done:  E(UB3LYP) =  -1136.11737006     A.U. after   23 cycles

 The electronic state is 2-A.
 Alpha  occ. eigenvalues --  -38.44574 -38.44315 -38.44272 -38.44149 -38.43951
 Alpha  occ. eigenvalues --  -38.43813 -38.43670  -2.20391  -2.20103  -2.20052
 Alpha  occ. eigenvalues --   -2.20036  -2.19763  -2.19736  -2.19516  -1.14060
 Alpha  occ. eigenvalues --   -1.14037  -1.14012  -1.13890  -1.13803  -1.13785
 Alpha  occ. eigenvalues --   -1.13754  -1.13718  -1.13710  -1.13704  -1.13679
 Alpha  occ. eigenvalues --   -1.13610  -1.13436  -1.13404  -1.13389  -1.13375
 Alpha  occ. eigenvalues --   -1.13368  -1.13349  -1.13186  -1.13166  -1.13119
 Alpha  occ. eigenvalues --   -0.17760  -0.13871  -0.11730  -0.10000
 Alpha virt. eigenvalues --   -0.06750  -0.05642  -0.04795  -0.03281  -0.02758
 Alpha virt. eigenvalues --   -0.02505  -0.01833  -0.01329  -0.00873  -0.00436
 Alpha virt. eigenvalues --   -0.00088   0.00108   0.00329   0.00515   0.00693

  Beta  occ. eigenvalues --  -38.44531 -38.44310 -38.44275 -38.44142 -38.43933
  Beta  occ. eigenvalues --  -38.43764 -38.43615  -2.20309  -2.20096  -2.20061
  Beta  occ. eigenvalues --   -2.20028  -2.19704  -2.19676  -2.19412  -1.14001
  Beta  occ. eigenvalues --   -1.13980  -1.13961  -1.13863  -1.13794  -1.13771
  Beta  occ. eigenvalues --   -1.13751  -1.13721  -1.13706  -1.13697  -1.13676
  Beta  occ. eigenvalues --   -1.13592  -1.13387  -1.13384  -1.13358  -1.13349
  Beta  occ. eigenvalues --   -1.13302  -1.13276  -1.13115  -1.13098  -1.13047
  Beta  occ. eigenvalues --   -0.17234  -0.13457  -0.11484
  Beta virt. eigenvalues --   -0.06608  -0.06497  -0.05523  -0.04274  -0.03100
  Beta virt. eigenvalues --   -0.02402  -0.02144  -0.01252  -0.01150  -0.00659
  Beta virt. eigenvalues --   -0.00139   0.00006   0.00253   0.00435   0.00616

 Mulliken charges and spin densities:
               1          2
     1  Na  -0.364518   0.074578
     2  Na  -0.189829   0.394272
     3  Na   0.466035   0.266256
     4  Na  -0.080866  -0.105576
     5  Na   0.139512   0.064335
     6  Na   0.041062  -0.033702
     7  Na  -0.011397   0.339836
 Sum of Mulliken charges =  -0.00000   1.00000

 Dipole moment (field-independent basis, Debye):
    X=             -0.6322    Y=              0.1381    Z=             -0.4884  Tot=              0.8107
 Quadrupole moment (field-independent basis, Debye-Ang):
   XX=            -56.8442   YY=            -71.7717   ZZ=            -68.5211
   XY=             -3.2410   XZ=             -3.7410   YZ=              1.5921

 Normal termination of Gaussian 16 at Sat Dec  9 05:54:13 2023.
