 Gaussian 16, Revision B.01,
 Gaussian 16:  ES64L-G16RevB.01 20-Dec-2017

 -------------------------
 #P B3LYP/6-311+g(d) force
 -------------------------

 -----
 DPGEN
 -----
 Symbolic Z-matrix:
 Charge =  0 Multiplicity = 2

                         Standard orientation:
 ---------------------------------------------------------------------
 Center     Atomic      Atomic             Coordinates (Angstroms)
 Number     Number       Type             X           Y           Z
 ---------------------------------------------------------------------
      1         11           0       -0.169937    2.116167    0.050080
      2         11           0       -1.050139   -1.332431   -0.626411
      3         11           0        1.651508   -1.389428    1.325342
      4         11           0        2.957988    1.970086   -0.997430
      5         11           0       -3.390569    1.704204    0.976386
      6         11           0       -4.930870   -1.656729   -0.711061
      7         11           0        4.932018   -1.411867   -0.016906
 ---------------------------------------------------------------------

 SCF Done:  E(UB3LYP) =  -1136.10784493     A.U. after   31 cycles

 The electronic state is 2-A.
 Alpha  occ. eigenvalues --  -38.45784 -38.45109 -38.44532 -38.44488 -38.44418
 Alpha  occ. eigenvalues --  -38.44124 -38.42663  -2.21538  -2.20881  -2.20309
 Alpha  occ. eigenvalues --   -2.20277  -2.20186  -2.19942  -2.18508  -1.15224
 Alpha  occ. eigenvalues --   -1.15201  -1.15152  -1.14563  -1.14545  -1.14494
 Alpha  occ. eigenvalues --   -1.13998  -1.13967  -1.13948  -1.13937  -1.13926
 Alpha  occ. eigenvalues --   -1.13899  -1.13852  -1.13835  -1.13818  -1.13620
 Alpha  occ. eigenvalues --   -1.13594  -1.13568  -1.12191  -1.12170  -1.12166
 Alpha  occ. eigenvalues --   -0.16825  -0.13823  -0.11495  -0.10967
 Alpha virt. eigenvalues --   -0.07868  -0.05336  -0.04363  -0.03574  -0.03242
 Alpha virt. eigenvalues --   -0.02543  -0.02208  -0.01497  -0.01135  -0.00705
 Alpha virt. eigenvalues --   -0.00627   0.00051   0.00134   0.00354   0.00361

  Beta  occ. eigenvalues --  -38.45766 -38.45079 -38.44502 -38.44435 -38.44381
  Beta  occ. eigenvalues --  -38.44083 -38.42662  -2.21506  -2.20825  -2.20223
  Beta  occ. eigenvalues --   -2.20215  -2.20116  -2.19873  -2.18507  -1.15201
  Beta  occ. eigenvalues --   -1.15177  -1.15127  -1.14525  -1.14507  -1.14450
  Beta  occ. eigenvalues --   -1.13929  -1.13911  -1.13905  -1.13896  -1.13867
  Beta  occ. eigenvalues --   -1.13841  -1.13805  -1.13787  -1.13769  -1.13570
  Beta  occ. eigenvalues --   -1.13548  -1.13495  -1.12191  -1.12176  -1.12150
  Beta  occ. eigenvalues --   -0.16142  -0.13339  -0.11229
  Beta virt. eigenvalues --   -0.07696  -0.07547  -0.04950  -0.03900  -0.03246
  Beta virt. eigenvalues --   -0.02928  -0.02380  -0.02015  -0.01104  -0.00832
  Beta virt. eigenvalues --   -0.00562  -0.00444   0.00101   0.00246   0.00469

 Mulliken charges and spin densities:
               1          2
     1  Na  -0.721720  -0.188448
     2  Na  -0.653274   0.032274
     3  Na   0.201351   0.104348
     4  Na   0.154942   0.372460
     5  Na   0.595807   0.179367
     6  Na   0.324919   0.273199
     7  Na   0.097975   0.226799
 Sum of Mulliken charges =  -0.00000   1.00000

 Dipole moment (field-independent basis, Debye):
    X=             -0.3161    Y=              0.0525    Z=              0.1337  Tot=              0.3472
 Quadrupole moment (field-independent basis, Debye-Ang):
   XX=            -58.9558   YY=            -72.8186   ZZ=            -66.7733
   XY=             -1.7641   XZ=             -3.5662   YZ=              2.3726

 Normal termination of Gaussian 16 at Sun Dec  3 17:00:43 2023.
