 Gaussian 16, Revision B.01,
 Gaussian 16:  ES64L-G16RevB.01 20-Dec-2017

 -------------------------
 #P B3LYP/6-311+g(d) force
 -------------------------

 -----
 DPGEN
 -----
 Symbolic Z-matrix:
 Charge =  0 Multiplicity = 2

                         Standard orientation:
 ---------------------------------------------------------------------
 Center     Atomic      Atomic             Coordinates (Angstroms)
 Number     Number       Type             X           Y           Z
 ---------------------------------------------------------------------
      1         11           0        0.911912   -1.472718    0.010339
      2         11           0        5.712171   -0.577973   -0.541366
      3         11           0        3.099094    1.075831    0.002776
      4         11           0       -0.398740    1.904713   -0.282304
      5         11           0       -2.643906   -0.816819   -0.756455
      6         11           0       -1.114662   -0.161500    2.175490
      7         11           0       -5.565869    0.048466   -0.608479
 ---------------------------------------------------------------------

 SCF Done:  E(UB3LYP) =  -1136.11214693     A.U. after   23 cycles

 The electronic state is 2-A.
 Alpha  occ. eigenvalues --  -38.45927 -38.44977 -38.44239 -38.44014 -38.43597
 Alpha  occ. eigenvalues --  -38.43413 -38.43239  -2.21794  -2.20863  -2.20140
 Alpha  occ. eigenvalues --   -2.19800  -2.19466  -2.19325  -2.19038  -1.15465
 Alpha  occ. eigenvalues --   -1.15449  -1.15430  -1.14552  -1.14519  -1.14464
 Alpha  occ. eigenvalues --   -1.13812  -1.13770  -1.13745  -1.13484  -1.13457
 Alpha  occ. eigenvalues --   -1.13445  -1.13155  -1.13138  -1.13071  -1.13033
 Alpha  occ. eigenvalues --   -1.12998  -1.12977  -1.12690  -1.12687  -1.12672
 Alpha  occ. eigenvalues --   -0.18374  -0.13880  -0.11405  -0.11181
 Alpha virt. eigenvalues --   -0.07315  -0.06104  -0.04148  -0.03069  -0.02914
 Alpha virt. eigenvalues --   -0.02411  -0.02010  -0.01936  -0.01360  -0.00901
 Alpha virt. eigenvalues --   -0.00334   0.00208   0.00245   0.00391   0.00542

  Beta  occ. eigenvalues --  -38.45908 -38.44927 -38.44149 -38.44009 -38.43581
  Beta  occ. eigenvalues --  -38.43403 -38.43244  -2.21764  -2.20773  -2.19974
  Beta  occ. eigenvalues --   -2.19791  -2.19440  -2.19307  -2.19048  -1.15437
  Beta  occ. eigenvalues --   -1.15416  -1.15398  -1.14492  -1.14444  -1.14394
  Beta  occ. eigenvalues --   -1.13698  -1.13653  -1.13630  -1.13478  -1.13450
  Beta  occ. eigenvalues --   -1.13437  -1.13142  -1.13121  -1.13029  -1.13026
  Beta  occ. eigenvalues --   -1.12980  -1.12953  -1.12696  -1.12693  -1.12674
  Beta  occ. eigenvalues --   -0.17642  -0.13696  -0.11345
  Beta virt. eigenvalues --   -0.07164  -0.07060  -0.05872  -0.03730  -0.02886
  Beta virt. eigenvalues --   -0.02363  -0.02235  -0.01645  -0.01609  -0.00846
  Beta virt. eigenvalues --   -0.00738  -0.00238   0.00330   0.00466   0.00501

 Mulliken charges and spin densities:
               1          2
     1  Na  -0.270308   0.439062
     2  Na   0.458640   0.054042
     3  Na  -0.355395  -0.073636
     4  Na  -0.262290   0.522976
     5  Na  -0.537416  -0.109995
     6  Na   0.404921   0.157485
     7  Na   0.561849   0.010067
 Sum of Mulliken charges =  -0.00000   1.00000

 Dipole moment (field-independent basis, Debye):
    X=              0.4675    Y=             -0.1279    Z=              1.4840  Tot=              1.5612
 Quadrupole moment (field-independent basis, Debye-Ang):
   XX=            -69.8535   YY=            -72.0819   ZZ=            -64.6111
   XY=             -5.9655   XZ=             -5.8790   YZ=              3.0874

 Normal termination of Gaussian 16 at Wed Nov 29 00:40:39 2023.
