 Gaussian 16, Revision B.01,
 Gaussian 16:  ES64L-G16RevB.01 20-Dec-2017

 -------------------------
 #P B3LYP/6-311+g(d) force
 -------------------------

 -----
 DPGEN
 -----
 Symbolic Z-matrix:
 Charge =  0 Multiplicity = 2

                         Standard orientation:
 ---------------------------------------------------------------------
 Center     Atomic      Atomic             Coordinates (Angstroms)
 Number     Number       Type             X           Y           Z
 ---------------------------------------------------------------------
      1         11           0        1.381661   -2.080120    1.527542
      2         11           0       -0.881394   -1.261062   -1.158417
      3         11           0       -3.428011   -0.568661   -0.384239
      4         11           0        1.999446    1.949844    0.475158
      5         11           0       -0.945207    0.510808    1.977668
      6         11           0       -0.588773    2.350320   -0.810486
      7         11           0        2.462278   -0.901129   -1.627225
 ---------------------------------------------------------------------

 SCF Done:  E(UB3LYP) =  -1136.12666319     A.U. after   20 cycles

 The electronic state is 2-A.
 Alpha  occ. eigenvalues --  -38.44164 -38.44068 -38.43958 -38.43870 -38.43440
 Alpha  occ. eigenvalues --  -38.43415 -38.43309  -2.20044  -2.19972  -2.19790
 Alpha  occ. eigenvalues --   -2.19707  -2.19345  -2.19295  -2.19287  -1.13888
 Alpha  occ. eigenvalues --   -1.13671  -1.13660  -1.13646  -1.13613  -1.13580
 Alpha  occ. eigenvalues --   -1.13460  -1.13438  -1.13416  -1.13388  -1.13350
 Alpha  occ. eigenvalues --   -1.13320  -1.13189  -1.12999  -1.12990  -1.12939
 Alpha  occ. eigenvalues --   -1.12936  -1.12929  -1.12918  -1.12895  -1.12849
 Alpha  occ. eigenvalues --   -0.18644  -0.13138  -0.12030  -0.11775
 Alpha virt. eigenvalues --   -0.05539  -0.04839  -0.04454  -0.03513  -0.03252
 Alpha virt. eigenvalues --   -0.03069  -0.01491  -0.00648  -0.00623   0.00127
 Alpha virt. eigenvalues --    0.00320   0.00408   0.00621   0.00765   0.00896

  Beta  occ. eigenvalues --  -38.44160 -38.43997 -38.43911 -38.43836 -38.43428
  Beta  occ. eigenvalues --  -38.43412 -38.43281  -2.20039  -2.19844  -2.19705
  Beta  occ. eigenvalues --   -2.19645  -2.19325  -2.19290  -2.19238  -1.13878
  Beta  occ. eigenvalues --   -1.13656  -1.13641  -1.13577  -1.13508  -1.13496
  Beta  occ. eigenvalues --   -1.13399  -1.13383  -1.13350  -1.13337  -1.13309
  Beta  occ. eigenvalues --   -1.13276  -1.13182  -1.12983  -1.12963  -1.12924
  Beta  occ. eigenvalues --   -1.12908  -1.12903  -1.12884  -1.12855  -1.12842
  Beta  occ. eigenvalues --   -0.17887  -0.12936  -0.11851
  Beta virt. eigenvalues --   -0.07778  -0.05402  -0.04477  -0.04181  -0.03273
  Beta virt. eigenvalues --   -0.02624  -0.02062  -0.01421  -0.00625  -0.00244
  Beta virt. eigenvalues --    0.00199   0.00372   0.00471   0.00745   0.00883

 Mulliken charges and spin densities:
               1          2
     1  Na  -0.145421   0.103334
     2  Na  -0.718179   0.352786
     3  Na   0.721541  -0.140375
     4  Na   0.191282   0.027551
     5  Na   0.004547   0.449484
     6  Na  -0.188523   0.092394
     7  Na   0.134752   0.114826
 Sum of Mulliken charges =  -0.00000   1.00000

 Dipole moment (field-independent basis, Debye):
    X=             -0.1068    Y=             -0.0042    Z=              0.2073  Tot=              0.2332
 Quadrupole moment (field-independent basis, Debye-Ang):
   XX=            -57.3662   YY=            -72.9942   ZZ=            -65.6861
   XY=             -1.0272   XZ=             -0.4932   YZ=             -2.2719

 Normal termination of Gaussian 16 at Tue Dec  5 13:46:58 2023.
