 Gaussian 16, Revision B.01,
 Gaussian 16:  ES64L-G16RevB.01 20-Dec-2017

 -------------------------
 #P B3LYP/6-311+g(d) force
 -------------------------

 -----
 DPGEN
 -----
 Symbolic Z-matrix:
 Charge =  0 Multiplicity = 2

                         Standard orientation:
 ---------------------------------------------------------------------
 Center     Atomic      Atomic             Coordinates (Angstroms)
 Number     Number       Type             X           Y           Z
 ---------------------------------------------------------------------
      1         11           0        2.870682    0.644772    0.014144
      2         11           0        0.389704    0.145068    1.821652
      3         11           0       -1.961605   -1.969903    0.392933
      4         11           0        1.592591   -2.322215   -0.258232
      5         11           0       -2.581687    1.115140    0.179263
      6         11           0        0.226652    2.733917   -0.339018
      7         11           0       -0.536337   -0.346780   -1.810742
 ---------------------------------------------------------------------

 SCF Done:  E(UB3LYP) =  -1136.13666783     A.U. after   19 cycles

 The electronic state is 2-A.
 Alpha  occ. eigenvalues --  -38.43730 -38.43534 -38.43455 -38.43363 -38.43361
 Alpha  occ. eigenvalues --  -38.43342 -38.43096  -2.19628  -2.19468  -2.19385
 Alpha  occ. eigenvalues --   -2.19362  -2.19355  -2.19236  -2.18994  -1.13358
 Alpha  occ. eigenvalues --   -1.13284  -1.13271  -1.13238  -1.13151  -1.13130
 Alpha  occ. eigenvalues --   -1.13119  -1.13056  -1.13021  -1.13011  -1.12988
 Alpha  occ. eigenvalues --   -1.12983  -1.12978  -1.12969  -1.12941  -1.12892
 Alpha  occ. eigenvalues --   -1.12885  -1.12857  -1.12665  -1.12653  -1.12627
 Alpha  occ. eigenvalues --   -0.19437  -0.13341  -0.12640  -0.11092
 Alpha virt. eigenvalues --   -0.05271  -0.05012  -0.04540  -0.03422  -0.03024
 Alpha virt. eigenvalues --   -0.02568  -0.01210  -0.00934  -0.00088   0.00041
 Alpha virt. eigenvalues --    0.00065   0.00385   0.00894   0.00965   0.00969

  Beta  occ. eigenvalues --  -38.43727 -38.43526 -38.43443 -38.43334 -38.43286
  Beta  occ. eigenvalues --  -38.43285 -38.43088  -2.19625  -2.19458  -2.19365
  Beta  occ. eigenvalues --   -2.19226  -2.19223  -2.19214  -2.18981  -1.13345
  Beta  occ. eigenvalues --   -1.13277  -1.13258  -1.13221  -1.13134  -1.13091
  Beta  occ. eigenvalues --   -1.13088  -1.13008  -1.12976  -1.12955  -1.12926
  Beta  occ. eigenvalues --   -1.12909  -1.12895  -1.12872  -1.12864  -1.12861
  Beta  occ. eigenvalues --   -1.12847  -1.12828  -1.12658  -1.12632  -1.12608
  Beta  occ. eigenvalues --   -0.18679  -0.13085  -0.12375
  Beta virt. eigenvalues --   -0.07123  -0.05215  -0.05018  -0.04505  -0.02599
  Beta virt. eigenvalues --   -0.02225  -0.01508  -0.01125  -0.00872  -0.00072
  Beta virt. eigenvalues --    0.00012   0.00130   0.00408   0.00949   0.00962

 Mulliken charges and spin densities:
               1          2
     1  Na   0.192083  -0.032730
     2  Na  -0.474452   0.557840
     3  Na   0.294821  -0.007730
     4  Na   0.182446  -0.080267
     5  Na   0.236743   0.002117
     6  Na   0.085778  -0.052690
     7  Na  -0.517420   0.613461
 Sum of Mulliken charges =  -0.00000   1.00000

 Dipole moment (field-independent basis, Debye):
    X=              0.0823    Y=             -0.0560    Z=              0.0147  Tot=              0.1006
 Quadrupole moment (field-independent basis, Debye-Ang):
   XX=            -58.9544   YY=            -63.6960   ZZ=            -72.1974
   XY=              0.0825   XZ=             -1.7560   YZ=             -0.9869

 Normal termination of Gaussian 16 at Tue Dec  5 15:01:05 2023.
