 Gaussian 16, Revision B.01,
 Gaussian 16:  ES64L-G16RevB.01 20-Dec-2017

 -------------------------
 #P B3LYP/6-311+g(d) force
 -------------------------

 -----
 DPGEN
 -----
 Symbolic Z-matrix:
 Charge =  0 Multiplicity = 2

                         Standard orientation:
 ---------------------------------------------------------------------
 Center     Atomic      Atomic             Coordinates (Angstroms)
 Number     Number       Type             X           Y           Z
 ---------------------------------------------------------------------
      1         11           0       -2.943845    0.862555    0.003029
      2         11           0        0.329494    3.032206    0.048792
      3         11           0       -0.245291    0.096900   -1.548356
      4         11           0        1.469985   -2.241033    0.246187
      5         11           0       -2.214483   -2.080034   -0.057015
      6         11           0        0.208259    0.271876    1.667310
      7         11           0        3.395881    0.057531   -0.359948
 ---------------------------------------------------------------------

 SCF Done:  E(UB3LYP) =  -1136.12989995     A.U. after   22 cycles

 The electronic state is 2-A.
 Alpha  occ. eigenvalues --  -38.44743 -38.44424 -38.43504 -38.43242 -38.43203
 Alpha  occ. eigenvalues --  -38.43157 -38.42843  -2.20570  -2.20316  -2.19397
 Alpha  occ. eigenvalues --   -2.19173  -2.19171  -2.19045  -2.18848  -1.14264
 Alpha  occ. eigenvalues --   -1.14224  -1.14194  -1.14026  -1.13983  -1.13937
 Alpha  occ. eigenvalues --   -1.13086  -1.13063  -1.13028  -1.12918  -1.12874
 Alpha  occ. eigenvalues --   -1.12840  -1.12808  -1.12792  -1.12781  -1.12746
 Alpha  occ. eigenvalues --   -1.12698  -1.12669  -1.12531  -1.12457  -1.12446
 Alpha  occ. eigenvalues --   -0.19060  -0.13623  -0.12297  -0.10298
 Alpha virt. eigenvalues --   -0.06299  -0.04944  -0.04527  -0.03265  -0.02527
 Alpha virt. eigenvalues --   -0.02066  -0.01959  -0.01118  -0.00441  -0.00172
 Alpha virt. eigenvalues --    0.00022   0.00327   0.00787   0.00819   0.00926

  Beta  occ. eigenvalues --  -38.44733 -38.44417 -38.43499 -38.43229 -38.43199
  Beta  occ. eigenvalues --  -38.43097 -38.42760  -2.20553  -2.20307  -2.19393
  Beta  occ. eigenvalues --   -2.19154  -2.19064  -2.19042  -2.18698  -1.14256
  Beta  occ. eigenvalues --   -1.14195  -1.14184  -1.14023  -1.13962  -1.13922
  Beta  occ. eigenvalues --   -1.13083  -1.13059  -1.13000  -1.12885  -1.12814
  Beta  occ. eigenvalues --   -1.12798  -1.12781  -1.12750  -1.12718  -1.12704
  Beta  occ. eigenvalues --   -1.12669  -1.12668  -1.12432  -1.12352  -1.12340
  Beta  occ. eigenvalues --   -0.18352  -0.13354  -0.12039
  Beta virt. eigenvalues --   -0.06480  -0.06174  -0.04935  -0.04518  -0.02492
  Beta virt. eigenvalues --   -0.01930  -0.01797  -0.01064  -0.01014  -0.00454
  Beta virt. eigenvalues --   -0.00199   0.00162   0.00366   0.00821   0.00831

 Mulliken charges and spin densities:
               1          2
     1  Na   0.391475  -0.041362
     2  Na  -0.022109  -0.129897
     3  Na  -0.611498   0.530675
     4  Na   0.398219   0.056244
     5  Na   0.211584   0.025330
     6  Na  -0.352708   0.537082
     7  Na  -0.014963   0.021928
 Sum of Mulliken charges =  -0.00000   1.00000

 Dipole moment (field-independent basis, Debye):
    X=              0.1564    Y=              0.2602    Z=              0.0004  Tot=              0.3036
 Quadrupole moment (field-independent basis, Debye-Ang):
   XX=            -51.7283   YY=            -63.3323   ZZ=            -76.6476
   XY=              0.8748   XZ=             -1.4027   YZ=             -0.4972

 Normal termination of Gaussian 16 at Wed Nov 29 00:10:38 2023.
