 Gaussian 16, Revision B.01,
 Gaussian 16:  ES64L-G16RevB.01 20-Dec-2017

 -------------------------
 #P B3LYP/6-311+g(d) force
 -------------------------

 -----
 DPGEN
 -----
 Symbolic Z-matrix:
 Charge =  0 Multiplicity = 2

                         Standard orientation:
 ---------------------------------------------------------------------
 Center     Atomic      Atomic             Coordinates (Angstroms)
 Number     Number       Type             X           Y           Z
 ---------------------------------------------------------------------
      1         11           0        3.598242   -0.523844    0.960666
      2         11           0       -0.912403    3.085185    0.156945
      3         11           0       -2.855418   -2.234546    0.660448
      4         11           0        1.314324    1.376269   -1.069974
      5         11           0       -1.752643    0.142982   -1.301548
      6         11           0        1.251675   -2.335813   -1.013190
      7         11           0       -0.643778    0.489767    1.606654
 ---------------------------------------------------------------------

 SCF Done:  E(UB3LYP) =  -1136.12738036     A.U. after   20 cycles

 The electronic state is 2-A.
 Alpha  occ. eigenvalues --  -38.44358 -38.44028 -38.43700 -38.43587 -38.43569
 Alpha  occ. eigenvalues --  -38.43385 -38.43283  -2.20139  -2.19815  -2.19667
 Alpha  occ. eigenvalues --   -2.19506  -2.19391  -2.19338  -2.19256  -1.13823
 Alpha  occ. eigenvalues --   -1.13810  -1.13753  -1.13484  -1.13469  -1.13448
 Alpha  occ. eigenvalues --   -1.13440  -1.13353  -1.13283  -1.13206  -1.13137
 Alpha  occ. eigenvalues --   -1.13116  -1.13079  -1.13052  -1.13045  -1.13033
 Alpha  occ. eigenvalues --   -1.12997  -1.12946  -1.12915  -1.12898  -1.12835
 Alpha  occ. eigenvalues --   -0.18529  -0.12993  -0.12484  -0.10620
 Alpha virt. eigenvalues --   -0.05721  -0.05191  -0.04851  -0.03285  -0.02935
 Alpha virt. eigenvalues --   -0.02244  -0.01452  -0.01353  -0.00673  -0.00085
 Alpha virt. eigenvalues --    0.00191   0.00321   0.00549   0.00754   0.00811

  Beta  occ. eigenvalues --  -38.44342 -38.44006 -38.43641 -38.43582 -38.43562
  Beta  occ. eigenvalues --  -38.43354 -38.43244  -2.20112  -2.19775  -2.19559
  Beta  occ. eigenvalues --   -2.19496  -2.19384  -2.19287  -2.19187  -1.13796
  Beta  occ. eigenvalues --   -1.13786  -1.13735  -1.13456  -1.13436  -1.13416
  Beta  occ. eigenvalues --   -1.13392  -1.13276  -1.13219  -1.13177  -1.13123
  Beta  occ. eigenvalues --   -1.13076  -1.13071  -1.13029  -1.13026  -1.13014
  Beta  occ. eigenvalues --   -1.12933  -1.12905  -1.12881  -1.12828  -1.12783
  Beta  occ. eigenvalues --   -0.17798  -0.12778  -0.12285
  Beta virt. eigenvalues --   -0.06856  -0.05405  -0.05072  -0.04726  -0.02826
  Beta virt. eigenvalues --   -0.02362  -0.01459  -0.01312  -0.01246  -0.00386
  Beta virt. eigenvalues --   -0.00014   0.00270   0.00370   0.00644   0.00787

 Mulliken charges and spin densities:
               1          2
     1  Na   0.172932  -0.037229
     2  Na   0.859316  -0.100426
     3  Na   0.148568  -0.135726
     4  Na  -0.186976   0.331304
     5  Na  -0.103014   0.304604
     6  Na  -0.216475  -0.042842
     7  Na  -0.674351   0.680316
 Sum of Mulliken charges =  -0.00000   1.00000

 Dipole moment (field-independent basis, Debye):
    X=              0.1959    Y=             -0.1481    Z=              0.0289  Tot=              0.2473
 Quadrupole moment (field-independent basis, Debye-Ang):
   XX=            -61.3028   YY=            -60.0940   ZZ=            -71.6649
   XY=             -0.3741   XZ=              1.3889   YZ=             -0.4300

 Normal termination of Gaussian 16 at Wed Nov 29 15:46:32 2023.
