 Gaussian 16, Revision B.01,
 Gaussian 16:  ES64L-G16RevB.01 20-Dec-2017

 -------------------------
 #P B3LYP/6-311+g(d) force
 -------------------------

 -----
 DPGEN
 -----
 Symbolic Z-matrix:
 Charge =  0 Multiplicity = 2

                         Standard orientation:
 ---------------------------------------------------------------------
 Center     Atomic      Atomic             Coordinates (Angstroms)
 Number     Number       Type             X           Y           Z
 ---------------------------------------------------------------------
      1         11           0        0.665442    2.984433    0.266130
      2         11           0       -2.481942    2.713978   -0.605190
      3         11           0        3.568844    1.523578    0.890563
      4         11           0        3.947595   -1.499014   -0.919650
      5         11           0       -3.828061   -0.539010   -0.926412
      6         11           0       -2.695846   -2.113212    1.659193
      7         11           0        0.823968   -3.070752   -0.364633
 ---------------------------------------------------------------------

 SCF Done:  E(UB3LYP) =  -1136.10881722     A.U. after   23 cycles

 The electronic state is 2-A.
 Alpha  occ. eigenvalues --  -38.45398 -38.45351 -38.44548 -38.44315 -38.44155
 Alpha  occ. eigenvalues --  -38.44052 -38.43448  -2.21137  -2.21135  -2.20322
 Alpha  occ. eigenvalues --   -2.20116  -2.19970  -2.19847  -2.19269  -1.14820
 Alpha  occ. eigenvalues --   -1.14818  -1.14807  -1.14798  -1.14781  -1.14744
 Alpha  occ. eigenvalues --   -1.13997  -1.13978  -1.13966  -1.13767  -1.13762
 Alpha  occ. eigenvalues --   -1.13745  -1.13647  -1.13624  -1.13594  -1.13527
 Alpha  occ. eigenvalues --   -1.13522  -1.13491  -1.12919  -1.12917  -1.12902
 Alpha  occ. eigenvalues --   -0.15730  -0.14069  -0.13051  -0.10563
 Alpha virt. eigenvalues --   -0.07503  -0.05359  -0.04220  -0.03561  -0.03409
 Alpha virt. eigenvalues --   -0.02301  -0.02181  -0.01639  -0.01169  -0.00869
 Alpha virt. eigenvalues --   -0.00810  -0.00186   0.00147   0.00411   0.00584

  Beta  occ. eigenvalues --  -38.45361 -38.45346 -38.44534 -38.44262 -38.44098
  Beta  occ. eigenvalues --  -38.44054 -38.43396  -2.21132  -2.21072  -2.20300
  Beta  occ. eigenvalues --   -2.20017  -2.19866  -2.19856  -2.19173  -1.14817
  Beta  occ. eigenvalues --   -1.14801  -1.14778  -1.14766  -1.14746  -1.14678
  Beta  occ. eigenvalues --   -1.13984  -1.13967  -1.13929  -1.13699  -1.13694
  Beta  occ. eigenvalues --   -1.13681  -1.13580  -1.13556  -1.13537  -1.13531
  Beta  occ. eigenvalues --   -1.13524  -1.13449  -1.12859  -1.12852  -1.12839
  Beta  occ. eigenvalues --   -0.15241  -0.13437  -0.12313
  Beta virt. eigenvalues --   -0.07628  -0.07412  -0.04925  -0.03831  -0.03344
  Beta virt. eigenvalues --   -0.03027  -0.02143  -0.01937  -0.01345  -0.00922
  Beta virt. eigenvalues --   -0.00737  -0.00572   0.00100   0.00255   0.00474

 Mulliken charges and spin densities:
               1          2
     1  Na  -0.155418   0.012734
     2  Na   0.103485   0.307504
     3  Na   0.037056   0.160024
     4  Na   0.191535   0.036406
     5  Na   0.051745   0.019443
     6  Na  -0.011514   0.278647
     7  Na  -0.216889   0.185242
 Sum of Mulliken charges =  -0.00000   1.00000

 Dipole moment (field-independent basis, Debye):
    X=             -0.1645    Y=             -1.0537    Z=             -0.1138  Tot=              1.0725
 Quadrupole moment (field-independent basis, Debye-Ang):
   XX=            -58.6225   YY=            -74.8602   ZZ=            -67.9579
   XY=              0.6264   XZ=              1.8622   YZ=              0.4431

 Normal termination of Gaussian 16 at Sun Dec  3 18:41:17 2023.
