 Gaussian 16, Revision B.01,
 Gaussian 16:  ES64L-G16RevB.01 20-Dec-2017

 -------------------------
 #P B3LYP/6-311+g(d) force
 -------------------------

 -----
 DPGEN
 -----
 Symbolic Z-matrix:
 Charge =  0 Multiplicity = 2

                         Standard orientation:
 ---------------------------------------------------------------------
 Center     Atomic      Atomic             Coordinates (Angstroms)
 Number     Number       Type             X           Y           Z
 ---------------------------------------------------------------------
      1         11           0       -3.872373    1.089454    0.483607
      2         11           0       -0.322059    1.586399   -1.364959
      3         11           0        0.792225   -1.505480   -1.177187
      4         11           0        3.327415   -1.081337    0.471956
      5         11           0       -2.293324   -2.105700   -0.391913
      6         11           0        2.257809    2.080983   -0.149808
      7         11           0        0.110307   -0.064318    2.128304
 ---------------------------------------------------------------------

 SCF Done:  E(UB3LYP) =  -1136.11531540     A.U. after   25 cycles

 The electronic state is 2-A.
 Alpha  occ. eigenvalues --  -38.45375 -38.45350 -38.44773 -38.43979 -38.43449
 Alpha  occ. eigenvalues --  -38.43165 -38.42955  -2.21150  -2.21119  -2.20619
 Alpha  occ. eigenvalues --   -2.19787  -2.19342  -2.19079  -2.18912  -1.14830
 Alpha  occ. eigenvalues --   -1.14792  -1.14788  -1.14775  -1.14760  -1.14744
 Alpha  occ. eigenvalues --   -1.14324  -1.14265  -1.14253  -1.13480  -1.13453
 Alpha  occ. eigenvalues --   -1.13415  -1.13152  -1.12983  -1.12970  -1.12767
 Alpha  occ. eigenvalues --   -1.12705  -1.12667  -1.12588  -1.12562  -1.12529
 Alpha  occ. eigenvalues --   -0.18379  -0.13660  -0.11373  -0.11110
 Alpha virt. eigenvalues --   -0.07258  -0.05530  -0.03863  -0.03319  -0.02926
 Alpha virt. eigenvalues --   -0.02603  -0.02498  -0.01312  -0.00615  -0.00407
 Alpha virt. eigenvalues --    0.00080   0.00155   0.00282   0.00636   0.00638

  Beta  occ. eigenvalues --  -38.45352 -38.45280 -38.44772 -38.43968 -38.43446
  Beta  occ. eigenvalues --  -38.43122 -38.42908  -2.21076  -2.21020  -2.20620
  Beta  occ. eigenvalues --   -2.19772  -2.19341  -2.19002  -2.18831  -1.14754
  Beta  occ. eigenvalues --   -1.14747  -1.14741  -1.14717  -1.14705  -1.14661
  Beta  occ. eigenvalues --   -1.14324  -1.14268  -1.14240  -1.13459  -1.13437
  Beta  occ. eigenvalues --   -1.13401  -1.13135  -1.12981  -1.12961  -1.12711
  Beta  occ. eigenvalues --   -1.12649  -1.12612  -1.12533  -1.12501  -1.12459
  Beta  occ. eigenvalues --   -0.17675  -0.13407  -0.11152
  Beta virt. eigenvalues --   -0.07405  -0.06878  -0.05489  -0.03340  -0.03145
  Beta virt. eigenvalues --   -0.02554  -0.01984  -0.01689  -0.01263  -0.00481
  Beta virt. eigenvalues --   -0.00282   0.00111   0.00178   0.00463   0.00702

 Mulliken charges and spin densities:
               1          2
     1  Na   0.169544   0.155981
     2  Na  -0.210828   0.084588
     3  Na  -0.303252   0.133878
     4  Na   0.778096   0.210704
     5  Na  -0.013660  -0.014715
     6  Na   0.021651   0.013444
     7  Na  -0.441551   0.416119
 Sum of Mulliken charges =  -0.00000   1.00000

 Dipole moment (field-independent basis, Debye):
    X=             -0.4264    Y=              0.0141    Z=              0.7925  Tot=              0.9000
 Quadrupole moment (field-independent basis, Debye-Ang):
   XX=            -47.6255   YY=            -75.3379   ZZ=            -71.4684
   XY=             -0.7913   XZ=              0.3430   YZ=              1.2074

 Normal termination of Gaussian 16 at Thu Dec  7 20:53:32 2023.
