 Gaussian 16, Revision B.01,
 Gaussian 16:  ES64L-G16RevB.01 20-Dec-2017

 -------------------------
 #P B3LYP/6-311+g(d) force
 -------------------------

 -----
 DPGEN
 -----
 Symbolic Z-matrix:
 Charge =  0 Multiplicity = 2

                         Standard orientation:
 ---------------------------------------------------------------------
 Center     Atomic      Atomic             Coordinates (Angstroms)
 Number     Number       Type             X           Y           Z
 ---------------------------------------------------------------------
      1         11           0        3.446173   -2.331106    0.397997
      2         11           0       -4.336743    0.592385   -0.646993
      3         11           0        1.723345    3.730115   -0.565789
      4         11           0        3.330588    1.003909    0.021436
      5         11           0       -1.666954    2.780511    0.875430
      6         11           0       -2.762606   -2.312143    0.591852
      7         11           0        0.266196   -3.463671   -0.673933
 ---------------------------------------------------------------------

 SCF Done:  E(UB3LYP) =  -1136.11126100     A.U. after   23 cycles

 The electronic state is 2-A.
 Alpha  occ. eigenvalues --  -38.46061 -38.44772 -38.44593 -38.44430 -38.44384
 Alpha  occ. eigenvalues --  -38.43583 -38.43567  -2.21778  -2.20575  -2.20377
 Alpha  occ. eigenvalues --   -2.20208  -2.20162  -2.19401  -2.19383  -1.15475
 Alpha  occ. eigenvalues --   -1.15457  -1.15383  -1.14260  -1.14243  -1.14225
 Alpha  occ. eigenvalues --   -1.14055  -1.14048  -1.14005  -1.13885  -1.13876
 Alpha  occ. eigenvalues --   -1.13832  -1.13827  -1.13807  -1.13796  -1.13058
 Alpha  occ. eigenvalues --   -1.13053  -1.13049  -1.13031  -1.13031  -1.13009
 Alpha  occ. eigenvalues --   -0.15585  -0.13848  -0.13411  -0.10574
 Alpha virt. eigenvalues --   -0.07481  -0.05275  -0.04195  -0.03291  -0.02971
 Alpha virt. eigenvalues --   -0.02821  -0.02444  -0.01907  -0.01548  -0.00388
 Alpha virt. eigenvalues --   -0.00318  -0.00056   0.00115   0.00430   0.00655

  Beta  occ. eigenvalues --  -38.46047 -38.44749 -38.44560 -38.44404 -38.44351
  Beta  occ. eigenvalues --  -38.43536 -38.43527  -2.21755  -2.20540  -2.20320
  Beta  occ. eigenvalues --   -2.20165  -2.20102  -2.19315  -2.19308  -1.15462
  Beta  occ. eigenvalues --   -1.15445  -1.15344  -1.14240  -1.14227  -1.14155
  Beta  occ. eigenvalues --   -1.14021  -1.14010  -1.13943  -1.13859  -1.13849
  Beta  occ. eigenvalues --   -1.13787  -1.13779  -1.13769  -1.13749  -1.13000
  Beta  occ. eigenvalues --   -1.12997  -1.12991  -1.12980  -1.12974  -1.12960
  Beta  occ. eigenvalues --   -0.15069  -0.13161  -0.12761
  Beta virt. eigenvalues --   -0.07638  -0.07303  -0.04918  -0.03863  -0.02963
  Beta virt. eigenvalues --   -0.02618  -0.02529  -0.02151  -0.01740  -0.01402
  Beta virt. eigenvalues --   -0.00234   0.00019   0.00075   0.00276   0.00443

 Mulliken charges and spin densities:
               1          2
     1  Na   0.266096   0.152233
     2  Na   0.144687   0.173526
     3  Na   0.235578   0.198258
     4  Na  -0.281346   0.186122
     5  Na  -0.112698   0.089809
     6  Na  -0.111918   0.107277
     7  Na  -0.140400   0.092774
 Sum of Mulliken charges =  -0.00000   1.00000

 Dipole moment (field-independent basis, Debye):
    X=             -0.8709    Y=              0.4474    Z=              0.0947  Tot=              0.9836
 Quadrupole moment (field-independent basis, Debye-Ang):
   XX=            -65.2349   YY=            -66.4780   ZZ=            -69.1484
   XY=             -0.8476   XZ=              0.2044   YZ=              0.5972

 Normal termination of Gaussian 16 at Sun Dec  3 13:46:37 2023.
