 Gaussian 16, Revision B.01,
 Gaussian 16:  ES64L-G16RevB.01 20-Dec-2017

 -------------------------
 #P B3LYP/6-311+g(d) force
 -------------------------

 -----
 DPGEN
 -----
 Symbolic Z-matrix:
 Charge =  0 Multiplicity = 2

                         Standard orientation:
 ---------------------------------------------------------------------
 Center     Atomic      Atomic             Coordinates (Angstroms)
 Number     Number       Type             X           Y           Z
 ---------------------------------------------------------------------
      1         11           0        0.164354    0.830917   -1.950614
      2         11           0        0.623189    2.176788    0.790371
      3         11           0       -3.947411   -0.071698    0.102263
      4         11           0       -1.053883   -0.007848    0.356987
      5         11           0        2.616462    0.014654   -0.564947
      6         11           0        1.197607   -0.810299    1.980294
      7         11           0        0.399682   -2.132513   -0.714354
 ---------------------------------------------------------------------

 SCF Done:  E(UB3LYP) =  -1136.08753531     A.U. after   24 cycles

 The electronic state is 2-A.
 Alpha  occ. eigenvalues --  -38.45068 -38.44298 -38.44256 -38.44047 -38.43203
 Alpha  occ. eigenvalues --  -38.43135 -38.43038  -2.20856  -2.20370  -2.20343
 Alpha  occ. eigenvalues --   -2.20105  -2.19539  -2.19188  -2.19077  -1.14585
 Alpha  occ. eigenvalues --   -1.14495  -1.14485  -1.14248  -1.14168  -1.14083
 Alpha  occ. eigenvalues --   -1.13974  -1.13923  -1.13887  -1.13850  -1.13701
 Alpha  occ. eigenvalues --   -1.13684  -1.13366  -1.13251  -1.13135  -1.12841
 Alpha  occ. eigenvalues --   -1.12794  -1.12768  -1.12710  -1.12679  -1.12656
 Alpha  occ. eigenvalues --   -0.20735  -0.13024  -0.12834  -0.11669
 Alpha virt. eigenvalues --   -0.06571  -0.03834  -0.03435  -0.03229  -0.03054
 Alpha virt. eigenvalues --   -0.02862  -0.02041  -0.00562  -0.00318   0.00174
 Alpha virt. eigenvalues --    0.00399   0.00495   0.00560   0.00846   0.01131

  Beta  occ. eigenvalues --  -38.45081 -38.44272 -38.44180 -38.43972 -38.43171
  Beta  occ. eigenvalues --  -38.43102 -38.43005  -2.20881  -2.20319  -2.20217
  Beta  occ. eigenvalues --   -2.19969  -2.19491  -2.19133  -2.19020  -1.14601
  Beta  occ. eigenvalues --   -1.14509  -1.14502  -1.14179  -1.14078  -1.14036
  Beta  occ. eigenvalues --   -1.13932  -1.13810  -1.13796  -1.13778  -1.13618
  Beta  occ. eigenvalues --   -1.13573  -1.13309  -1.13228  -1.13051  -1.12801
  Beta  occ. eigenvalues --   -1.12742  -1.12716  -1.12674  -1.12618  -1.12606
  Beta  occ. eigenvalues --   -0.19732  -0.12903  -0.11528
  Beta virt. eigenvalues --   -0.08266  -0.06412  -0.03475  -0.03035  -0.02820
  Beta virt. eigenvalues --   -0.02502  -0.02056  -0.01823  -0.00335  -0.00230
  Beta virt. eigenvalues --    0.00213   0.00490   0.00539   0.00599   0.00889

 Mulliken charges and spin densities:
               1          2
     1  Na   0.151875   0.411189
     2  Na  -0.487305   0.078691
     3  Na   0.051985  -0.290600
     4  Na   0.094877   0.272379
     5  Na   0.354574   0.131087
     6  Na   0.169945   0.218630
     7  Na  -0.335951   0.178624
 Sum of Mulliken charges =  -0.00000   1.00000

 Dipole moment (field-independent basis, Debye):
    X=             -0.0945    Y=              0.0382    Z=             -0.0693  Tot=              0.1233
 Quadrupole moment (field-independent basis, Debye-Ang):
   XX=            -53.4266   YY=            -74.8007   ZZ=            -63.6316
   XY=              0.0773   XZ=              0.4285   YZ=              2.7463

 Normal termination of Gaussian 16 at Fri Dec  8 18:04:39 2023.
