 Gaussian 16, Revision B.01,
 Gaussian 16:  ES64L-G16RevB.01 20-Dec-2017

 -------------------------
 #P B3LYP/6-311+g(d) force
 -------------------------

 -----
 DPGEN
 -----
 Symbolic Z-matrix:
 Charge =  0 Multiplicity = 2

                         Standard orientation:
 ---------------------------------------------------------------------
 Center     Atomic      Atomic             Coordinates (Angstroms)
 Number     Number       Type             X           Y           Z
 ---------------------------------------------------------------------
      1         11           0        0.139385    0.069949   -1.786051
      2         11           0       -1.026792    2.130315    0.052045
      3         11           0        2.040546    1.646527   -0.055285
      4         11           0        0.261101   -0.039296    1.794145
      5         11           0        2.176580   -1.533637    0.034177
      6         11           0       -0.779688   -2.080267   -0.116845
      7         11           0       -2.811132   -0.193591    0.077814
 ---------------------------------------------------------------------

 SCF Done:  E(UB3LYP) =  -1136.10873803     A.U. after   18 cycles

 The electronic state is 2-A.
 Alpha  occ. eigenvalues --  -38.43980 -38.43755 -38.43704 -38.43391 -38.43348
 Alpha  occ. eigenvalues --  -38.43229 -38.43090  -2.19979  -2.19917  -2.19852
 Alpha  occ. eigenvalues --   -2.19418  -2.19371  -2.19350  -2.19148  -1.13803
 Alpha  occ. eigenvalues --   -1.13713  -1.13661  -1.13633  -1.13594  -1.13565
 Alpha  occ. eigenvalues --   -1.13529  -1.13522  -1.13491  -1.13148  -1.13097
 Alpha  occ. eigenvalues --   -1.13058  -1.13054  -1.13020  -1.12979  -1.12960
 Alpha  occ. eigenvalues --   -1.12956  -1.12883  -1.12819  -1.12789  -1.12741
 Alpha  occ. eigenvalues --   -0.20935  -0.13743  -0.12835  -0.11820
 Alpha virt. eigenvalues --   -0.05242  -0.04606  -0.04061  -0.03547  -0.03101
 Alpha virt. eigenvalues --   -0.02771  -0.01202  -0.00649  -0.00056   0.00364
 Alpha virt. eigenvalues --    0.00566   0.00612   0.00951   0.01079   0.01108

  Beta  occ. eigenvalues --  -38.43976 -38.43663 -38.43615 -38.43381 -38.43337
  Beta  occ. eigenvalues --  -38.43213 -38.43079  -2.19976  -2.19751  -2.19690
  Beta  occ. eigenvalues --   -2.19405  -2.19357  -2.19329  -2.19133  -1.13798
  Beta  occ. eigenvalues --   -1.13696  -1.13588  -1.13552  -1.13517  -1.13467
  Beta  occ. eigenvalues --   -1.13417  -1.13411  -1.13379  -1.13135  -1.13086
  Beta  occ. eigenvalues --   -1.13047  -1.12998  -1.12966  -1.12961  -1.12953
  Beta  occ. eigenvalues --   -1.12884  -1.12876  -1.12811  -1.12738  -1.12727
  Beta  occ. eigenvalues --   -0.20126  -0.13412  -0.12485
  Beta virt. eigenvalues --   -0.07699  -0.05248  -0.04605  -0.04062  -0.02622
  Beta virt. eigenvalues --   -0.02185  -0.01670  -0.01130  -0.00606   0.00085
  Beta virt. eigenvalues --    0.00387   0.00520   0.00581   0.00998   0.01077

 Mulliken charges and spin densities:
               1          2
     1  Na  -0.332251   0.451789
     2  Na   0.183141   0.046224
     3  Na   0.199751  -0.015076
     4  Na  -0.367642   0.498650
     5  Na   0.240978  -0.015497
     6  Na   0.282831   0.115776
     7  Na  -0.206808  -0.081866
 Sum of Mulliken charges =  -0.00000   1.00000

 Dipole moment (field-independent basis, Debye):
    X=              0.0862    Y=              0.1134    Z=              0.0531  Tot=              0.1520
 Quadrupole moment (field-independent basis, Debye-Ang):
   XX=            -58.1567   YY=            -68.2427   ZZ=            -70.0015
   XY=             -0.2391   XZ=             -0.3188   YZ=              0.1367

 Normal termination of Gaussian 16 at Thu Dec  7 05:05:29 2023.
