 Gaussian 16, Revision B.01,
 Gaussian 16:  ES64L-G16RevB.01 20-Dec-2017

 -------------------------
 #P B3LYP/6-311+g(d) force
 -------------------------

 -----
 DPGEN
 -----
 Symbolic Z-matrix:
 Charge =  0 Multiplicity = 2

                         Standard orientation:
 ---------------------------------------------------------------------
 Center     Atomic      Atomic             Coordinates (Angstroms)
 Number     Number       Type             X           Y           Z
 ---------------------------------------------------------------------
      1         11           0       -1.642567    2.385740    0.936620
      2         11           0       -2.919745   -0.814650   -0.415874
      3         11           0        2.239025    1.910566   -0.086799
      4         11           0        2.769017   -1.128605    0.296147
      5         11           0       -0.092366   -2.556324   -0.837839
      6         11           0       -0.265976   -0.947082    2.068709
      7         11           0       -0.087388    1.150355   -1.960964
 ---------------------------------------------------------------------

 SCF Done:  E(UB3LYP) =  -1136.13468850     A.U. after   19 cycles

 The electronic state is 2-A.
 Alpha  occ. eigenvalues --  -38.44013 -38.43952 -38.43899 -38.43825 -38.43586
 Alpha  occ. eigenvalues --  -38.43520 -38.43377  -2.19882  -2.19782  -2.19708
 Alpha  occ. eigenvalues --   -2.19704  -2.19455  -2.19386  -2.19256  -1.13555
 Alpha  occ. eigenvalues --   -1.13528  -1.13507  -1.13462  -1.13439  -1.13425
 Alpha  occ. eigenvalues --   -1.13424  -1.13377  -1.13371  -1.13347  -1.13339
 Alpha  occ. eigenvalues --   -1.13312  -1.13190  -1.13116  -1.13083  -1.13052
 Alpha  occ. eigenvalues --   -1.13039  -1.12986  -1.12924  -1.12911  -1.12883
 Alpha  occ. eigenvalues --   -0.18360  -0.12920  -0.12430  -0.11318
 Alpha virt. eigenvalues --   -0.05467  -0.05139  -0.04452  -0.03619  -0.03432
 Alpha virt. eigenvalues --   -0.02908  -0.01225  -0.00889  -0.00277  -0.00071
 Alpha virt. eigenvalues --   -0.00016   0.00426   0.00730   0.00767   0.00896

  Beta  occ. eigenvalues --  -38.43945 -38.43944 -38.43874 -38.43770 -38.43584
  Beta  occ. eigenvalues --  -38.43517 -38.43355  -2.19771  -2.19756  -2.19661
  Beta  occ. eigenvalues --   -2.19603  -2.19454  -2.19382  -2.19219  -1.13480
  Beta  occ. eigenvalues --   -1.13452  -1.13434  -1.13423  -1.13417  -1.13399
  Beta  occ. eigenvalues --   -1.13364  -1.13337  -1.13330  -1.13306  -1.13275
  Beta  occ. eigenvalues --   -1.13248  -1.13192  -1.13093  -1.13078  -1.13046
  Beta  occ. eigenvalues --   -1.13024  -1.12985  -1.12903  -1.12877  -1.12846
  Beta  occ. eigenvalues --   -0.17631  -0.12695  -0.12247
  Beta virt. eigenvalues --   -0.07455  -0.05420  -0.05022  -0.04165  -0.03055
  Beta virt. eigenvalues --   -0.02729  -0.01919  -0.01154  -0.00796  -0.00205
  Beta virt. eigenvalues --   -0.00022   0.00056   0.00467   0.00837   0.00891

 Mulliken charges and spin densities:
               1          2
     1  Na  -0.014601   0.074960
     2  Na   0.233021  -0.008119
     3  Na   0.242694   0.032000
     4  Na   0.099312  -0.046138
     5  Na   0.057411   0.215523
     6  Na  -0.371858   0.461373
     7  Na  -0.245978   0.270402
 Sum of Mulliken charges =  -0.00000   1.00000

 Dipole moment (field-independent basis, Debye):
    X=             -0.3564    Y=              0.0558    Z=              0.1250  Tot=              0.3818
 Quadrupole moment (field-independent basis, Debye-Ang):
   XX=            -61.1947   YY=            -66.7982   ZZ=            -68.7067
   XY=             -0.3978   XZ=              0.5404   YZ=              2.7844

 Normal termination of Gaussian 16 at Mon Dec  4 01:10:06 2023.
