 Gaussian 16, Revision B.01,
 Gaussian 16:  ES64L-G16RevB.01 20-Dec-2017

 -------------------------
 #P B3LYP/6-311+g(d) force
 -------------------------

 -----
 DPGEN
 -----
 Symbolic Z-matrix:
 Charge =  0 Multiplicity = 2

                         Standard orientation:
 ---------------------------------------------------------------------
 Center     Atomic      Atomic             Coordinates (Angstroms)
 Number     Number       Type             X           Y           Z
 ---------------------------------------------------------------------
      1         11           0        1.325903    3.022821   -0.285751
      2         11           0       -0.050024    0.200282    2.065485
      3         11           0       -0.023862    0.241491   -1.602637
      4         11           0       -2.342043    1.515874    0.315926
      5         11           0        3.252383   -0.978372   -0.179503
      6         11           0        0.515280   -2.498050    0.290703
      7         11           0       -2.677638   -1.504046   -0.604224
 ---------------------------------------------------------------------

 SCF Done:  E(UB3LYP) =  -1136.13208919     A.U. after   21 cycles

 The electronic state is 2-A.
 Alpha  occ. eigenvalues --  -38.44391 -38.43892 -38.43816 -38.43690 -38.43482
 Alpha  occ. eigenvalues --  -38.43251 -38.43066  -2.20190  -2.19802  -2.19732
 Alpha  occ. eigenvalues --   -2.19476  -2.19366  -2.19234  -2.18988  -1.13870
 Alpha  occ. eigenvalues --   -1.13855  -1.13825  -1.13545  -1.13489  -1.13421
 Alpha  occ. eigenvalues --   -1.13396  -1.13342  -1.13331  -1.13165  -1.13131
 Alpha  occ. eigenvalues --   -1.13112  -1.13050  -1.13021  -1.13003  -1.12924
 Alpha  occ. eigenvalues --   -1.12875  -1.12841  -1.12676  -1.12650  -1.12609
 Alpha  occ. eigenvalues --   -0.18796  -0.13020  -0.12323  -0.11014
 Alpha virt. eigenvalues --   -0.05872  -0.05157  -0.04264  -0.03253  -0.02942
 Alpha virt. eigenvalues --   -0.02657  -0.01637  -0.01262  -0.00251  -0.00148
 Alpha virt. eigenvalues --    0.00043   0.00341   0.00797   0.00809   0.00879

  Beta  occ. eigenvalues --  -38.44394 -38.43877 -38.43715 -38.43687 -38.43468
  Beta  occ. eigenvalues --  -38.43192 -38.43055  -2.20197  -2.19781  -2.19548
  Beta  occ. eigenvalues --   -2.19473  -2.19343  -2.19127  -2.18972  -1.13877
  Beta  occ. eigenvalues --   -1.13847  -1.13830  -1.13513  -1.13439  -1.13413
  Beta  occ. eigenvalues --   -1.13276  -1.13221  -1.13203  -1.13152  -1.13129
  Beta  occ. eigenvalues --   -1.13109  -1.13023  -1.13007  -1.12974  -1.12854
  Beta  occ. eigenvalues --   -1.12803  -1.12759  -1.12662  -1.12615  -1.12596
  Beta  occ. eigenvalues --   -0.18042  -0.12799  -0.12070
  Beta virt. eigenvalues --   -0.07051  -0.05825  -0.05090  -0.04240  -0.02483
  Beta virt. eigenvalues --   -0.02212  -0.01665  -0.01512  -0.01178  -0.00247
  Beta virt. eigenvalues --   -0.00126   0.00127   0.00365   0.00811   0.00868

 Mulliken charges and spin densities:
               1          2
     1  Na  -0.114570  -0.098228
     2  Na  -0.227513   0.491463
     3  Na  -0.338944   0.455073
     4  Na   0.361375   0.071930
     5  Na  -0.108372  -0.109521
     6  Na   0.277973   0.130470
     7  Na   0.150051   0.058813
 Sum of Mulliken charges =  -0.00000   1.00000

 Dipole moment (field-independent basis, Debye):
    X=              0.3608    Y=              0.1975    Z=              0.0894  Tot=              0.4210
 Quadrupole moment (field-independent basis, Debye-Ang):
   XX=            -55.7570   YY=            -64.3528   ZZ=            -73.3803
   XY=              0.9399   XZ=              0.0445   YZ=              0.6666

 Normal termination of Gaussian 16 at Thu Dec  7 18:16:55 2023.
