 Gaussian 16, Revision B.01,
 Gaussian 16:  ES64L-G16RevB.01 20-Dec-2017

 -------------------------
 #P B3LYP/6-311+g(d) force
 -------------------------

 -----
 DPGEN
 -----
 Symbolic Z-matrix:
 Charge =  0 Multiplicity = 2

                         Standard orientation:
 ---------------------------------------------------------------------
 Center     Atomic      Atomic             Coordinates (Angstroms)
 Number     Number       Type             X           Y           Z
 ---------------------------------------------------------------------
      1         11           0       -2.415205   -1.989167    0.018989
      2         11           0       -2.691557    1.500668    0.101709
      3         11           0       -0.138912   -0.441420   -1.762941
      4         11           0        3.171115    0.944877    0.092551
      5         11           0        1.726040   -2.652608   -0.162418
      6         11           0        0.076514   -0.195948    2.067232
      7         11           0        0.272006    2.833598   -0.355120
 ---------------------------------------------------------------------

 SCF Done:  E(UB3LYP) =  -1136.13685271     A.U. after   19 cycles

 The electronic state is 2-A.
 Alpha  occ. eigenvalues --  -38.44251 -38.44017 -38.43979 -38.43745 -38.43721
 Alpha  occ. eigenvalues --  -38.43362 -38.43139  -2.20033  -2.19845  -2.19783
 Alpha  occ. eigenvalues --   -2.19604  -2.19563  -2.19289  -2.18989  -1.13708
 Alpha  occ. eigenvalues --   -1.13695  -1.13674  -1.13538  -1.13508  -1.13479
 Alpha  occ. eigenvalues --   -1.13475  -1.13445  -1.13409  -1.13271  -1.13243
 Alpha  occ. eigenvalues --   -1.13233  -1.13228  -1.13217  -1.13204  -1.12963
 Alpha  occ. eigenvalues --   -1.12923  -1.12914  -1.12664  -1.12651  -1.12629
 Alpha  occ. eigenvalues --   -0.18298  -0.12834  -0.12440  -0.10707
 Alpha virt. eigenvalues --   -0.05898  -0.05349  -0.04604  -0.03165  -0.02947
 Alpha virt. eigenvalues --   -0.02638  -0.01569  -0.01307  -0.00566  -0.00332
 Alpha virt. eigenvalues --   -0.00030   0.00360   0.00771   0.00791   0.00903

  Beta  occ. eigenvalues --  -38.44252 -38.44012 -38.43974 -38.43718 -38.43652
  Beta  occ. eigenvalues --  -38.43293 -38.43132  -2.20036  -2.19840  -2.19778
  Beta  occ. eigenvalues --   -2.19561  -2.19432  -2.19163  -2.18979  -1.13699
  Beta  occ. eigenvalues --   -1.13694  -1.13679  -1.13530  -1.13485  -1.13478
  Beta  occ. eigenvalues --   -1.13463  -1.13430  -1.13409  -1.13243  -1.13210
  Beta  occ. eigenvalues --   -1.13201  -1.13154  -1.13113  -1.13095  -1.12878
  Beta  occ. eigenvalues --   -1.12832  -1.12823  -1.12655  -1.12632  -1.12619
  Beta  occ. eigenvalues --   -0.17568  -0.12642  -0.12207
  Beta virt. eigenvalues --   -0.06814  -0.05903  -0.05268  -0.04557  -0.02399
  Beta virt. eigenvalues --   -0.02192  -0.01592  -0.01476  -0.01235  -0.00636
  Beta virt. eigenvalues --   -0.00360   0.00116   0.00386   0.00777   0.00848

 Mulliken charges and spin densities:
               1          2
     1  Na   0.258236  -0.105800
     2  Na   0.076889   0.007889
     3  Na  -0.038763   0.595568
     4  Na  -0.005134  -0.059108
     5  Na   0.087260  -0.167541
     6  Na  -0.382580   0.764471
     7  Na   0.004093  -0.035478
 Sum of Mulliken charges =  -0.00000   1.00000

 Dipole moment (field-independent basis, Debye):
    X=              0.1327    Y=             -0.4009    Z=              0.1326  Tot=              0.4426
 Quadrupole moment (field-independent basis, Debye-Ang):
   XX=            -56.1206   YY=            -62.9033   ZZ=            -74.6624
   XY=              0.1090   XZ=             -0.3780   YZ=             -0.4659

 Normal termination of Gaussian 16 at Thu Dec  7 07:51:32 2023.
