 Gaussian 16, Revision B.01,
 Gaussian 16:  ES64L-G16RevB.01 20-Dec-2017

 -------------------------
 #P B3LYP/6-311+g(d) force
 -------------------------

 -----
 DPGEN
 -----
 Symbolic Z-matrix:
 Charge =  0 Multiplicity = 2

                         Standard orientation:
 ---------------------------------------------------------------------
 Center     Atomic      Atomic             Coordinates (Angstroms)
 Number     Number       Type             X           Y           Z
 ---------------------------------------------------------------------
      1         11           0       -0.019138   -0.072941   -1.915677
      2         11           0        1.349529    1.886633    0.005257
      3         11           0        2.636616   -0.682382    0.056908
      4         11           0       -0.012672    0.183108    1.943422
      5         11           0        0.090748   -2.100165   -0.077027
      6         11           0       -2.417625   -0.915495    0.231787
      7         11           0       -1.627458    1.701242   -0.244670
 ---------------------------------------------------------------------

 SCF Done:  E(UB3LYP) =  -1136.09623740     A.U. after   19 cycles

 The electronic state is 2-A.
 Alpha  occ. eigenvalues --  -38.44402 -38.44215 -38.43832 -38.43771 -38.43336
 Alpha  occ. eigenvalues --  -38.43137 -38.43136  -2.20566  -2.20342  -2.19914
 Alpha  occ. eigenvalues --   -2.19786  -2.19443  -2.19289  -2.19233  -1.14344
 Alpha  occ. eigenvalues --   -1.14260  -1.14152  -1.14067  -1.14018  -1.13957
 Alpha  occ. eigenvalues --   -1.13718  -1.13678  -1.13533  -1.13510  -1.13502
 Alpha  occ. eigenvalues --   -1.13402  -1.13161  -1.13068  -1.13031  -1.12948
 Alpha  occ. eigenvalues --   -1.12906  -1.12889  -1.12870  -1.12846  -1.12793
 Alpha  occ. eigenvalues --   -0.21318  -0.13811  -0.12660  -0.12451
 Alpha virt. eigenvalues --   -0.05197  -0.04257  -0.03906  -0.03851  -0.03254
 Alpha virt. eigenvalues --   -0.03178  -0.01100  -0.00430  -0.00166   0.00356
 Alpha virt. eigenvalues --    0.00728   0.00814   0.01040   0.01128   0.01209

  Beta  occ. eigenvalues --  -38.44304 -38.44119 -38.43821 -38.43766 -38.43321
  Beta  occ. eigenvalues --  -38.43124 -38.43120  -2.20388  -2.20168  -2.19899
  Beta  occ. eigenvalues --   -2.19781  -2.19423  -2.19268  -2.19217  -1.14232
  Beta  occ. eigenvalues --   -1.14132  -1.14025  -1.13963  -1.13892  -1.13834
  Beta  occ. eigenvalues --   -1.13713  -1.13664  -1.13532  -1.13505  -1.13449
  Beta  occ. eigenvalues --   -1.13362  -1.13151  -1.13028  -1.12997  -1.12927
  Beta  occ. eigenvalues --   -1.12880  -1.12841  -1.12837  -1.12810  -1.12788
  Beta  occ. eigenvalues --   -0.20456  -0.13457  -0.12292
  Beta virt. eigenvalues --   -0.08285  -0.05213  -0.04255  -0.03838  -0.02887
  Beta virt. eigenvalues --   -0.02346  -0.02116  -0.01024  -0.00388  -0.00002
  Beta virt. eigenvalues --    0.00374   0.00718   0.00791   0.01070   0.01141

 Mulliken charges and spin densities:
               1          2
     1  Na  -0.097083   0.465406
     2  Na   0.063786   0.007243
     3  Na  -0.124837  -0.078006
     4  Na  -0.176712   0.514558
     5  Na   0.097573   0.066755
     6  Na   0.112102  -0.003780
     7  Na   0.125170   0.027824
 Sum of Mulliken charges =  -0.00000   1.00000

 Dipole moment (field-independent basis, Debye):
    X=              0.1430    Y=              0.0377    Z=              0.1286  Tot=              0.1960
 Quadrupole moment (field-independent basis, Debye-Ang):
   XX=            -60.1131   YY=            -71.3819   ZZ=            -66.5654
   XY=             -0.1519   XZ=             -0.1176   YZ=             -0.6966

 Normal termination of Gaussian 16 at Thu Dec  7 09:44:05 2023.
