 Gaussian 16, Revision B.01,
 Gaussian 16:  ES64L-G16RevB.01 20-Dec-2017

 -------------------------
 #P B3LYP/6-311+g(d) force
 -------------------------

 -----
 DPGEN
 -----
 Symbolic Z-matrix:
 Charge =  0 Multiplicity = 2

                         Standard orientation:
 ---------------------------------------------------------------------
 Center     Atomic      Atomic             Coordinates (Angstroms)
 Number     Number       Type             X           Y           Z
 ---------------------------------------------------------------------
      1         11           0        1.945107    2.469466   -0.269530
      2         11           0       -1.680568   -1.693485   -0.237083
      3         11           0       -1.239269    1.438776   -1.129224
      4         11           0        3.895611   -0.621235    0.435083
      5         11           0        0.372939   -0.195425    1.836519
      6         11           0        0.889474   -1.817951   -1.244486
      7         11           0       -4.183294    0.419854    0.608722
 ---------------------------------------------------------------------

 SCF Done:  E(UB3LYP) =  -1136.11492545     A.U. after   25 cycles

 The electronic state is 2-A.
 Alpha  occ. eigenvalues --  -38.46212 -38.44997 -38.44448 -38.43255 -38.43174
 Alpha  occ. eigenvalues --  -38.43173 -38.43130  -2.22032  -2.20785  -2.20263
 Alpha  occ. eigenvalues --   -2.19197  -2.19142  -2.19106  -2.18938  -1.15735
 Alpha  occ. eigenvalues --   -1.15676  -1.15656  -1.14459  -1.14423  -1.14407
 Alpha  occ. eigenvalues --   -1.13923  -1.13912  -1.13882  -1.13162  -1.12878
 Alpha  occ. eigenvalues --   -1.12856  -1.12814  -1.12789  -1.12753  -1.12718
 Alpha  occ. eigenvalues --   -1.12707  -1.12623  -1.12616  -1.12602  -1.12571
 Alpha  occ. eigenvalues --   -0.18423  -0.13965  -0.11510  -0.10741
 Alpha virt. eigenvalues --   -0.07579  -0.04961  -0.04270  -0.03339  -0.03213
 Alpha virt. eigenvalues --   -0.02376  -0.02023  -0.01233  -0.01068  -0.00278
 Alpha virt. eigenvalues --   -0.00220   0.00154   0.00298   0.00675   0.00753

  Beta  occ. eigenvalues --  -38.46201 -38.44957 -38.44393 -38.43215 -38.43158
  Beta  occ. eigenvalues --  -38.43142 -38.43120  -2.22011  -2.20710  -2.20160
  Beta  occ. eigenvalues --   -2.19172  -2.19073  -2.19054  -2.18924  -1.15710
  Beta  occ. eigenvalues --   -1.15667  -1.15640  -1.14405  -1.14373  -1.14358
  Beta  occ. eigenvalues --   -1.13852  -1.13838  -1.13817  -1.13106  -1.12858
  Beta  occ. eigenvalues --   -1.12833  -1.12776  -1.12729  -1.12703  -1.12686
  Beta  occ. eigenvalues --   -1.12658  -1.12609  -1.12589  -1.12573  -1.12545
  Beta  occ. eigenvalues --   -0.17867  -0.13465  -0.11195
  Beta virt. eigenvalues --   -0.07334  -0.07204  -0.04870  -0.03752  -0.03084
  Beta virt. eigenvalues --   -0.02839  -0.02019  -0.01508  -0.01052  -0.00664
  Beta virt. eigenvalues --   -0.00179  -0.00083   0.00194   0.00460   0.00759

 Mulliken charges and spin densities:
               1          2
     1  Na  -0.226325  -0.008725
     2  Na   0.499004   0.063341
     3  Na  -0.367141   0.075437
     4  Na   0.336616   0.295996
     5  Na  -0.233492   0.073222
     6  Na  -0.368714   0.167320
     7  Na   0.360052   0.333408
 Sum of Mulliken charges =  -0.00000   1.00000

 Dipole moment (field-independent basis, Debye):
    X=              0.4682    Y=             -0.2198    Z=              0.4235  Tot=              0.6685
 Quadrupole moment (field-independent basis, Debye-Ang):
   XX=            -54.1229   YY=            -77.3027   ZZ=            -66.6904
   XY=             -1.4210   XZ=             -1.9705   YZ=              0.4267

 Normal termination of Gaussian 16 at Tue Dec  5 14:49:53 2023.
