 Gaussian 16, Revision B.01,
 Gaussian 16:  ES64L-G16RevB.01 20-Dec-2017

 -------------------------
 #P B3LYP/6-311+g(d) force
 -------------------------

 -----
 DPGEN
 -----
 Symbolic Z-matrix:
 Charge =  0 Multiplicity = 2

                         Standard orientation:
 ---------------------------------------------------------------------
 Center     Atomic      Atomic             Coordinates (Angstroms)
 Number     Number       Type             X           Y           Z
 ---------------------------------------------------------------------
      1         11           0       -2.159422    2.239203   -0.455029
      2         11           0       -3.672827   -1.008687   -0.467702
      3         11           0       -0.864611   -1.406963    2.213259
      4         11           0        2.303111    0.431745    1.790814
      5         11           0        0.131183   -1.575339   -1.342079
      6         11           0        3.124487   -1.196043   -1.387302
      7         11           0        1.138078    2.516083   -0.351962
 ---------------------------------------------------------------------

 SCF Done:  E(UB3LYP) =  -1136.12166032     A.U. after   21 cycles

 The electronic state is 2-A.
 Alpha  occ. eigenvalues --  -38.44886 -38.44631 -38.44624 -38.44307 -38.44057
 Alpha  occ. eigenvalues --  -38.43610 -38.42983  -2.20682  -2.20461  -2.20397
 Alpha  occ. eigenvalues --   -2.20151  -2.19898  -2.19400  -2.18813  -1.14343
 Alpha  occ. eigenvalues --   -1.14333  -1.14285  -1.14136  -1.14111  -1.14085
 Alpha  occ. eigenvalues --   -1.14075  -1.14056  -1.14031  -1.13896  -1.13787
 Alpha  occ. eigenvalues --   -1.13760  -1.13562  -1.13559  -1.13506  -1.13085
 Alpha  occ. eigenvalues --   -1.13071  -1.13030  -1.12497  -1.12482  -1.12442
 Alpha  occ. eigenvalues --   -0.17479  -0.13377  -0.11818  -0.11662
 Alpha virt. eigenvalues --   -0.06360  -0.05421  -0.04728  -0.03472  -0.02980
 Alpha virt. eigenvalues --   -0.02771  -0.02042  -0.01251  -0.00591  -0.00206
 Alpha virt. eigenvalues --   -0.00120   0.00158   0.00247   0.00552   0.00703

  Beta  occ. eigenvalues --  -38.44801 -38.44633 -38.44576 -38.44266 -38.44026
  Beta  occ. eigenvalues --  -38.43605 -38.42984  -2.20524  -2.20400  -2.20374
  Beta  occ. eigenvalues --   -2.20077  -2.19845  -2.19391  -2.18814  -1.14237
  Beta  occ. eigenvalues --   -1.14228  -1.14165  -1.14079  -1.14075  -1.14055
  Beta  occ. eigenvalues --   -1.14035  -1.14034  -1.14027  -1.13835  -1.13737
  Beta  occ. eigenvalues --   -1.13711  -1.13527  -1.13519  -1.13455  -1.13077
  Beta  occ. eigenvalues --   -1.13065  -1.13026  -1.12493  -1.12478  -1.12449
  Beta  occ. eigenvalues --   -0.16813  -0.13183  -0.11467
  Beta virt. eigenvalues --   -0.07843  -0.06193  -0.05179  -0.04160  -0.03253
  Beta virt. eigenvalues --   -0.02388  -0.02101  -0.01933  -0.01012  -0.00369
  Beta virt. eigenvalues --   -0.00162   0.00026   0.00284   0.00313   0.00728

 Mulliken charges and spin densities:
               1          2
     1  Na  -0.100322  -0.040530
     2  Na   0.431399   0.104338
     3  Na   0.176250   0.302854
     4  Na   0.045147   0.257483
     5  Na  -1.055325   0.478962
     6  Na   0.713012  -0.205875
     7  Na  -0.210162   0.102770
 Sum of Mulliken charges =  -0.00000   1.00000

 Dipole moment (field-independent basis, Debye):
    X=             -0.1248    Y=             -0.7741    Z=              0.2697  Tot=              0.8292
 Quadrupole moment (field-independent basis, Debye-Ang):
   XX=            -52.1679   YY=            -76.9022   ZZ=            -68.0442
   XY=              2.1260   XZ=              0.7764   YZ=             -0.6188

 Normal termination of Gaussian 16 at Mon Dec  4 03:24:04 2023.
