 Gaussian 16, Revision B.01,
 Gaussian 16:  ES64L-G16RevB.01 20-Dec-2017

 -------------------------
 #P B3LYP/6-311+g(d) force
 -------------------------

 -----
 DPGEN
 -----
 Symbolic Z-matrix:
 Charge =  0 Multiplicity = 2

                         Standard orientation:
 ---------------------------------------------------------------------
 Center     Atomic      Atomic             Coordinates (Angstroms)
 Number     Number       Type             X           Y           Z
 ---------------------------------------------------------------------
      1         11           0        0.739606   -3.202053    0.021412
      2         11           0        1.594586    2.690116   -0.005729
      3         11           0       -0.236280   -0.095855    1.690231
      4         11           0       -1.756546    2.519082   -0.111013
      5         11           0       -3.199264   -1.155646    0.028835
      6         11           0        3.237013   -0.415589   -0.090059
      7         11           0       -0.379116   -0.340055   -1.533677
 ---------------------------------------------------------------------

 SCF Done:  E(UB3LYP) =  -1136.13409233     A.U. after   19 cycles

 The electronic state is 2-A.
 Alpha  occ. eigenvalues --  -38.44506 -38.44301 -38.44187 -38.43942 -38.43572
 Alpha  occ. eigenvalues --  -38.42902 -38.42857  -2.20307  -2.20094  -2.19974
 Alpha  occ. eigenvalues --   -2.19783  -2.19397  -2.18860  -2.18793  -1.13984
 Alpha  occ. eigenvalues --   -1.13964  -1.13944  -1.13772  -1.13757  -1.13729
 Alpha  occ. eigenvalues --   -1.13650  -1.13639  -1.13611  -1.13465  -1.13452
 Alpha  occ. eigenvalues --   -1.13416  -1.13062  -1.13058  -1.13049  -1.12612
 Alpha  occ. eigenvalues --   -1.12485  -1.12476  -1.12466  -1.12407  -1.12401
 Alpha  occ. eigenvalues --   -0.18314  -0.12824  -0.12703  -0.09817
 Alpha virt. eigenvalues --   -0.06187  -0.05363  -0.05130  -0.02765  -0.02698
 Alpha virt. eigenvalues --   -0.01856  -0.01793  -0.01580  -0.00828  -0.00672
 Alpha virt. eigenvalues --    0.00034   0.00328   0.00717   0.00793   0.00828

  Beta  occ. eigenvalues --  -38.44501 -38.44298 -38.44186 -38.43935 -38.43570
  Beta  occ. eigenvalues --  -38.42840 -38.42776  -2.20301  -2.20091  -2.19975
  Beta  occ. eigenvalues --   -2.19773  -2.19397  -2.18747  -2.18644  -1.13971
  Beta  occ. eigenvalues --   -1.13946  -1.13943  -1.13762  -1.13743  -1.13730
  Beta  occ. eigenvalues --   -1.13642  -1.13632  -1.13614  -1.13461  -1.13416
  Beta  occ. eigenvalues --   -1.13415  -1.13058  -1.13052  -1.13041  -1.12522
  Beta  occ. eigenvalues --   -1.12403  -1.12393  -1.12364  -1.12300  -1.12295
  Beta  occ. eigenvalues --   -0.17626  -0.12607  -0.12481
  Beta virt. eigenvalues --   -0.06193  -0.05986  -0.05287  -0.05131  -0.02047
  Beta virt. eigenvalues --   -0.01971  -0.01741  -0.01508  -0.00884  -0.00863
  Beta virt. eigenvalues --   -0.00704   0.00187   0.00376   0.00718   0.00817

 Mulliken charges and spin densities:
               1          2
     1  Na   0.129536  -0.134399
     2  Na  -0.058738  -0.051310
     3  Na  -0.296248   0.755726
     4  Na   0.286646  -0.018102
     5  Na   0.245423  -0.144982
     6  Na   0.020789  -0.042809
     7  Na  -0.327408   0.635876
 Sum of Mulliken charges =  -0.00000   1.00000

 Dipole moment (field-independent basis, Debye):
    X=             -0.2655    Y=             -0.4116    Z=              0.0460  Tot=              0.4919
 Quadrupole moment (field-independent basis, Debye-Ang):
   XX=            -53.7144   YY=            -56.7731   ZZ=            -79.5167
   XY=              0.1021   XZ=             -0.3359   YZ=             -0.5372

 Normal termination of Gaussian 16 at Thu Dec  7 07:07:06 2023.
