 Gaussian 16, Revision B.01,
 Gaussian 16:  ES64L-G16RevB.01 20-Dec-2017

 -------------------------
 #P B3LYP/6-311+g(d) force
 -------------------------

 -----
 DPGEN
 -----
 Symbolic Z-matrix:
 Charge =  0 Multiplicity = 2

                         Standard orientation:
 ---------------------------------------------------------------------
 Center     Atomic      Atomic             Coordinates (Angstroms)
 Number     Number       Type             X           Y           Z
 ---------------------------------------------------------------------
      1         11           0        2.459038    2.495642   -0.091912
      2         11           0        0.070161    0.455843   -0.771749
      3         11           0        3.743113   -0.992348   -0.170912
      4         11           0        0.831277   -2.731797    0.986990
      5         11           0       -3.590581    0.446459    0.113917
      6         11           0       -2.113278   -2.629302   -0.582476
      7         11           0       -1.399731    2.955502    0.516143
 ---------------------------------------------------------------------

 SCF Done:  E(UB3LYP) =  -1136.12517454     A.U. after   23 cycles

 The electronic state is 2-A.
 Alpha  occ. eigenvalues --  -38.44500 -38.44079 -38.44031 -38.43964 -38.43855
 Alpha  occ. eigenvalues --  -38.43575 -38.43559  -2.20305  -2.19940  -2.19923
 Alpha  occ. eigenvalues --   -2.19795  -2.19696  -2.19403  -2.19388  -1.13995
 Alpha  occ. eigenvalues --   -1.13978  -1.13937  -1.13707  -1.13642  -1.13603
 Alpha  occ. eigenvalues --   -1.13596  -1.13553  -1.13522  -1.13455  -1.13427
 Alpha  occ. eigenvalues --   -1.13412  -1.13362  -1.13336  -1.13332  -1.13062
 Alpha  occ. eigenvalues --   -1.13053  -1.13053  -1.13036  -1.13029  -1.13012
 Alpha  occ. eigenvalues --   -0.17330  -0.13691  -0.13331  -0.09552
 Alpha virt. eigenvalues --   -0.06767  -0.05756  -0.04375  -0.03170  -0.02830
 Alpha virt. eigenvalues --   -0.02280  -0.02165  -0.01616  -0.00924  -0.00445
 Alpha virt. eigenvalues --    0.00031   0.00293   0.00369   0.00479   0.00745

  Beta  occ. eigenvalues --  -38.44493 -38.44063 -38.44028 -38.43927 -38.43813
  Beta  occ. eigenvalues --  -38.43524 -38.43514  -2.20296  -2.19935  -2.19900
  Beta  occ. eigenvalues --   -2.19729  -2.19620  -2.19338  -2.19276  -1.13995
  Beta  occ. eigenvalues --   -1.13977  -1.13890  -1.13704  -1.13641  -1.13588
  Beta  occ. eigenvalues --   -1.13584  -1.13542  -1.13471  -1.13411  -1.13391
  Beta  occ. eigenvalues --   -1.13361  -1.13313  -1.13290  -1.13258  -1.13017
  Beta  occ. eigenvalues --   -1.13009  -1.12993  -1.12977  -1.12948  -1.12933
  Beta  occ. eigenvalues --   -0.17044  -0.13106  -0.12610
  Beta virt. eigenvalues --   -0.06822  -0.06285  -0.05567  -0.04154  -0.02721
  Beta virt. eigenvalues --   -0.02321  -0.02133  -0.01875  -0.01189  -0.00804
  Beta virt. eigenvalues --   -0.00323   0.00267   0.00362   0.00490   0.00709

 Mulliken charges and spin densities:
               1          2
     1  Na   0.534521   0.054404
     2  Na  -1.828373   0.011843
     3  Na   0.048041   0.397186
     4  Na   0.167179   0.012713
     5  Na   0.086081   0.226853
     6  Na   0.508910   0.184732
     7  Na   0.483641   0.112269
 Sum of Mulliken charges =  -0.00000   1.00000

 Dipole moment (field-independent basis, Debye):
    X=             -0.1473    Y=              0.3175    Z=              0.2575  Tot=              0.4345
 Quadrupole moment (field-independent basis, Debye-Ang):
   XX=            -65.4533   YY=            -65.4516   ZZ=            -69.2156
   XY=              8.3519   XZ=              0.2382   YZ=              0.9053

 Normal termination of Gaussian 16 at Tue Dec  5 14:22:36 2023.
