 Gaussian 16, Revision B.01,
 Gaussian 16:  ES64L-G16RevB.01 20-Dec-2017

 -------------------------
 #P B3LYP/6-311+g(d) force
 -------------------------

 -----
 DPGEN
 -----
 Symbolic Z-matrix:
 Charge =  0 Multiplicity = 2

                         Standard orientation:
 ---------------------------------------------------------------------
 Center     Atomic      Atomic             Coordinates (Angstroms)
 Number     Number       Type             X           Y           Z
 ---------------------------------------------------------------------
      1         11           0       -2.933976   -1.611342   -0.145090
      2         11           0        0.804169   -2.787338   -0.303558
      3         11           0        1.256351    2.790099   -0.243634
      4         11           0        3.227388   -0.354186   -0.067339
      5         11           0        0.091077   -0.124364    2.111393
      6         11           0       -2.395069    2.018157   -0.034980
      7         11           0       -0.049940    0.068973   -1.316792
 ---------------------------------------------------------------------

 SCF Done:  E(UB3LYP) =  -1136.13621179     A.U. after   19 cycles

 The electronic state is 2-A.
 Alpha  occ. eigenvalues --  -38.44190 -38.44149 -38.44011 -38.43515 -38.43485
 Alpha  occ. eigenvalues --  -38.43366 -38.42806  -2.20011  -2.19937  -2.19829
 Alpha  occ. eigenvalues --   -2.19347  -2.19345  -2.19240  -2.18843  -1.13683
 Alpha  occ. eigenvalues --   -1.13669  -1.13657  -1.13613  -1.13592  -1.13582
 Alpha  occ. eigenvalues --   -1.13519  -1.13492  -1.13451  -1.13070  -1.13053
 Alpha  occ. eigenvalues --   -1.13004  -1.13003  -1.12971  -1.12959  -1.12914
 Alpha  occ. eigenvalues --   -1.12855  -1.12849  -1.12539  -1.12491  -1.12456
 Alpha  occ. eigenvalues --   -0.18462  -0.12973  -0.12420  -0.10325
 Alpha virt. eigenvalues --   -0.05761  -0.05524  -0.04742  -0.02932  -0.02623
 Alpha virt. eigenvalues --   -0.02309  -0.01746  -0.01339  -0.00607  -0.00549
 Alpha virt. eigenvalues --   -0.00004   0.00316   0.00745   0.00813   0.00840

  Beta  occ. eigenvalues --  -38.44187 -38.44148 -38.44009 -38.43509 -38.43475
  Beta  occ. eigenvalues --  -38.43258 -38.42760  -2.20008  -2.19936  -2.19827
  Beta  occ. eigenvalues --   -2.19340  -2.19331  -2.19040  -2.18763  -1.13673
  Beta  occ. eigenvalues --   -1.13658  -1.13653  -1.13601  -1.13589  -1.13584
  Beta  occ. eigenvalues --   -1.13513  -1.13477  -1.13454  -1.13057  -1.13043
  Beta  occ. eigenvalues --   -1.12983  -1.12970  -1.12969  -1.12954  -1.12782
  Beta  occ. eigenvalues --   -1.12716  -1.12708  -1.12469  -1.12432  -1.12397
  Beta  occ. eigenvalues --   -0.17759  -0.12775  -0.12187
  Beta virt. eigenvalues --   -0.06382  -0.05724  -0.05529  -0.04702  -0.02200
  Beta virt. eigenvalues --   -0.01905  -0.01664  -0.01277  -0.01200  -0.00655
  Beta virt. eigenvalues --   -0.00580   0.00162   0.00364   0.00802   0.00815

 Mulliken charges and spin densities:
               1          2
     1  Na   0.153963  -0.021890
     2  Na   0.280792   0.011808
     3  Na   0.239078   0.002619
     4  Na   0.300163   0.033555
     5  Na  -0.511441   0.799850
     6  Na   0.209077  -0.007339
     7  Na  -0.671632   0.181396
 Sum of Mulliken charges =  -0.00000   1.00000

 Dipole moment (field-independent basis, Debye):
    X=             -0.0898    Y=             -0.0002    Z=              0.1711  Tot=              0.1932
 Quadrupole moment (field-independent basis, Debye-Ang):
   XX=            -53.2047   YY=            -60.8978   ZZ=            -77.1174
   XY=              0.2668   XZ=             -0.2772   YZ=              0.4668

 Normal termination of Gaussian 16 at Thu Dec  7 05:04:27 2023.
