 Gaussian 16, Revision B.01,
 Gaussian 16:  ES64L-G16RevB.01 20-Dec-2017

 -------------------------
 #P B3LYP/6-311+g(d) force
 -------------------------

 -----
 DPGEN
 -----
 Symbolic Z-matrix:
 Charge =  0 Multiplicity = 2

                         Standard orientation:
 ---------------------------------------------------------------------
 Center     Atomic      Atomic             Coordinates (Angstroms)
 Number     Number       Type             X           Y           Z
 ---------------------------------------------------------------------
      1         11           0        0.214464   -2.727422   -0.306709
      2         11           0        1.037502    2.673987    0.118860
      3         11           0        0.292891    0.004989   -1.281182
      4         11           0       -2.766675   -1.267080    0.101987
      5         11           0       -2.201038    1.890108   -0.433144
      6         11           0        3.441609   -0.447054   -0.092399
      7         11           0       -0.018753   -0.127528    1.892588
 ---------------------------------------------------------------------

 SCF Done:  E(UB3LYP) =  -1136.13144263     A.U. after   20 cycles

 The electronic state is 2-A.
 Alpha  occ. eigenvalues --  -38.44633 -38.43734 -38.43493 -38.43492 -38.43397
 Alpha  occ. eigenvalues --  -38.43084 -38.42788  -2.20414  -2.19618  -2.19408
 Alpha  occ. eigenvalues --   -2.19373  -2.19292  -2.19044  -2.18912  -1.14094
 Alpha  occ. eigenvalues --   -1.14060  -1.14058  -1.13303  -1.13285  -1.13276
 Alpha  occ. eigenvalues --   -1.13207  -1.13106  -1.13057  -1.13038  -1.13005
 Alpha  occ. eigenvalues --   -1.12994  -1.12976  -1.12937  -1.12909  -1.12769
 Alpha  occ. eigenvalues --   -1.12654  -1.12645  -1.12573  -1.12551  -1.12491
 Alpha  occ. eigenvalues --   -0.19127  -0.13075  -0.12700  -0.10379
 Alpha virt. eigenvalues --   -0.06050  -0.04933  -0.04599  -0.02912  -0.02715
 Alpha virt. eigenvalues --   -0.02090  -0.01932  -0.01105  -0.00303  -0.00218
 Alpha virt. eigenvalues --    0.00032   0.00319   0.00786   0.00884   0.00900

  Beta  occ. eigenvalues --  -38.44633 -38.43728 -38.43486 -38.43481 -38.43384
  Beta  occ. eigenvalues --  -38.42988 -38.42736  -2.20416  -2.19611  -2.19391
  Beta  occ. eigenvalues --   -2.19365  -2.19272  -2.18868  -2.18822  -1.14083
  Beta  occ. eigenvalues --   -1.14061  -1.14058  -1.13302  -1.13283  -1.13240
  Beta  occ. eigenvalues --   -1.13189  -1.13099  -1.13017  -1.13010  -1.12995
  Beta  occ. eigenvalues --   -1.12986  -1.12960  -1.12911  -1.12894  -1.12661
  Beta  occ. eigenvalues --   -1.12530  -1.12518  -1.12494  -1.12483  -1.12423
  Beta  occ. eigenvalues --   -0.18404  -0.12840  -0.12415
  Beta virt. eigenvalues --   -0.06465  -0.06010  -0.04920  -0.04566  -0.02178
  Beta virt. eigenvalues --   -0.01934  -0.01889  -0.01041  -0.01020  -0.00337
  Beta virt. eigenvalues --   -0.00241   0.00167   0.00359   0.00807   0.00894

 Mulliken charges and spin densities:
               1          2
     1  Na   0.314643  -0.003208
     2  Na   0.225924   0.024133
     3  Na  -0.866759   0.168214
     4  Na   0.368942   0.091222
     5  Na   0.248203   0.072639
     6  Na   0.116541  -0.053850
     7  Na  -0.407495   0.700850
 Sum of Mulliken charges =  -0.00000   1.00000

 Dipole moment (field-independent basis, Debye):
    X=              0.5034    Y=             -0.0642    Z=              0.2746  Tot=              0.5770
 Quadrupole moment (field-independent basis, Debye-Ang):
   XX=            -52.0081   YY=            -62.2443   ZZ=            -76.4476
   XY=              0.4110   XZ=              0.6353   YZ=              0.1929

 Normal termination of Gaussian 16 at Wed Nov 29 15:53:31 2023.
