 Gaussian 16, Revision B.01,
 Gaussian 16:  ES64L-G16RevB.01 20-Dec-2017

 -------------------------
 #P B3LYP/6-311+g(d) force
 -------------------------

 -----
 DPGEN
 -----
 Symbolic Z-matrix:
 Charge =  0 Multiplicity = 2

                         Standard orientation:
 ---------------------------------------------------------------------
 Center     Atomic      Atomic             Coordinates (Angstroms)
 Number     Number       Type             X           Y           Z
 ---------------------------------------------------------------------
      1         11           0       -0.633100    2.870373   -0.599430
      2         11           0       -3.088241    0.469548   -1.143519
      3         11           0        0.357583   -0.122683    1.677500
      4         11           0       -2.870275   -1.457616    1.114528
      5         11           0        0.274915   -2.136346   -0.903473
      6         11           0        3.429888   -1.374655   -0.771828
      7         11           0        2.529231    1.751380    0.626221
 ---------------------------------------------------------------------

 SCF Done:  E(UB3LYP) =  -1136.12310987     A.U. after   20 cycles

 The electronic state is 2-A.
 Alpha  occ. eigenvalues --  -38.44446 -38.44208 -38.44153 -38.44096 -38.44032
 Alpha  occ. eigenvalues --  -38.43930 -38.43529  -2.20309  -2.20067  -2.19988
 Alpha  occ. eigenvalues --   -2.19922  -2.19890  -2.19854  -2.19321  -1.14069
 Alpha  occ. eigenvalues --   -1.13958  -1.13932  -1.13721  -1.13716  -1.13698
 Alpha  occ. eigenvalues --   -1.13678  -1.13677  -1.13662  -1.13648  -1.13581
 Alpha  occ. eigenvalues --   -1.13567  -1.13544  -1.13522  -1.13513  -1.13496
 Alpha  occ. eigenvalues --   -1.13462  -1.13430  -1.13003  -1.12992  -1.12948
 Alpha  occ. eigenvalues --   -0.17923  -0.14038  -0.12213  -0.10708
 Alpha virt. eigenvalues --   -0.06670  -0.05204  -0.04816  -0.03577  -0.02992
 Alpha virt. eigenvalues --   -0.02299  -0.01949  -0.01189  -0.00605  -0.00235
 Alpha virt. eigenvalues --   -0.00157   0.00220   0.00384   0.00606   0.00640

  Beta  occ. eigenvalues --  -38.44425 -38.44169 -38.44141 -38.44062 -38.44021
  Beta  occ. eigenvalues --  -38.43859 -38.43518  -2.20273  -2.19995  -2.19968
  Beta  occ. eigenvalues --   -2.19871  -2.19859  -2.19726  -2.19304  -1.14038
  Beta  occ. eigenvalues --   -1.13923  -1.13904  -1.13698  -1.13670  -1.13651
  Beta  occ. eigenvalues --   -1.13644  -1.13632  -1.13626  -1.13609  -1.13543
  Beta  occ. eigenvalues --   -1.13524  -1.13522  -1.13490  -1.13477  -1.13435
  Beta  occ. eigenvalues --   -1.13390  -1.13346  -1.12992  -1.12983  -1.12919
  Beta  occ. eigenvalues --   -0.17367  -0.13715  -0.11802
  Beta virt. eigenvalues --   -0.07190  -0.06607  -0.04919  -0.04298  -0.03272
  Beta virt. eigenvalues --   -0.02372  -0.02194  -0.01334  -0.01057  -0.00361
  Beta virt. eigenvalues --   -0.00181  -0.00014   0.00281   0.00527   0.00750

 Mulliken charges and spin densities:
               1          2
     1  Na  -0.076087   0.002306
     2  Na  -0.280737   0.176285
     3  Na  -0.936859   0.202628
     4  Na   0.917224   0.147619
     5  Na  -0.251648   0.262121
     6  Na  -0.057336   0.015268
     7  Na   0.685444   0.193773
 Sum of Mulliken charges =  -0.00000   1.00000

 Dipole moment (field-independent basis, Debye):
    X=              0.1301    Y=             -0.3468    Z=              0.1034  Tot=              0.3845
 Quadrupole moment (field-independent basis, Debye-Ang):
   XX=            -53.5958   YY=            -71.9413   ZZ=            -71.8118
   XY=              5.1401   XZ=             -0.9808   YZ=             -0.9075

 Normal termination of Gaussian 16 at Mon Dec  4 02:36:13 2023.
