 Gaussian 16, Revision B.01,
 Gaussian 16:  ES64L-G16RevB.01 20-Dec-2017

 -------------------------
 #P B3LYP/6-311+g(d) force
 -------------------------

 -----
 DPGEN
 -----
 Symbolic Z-matrix:
 Charge =  0 Multiplicity = 2

                         Standard orientation:
 ---------------------------------------------------------------------
 Center     Atomic      Atomic             Coordinates (Angstroms)
 Number     Number       Type             X           Y           Z
 ---------------------------------------------------------------------
      1         11           0       -2.386755   -1.993471    1.418372
      2         11           0       -1.263074    0.819655   -0.632658
      3         11           0        2.699573    0.964063    0.874662
      4         11           0        1.029836   -1.768604   -0.467898
      5         11           0        4.209127   -1.396412   -0.596668
      6         11           0       -0.017734    3.711851    0.158377
      7         11           0       -4.270972   -0.337082   -0.754188
 ---------------------------------------------------------------------

 SCF Done:  E(UB3LYP) =  -1136.12047616     A.U. after   23 cycles

 The electronic state is 2-A.
 Alpha  occ. eigenvalues --  -38.44881 -38.44879 -38.43828 -38.43662 -38.43600
 Alpha  occ. eigenvalues --  -38.43557 -38.43073  -2.20707  -2.20678  -2.19712
 Alpha  occ. eigenvalues --   -2.19535  -2.19468  -2.19461  -2.18866  -1.14407
 Alpha  occ. eigenvalues --   -1.14388  -1.14362  -1.14332  -1.14317  -1.14315
 Alpha  occ. eigenvalues --   -1.13413  -1.13387  -1.13342  -1.13202  -1.13193
 Alpha  occ. eigenvalues --   -1.13172  -1.13164  -1.13147  -1.13126  -1.13099
 Alpha  occ. eigenvalues --   -1.13085  -1.13029  -1.12539  -1.12530  -1.12497
 Alpha  occ. eigenvalues --   -0.17291  -0.14459  -0.11978  -0.10243
 Alpha virt. eigenvalues --   -0.06785  -0.05377  -0.04199  -0.03752  -0.03134
 Alpha virt. eigenvalues --   -0.02243  -0.01465  -0.01290  -0.00908  -0.00497
 Alpha virt. eigenvalues --   -0.00332  -0.00306   0.00356   0.00603   0.00651

  Beta  occ. eigenvalues --  -38.44869 -38.44867 -38.43785 -38.43626 -38.43540
  Beta  occ. eigenvalues --  -38.43520 -38.43077  -2.20684  -2.20665  -2.19637
  Beta  occ. eigenvalues --   -2.19468  -2.19437  -2.19317  -2.18874  -1.14387
  Beta  occ. eigenvalues --   -1.14376  -1.14357  -1.14320  -1.14282  -1.14277
  Beta  occ. eigenvalues --   -1.13359  -1.13337  -1.13278  -1.13157  -1.13137
  Beta  occ. eigenvalues --   -1.13126  -1.13121  -1.13104  -1.13083  -1.13000
  Beta  occ. eigenvalues --   -1.12986  -1.12968  -1.12544  -1.12535  -1.12501
  Beta  occ. eigenvalues --   -0.16667  -0.13917  -0.11863
  Beta virt. eigenvalues --   -0.06615  -0.06566  -0.05217  -0.03863  -0.03327
  Beta virt. eigenvalues --   -0.02744  -0.02141  -0.01333  -0.01004  -0.00433
  Beta virt. eigenvalues --   -0.00346  -0.00070   0.00078   0.00420   0.00664

 Mulliken charges and spin densities:
               1          2
     1  Na   0.487103   0.079751
     2  Na  -1.327268   0.143233
     3  Na  -0.077592   0.197996
     4  Na  -0.614015  -0.004272
     5  Na   0.558214   0.279230
     6  Na   0.736687  -0.020468
     7  Na   0.236870   0.324531
 Sum of Mulliken charges =  -0.00000   1.00000

 Dipole moment (field-independent basis, Debye):
    X=              0.5200    Y=             -0.9116    Z=              0.7671  Tot=              1.3000
 Quadrupole moment (field-independent basis, Debye-Ang):
   XX=            -67.6388   YY=            -67.0445   ZZ=            -64.6029
   XY=              2.0228   XZ=             -1.9236   YZ=              0.3739

 Normal termination of Gaussian 16 at Wed Nov 29 00:23:29 2023.
