 Gaussian 16, Revision B.01,
 Gaussian 16:  ES64L-G16RevB.01 20-Dec-2017

 -------------------------
 #P B3LYP/6-311+g(d) force
 -------------------------

 -----
 DPGEN
 -----
 Symbolic Z-matrix:
 Charge =  0 Multiplicity = 2

                         Standard orientation:
 ---------------------------------------------------------------------
 Center     Atomic      Atomic             Coordinates (Angstroms)
 Number     Number       Type             X           Y           Z
 ---------------------------------------------------------------------
      1         11           0        0.825585   -1.765545   -1.130510
      2         11           0       -0.075983   -0.706483    1.933950
      3         11           0       -3.905364    0.379181    1.206517
      4         11           0       -2.226901   -1.040551   -1.391711
      5         11           0       -0.897908    1.681406   -0.963111
      6         11           0        4.030824   -0.667742    0.590835
      7         11           0        2.249747    2.119734   -0.245970
 ---------------------------------------------------------------------

 SCF Done:  E(UB3LYP) =  -1136.11425078     A.U. after   32 cycles

 The electronic state is 2-A.
 Alpha  occ. eigenvalues --  -38.45767 -38.45565 -38.45172 -38.44113 -38.42984
 Alpha  occ. eigenvalues --  -38.42983 -38.42699  -2.21552  -2.21331  -2.20974
 Alpha  occ. eigenvalues --   -2.20046  -2.18882  -2.18868  -2.18526  -1.15244
 Alpha  occ. eigenvalues --   -1.15203  -1.15156  -1.15009  -1.14985  -1.14955
 Alpha  occ. eigenvalues --   -1.14639  -1.14611  -1.14589  -1.13774  -1.13691
 Alpha  occ. eigenvalues --   -1.13667  -1.12574  -1.12561  -1.12555  -1.12515
 Alpha  occ. eigenvalues --   -1.12507  -1.12499  -1.12201  -1.12196  -1.12165
 Alpha  occ. eigenvalues --   -0.18236  -0.14046  -0.11549  -0.10777
 Alpha virt. eigenvalues --   -0.07603  -0.04973  -0.04676  -0.03221  -0.03120
 Alpha virt. eigenvalues --   -0.02508  -0.02272  -0.01408  -0.00960  -0.00151
 Alpha virt. eigenvalues --   -0.00105   0.00177   0.00280   0.00584   0.00763

  Beta  occ. eigenvalues --  -38.45726 -38.45554 -38.45105 -38.44077 -38.42958
  Beta  occ. eigenvalues --  -38.42952 -38.42702  -2.21474  -2.21310  -2.20848
  Beta  occ. eigenvalues --   -2.19990  -2.18835  -2.18817  -2.18532  -1.15189
  Beta  occ. eigenvalues --   -1.15152  -1.15096  -1.14994  -1.14971  -1.14942
  Beta  occ. eigenvalues --   -1.14555  -1.14517  -1.14508  -1.13719  -1.13643
  Beta  occ. eigenvalues --   -1.13613  -1.12544  -1.12530  -1.12518  -1.12474
  Beta  occ. eigenvalues --   -1.12463  -1.12445  -1.12205  -1.12198  -1.12165
  Beta  occ. eigenvalues --   -0.17539  -0.13693  -0.10628
  Beta virt. eigenvalues --   -0.07852  -0.07200  -0.04653  -0.04349  -0.02945
  Beta virt. eigenvalues --   -0.02738  -0.01900  -0.01757  -0.01046  -0.00912
  Beta virt. eigenvalues --   -0.00078   0.00011   0.00281   0.00338   0.00680

 Mulliken charges and spin densities:
               1          2
     1  Na  -0.172233   0.076016
     2  Na  -0.478463   0.328395
     3  Na   0.287498   0.264957
     4  Na   0.708378   0.048707
     5  Na  -0.517544   0.233701
     6  Na   0.504579   0.162363
     7  Na  -0.332216  -0.114140
 Sum of Mulliken charges =  -0.00000   1.00000

 Dipole moment (field-independent basis, Debye):
    X=             -0.0346    Y=             -0.9262    Z=              0.9046  Tot=              1.2951
 Quadrupole moment (field-independent basis, Debye-Ang):
   XX=            -45.4139   YY=            -82.0444   ZZ=            -67.1175
   XY=             -2.4657   XZ=              1.3270   YZ=              2.3083

 Normal termination of Gaussian 16 at Wed Dec  6 00:02:47 2023.
