 Gaussian 16, Revision B.01,
 Gaussian 16:  ES64L-G16RevB.01 20-Dec-2017

 -------------------------
 #P B3LYP/6-311+g(d) force
 -------------------------

 -----
 DPGEN
 -----
 Symbolic Z-matrix:
 Charge =  0 Multiplicity = 2

                         Standard orientation:
 ---------------------------------------------------------------------
 Center     Atomic      Atomic             Coordinates (Angstroms)
 Number     Number       Type             X           Y           Z
 ---------------------------------------------------------------------
      1         11           0        3.630350   -0.061879   -1.216205
      2         11           0       -0.113730   -1.326499   -1.419097
      3         11           0       -0.949194   -0.230628    2.164213
      4         11           0        2.214129   -1.101056    1.413162
      5         11           0        1.181659    1.999903    0.057047
      6         11           0       -2.347632    1.997981   -0.394827
      7         11           0       -3.615582   -1.277822   -0.604293
 ---------------------------------------------------------------------

 SCF Done:  E(UB3LYP) =  -1136.12496484     A.U. after   26 cycles

 The electronic state is 2-A.
 Alpha  occ. eigenvalues --  -38.44536 -38.44413 -38.44296 -38.44061 -38.44024
 Alpha  occ. eigenvalues --  -38.43738 -38.42969  -2.20385  -2.20320  -2.20087
 Alpha  occ. eigenvalues --   -2.19922  -2.19848  -2.19533  -2.18839  -1.14104
 Alpha  occ. eigenvalues --   -1.14039  -1.14015  -1.14002  -1.13954  -1.13912
 Alpha  occ. eigenvalues --   -1.13797  -1.13783  -1.13677  -1.13611  -1.13555
 Alpha  occ. eigenvalues --   -1.13537  -1.13532  -1.13491  -1.13467  -1.13208
 Alpha  occ. eigenvalues --   -1.13192  -1.13169  -1.12538  -1.12504  -1.12452
 Alpha  occ. eigenvalues --   -0.18312  -0.14109  -0.11708  -0.10765
 Alpha virt. eigenvalues --   -0.06712  -0.05380  -0.04830  -0.03296  -0.02606
 Alpha virt. eigenvalues --   -0.02495  -0.02321  -0.01067  -0.01023  -0.00262
 Alpha virt. eigenvalues --    0.00125   0.00242   0.00336   0.00501   0.00664

  Beta  occ. eigenvalues --  -38.44509 -38.44363 -38.44291 -38.43996 -38.43995
  Beta  occ. eigenvalues --  -38.43739 -38.42945  -2.20334  -2.20232  -2.20079
  Beta  occ. eigenvalues --   -2.19803  -2.19796  -2.19537  -2.18796  -1.14062
  Beta  occ. eigenvalues --   -1.13996  -1.13980  -1.13934  -1.13900  -1.13837
  Beta  occ. eigenvalues --   -1.13783  -1.13768  -1.13675  -1.13526  -1.13494
  Beta  occ. eigenvalues --   -1.13476  -1.13462  -1.13436  -1.13429  -1.13205
  Beta  occ. eigenvalues --   -1.13196  -1.13172  -1.12511  -1.12462  -1.12418
  Beta  occ. eigenvalues --   -0.17594  -0.13910  -0.10599
  Beta virt. eigenvalues --   -0.07686  -0.06555  -0.04988  -0.04476  -0.02887
  Beta virt. eigenvalues --   -0.02442  -0.01992  -0.01751  -0.00933  -0.00557
  Beta virt. eigenvalues --   -0.00121   0.00165   0.00281   0.00434   0.00641

 Mulliken charges and spin densities:
               1          2
     1  Na   1.053943   0.154171
     2  Na  -0.907708   0.136766
     3  Na  -0.153943   0.269321
     4  Na   0.275304   0.079260
     5  Na  -0.730394   0.321985
     6  Na   0.102275   0.062675
     7  Na   0.360522  -0.024178
 Sum of Mulliken charges =  -0.00000   1.00000

 Dipole moment (field-independent basis, Debye):
    X=              0.4127    Y=              0.0681    Z=              0.1489  Tot=              0.4440
 Quadrupole moment (field-independent basis, Debye-Ang):
   XX=            -50.4512   YY=            -76.2119   ZZ=            -69.6277
   XY=             -1.6702   XZ=             -2.4518   YZ=             -6.1565

 Normal termination of Gaussian 16 at Thu Dec  7 23:06:29 2023.
