 Gaussian 16, Revision B.01,
 Gaussian 16:  ES64L-G16RevB.01 20-Dec-2017

 -------------------------
 #P B3LYP/6-311+g(d) force
 -------------------------

 -----
 DPGEN
 -----
 Symbolic Z-matrix:
 Charge =  0 Multiplicity = 2

                         Standard orientation:
 ---------------------------------------------------------------------
 Center     Atomic      Atomic             Coordinates (Angstroms)
 Number     Number       Type             X           Y           Z
 ---------------------------------------------------------------------
      1         11           0       -3.235680   -1.120483   -0.161920
      2         11           0        0.421630   -2.750876   -0.354814
      3         11           0        1.614651    2.531425   -0.309566
      4         11           0        3.182930   -0.624570    0.018124
      5         11           0        0.050442   -0.230955    2.139282
      6         11           0       -2.024653    2.249239    0.026042
      7         11           0       -0.009320   -0.053780   -1.357148
 ---------------------------------------------------------------------

 SCF Done:  E(UB3LYP) =  -1136.13391759     A.U. after   19 cycles

 The electronic state is 2-A.
 Alpha  occ. eigenvalues --  -38.44437 -38.44303 -38.43722 -38.43527 -38.43389
 Alpha  occ. eigenvalues --  -38.43319 -38.42950  -2.20219  -2.20129  -2.19548
 Alpha  occ. eigenvalues --   -2.19399  -2.19281  -2.19162  -2.19003  -1.13895
 Alpha  occ. eigenvalues --   -1.13872  -1.13861  -1.13800  -1.13788  -1.13775
 Alpha  occ. eigenvalues --   -1.13240  -1.13216  -1.13174  -1.13111  -1.13067
 Alpha  occ. eigenvalues --   -1.13023  -1.13008  -1.12920  -1.12878  -1.12871
 Alpha  occ. eigenvalues --   -1.12816  -1.12789  -1.12676  -1.12626  -1.12593
 Alpha  occ. eigenvalues --   -0.18570  -0.13063  -0.12331  -0.10498
 Alpha virt. eigenvalues --   -0.06027  -0.05296  -0.04499  -0.03036  -0.02634
 Alpha virt. eigenvalues --   -0.02438  -0.01911  -0.01195  -0.00460  -0.00407
 Alpha virt. eigenvalues --   -0.00019   0.00309   0.00745   0.00837   0.00857

  Beta  occ. eigenvalues --  -38.44437 -38.44300 -38.43719 -38.43421 -38.43377
  Beta  occ. eigenvalues --  -38.43313 -38.42900  -2.20220  -2.20127  -2.19546
  Beta  occ. eigenvalues --   -2.19263  -2.19202  -2.19153  -2.18915  -1.13883
  Beta  occ. eigenvalues --   -1.13872  -1.13864  -1.13790  -1.13780  -1.13769
  Beta  occ. eigenvalues --   -1.13235  -1.13198  -1.13177  -1.13083  -1.12942
  Beta  occ. eigenvalues --   -1.12898  -1.12873  -1.12867  -1.12863  -1.12858
  Beta  occ. eigenvalues --   -1.12797  -1.12786  -1.12606  -1.12566  -1.12530
  Beta  occ. eigenvalues --   -0.17859  -0.12874  -0.12082
  Beta virt. eigenvalues --   -0.06537  -0.05987  -0.05295  -0.04465  -0.02305
  Beta virt. eigenvalues --   -0.01904  -0.01824  -0.01309  -0.01142  -0.00505
  Beta virt. eigenvalues --   -0.00436   0.00146   0.00349   0.00796   0.00840

 Mulliken charges and spin densities:
               1          2
     1  Na   0.140829  -0.034457
     2  Na   0.367993   0.003704
     3  Na   0.179013   0.010975
     4  Na   0.320557   0.053391
     5  Na  -0.555357   0.784254
     6  Na   0.148919   0.005834
     7  Na  -0.601954   0.176299
 Sum of Mulliken charges =  -0.00000   1.00000

 Dipole moment (field-independent basis, Debye):
    X=             -0.1360    Y=             -0.1275    Z=              0.2469  Tot=              0.3094
 Quadrupole moment (field-independent basis, Debye-Ang):
   XX=            -51.9110   YY=            -63.4548   ZZ=            -76.2410
   XY=              0.1779   XZ=              0.0025   YZ=              0.3823

 Normal termination of Gaussian 16 at Thu Dec  7 04:03:14 2023.
