 Gaussian 16, Revision B.01,
 Gaussian 16:  ES64L-G16RevB.01 20-Dec-2017

 -------------------------
 #P B3LYP/6-311+g(d) force
 -------------------------

 -----
 DPGEN
 -----
 Symbolic Z-matrix:
 Charge =  0 Multiplicity = 2

                         Standard orientation:
 ---------------------------------------------------------------------
 Center     Atomic      Atomic             Coordinates (Angstroms)
 Number     Number       Type             X           Y           Z
 ---------------------------------------------------------------------
      1         11           0       -1.073201    3.389795   -0.181565
      2         11           0       -3.675858   -2.367780   -0.302502
      3         11           0       -0.098094   -2.777619   -0.205765
      4         11           0        1.955421    2.455822    0.023171
      5         11           0       -3.394420    1.229935    0.025920
      6         11           0        4.224389   -0.918278   -1.204729
      7         11           0        2.061762   -1.011875    1.845471
 ---------------------------------------------------------------------

 SCF Done:  E(UB3LYP) =  -1136.11043537     A.U. after   24 cycles

 The electronic state is 2-A.
 Alpha  occ. eigenvalues --  -38.45304 -38.44962 -38.44620 -38.44515 -38.44435
 Alpha  occ. eigenvalues --  -38.44022 -38.43711  -2.21084  -2.20739  -2.20408
 Alpha  occ. eigenvalues --   -2.20274  -2.20211  -2.19821  -2.19544  -1.14769
 Alpha  occ. eigenvalues --   -1.14756  -1.14708  -1.14415  -1.14406  -1.14373
 Alpha  occ. eigenvalues --   -1.14085  -1.14079  -1.14043  -1.13952  -1.13932
 Alpha  occ. eigenvalues --   -1.13922  -1.13885  -1.13876  -1.13821  -1.13471
 Alpha  occ. eigenvalues --   -1.13461  -1.13421  -1.13218  -1.13203  -1.13193
 Alpha  occ. eigenvalues --   -0.16173  -0.13734  -0.13096  -0.10181
 Alpha virt. eigenvalues --   -0.07329  -0.06434  -0.04197  -0.03202  -0.02724
 Alpha virt. eigenvalues --   -0.02545  -0.02392  -0.01941  -0.01456  -0.01054
 Alpha virt. eigenvalues --   -0.00317   0.00095   0.00217   0.00360   0.00425

  Beta  occ. eigenvalues --  -38.45286 -38.44949 -38.44599 -38.44518 -38.44403
  Beta  occ. eigenvalues --  -38.43910 -38.43710  -2.21053  -2.20717  -2.20369
  Beta  occ. eigenvalues --   -2.20281  -2.20152  -2.19612  -2.19546  -1.14751
  Beta  occ. eigenvalues --   -1.14729  -1.14675  -1.14396  -1.14390  -1.14342
  Beta  occ. eigenvalues --   -1.14059  -1.14050  -1.14019  -1.13958  -1.13937
  Beta  occ. eigenvalues --   -1.13913  -1.13840  -1.13833  -1.13788  -1.13328
  Beta  occ. eigenvalues --   -1.13316  -1.13282  -1.13213  -1.13204  -1.13190
  Beta  occ. eigenvalues --   -0.15769  -0.13209  -0.12815
  Beta virt. eigenvalues --   -0.07289  -0.06663  -0.05948  -0.04051  -0.02931
  Beta virt. eigenvalues --   -0.02422  -0.02315  -0.02014  -0.01713  -0.01070
  Beta virt. eigenvalues --   -0.00895   0.00046   0.00183   0.00390   0.00457

 Mulliken charges and spin densities:
               1          2
     1  Na   0.510667  -0.018581
     2  Na   0.537745   0.009105
     3  Na  -0.509044   0.064695
     4  Na  -0.309920   0.079577
     5  Na  -0.671237   0.147074
     6  Na   0.220074   0.603977
     7  Na   0.221716   0.114154
 Sum of Mulliken charges =  -0.00000   1.00000

 Dipole moment (field-independent basis, Debye):
    X=             -0.4193    Y=             -0.1366    Z=              0.5370  Tot=              0.6948
 Quadrupole moment (field-independent basis, Debye-Ang):
   XX=            -70.9587   YY=            -65.1258   ZZ=            -69.3448
   XY=              3.3295   XZ=              3.2936   YZ=              1.5516

 Normal termination of Gaussian 16 at Mon Dec  4 05:31:33 2023.
