 Gaussian 16, Revision B.01,
 Gaussian 16:  ES64L-G16RevB.01 20-Dec-2017

 -------------------------
 #P B3LYP/6-311+g(d) force
 -------------------------

 -----
 DPGEN
 -----
 Symbolic Z-matrix:
 Charge =  0 Multiplicity = 2

                         Standard orientation:
 ---------------------------------------------------------------------
 Center     Atomic      Atomic             Coordinates (Angstroms)
 Number     Number       Type             X           Y           Z
 ---------------------------------------------------------------------
      1         11           0        0.972317    2.024412   -0.908750
      2         11           0        0.077921   -0.881604    1.833764
      3         11           0       -3.142196   -1.389063    0.162524
      4         11           0        1.835069   -2.189423   -0.896595
      5         11           0       -0.662894   -0.030257   -1.708135
      6         11           0        3.447013    0.663731    0.937137
      7         11           0       -2.527230    1.802204    0.580056
 ---------------------------------------------------------------------

 SCF Done:  E(UB3LYP) =  -1136.12135465     A.U. after   22 cycles

 The electronic state is 2-A.
 Alpha  occ. eigenvalues --  -38.44788 -38.44402 -38.44195 -38.44158 -38.43845
 Alpha  occ. eigenvalues --  -38.43548 -38.42695  -2.20592  -2.20232  -2.20033
 Alpha  occ. eigenvalues --   -2.19988  -2.19670  -2.19575  -2.18609  -1.14256
 Alpha  occ. eigenvalues --   -1.14245  -1.14212  -1.13917  -1.13905  -1.13871
 Alpha  occ. eigenvalues --   -1.13710  -1.13689  -1.13681  -1.13652  -1.13650
 Alpha  occ. eigenvalues --   -1.13598  -1.13405  -1.13358  -1.13316  -1.13297
 Alpha  occ. eigenvalues --   -1.13190  -1.13149  -1.12328  -1.12239  -1.12187
 Alpha  occ. eigenvalues --   -0.18460  -0.13797  -0.11252  -0.11240
 Alpha virt. eigenvalues --   -0.06485  -0.05503  -0.04152  -0.03166  -0.02788
 Alpha virt. eigenvalues --   -0.02671  -0.02188  -0.01168  -0.00532  -0.00148
 Alpha virt. eigenvalues --    0.00175   0.00263   0.00388   0.00616   0.00753

  Beta  occ. eigenvalues --  -38.44750 -38.44405 -38.44182 -38.44125 -38.43813
  Beta  occ. eigenvalues --  -38.43469 -38.42682  -2.20521  -2.20240  -2.20010
  Beta  occ. eigenvalues --   -2.19928  -2.19615  -2.19434  -2.18590  -1.14199
  Beta  occ. eigenvalues --   -1.14199  -1.14166  -1.13923  -1.13894  -1.13878
  Beta  occ. eigenvalues --   -1.13690  -1.13676  -1.13643  -1.13631  -1.13600
  Beta  occ. eigenvalues --   -1.13553  -1.13318  -1.13301  -1.13276  -1.13255
  Beta  occ. eigenvalues --   -1.13092  -1.13036  -1.12293  -1.12209  -1.12181
  Beta  occ. eigenvalues --   -0.17782  -0.13476  -0.11046
  Beta virt. eigenvalues --   -0.07457  -0.06243  -0.05352  -0.03687  -0.03012
  Beta virt. eigenvalues --   -0.02228  -0.02032  -0.01653  -0.01004  -0.00414
  Beta virt. eigenvalues --   -0.00010   0.00202   0.00300   0.00523   0.00693

 Mulliken charges and spin densities:
               1          2
     1  Na  -0.471389  -0.019556
     2  Na  -0.331144   0.347833
     3  Na   0.357720   0.002905
     4  Na  -0.120272  -0.041517
     5  Na   0.441778   0.407648
     6  Na   0.197705   0.193308
     7  Na  -0.074398   0.109379
 Sum of Mulliken charges =  -0.00000   1.00000

 Dipole moment (field-independent basis, Debye):
    X=             -0.2289    Y=             -0.3400    Z=              0.6511  Tot=              0.7694
 Quadrupole moment (field-independent basis, Debye-Ang):
   XX=            -50.6902   YY=            -72.4477   ZZ=            -70.7011
   XY=             -0.1773   XZ=             -0.0316   YZ=              5.1106

 Normal termination of Gaussian 16 at Tue Dec  5 17:52:15 2023.
