 Gaussian 16, Revision B.01,
 Gaussian 16:  ES64L-G16RevB.01 20-Dec-2017

 -------------------------
 #P B3LYP/6-311+g(d) force
 -------------------------

 -----
 DPGEN
 -----
 Symbolic Z-matrix:
 Charge =  0 Multiplicity = 2

                         Standard orientation:
 ---------------------------------------------------------------------
 Center     Atomic      Atomic             Coordinates (Angstroms)
 Number     Number       Type             X           Y           Z
 ---------------------------------------------------------------------
      1         11           0        0.086815   -0.836958   -1.133186
      2         11           0       -1.205082   -0.024552    1.591114
      3         11           0       -2.753616   -0.967145   -0.650686
      4         11           0       -1.427774    1.586749   -0.559086
      5         11           0        1.250014   -1.097063    1.318514
      6         11           0        1.144126    1.631438    0.327014
      7         11           0        2.905517   -0.292470   -0.893686
 ---------------------------------------------------------------------

 SCF Done:  E(UB3LYP) =  -1136.06080280     A.U. after   31 cycles

 The electronic state is 2-A.
 Alpha  occ. eigenvalues --  -38.44911 -38.44699 -38.44549 -38.44343 -38.43774
 Alpha  occ. eigenvalues --  -38.43697 -38.42738  -2.20959  -2.20919  -2.20812
 Alpha  occ. eigenvalues --   -2.20380  -2.20028  -2.19984  -2.18959  -1.14993
 Alpha  occ. eigenvalues --   -1.14881  -1.14707  -1.14623  -1.14593  -1.14517
 Alpha  occ. eigenvalues --   -1.14444  -1.14383  -1.14270  -1.14163  -1.14028
 Alpha  occ. eigenvalues --   -1.13968  -1.13854  -1.13676  -1.13631  -1.13577
 Alpha  occ. eigenvalues --   -1.13559  -1.13474  -1.12648  -1.12582  -1.12552
 Alpha  occ. eigenvalues --   -0.21680  -0.14952  -0.12644  -0.11546
 Alpha virt. eigenvalues --   -0.06300  -0.04520  -0.04171  -0.03511  -0.02424
 Alpha virt. eigenvalues --   -0.02375  -0.01794  -0.00451  -0.00296   0.00266
 Alpha virt. eigenvalues --    0.00577   0.00711   0.00914   0.00990   0.01081

  Beta  occ. eigenvalues --  -38.44889 -38.44628 -38.44471 -38.44333 -38.43748
  Beta  occ. eigenvalues --  -38.43654 -38.42720  -2.20915  -2.20799  -2.20678
  Beta  occ. eigenvalues --   -2.20365  -2.19963  -2.19934  -2.18934  -1.14873
  Beta  occ. eigenvalues --   -1.14832  -1.14633  -1.14573  -1.14555  -1.14444
  Beta  occ. eigenvalues --   -1.14376  -1.14307  -1.14162  -1.14123  -1.14014
  Beta  occ. eigenvalues --   -1.13932  -1.13816  -1.13616  -1.13584  -1.13519
  Beta  occ. eigenvalues --   -1.13512  -1.13415  -1.12637  -1.12566  -1.12476
  Beta  occ. eigenvalues --   -0.20813  -0.14713  -0.11301
  Beta virt. eigenvalues --   -0.08202  -0.06155  -0.04172  -0.03755  -0.02995
  Beta virt. eigenvalues --   -0.01770  -0.01695  -0.01553  -0.00300  -0.00115
  Beta virt. eigenvalues --    0.00308   0.00640   0.00785   0.00994   0.01042

 Mulliken charges and spin densities:
               1          2
     1  Na  -1.489600   0.609347
     2  Na  -0.002762  -0.033460
     3  Na   0.646628   0.046163
     4  Na   0.259665   0.077070
     5  Na  -0.194735   0.088208
     6  Na  -1.131526   0.456918
     7  Na   1.912331  -0.244246
 Sum of Mulliken charges =  -0.00000   1.00000

 Dipole moment (field-independent basis, Debye):
    X=              0.1639    Y=             -0.0019    Z=             -0.1958  Tot=              0.2553
 Quadrupole moment (field-independent basis, Debye-Ang):
   XX=            -51.6939   YY=            -77.7509   ZZ=            -66.6188
   XY=              0.8249   XZ=             -0.7144   YZ=             -2.5980

 Normal termination of Gaussian 16 at Fri Dec  8 17:24:50 2023.
