 Gaussian 16, Revision B.01,
 Gaussian 16:  ES64L-G16RevB.01 20-Dec-2017

 -------------------------
 #P B3LYP/6-311+g(d) force
 -------------------------

 -----
 DPGEN
 -----
 Symbolic Z-matrix:
 Charge =  0 Multiplicity = 2

                         Standard orientation:
 ---------------------------------------------------------------------
 Center     Atomic      Atomic             Coordinates (Angstroms)
 Number     Number       Type             X           Y           Z
 ---------------------------------------------------------------------
      1         11           0       -2.442749    0.353249   -2.024701
      2         11           0        1.432972    1.016833   -1.524815
      3         11           0        4.217194   -0.366014   -0.153806
      4         11           0       -1.200710    2.722089    0.782036
      5         11           0       -2.469640   -1.967361    0.606171
      6         11           0        0.144923    0.471218    2.382591
      7         11           0        0.318011   -2.230014   -0.067477
 ---------------------------------------------------------------------

 SCF Done:  E(UB3LYP) =  -1136.12056822     A.U. after   21 cycles

 The electronic state is 2-A.
 Alpha  occ. eigenvalues --  -38.44976 -38.44740 -38.44413 -38.44165 -38.43682
 Alpha  occ. eigenvalues --  -38.43552 -38.42961  -2.20778  -2.20599  -2.20169
 Alpha  occ. eigenvalues --   -2.19978  -2.19556  -2.19421  -2.18789  -1.14446
 Alpha  occ. eigenvalues --   -1.14411  -1.14388  -1.14266  -1.14230  -1.14215
 Alpha  occ. eigenvalues --   -1.13845  -1.13838  -1.13804  -1.13677  -1.13644
 Alpha  occ. eigenvalues --   -1.13573  -1.13379  -1.13221  -1.13218  -1.13054
 Alpha  occ. eigenvalues --   -1.13046  -1.12995  -1.12495  -1.12438  -1.12419
 Alpha  occ. eigenvalues --   -0.17783  -0.12793  -0.11988  -0.11868
 Alpha virt. eigenvalues --   -0.06271  -0.04910  -0.04266  -0.03508  -0.03421
 Alpha virt. eigenvalues --   -0.03116  -0.02132  -0.01011  -0.00570  -0.00122
 Alpha virt. eigenvalues --    0.00034   0.00238   0.00550   0.00708   0.00773

  Beta  occ. eigenvalues --  -38.44897 -38.44648 -38.44419 -38.44137 -38.43672
  Beta  occ. eigenvalues --  -38.43549 -38.42958  -2.20631  -2.20431  -2.20181
  Beta  occ. eigenvalues --   -2.19927  -2.19541  -2.19419  -2.18788  -1.14340
  Beta  occ. eigenvalues --   -1.14315  -1.14287  -1.14156  -1.14110  -1.14093
  Beta  occ. eigenvalues --   -1.13850  -1.13846  -1.13812  -1.13642  -1.13604
  Beta  occ. eigenvalues --   -1.13538  -1.13372  -1.13211  -1.13189  -1.13050
  Beta  occ. eigenvalues --   -1.13030  -1.12991  -1.12479  -1.12442  -1.12407
  Beta  occ. eigenvalues --   -0.16996  -0.12620  -0.11620
  Beta virt. eigenvalues --   -0.08117  -0.06069  -0.04376  -0.04077  -0.03122
  Beta virt. eigenvalues --   -0.02680  -0.02633  -0.01941  -0.00847  -0.00392
  Beta virt. eigenvalues --    0.00074   0.00124   0.00254   0.00600   0.00848

 Mulliken charges and spin densities:
               1          2
     1  Na  -0.081067   0.422875
     2  Na  -0.175304   0.247111
     3  Na   0.256736  -0.084701
     4  Na  -0.002037  -0.206840
     5  Na   0.473358  -0.011357
     6  Na  -0.081183   0.584950
     7  Na  -0.390503   0.047962
 Sum of Mulliken charges =  -0.00000   1.00000

 Dipole moment (field-independent basis, Debye):
    X=              0.2188    Y=             -0.0419    Z=              0.0221  Tot=              0.2239
 Quadrupole moment (field-independent basis, Debye-Ang):
   XX=            -56.3822   YY=            -75.0430   ZZ=            -65.7801
   XY=             -1.4107   XZ=              3.5286   YZ=             -2.4703

 Normal termination of Gaussian 16 at Sun Dec  3 21:06:31 2023.
