 Gaussian 16, Revision B.01,
 Gaussian 16:  ES64L-G16RevB.01 20-Dec-2017

 -------------------------
 #P B3LYP/6-311+g(d) force
 -------------------------

 -----
 DPGEN
 -----
 Symbolic Z-matrix:
 Charge =  0 Multiplicity = 2

                         Standard orientation:
 ---------------------------------------------------------------------
 Center     Atomic      Atomic             Coordinates (Angstroms)
 Number     Number       Type             X           Y           Z
 ---------------------------------------------------------------------
      1         11           0       -1.197307    2.595476   -0.032893
      2         11           0       -3.230581   -0.569952   -0.097166
      3         11           0       -0.462412   -0.016192   -1.534648
      4         11           0        2.690302   -1.280732   -0.189222
      5         11           0       -0.083799   -2.833648    0.008973
      6         11           0        2.270644    1.966445   -0.255760
      7         11           0        0.013153    0.138603    2.100715
 ---------------------------------------------------------------------

 SCF Done:  E(UB3LYP) =  -1136.13706303     A.U. after   19 cycles

 The electronic state is 2-A.
 Alpha  occ. eigenvalues --  -38.44250 -38.43590 -38.43571 -38.43549 -38.43536
 Alpha  occ. eigenvalues --  -38.43356 -38.43075  -2.20071  -2.19467  -2.19447
 Alpha  occ. eigenvalues --   -2.19439  -2.19387  -2.19234  -2.19098  -1.13768
 Alpha  occ. eigenvalues --   -1.13721  -1.13702  -1.13205  -1.13154  -1.13149
 Alpha  occ. eigenvalues --   -1.13139  -1.13105  -1.13092  -1.13085  -1.13059
 Alpha  occ. eigenvalues --   -1.13054  -1.13046  -1.13027  -1.13010  -1.12941
 Alpha  occ. eigenvalues --   -1.12888  -1.12852  -1.12768  -1.12726  -1.12712
 Alpha  occ. eigenvalues --   -0.18846  -0.13046  -0.12605  -0.10746
 Alpha virt. eigenvalues --   -0.05737  -0.05030  -0.04683  -0.03104  -0.02912
 Alpha virt. eigenvalues --   -0.02555  -0.01609  -0.01055  -0.00303  -0.00255
 Alpha virt. eigenvalues --   -0.00014   0.00346   0.00827   0.00882   0.00922

  Beta  occ. eigenvalues --  -38.44248 -38.43582 -38.43567 -38.43530 -38.43446
  Beta  occ. eigenvalues --  -38.43351 -38.43020  -2.20069  -2.19458  -2.19441
  Beta  occ. eigenvalues --   -2.19379  -2.19250  -2.19228  -2.18998  -1.13758
  Beta  occ. eigenvalues --   -1.13709  -1.13704  -1.13193  -1.13153  -1.13135
  Beta  occ. eigenvalues --   -1.13104  -1.13083  -1.13075  -1.13029  -1.13021
  Beta  occ. eigenvalues --   -1.13007  -1.12977  -1.12934  -1.12923  -1.12919
  Beta  occ. eigenvalues --   -1.12858  -1.12853  -1.12698  -1.12658  -1.12637
  Beta  occ. eigenvalues --   -0.18119  -0.12811  -0.12367
  Beta virt. eigenvalues --   -0.06798  -0.05707  -0.05015  -0.04656  -0.02329
  Beta virt. eigenvalues --   -0.02114  -0.01547  -0.01447  -0.00990  -0.00358
  Beta virt. eigenvalues --   -0.00299   0.00136   0.00377   0.00854   0.00899

 Mulliken charges and spin densities:
               1          2
     1  Na   0.304163  -0.033446
     2  Na   0.293259  -0.065037
     3  Na  -0.480599   0.357999
     4  Na   0.072849  -0.000752
     5  Na   0.252281  -0.014376
     6  Na   0.165696   0.004608
     7  Na  -0.607650   0.751003
 Sum of Mulliken charges =  -0.00000   1.00000

 Dipole moment (field-independent basis, Debye):
    X=             -0.3895    Y=              0.0477    Z=              0.2016  Tot=              0.4411
 Quadrupole moment (field-independent basis, Debye-Ang):
   XX=            -56.1817   YY=            -62.6949   ZZ=            -74.5586
   XY=              0.5612   XZ=             -1.0511   YZ=             -0.3907

 Normal termination of Gaussian 16 at Thu Dec  7 23:43:48 2023.
