 Gaussian 16, Revision B.01,
 Gaussian 16:  ES64L-G16RevB.01 20-Dec-2017

 -------------------------
 #P B3LYP/6-311+g(d) force
 -------------------------

 -----
 DPGEN
 -----
 Symbolic Z-matrix:
 Charge =  0 Multiplicity = 2

                         Standard orientation:
 ---------------------------------------------------------------------
 Center     Atomic      Atomic             Coordinates (Angstroms)
 Number     Number       Type             X           Y           Z
 ---------------------------------------------------------------------
      1         11           0        2.843231   -2.648881   -0.352622
      2         11           0       -3.647476   -2.213581   -0.195780
      3         11           0       -0.246846   -2.956646    0.074332
      4         11           0        4.001500    0.520993    1.060586
      5         11           0       -4.141692    1.199567    0.308533
      6         11           0       -1.210271    3.608964    0.141133
      7         11           0        2.401553    2.489584   -1.036182
 ---------------------------------------------------------------------

 SCF Done:  E(UB3LYP) =  -1136.10771861     A.U. after   23 cycles

 The electronic state is 2-A.
 Alpha  occ. eigenvalues --  -38.45353 -38.45046 -38.44894 -38.44335 -38.44204
 Alpha  occ. eigenvalues --  -38.44054 -38.43828  -2.21091  -2.20806  -2.20692
 Alpha  occ. eigenvalues --   -2.20139  -2.20025  -2.19819  -2.19635  -1.14782
 Alpha  occ. eigenvalues --   -1.14762  -1.14728  -1.14495  -1.14480  -1.14453
 Alpha  occ. eigenvalues --   -1.14350  -1.14328  -1.14318  -1.13856  -1.13810
 Alpha  occ. eigenvalues --   -1.13797  -1.13680  -1.13658  -1.13639  -1.13481
 Alpha  occ. eigenvalues --   -1.13468  -1.13438  -1.13288  -1.13281  -1.13269
 Alpha  occ. eigenvalues --   -0.15632  -0.13970  -0.13220  -0.10648
 Alpha virt. eigenvalues --   -0.07631  -0.05203  -0.04192  -0.03502  -0.03317
 Alpha virt. eigenvalues --   -0.02657  -0.02304  -0.01964  -0.01207  -0.00691
 Alpha virt. eigenvalues --   -0.00435  -0.00109   0.00126   0.00257   0.00589

  Beta  occ. eigenvalues --  -38.45350 -38.45041 -38.44853 -38.44315 -38.44166
  Beta  occ. eigenvalues --  -38.43987 -38.43776  -2.21092  -2.20800  -2.20618
  Beta  occ. eigenvalues --   -2.20109  -2.19958  -2.19694  -2.19538  -1.14788
  Beta  occ. eigenvalues --   -1.14767  -1.14690  -1.14484  -1.14479  -1.14429
  Beta  occ. eigenvalues --   -1.14302  -1.14282  -1.14261  -1.13810  -1.13794
  Beta  occ. eigenvalues --   -1.13768  -1.13637  -1.13616  -1.13577  -1.13396
  Beta  occ. eigenvalues --   -1.13385  -1.13353  -1.13221  -1.13218  -1.13203
  Beta  occ. eigenvalues --   -0.15128  -0.13291  -0.12372
  Beta virt. eigenvalues --   -0.07841  -0.07542  -0.04846  -0.03746  -0.03243
  Beta virt. eigenvalues --   -0.02939  -0.02392  -0.02102  -0.01774  -0.01008
  Beta virt. eigenvalues --   -0.00503  -0.00129   0.00043   0.00227   0.00301

 Mulliken charges and spin densities:
               1          2
     1  Na   0.069385   0.050417
     2  Na   0.466034   0.286892
     3  Na  -0.414280   0.090719
     4  Na   0.089301   0.202189
     5  Na  -0.051479   0.049888
     6  Na   0.004115   0.326008
     7  Na  -0.163076  -0.006113
 Sum of Mulliken charges =  -0.00000   1.00000

 Dipole moment (field-independent basis, Debye):
    X=              0.8004    Y=              0.1193    Z=              0.0877  Tot=              0.8140
 Quadrupole moment (field-independent basis, Debye-Ang):
   XX=            -58.7007   YY=            -72.6625   ZZ=            -69.2322
   XY=             -1.6747   XZ=              0.4377   YZ=             -0.6104

 Normal termination of Gaussian 16 at Sun Dec  3 23:50:26 2023.
