 Gaussian 16, Revision B.01,
 Gaussian 16:  ES64L-G16RevB.01 20-Dec-2017

 -------------------------
 #P B3LYP/6-311+g(d) force
 -------------------------

 -----
 DPGEN
 -----
 Symbolic Z-matrix:
 Charge =  0 Multiplicity = 2

                         Standard orientation:
 ---------------------------------------------------------------------
 Center     Atomic      Atomic             Coordinates (Angstroms)
 Number     Number       Type             X           Y           Z
 ---------------------------------------------------------------------
      1         11           0        4.889352   -1.717886    0.010611
      2         11           0        1.688975    0.033574   -1.345777
      3         11           0       -3.348618    1.354174   -0.584680
      4         11           0       -1.558520   -1.302529   -0.757108
      5         11           0       -0.160183    1.876241   -0.080358
      6         11           0       -4.972547   -1.421721    1.241884
      7         11           0        3.461541    1.178147    1.515428
 ---------------------------------------------------------------------

 SCF Done:  E(UB3LYP) =  -1136.11155574     A.U. after   24 cycles

 The electronic state is 2-A.
 Alpha  occ. eigenvalues --  -38.44939 -38.44703 -38.44491 -38.44192 -38.44053
 Alpha  occ. eigenvalues --  -38.43892 -38.42967  -2.20786  -2.20498  -2.20245
 Alpha  occ. eigenvalues --   -2.20065  -2.19808  -2.19802  -2.18893  -1.14485
 Alpha  occ. eigenvalues --   -1.14466  -1.14378  -1.14176  -1.14155  -1.14108
 Alpha  occ. eigenvalues --   -1.13921  -1.13914  -1.13871  -1.13763  -1.13738
 Alpha  occ. eigenvalues --   -1.13647  -1.13560  -1.13480  -1.13476  -1.13474
 Alpha  occ. eigenvalues --   -1.13425  -1.13401  -1.12593  -1.12540  -1.12504
 Alpha  occ. eigenvalues --   -0.17348  -0.14371  -0.11272  -0.10467
 Alpha virt. eigenvalues --   -0.07292  -0.05631  -0.04501  -0.03515  -0.02697
 Alpha virt. eigenvalues --   -0.02537  -0.02118  -0.01666  -0.00738  -0.00608
 Alpha virt. eigenvalues --   -0.00166   0.00039   0.00107   0.00182   0.00485

  Beta  occ. eigenvalues --  -38.44915 -38.44662 -38.44493 -38.44135 -38.44057
  Beta  occ. eigenvalues --  -38.43855 -38.42945  -2.20742  -2.20421  -2.20249
  Beta  occ. eigenvalues --   -2.19962  -2.19810  -2.19744  -2.18856  -1.14454
  Beta  occ. eigenvalues --   -1.14431  -1.14346  -1.14123  -1.14105  -1.14049
  Beta  occ. eigenvalues --   -1.13925  -1.13911  -1.13874  -1.13695  -1.13670
  Beta  occ. eigenvalues --   -1.13556  -1.13514  -1.13486  -1.13479  -1.13431
  Beta  occ. eigenvalues --   -1.13424  -1.13334  -1.12558  -1.12516  -1.12465
  Beta  occ. eigenvalues --   -0.16698  -0.14132  -0.11192
  Beta virt. eigenvalues --   -0.06996  -0.06789  -0.05216  -0.04238  -0.03255
  Beta virt. eigenvalues --   -0.02495  -0.02063  -0.01683  -0.01418  -0.00654
  Beta virt. eigenvalues --   -0.00355  -0.00018   0.00203   0.00261   0.00378

 Mulliken charges and spin densities:
               1          2
     1  Na   0.086910  -0.008516
     2  Na  -0.010121   0.113417
     3  Na   0.241170   0.145766
     4  Na  -0.228730   0.301402
     5  Na  -0.363384   0.270723
     6  Na   0.159582  -0.028716
     7  Na   0.114574   0.205925
 Sum of Mulliken charges =  -0.00000   1.00000

 Dipole moment (field-independent basis, Debye):
    X=              0.2030    Y=             -0.2467    Z=              0.2936  Tot=              0.4339
 Quadrupole moment (field-independent basis, Debye-Ang):
   XX=            -62.2788   YY=            -67.1023   ZZ=            -67.9125
   XY=             -3.2325   XZ=             -0.5453   YZ=             -1.4293

 Normal termination of Gaussian 16 at Thu Dec  7 18:00:22 2023.
