 Gaussian 16, Revision B.01,
 Gaussian 16:  ES64L-G16RevB.01 20-Dec-2017

 -------------------------
 #P B3LYP/6-311+g(d) force
 -------------------------

 -----
 DPGEN
 -----
 Symbolic Z-matrix:
 Charge =  0 Multiplicity = 2

                         Standard orientation:
 ---------------------------------------------------------------------
 Center     Atomic      Atomic             Coordinates (Angstroms)
 Number     Number       Type             X           Y           Z
 ---------------------------------------------------------------------
      1         11           0       -1.368793   -1.924897    1.920613
      2         11           0       -3.979293   -0.816332   -0.174641
      3         11           0       -3.577835    2.866318   -0.053409
      4         11           0       -1.272210    0.728799   -0.670595
      5         11           0        0.943783   -2.000091   -1.375236
      6         11           0        3.979973   -0.881745   -0.250619
      7         11           0        5.274375    2.027948    0.603888
 ---------------------------------------------------------------------

 SCF Done:  E(UB3LYP) =  -1136.11175626     A.U. after   22 cycles

 The electronic state is 2-A.
 Alpha  occ. eigenvalues --  -38.45507 -38.44499 -38.44486 -38.43838 -38.43738
 Alpha  occ. eigenvalues --  -38.43730 -38.43512  -2.21344  -2.20404  -2.20281
 Alpha  occ. eigenvalues --   -2.19659  -2.19555  -2.19523  -2.19300  -1.15051
 Alpha  occ. eigenvalues --   -1.15010  -1.14930  -1.14117  -1.14081  -1.13998
 Alpha  occ. eigenvalues --   -1.13959  -1.13928  -1.13898  -1.13330  -1.13316
 Alpha  occ. eigenvalues --   -1.13267  -1.13232  -1.13211  -1.13178  -1.13168
 Alpha  occ. eigenvalues --   -1.13166  -1.13165  -1.12983  -1.12971  -1.12942
 Alpha  occ. eigenvalues --   -0.17039  -0.13801  -0.11866  -0.10878
 Alpha virt. eigenvalues --   -0.06481  -0.06243  -0.04306  -0.03138  -0.02866
 Alpha virt. eigenvalues --   -0.02569  -0.02021  -0.01713  -0.01343  -0.00671
 Alpha virt. eigenvalues --   -0.00481  -0.00376   0.00151   0.00349   0.00541

  Beta  occ. eigenvalues --  -38.45474 -38.44477 -38.44449 -38.43785 -38.43727
  Beta  occ. eigenvalues --  -38.43664 -38.43524  -2.21285  -2.20364  -2.20215
  Beta  occ. eigenvalues --   -2.19560  -2.19536  -2.19401  -2.19329  -1.15014
  Beta  occ. eigenvalues --   -1.14966  -1.14876  -1.14093  -1.14041  -1.13971
  Beta  occ. eigenvalues --   -1.13916  -1.13872  -1.13853  -1.13263  -1.13246
  Beta  occ. eigenvalues --   -1.13214  -1.13208  -1.13195  -1.13169  -1.13094
  Beta  occ. eigenvalues --   -1.13084  -1.13082  -1.13007  -1.12992  -1.12919
  Beta  occ. eigenvalues --   -0.16584  -0.13358  -0.11240
  Beta virt. eigenvalues --   -0.07617  -0.06187  -0.05878  -0.04085  -0.02808
  Beta virt. eigenvalues --   -0.02477  -0.02404  -0.01744  -0.01482  -0.00992
  Beta virt. eigenvalues --   -0.00503  -0.00207  -0.00159   0.00218   0.00410

 Mulliken charges and spin densities:
               1          2
     1  Na   0.115803   0.107044
     2  Na   0.349895   0.227901
     3  Na   0.396204  -0.021714
     4  Na  -1.632698   0.355508
     5  Na   0.928443   0.106596
     6  Na  -0.526872  -0.071433
     7  Na   0.369226   0.296097
 Sum of Mulliken charges =  -0.00000   1.00000

 Dipole moment (field-independent basis, Debye):
    X=             -2.5487    Y=             -0.3071    Z=              0.4050  Tot=              2.5989
 Quadrupole moment (field-independent basis, Debye-Ang):
   XX=            -69.3150   YY=            -64.6720   ZZ=            -68.7470
   XY=              1.1224   XZ=              1.8545   YZ=              4.0256

 Normal termination of Gaussian 16 at Sun Dec  3 11:55:50 2023.
