 Gaussian 16, Revision B.01,
 Gaussian 16:  ES64L-G16RevB.01 20-Dec-2017

 -------------------------
 #P B3LYP/6-311+g(d) force
 -------------------------

 -----
 DPGEN
 -----
 Symbolic Z-matrix:
 Charge =  0 Multiplicity = 2

                         Standard orientation:
 ---------------------------------------------------------------------
 Center     Atomic      Atomic             Coordinates (Angstroms)
 Number     Number       Type             X           Y           Z
 ---------------------------------------------------------------------
      1         11           0       -2.043175    2.330141   -0.280961
      2         11           0        0.499077    0.021143   -1.539958
      3         11           0        2.277928    2.422633   -0.223326
      4         11           0        0.241167   -0.144831    2.189667
      5         11           0       -0.520139   -2.826100   -0.729255
      6         11           0       -3.168878   -0.457267    0.304050
      7         11           0        2.714019   -1.345719    0.279783
 ---------------------------------------------------------------------

 SCF Done:  E(UB3LYP) =  -1136.13125396     A.U. after   19 cycles

 The electronic state is 2-A.
 Alpha  occ. eigenvalues --  -38.44262 -38.44133 -38.43982 -38.43879 -38.43833
 Alpha  occ. eigenvalues --  -38.43231 -38.43179  -2.20126  -2.19986  -2.19815
 Alpha  occ. eigenvalues --   -2.19699  -2.19632  -2.19172  -2.19081  -1.13826
 Alpha  occ. eigenvalues --   -1.13815  -1.13731  -1.13638  -1.13610  -1.13602
 Alpha  occ. eigenvalues --   -1.13567  -1.13475  -1.13451  -1.13365  -1.13342
 Alpha  occ. eigenvalues --   -1.13325  -1.13311  -1.13285  -1.13267  -1.12898
 Alpha  occ. eigenvalues --   -1.12838  -1.12811  -1.12725  -1.12714  -1.12695
 Alpha  occ. eigenvalues --   -0.18345  -0.13202  -0.12113  -0.10951
 Alpha virt. eigenvalues --   -0.05737  -0.05479  -0.04458  -0.03381  -0.02784
 Alpha virt. eigenvalues --   -0.02758  -0.01527  -0.01275  -0.00504  -0.00321
 Alpha virt. eigenvalues --   -0.00019   0.00350   0.00772   0.00814   0.00836

  Beta  occ. eigenvalues --  -38.44251 -38.44033 -38.43981 -38.43879 -38.43829
  Beta  occ. eigenvalues --  -38.43212 -38.43122  -2.20110  -2.19815  -2.19800
  Beta  occ. eigenvalues --   -2.19701  -2.19627  -2.19070  -2.19049  -1.13818
  Beta  occ. eigenvalues --   -1.13765  -1.13724  -1.13571  -1.13517  -1.13480
  Beta  occ. eigenvalues --   -1.13474  -1.13456  -1.13450  -1.13357  -1.13343
  Beta  occ. eigenvalues --   -1.13314  -1.13311  -1.13279  -1.13263  -1.12841
  Beta  occ. eigenvalues --   -1.12767  -1.12739  -1.12691  -1.12684  -1.12655
  Beta  occ. eigenvalues --   -0.17635  -0.13022  -0.11853
  Beta virt. eigenvalues --   -0.07009  -0.05680  -0.05393  -0.04403  -0.02636
  Beta virt. eigenvalues --   -0.02117  -0.01696  -0.01438  -0.01188  -0.00515
  Beta virt. eigenvalues --   -0.00332   0.00122   0.00390   0.00815   0.00862

 Mulliken charges and spin densities:
               1          2
     1  Na  -0.061347  -0.047404
     2  Na   0.057669   0.272790
     3  Na  -0.065346  -0.064869
     4  Na  -0.370719   0.674671
     5  Na   0.086446   0.043608
     6  Na   0.024073   0.029524
     7  Na   0.329224   0.091680
 Sum of Mulliken charges =  -0.00000   1.00000

 Dipole moment (field-independent basis, Debye):
    X=              0.2468    Y=              0.0487    Z=              0.3304  Tot=              0.4152
 Quadrupole moment (field-independent basis, Debye-Ang):
   XX=            -57.2093   YY=            -63.4136   ZZ=            -73.9256
   XY=              0.5678   XZ=              0.3506   YZ=              0.0349

 Normal termination of Gaussian 16 at Fri Dec  8 06:29:53 2023.
