 Gaussian 16, Revision B.01,
 Gaussian 16:  ES64L-G16RevB.01 20-Dec-2017

 -------------------------
 #P B3LYP/6-311+g(d) force
 -------------------------

 -----
 DPGEN
 -----
 Symbolic Z-matrix:
 Charge =  0 Multiplicity = 2

                         Standard orientation:
 ---------------------------------------------------------------------
 Center     Atomic      Atomic             Coordinates (Angstroms)
 Number     Number       Type             X           Y           Z
 ---------------------------------------------------------------------
      1         11           0        3.089466   -2.155951    0.498150
      2         11           0        0.031591    0.029182    1.646582
      3         11           0       -0.412040   -2.274176   -0.834410
      4         11           0        1.977221    0.797560   -1.284376
      5         11           0        0.551281    3.441692    0.732129
      6         11           0       -1.602028    1.394813   -1.256444
      7         11           0       -3.635491   -1.233120    0.498370
 ---------------------------------------------------------------------

 SCF Done:  E(UB3LYP) =  -1136.13505576     A.U. after   18 cycles

 The electronic state is 2-A.
 Alpha  occ. eigenvalues --  -38.44079 -38.44027 -38.43915 -38.43712 -38.43686
 Alpha  occ. eigenvalues --  -38.43596 -38.43576  -2.19853  -2.19850  -2.19694
 Alpha  occ. eigenvalues --   -2.19559  -2.19538  -2.19460  -2.19410  -1.13571
 Alpha  occ. eigenvalues --   -1.13538  -1.13523  -1.13518  -1.13484  -1.13433
 Alpha  occ. eigenvalues --   -1.13367  -1.13360  -1.13323  -1.13268  -1.13235
 Alpha  occ. eigenvalues --   -1.13226  -1.13211  -1.13161  -1.13155  -1.13133
 Alpha  occ. eigenvalues --   -1.13101  -1.13078  -1.13073  -1.13057  -1.13032
 Alpha  occ. eigenvalues --   -0.17931  -0.12623  -0.12527  -0.10266
 Alpha virt. eigenvalues --   -0.05879  -0.05236  -0.05140  -0.03065  -0.02912
 Alpha virt. eigenvalues --   -0.02139  -0.01821  -0.01530  -0.00744  -0.00374
 Alpha virt. eigenvalues --    0.00157   0.00279   0.00642   0.00686   0.00751

  Beta  occ. eigenvalues --  -38.44078 -38.44013 -38.43914 -38.43676 -38.43650
  Beta  occ. eigenvalues --  -38.43582 -38.43511  -2.19851  -2.19830  -2.19693
  Beta  occ. eigenvalues --   -2.19496  -2.19472  -2.19387  -2.19340  -1.13558
  Beta  occ. eigenvalues --   -1.13526  -1.13509  -1.13495  -1.13484  -1.13424
  Beta  occ. eigenvalues --   -1.13367  -1.13350  -1.13323  -1.13224  -1.13186
  Beta  occ. eigenvalues --   -1.13166  -1.13143  -1.13121  -1.13093  -1.13069
  Beta  occ. eigenvalues --   -1.13059  -1.13048  -1.13018  -1.12992  -1.12986
  Beta  occ. eigenvalues --   -0.17214  -0.12472  -0.12349
  Beta virt. eigenvalues --   -0.06471  -0.05756  -0.05110  -0.05015  -0.02470
  Beta virt. eigenvalues --   -0.02422  -0.01740  -0.01459  -0.01242  -0.00436
  Beta virt. eigenvalues --   -0.00323   0.00216   0.00331   0.00706   0.00718

 Mulliken charges and spin densities:
               1          2
     1  Na   0.216818  -0.084291
     2  Na  -0.341797   0.715393
     3  Na  -0.057431   0.077951
     4  Na  -0.067329   0.245296
     5  Na   0.139639  -0.105472
     6  Na  -0.093346   0.225550
     7  Na   0.203445  -0.074428
 Sum of Mulliken charges =  -0.00000   1.00000

 Dipole moment (field-independent basis, Debye):
    X=             -0.0957    Y=             -0.1279    Z=             -0.0053  Tot=              0.1599
 Quadrupole moment (field-independent basis, Debye-Ang):
   XX=            -56.1063   YY=            -60.7169   ZZ=            -74.1374
   XY=             -0.2026   XZ=             -0.1231   YZ=              0.0671

 Normal termination of Gaussian 16 at Fri Dec  8 04:58:03 2023.
