 Gaussian 16, Revision B.01,
 Gaussian 16:  ES64L-G16RevB.01 20-Dec-2017

 -------------------------
 #P B3LYP/6-311+g(d) force
 -------------------------

 -----
 DPGEN
 -----
 Symbolic Z-matrix:
 Charge =  0 Multiplicity = 2

                         Standard orientation:
 ---------------------------------------------------------------------
 Center     Atomic      Atomic             Coordinates (Angstroms)
 Number     Number       Type             X           Y           Z
 ---------------------------------------------------------------------
      1         11           0        2.947170    2.795216    0.630375
      2         11           0       -3.294973    2.381795   -0.040126
      3         11           0       -3.798443   -1.481365   -0.130981
      4         11           0       -0.231826    3.151534   -0.578008
      5         11           0       -0.840152   -2.828503    1.248767
      6         11           0        1.348869   -3.129164   -1.110925
      7         11           0        3.869354   -0.889512   -0.019102
 ---------------------------------------------------------------------

 SCF Done:  E(UB3LYP) =  -1136.10896746     A.U. after   23 cycles

 The electronic state is 2-A.
 Alpha  occ. eigenvalues --  -38.45552 -38.44916 -38.44813 -38.44377 -38.44292
 Alpha  occ. eigenvalues --  -38.43862 -38.43529  -2.21287  -2.20705  -2.20574
 Alpha  occ. eigenvalues --   -2.20177  -2.20105  -2.19671  -2.19329  -1.14979
 Alpha  occ. eigenvalues --   -1.14955  -1.14915  -1.14395  -1.14374  -1.14340
 Alpha  occ. eigenvalues --   -1.14245  -1.14223  -1.14202  -1.13859  -1.13851
 Alpha  occ. eigenvalues --   -1.13831  -1.13768  -1.13760  -1.13731  -1.13329
 Alpha  occ. eigenvalues --   -1.13322  -1.13293  -1.12980  -1.12977  -1.12957
 Alpha  occ. eigenvalues --   -0.15658  -0.13727  -0.13373  -0.10475
 Alpha virt. eigenvalues --   -0.07471  -0.05215  -0.04186  -0.03584  -0.03170
 Alpha virt. eigenvalues --   -0.02530  -0.02298  -0.01722  -0.01334  -0.00846
 Alpha virt. eigenvalues --   -0.00208  -0.00066  -0.00012   0.00479   0.00550

  Beta  occ. eigenvalues --  -38.45541 -38.44906 -38.44779 -38.44359 -38.44260
  Beta  occ. eigenvalues --  -38.43811 -38.43467  -2.21273  -2.20689  -2.20513
  Beta  occ. eigenvalues --   -2.20151  -2.20045  -2.19579  -2.19214  -1.14973
  Beta  occ. eigenvalues --   -1.14950  -1.14874  -1.14388  -1.14366  -1.14304
  Beta  occ. eigenvalues --   -1.14205  -1.14184  -1.14149  -1.13846  -1.13837
  Beta  occ. eigenvalues --   -1.13769  -1.13733  -1.13720  -1.13680  -1.13265
  Beta  occ. eigenvalues --   -1.13259  -1.13227  -1.12903  -1.12901  -1.12880
  Beta  occ. eigenvalues --   -0.15200  -0.12980  -0.12625
  Beta virt. eigenvalues --   -0.07656  -0.07347  -0.04905  -0.03722  -0.03321
  Beta virt. eigenvalues --   -0.02746  -0.02314  -0.02105  -0.01488  -0.01177
  Beta virt. eigenvalues --   -0.00622  -0.00007   0.00099   0.00224   0.00501

 Mulliken charges and spin densities:
               1          2
     1  Na   0.345446   0.294812
     2  Na   0.271667   0.174925
     3  Na  -0.050893   0.155572
     4  Na  -0.595049   0.095587
     5  Na  -0.070709   0.064287
     6  Na   0.243162   0.153236
     7  Na  -0.143625   0.061581
 Sum of Mulliken charges =  -0.00000   1.00000

 Dipole moment (field-independent basis, Debye):
    X=              0.0311    Y=             -1.2040    Z=             -0.0001  Tot=              1.2044
 Quadrupole moment (field-independent basis, Debye-Ang):
   XX=            -60.4422   YY=            -72.2254   ZZ=            -68.6906
   XY=             -0.8328   XZ=              1.8097   YZ=              0.6876

 Normal termination of Gaussian 16 at Sun Dec  3 14:37:35 2023.
