 Gaussian 16, Revision B.01,
 Gaussian 16:  ES64L-G16RevB.01 20-Dec-2017

 -------------------------
 #P B3LYP/6-311+g(d) force
 -------------------------

 -----
 DPGEN
 -----
 Symbolic Z-matrix:
 Charge =  0 Multiplicity = 2

                         Standard orientation:
 ---------------------------------------------------------------------
 Center     Atomic      Atomic             Coordinates (Angstroms)
 Number     Number       Type             X           Y           Z
 ---------------------------------------------------------------------
      1         11           0        1.633153   -2.774554    1.236376
      2         11           0       -4.352099   -0.958145    0.489651
      3         11           0        1.473283    0.954704   -0.954480
      4         11           0        4.179668   -0.143154   -0.201993
      5         11           0       -2.218370    1.794726   -0.407791
      6         11           0        0.343390    3.370896    0.917247
      7         11           0       -1.059026   -2.244473   -1.079010
 ---------------------------------------------------------------------

 SCF Done:  E(UB3LYP) =  -1136.11753738     A.U. after   19 cycles

 The electronic state is 2-A.
 Alpha  occ. eigenvalues --  -38.44803 -38.44384 -38.44135 -38.44075 -38.43956
 Alpha  occ. eigenvalues --  -38.43725 -38.43626  -2.20566  -2.20150  -2.20020
 Alpha  occ. eigenvalues --   -2.19893  -2.19788  -2.19519  -2.19478  -1.14243
 Alpha  occ. eigenvalues --   -1.14212  -1.14191  -1.13850  -1.13823  -1.13756
 Alpha  occ. eigenvalues --   -1.13747  -1.13704  -1.13659  -1.13605  -1.13578
 Alpha  occ. eigenvalues --   -1.13523  -1.13441  -1.13437  -1.13397  -1.13175
 Alpha  occ. eigenvalues --   -1.13167  -1.13141  -1.13129  -1.13106  -1.13073
 Alpha  occ. eigenvalues --   -0.16687  -0.13511  -0.12888  -0.10216
 Alpha virt. eigenvalues --   -0.06834  -0.05416  -0.04283  -0.03545  -0.02986
 Alpha virt. eigenvalues --   -0.02488  -0.01819  -0.01138  -0.01005  -0.00758
 Alpha virt. eigenvalues --   -0.00631  -0.00093   0.00342   0.00597   0.00727

  Beta  occ. eigenvalues --  -38.44769 -38.44371 -38.44122 -38.44067 -38.43945
  Beta  occ. eigenvalues --  -38.43658 -38.43550  -2.20505  -2.20129  -2.20001
  Beta  occ. eigenvalues --   -2.19884  -2.19768  -2.19393  -2.19337  -1.14203
  Beta  occ. eigenvalues --   -1.14162  -1.14147  -1.13839  -1.13810  -1.13727
  Beta  occ. eigenvalues --   -1.13724  -1.13661  -1.13655  -1.13603  -1.13573
  Beta  occ. eigenvalues --   -1.13495  -1.13428  -1.13425  -1.13376  -1.13089
  Beta  occ. eigenvalues --   -1.13078  -1.13050  -1.13044  -1.13012  -1.12982
  Beta  occ. eigenvalues --   -0.16359  -0.12753  -0.12317
  Beta virt. eigenvalues --   -0.06919  -0.06650  -0.05386  -0.03961  -0.03213
  Beta virt. eigenvalues --   -0.02778  -0.02052  -0.01333  -0.01017  -0.00885
  Beta virt. eigenvalues --   -0.00655  -0.00207   0.00233   0.00391   0.00648

 Mulliken charges and spin densities:
               1          2
     1  Na  -0.168350   0.134230
     2  Na   0.178239   0.351761
     3  Na  -0.025536   0.245197
     4  Na   0.131344   0.171168
     5  Na  -0.223642   0.116864
     6  Na   0.068386  -0.023458
     7  Na   0.039558   0.004237
 Sum of Mulliken charges =  -0.00000   1.00000

 Dipole moment (field-independent basis, Debye):
    X=              0.3456    Y=             -0.0112    Z=              0.9443  Tot=              1.0056
 Quadrupole moment (field-independent basis, Debye-Ang):
   XX=            -71.4445   YY=            -66.2620   ZZ=            -64.0659
   XY=             -2.0344   XZ=              3.0367   YZ=              0.5015

 Normal termination of Gaussian 16 at Mon Dec  4 03:04:16 2023.
