 Gaussian 16, Revision B.01,
 Gaussian 16:  ES64L-G16RevB.01 20-Dec-2017

 -------------------------
 #P B3LYP/6-311+g(d) force
 -------------------------

 -----
 DPGEN
 -----
 Symbolic Z-matrix:
 Charge =  0 Multiplicity = 2

                         Standard orientation:
 ---------------------------------------------------------------------
 Center     Atomic      Atomic             Coordinates (Angstroms)
 Number     Number       Type             X           Y           Z
 ---------------------------------------------------------------------
      1         11           0       -0.613766   -0.004704   -1.546969
      2         11           0       -2.210763   -2.160090    0.229343
      3         11           0        1.974953   -2.190108   -0.483201
      4         11           0        3.231088    0.663839   -0.113503
      5         11           0        0.357118    2.671430    0.067530
      6         11           0        0.132562   -0.207856    2.049763
      7         11           0       -2.871192    1.227490   -0.202963
 ---------------------------------------------------------------------

 SCF Done:  E(UB3LYP) =  -1136.13205799     A.U. after   19 cycles

 The electronic state is 2-A.
 Alpha  occ. eigenvalues --  -38.44348 -38.44266 -38.43704 -38.43612 -38.43603
 Alpha  occ. eigenvalues --  -38.43409 -38.42828  -2.20181  -2.20158  -2.19554
 Alpha  occ. eigenvalues --   -2.19494  -2.19457  -2.19431  -2.18704  -1.13934
 Alpha  occ. eigenvalues --   -1.13868  -1.13842  -1.13822  -1.13796  -1.13764
 Alpha  occ. eigenvalues --   -1.13263  -1.13223  -1.13187  -1.13165  -1.13138
 Alpha  occ. eigenvalues --   -1.13128  -1.13109  -1.13104  -1.13098  -1.13089
 Alpha  occ. eigenvalues --   -1.13058  -1.13034  -1.12397  -1.12371  -1.12326
 Alpha  occ. eigenvalues --   -0.18763  -0.13582  -0.12086  -0.10763
 Alpha virt. eigenvalues --   -0.05952  -0.05438  -0.04194  -0.03416  -0.02740
 Alpha virt. eigenvalues --   -0.02477  -0.01750  -0.01153  -0.00389  -0.00197
 Alpha virt. eigenvalues --   -0.00022   0.00326   0.00746   0.00855   0.00905

  Beta  occ. eigenvalues --  -38.44346 -38.44257 -38.43697 -38.43600 -38.43504
  Beta  occ. eigenvalues --  -38.43356 -38.42823  -2.20180  -2.20145  -2.19545
  Beta  occ. eigenvalues --   -2.19437  -2.19335  -2.19311  -2.18697  -1.13914
  Beta  occ. eigenvalues --   -1.13868  -1.13832  -1.13815  -1.13769  -1.13760
  Beta  occ. eigenvalues --   -1.13251  -1.13193  -1.13179  -1.13121  -1.13098
  Beta  occ. eigenvalues --   -1.13073  -1.13052  -1.13022  -1.12990  -1.12989
  Beta  occ. eigenvalues --   -1.12973  -1.12971  -1.12394  -1.12344  -1.12319
  Beta  occ. eigenvalues --   -0.18061  -0.13329  -0.11837
  Beta virt. eigenvalues --   -0.06873  -0.05854  -0.05418  -0.04155  -0.02662
  Beta virt. eigenvalues --   -0.01966  -0.01664  -0.01451  -0.01080  -0.00425
  Beta virt. eigenvalues --   -0.00212   0.00125   0.00368   0.00821   0.00858

 Mulliken charges and spin densities:
               1          2
     1  Na  -0.379698   0.329412
     2  Na   0.122660  -0.033952
     3  Na   0.163100   0.018175
     4  Na  -0.043974  -0.028106
     5  Na   0.106028  -0.024612
     6  Na  -0.501389   0.710331
     7  Na   0.533271   0.028752
 Sum of Mulliken charges =  -0.00000   1.00000

 Dipole moment (field-independent basis, Debye):
    X=             -0.0936    Y=             -0.0737    Z=              0.2122  Tot=              0.2434
 Quadrupole moment (field-independent basis, Debye-Ang):
   XX=            -53.5826   YY=            -66.0066   ZZ=            -74.2868
   XY=              0.8477   XZ=             -1.1231   YZ=              0.3804

 Normal termination of Gaussian 16 at Thu Dec  7 18:14:00 2023.
