 Gaussian 16, Revision B.01,
 Gaussian 16:  ES64L-G16RevB.01 20-Dec-2017

 -------------------------
 #P B3LYP/6-311+g(d) force
 -------------------------

 -----
 DPGEN
 -----
 Symbolic Z-matrix:
 Charge =  0 Multiplicity = 2

                         Standard orientation:
 ---------------------------------------------------------------------
 Center     Atomic      Atomic             Coordinates (Angstroms)
 Number     Number       Type             X           Y           Z
 ---------------------------------------------------------------------
      1         11           0       -4.014284   -1.267154    0.005639
      2         11           0       -0.796584   -0.471141    2.046829
      3         11           0        1.243031    1.840835   -0.143129
      4         11           0        4.766597    0.049660    0.189217
      5         11           0        2.149579   -1.487241   -0.293792
      6         11           0       -2.641744    1.987788   -0.147478
      7         11           0       -0.706596   -0.652747   -1.657285
 ---------------------------------------------------------------------

 SCF Done:  E(UB3LYP) =  -1136.10791113     A.U. after   31 cycles

 The electronic state is 2-A.
 Alpha  occ. eigenvalues --  -38.47905 -38.44794 -38.44004 -38.43892 -38.43336
 Alpha  occ. eigenvalues --  -38.43218 -38.42652  -2.23655  -2.20701  -2.19846
 Alpha  occ. eigenvalues --   -2.19721  -2.19139  -2.19136  -2.18506  -1.17336
 Alpha  occ. eigenvalues --   -1.17301  -1.17284  -1.14391  -1.14342  -1.14307
 Alpha  occ. eigenvalues --   -1.13520  -1.13478  -1.13465  -1.13423  -1.13379
 Alpha  occ. eigenvalues --   -1.13317  -1.12820  -1.12817  -1.12806  -1.12798
 Alpha  occ. eigenvalues --   -1.12782  -1.12774  -1.12212  -1.12200  -1.12093
 Alpha  occ. eigenvalues --   -0.18259  -0.14369  -0.10948  -0.10470
 Alpha virt. eigenvalues --   -0.08299  -0.05234  -0.04259  -0.03606  -0.02950
 Alpha virt. eigenvalues --   -0.02219  -0.02071  -0.01827  -0.01145  -0.00874
 Alpha virt. eigenvalues --   -0.00326   0.00145   0.00187   0.00559   0.00674

  Beta  occ. eigenvalues --  -38.47902 -38.44726 -38.43925 -38.43865 -38.43325
  Beta  occ. eigenvalues --  -38.43198 -38.42647  -2.23651  -2.20580  -2.19698
  Beta  occ. eigenvalues --   -2.19672  -2.19120  -2.19109  -2.18499  -1.17314
  Beta  occ. eigenvalues --   -1.17302  -1.17287  -1.14286  -1.14259  -1.14222
  Beta  occ. eigenvalues --   -1.13428  -1.13390  -1.13377  -1.13362  -1.13349
  Beta  occ. eigenvalues --   -1.13274  -1.12806  -1.12804  -1.12781  -1.12773
  Beta  occ. eigenvalues --   -1.12764  -1.12712  -1.12208  -1.12181  -1.12091
  Beta  occ. eigenvalues --   -0.17641  -0.13729  -0.10286
  Beta virt. eigenvalues --   -0.08136  -0.07346  -0.04979  -0.03674  -0.03395
  Beta virt. eigenvalues --   -0.02780  -0.02046  -0.01827  -0.01319  -0.00713
  Beta virt. eigenvalues --   -0.00572  -0.00185   0.00210   0.00305   0.00616

 Mulliken charges and spin densities:
               1          2
     1  Na   0.006077   0.145963
     2  Na   0.219406  -0.046392
     3  Na  -0.513169   0.031029
     4  Na   0.219847   0.364510
     5  Na  -0.129839   0.018480
     6  Na  -0.123530   0.324799
     7  Na   0.321208   0.161610
 Sum of Mulliken charges =  -0.00000   1.00000

 Dipole moment (field-independent basis, Debye):
    X=             -0.5694    Y=              0.2568    Z=              0.7880  Tot=              1.0055
 Quadrupole moment (field-independent basis, Debye-Ang):
   XX=            -68.6896   YY=            -79.7226   ZZ=            -58.5297
   XY=             -0.4635   XZ=              1.9093   YZ=             -0.8345

 Normal termination of Gaussian 16 at Fri Dec  8 04:17:38 2023.
