 Gaussian 16, Revision B.01,
 Gaussian 16:  ES64L-G16RevB.01 20-Dec-2017

 -------------------------
 #P B3LYP/6-311+g(d) force
 -------------------------

 -----
 DPGEN
 -----
 Symbolic Z-matrix:
 Charge =  0 Multiplicity = 2

                         Standard orientation:
 ---------------------------------------------------------------------
 Center     Atomic      Atomic             Coordinates (Angstroms)
 Number     Number       Type             X           Y           Z
 ---------------------------------------------------------------------
      1         11           0        0.507452    2.607837   -0.171560
      2         11           0        2.817516    0.795934    0.043037
      3         11           0       -2.644738    1.438943   -0.129806
      4         11           0        2.126377   -2.259215   -0.060712
      5         11           0       -2.703949   -1.862138   -0.116265
      6         11           0        0.086846   -0.463787   -1.737969
      7         11           0       -0.189504   -0.257574    2.173276
 ---------------------------------------------------------------------

 SCF Done:  E(UB3LYP) =  -1136.13155637     A.U. after   19 cycles

 The electronic state is 2-A.
 Alpha  occ. eigenvalues --  -38.44142 -38.44068 -38.44060 -38.44042 -38.43644
 Alpha  occ. eigenvalues --  -38.43550 -38.42642  -2.19988  -2.19959  -2.19919
 Alpha  occ. eigenvalues --   -2.19895  -2.19510  -2.19494  -2.18557  -1.13712
 Alpha  occ. eigenvalues --   -1.13656  -1.13654  -1.13627  -1.13626  -1.13612
 Alpha  occ. eigenvalues --   -1.13587  -1.13585  -1.13551  -1.13533  -1.13521
 Alpha  occ. eigenvalues --   -1.13512  -1.13246  -1.13169  -1.13160  -1.13143
 Alpha  occ. eigenvalues --   -1.13117  -1.13087  -1.12252  -1.12209  -1.12189
 Alpha  occ. eigenvalues --   -0.18784  -0.13584  -0.12044  -0.11036
 Alpha virt. eigenvalues --   -0.05817  -0.05622  -0.04018  -0.03614  -0.02862
 Alpha virt. eigenvalues --   -0.02751  -0.01632  -0.01143  -0.00400  -0.00051
 Alpha virt. eigenvalues --   -0.00016   0.00353   0.00706   0.00833   0.00902

  Beta  occ. eigenvalues --  -38.44141 -38.44065 -38.44055 -38.43941 -38.43641
  Beta  occ. eigenvalues --  -38.43485 -38.42636  -2.19983  -2.19959  -2.19915
  Beta  occ. eigenvalues --   -2.19709  -2.19508  -2.19375  -2.18550  -1.13713
  Beta  occ. eigenvalues --   -1.13659  -1.13654  -1.13616  -1.13602  -1.13593
  Beta  occ. eigenvalues --   -1.13585  -1.13559  -1.13535  -1.13430  -1.13391
  Beta  occ. eigenvalues --   -1.13381  -1.13217  -1.13162  -1.13128  -1.13086
  Beta  occ. eigenvalues --   -1.13035  -1.13015  -1.12251  -1.12205  -1.12158
  Beta  occ. eigenvalues --   -0.18032  -0.13378  -0.11821
  Beta virt. eigenvalues --   -0.07083  -0.05784  -0.05556  -0.04014  -0.02779
  Beta virt. eigenvalues --   -0.02005  -0.01789  -0.01523  -0.01058  -0.00469
  Beta virt. eigenvalues --   -0.00045   0.00115   0.00382   0.00795   0.00834

 Mulliken charges and spin densities:
               1          2
     1  Na  -0.094532   0.046263
     2  Na   0.151615   0.125142
     3  Na   0.056449   0.056670
     4  Na   0.378134   0.017980
     5  Na   0.202351  -0.041954
     6  Na  -0.193990   0.237474
     7  Na  -0.500026   0.558424
 Sum of Mulliken charges =  -0.00000   1.00000

 Dipole moment (field-independent basis, Debye):
    X=             -0.4011    Y=             -0.4774    Z=              0.1748  Tot=              0.6476
 Quadrupole moment (field-independent basis, Debye-Ang):
   XX=            -55.8020   YY=            -66.7402   ZZ=            -72.9045
   XY=             -0.1731   XZ=              0.6367   YZ=             -0.4290

 Normal termination of Gaussian 16 at Thu Dec  7 16:46:54 2023.
