 Gaussian 16, Revision B.01,
 Gaussian 16:  ES64L-G16RevB.01 20-Dec-2017

 -------------------------
 #P B3LYP/6-311+g(d) force
 -------------------------

 -----
 DPGEN
 -----
 Symbolic Z-matrix:
 Charge =  0 Multiplicity = 2

                         Standard orientation:
 ---------------------------------------------------------------------
 Center     Atomic      Atomic             Coordinates (Angstroms)
 Number     Number       Type             X           Y           Z
 ---------------------------------------------------------------------
      1         11           0       -3.347862    2.461377    0.796670
      2         11           0        3.803963   -0.361131    1.041208
      3         11           0       -1.155850   -3.626517   -0.571949
      4         11           0       -0.386530    3.738686   -0.903515
      5         11           0       -3.834353   -1.571899    0.221363
      6         11           0        2.025012   -3.095489   -0.270247
      7         11           0        2.895620    2.454973   -0.313529
 ---------------------------------------------------------------------

 SCF Done:  E(UB3LYP) =  -1136.10497717     A.U. after   25 cycles

 The electronic state is 2-A.
 Alpha  occ. eigenvalues --  -38.45831 -38.44846 -38.44695 -38.44617 -38.44556
 Alpha  occ. eigenvalues --  -38.43926 -38.43909  -2.21550  -2.20642  -2.20487
 Alpha  occ. eigenvalues --   -2.20410  -2.20322  -2.19746  -2.19696  -1.15235
 Alpha  occ. eigenvalues --   -1.15215  -1.15183  -1.14325  -1.14307  -1.14293
 Alpha  occ. eigenvalues --   -1.14153  -1.14144  -1.14116  -1.14090  -1.14085
 Alpha  occ. eigenvalues --   -1.14064  -1.13993  -1.13982  -1.13950  -1.13399
 Alpha  occ. eigenvalues --   -1.13396  -1.13376  -1.13348  -1.13338  -1.13321
 Alpha  occ. eigenvalues --   -0.15518  -0.13782  -0.13606  -0.10657
 Alpha virt. eigenvalues --   -0.08134  -0.04869  -0.04519  -0.03586  -0.03503
 Alpha virt. eigenvalues --   -0.02254  -0.02127  -0.01695  -0.01526  -0.01054
 Alpha virt. eigenvalues --   -0.00985   0.00040   0.00098   0.00199   0.00692

  Beta  occ. eigenvalues --  -38.45823 -38.44829 -38.44671 -38.44603 -38.44529
  Beta  occ. eigenvalues --  -38.43870 -38.43832  -2.21539  -2.20615  -2.20445
  Beta  occ. eigenvalues --   -2.20392  -2.20273  -2.19643  -2.19554  -1.15231
  Beta  occ. eigenvalues --   -1.15210  -1.15152  -1.14298  -1.14292  -1.14262
  Beta  occ. eigenvalues --   -1.14127  -1.14119  -1.14081  -1.14079  -1.14074
  Beta  occ. eigenvalues --   -1.14002  -1.13960  -1.13950  -1.13911  -1.13330
  Beta  occ. eigenvalues --   -1.13328  -1.13303  -1.13252  -1.13244  -1.13225
  Beta  occ. eigenvalues --   -0.15027  -0.13038  -0.12858
  Beta virt. eigenvalues --   -0.08396  -0.07504  -0.04326  -0.04042  -0.03411
  Beta virt. eigenvalues --   -0.03284  -0.01938  -0.01890  -0.01569  -0.01415
  Beta virt. eigenvalues --   -0.00885  -0.00570   0.00122   0.00127   0.00327

 Mulliken charges and spin densities:
               1          2
     1  Na   0.034303   0.040636
     2  Na  -0.042713   0.067774
     3  Na   0.372839   0.073954
     4  Na  -0.071944   0.137366
     5  Na  -0.155351   0.347927
     6  Na  -0.192930   0.187400
     7  Na   0.055796   0.144943
 Sum of Mulliken charges =  -0.00000   1.00000

 Dipole moment (field-independent basis, Debye):
    X=              0.2491    Y=              0.8756    Z=              0.2802  Tot=              0.9525
 Quadrupole moment (field-independent basis, Debye-Ang):
   XX=            -63.3621   YY=            -67.9140   ZZ=            -69.8075
   XY=             -2.7652   XZ=             -1.1295   YZ=             -0.5037

 Normal termination of Gaussian 16 at Sun Dec  3 23:21:12 2023.
