 Gaussian 16, Revision B.01,
 Gaussian 16:  ES64L-G16RevB.01 20-Dec-2017

 -------------------------
 #P B3LYP/6-311+g(d) force
 -------------------------

 -----
 DPGEN
 -----
 Symbolic Z-matrix:
 Charge =  0 Multiplicity = 2

                         Standard orientation:
 ---------------------------------------------------------------------
 Center     Atomic      Atomic             Coordinates (Angstroms)
 Number     Number       Type             X           Y           Z
 ---------------------------------------------------------------------
      1         11           0       -3.277868    1.266706    0.127614
      2         11           0        0.845058   -0.031001    1.915371
      3         11           0       -0.315930    3.424441   -0.442966
      4         11           0        2.744578    1.941932   -0.391414
      5         11           0        3.222101   -1.867432   -0.763439
      6         11           0        0.403316   -2.782389    0.144572
      7         11           0       -3.621256   -1.952259   -0.589738
 ---------------------------------------------------------------------

 SCF Done:  E(UB3LYP) =  -1136.11452779     A.U. after   22 cycles

 The electronic state is 2-A.
 Alpha  occ. eigenvalues --  -38.44627 -38.44592 -38.44538 -38.44478 -38.44331
 Alpha  occ. eigenvalues --  -38.44202 -38.44114  -2.20394  -2.20357  -2.20335
 Alpha  occ. eigenvalues --   -2.20248  -2.20164  -2.20032  -2.19957  -1.14078
 Alpha  occ. eigenvalues --   -1.14062  -1.14050  -1.14040  -1.14032  -1.14020
 Alpha  occ. eigenvalues --   -1.14006  -1.13996  -1.13945  -1.13911  -1.13892
 Alpha  occ. eigenvalues --   -1.13886  -1.13879  -1.13848  -1.13814  -1.13688
 Alpha  occ. eigenvalues --   -1.13661  -1.13641  -1.13618  -1.13597  -1.13560
 Alpha  occ. eigenvalues --   -0.16892  -0.13507  -0.12905  -0.10087
 Alpha virt. eigenvalues --   -0.07255  -0.06488  -0.04003  -0.03349  -0.03145
 Alpha virt. eigenvalues --   -0.02474  -0.02069  -0.01739  -0.01452  -0.01106
 Alpha virt. eigenvalues --   -0.00033   0.00207   0.00419   0.00456   0.00604

  Beta  occ. eigenvalues --  -38.44630 -38.44592 -38.44516 -38.44458 -38.44322
  Beta  occ. eigenvalues --  -38.44156 -38.44025  -2.20399  -2.20359  -2.20296
  Beta  occ. eigenvalues --   -2.20211  -2.20152  -2.19946  -2.19793  -1.14079
  Beta  occ. eigenvalues --   -1.14066  -1.14048  -1.14039  -1.14032  -1.13997
  Beta  occ. eigenvalues --   -1.13989  -1.13973  -1.13909  -1.13886  -1.13874
  Beta  occ. eigenvalues --   -1.13863  -1.13855  -1.13816  -1.13797  -1.13632
  Beta  occ. eigenvalues --   -1.13601  -1.13585  -1.13507  -1.13485  -1.13444
  Beta  occ. eigenvalues --   -0.16300  -0.13222  -0.12707
  Beta virt. eigenvalues --   -0.07138  -0.06418  -0.06316  -0.03803  -0.02890
  Beta virt. eigenvalues --   -0.02668  -0.02091  -0.01893  -0.01526  -0.01116
  Beta virt. eigenvalues --   -0.00975   0.00195   0.00343   0.00542   0.00580

 Mulliken charges and spin densities:
               1          2
     1  Na  -0.520213   0.068185
     2  Na   0.414788   0.302378
     3  Na   0.222781  -0.076471
     4  Na  -0.260564   0.296647
     5  Na   0.289057   0.206289
     6  Na  -0.563277   0.141978
     7  Na   0.417428   0.060994
 Sum of Mulliken charges =  -0.00000   1.00000

 Dipole moment (field-independent basis, Debye):
    X=             -0.2481    Y=              0.2223    Z=              0.0128  Tot=              0.3334
 Quadrupole moment (field-independent basis, Debye-Ang):
   XX=            -67.5848   YY=            -59.1222   ZZ=            -74.6741
   XY=              0.0601   XZ=              1.1249   YZ=              1.4095

 Normal termination of Gaussian 16 at Sun Dec  3 16:59:31 2023.
