 Gaussian 16, Revision B.01,
 Gaussian 16:  ES64L-G16RevB.01 20-Dec-2017

 -------------------------
 #P B3LYP/6-311+g(d) force
 -------------------------

 -----
 DPGEN
 -----
 Symbolic Z-matrix:
 Charge =  0 Multiplicity = 2

                         Standard orientation:
 ---------------------------------------------------------------------
 Center     Atomic      Atomic             Coordinates (Angstroms)
 Number     Number       Type             X           Y           Z
 ---------------------------------------------------------------------
      1         11           0        1.147043   -0.657358    2.317503
      2         11           0        2.832109   -0.354674   -1.872850
      3         11           0        0.181552   -2.870117   -0.205953
      4         11           0       -3.091942   -2.060960   -0.042378
      5         11           0        2.574166    2.258678    0.575707
      6         11           0       -0.489521    0.642483   -0.512140
      7         11           0       -3.153408    3.041948   -0.259888
 ---------------------------------------------------------------------

 SCF Done:  E(UB3LYP) =  -1136.11826815     A.U. after   24 cycles

 The electronic state is 2-A.
 Alpha  occ. eigenvalues --  -38.45367 -38.44924 -38.44473 -38.44330 -38.43670
 Alpha  occ. eigenvalues --  -38.43490 -38.43152  -2.21120  -2.20706  -2.20312
 Alpha  occ. eigenvalues --   -2.20143  -2.19396  -2.19332  -2.19029  -1.14799
 Alpha  occ. eigenvalues --   -1.14770  -1.14756  -1.14371  -1.14370  -1.14348
 Alpha  occ. eigenvalues --   -1.13977  -1.13948  -1.13912  -1.13804  -1.13776
 Alpha  occ. eigenvalues --   -1.13755  -1.13075  -1.13063  -1.13043  -1.13011
 Alpha  occ. eigenvalues --   -1.13004  -1.12965  -1.12761  -1.12683  -1.12647
 Alpha  occ. eigenvalues --   -0.17595  -0.13047  -0.11417  -0.11097
 Alpha virt. eigenvalues --   -0.06948  -0.05505  -0.04665  -0.03345  -0.02849
 Alpha virt. eigenvalues --   -0.02343  -0.02188  -0.01463  -0.00990  -0.00442
 Alpha virt. eigenvalues --   -0.00335   0.00149   0.00198   0.00525   0.00642

  Beta  occ. eigenvalues --  -38.45368 -38.44917 -38.44375 -38.44246 -38.43690
  Beta  occ. eigenvalues --  -38.43481 -38.43141  -2.21123  -2.20696  -2.20131
  Beta  occ. eigenvalues --   -2.19987  -2.19435  -2.19318  -2.19011  -1.14798
  Beta  occ. eigenvalues --   -1.14772  -1.14760  -1.14367  -1.14347  -1.14334
  Beta  occ. eigenvalues --   -1.13853  -1.13825  -1.13782  -1.13693  -1.13667
  Beta  occ. eigenvalues --   -1.13653  -1.13101  -1.13089  -1.13068  -1.13004
  Beta  occ. eigenvalues --   -1.12978  -1.12950  -1.12722  -1.12673  -1.12642
  Beta  occ. eigenvalues --   -0.16860  -0.12846  -0.11380
  Beta virt. eigenvalues --   -0.07127  -0.06819  -0.05301  -0.04321  -0.02767
  Beta virt. eigenvalues --   -0.02149  -0.02078  -0.01865  -0.01315  -0.00797
  Beta virt. eigenvalues --   -0.00383  -0.00091   0.00249   0.00262   0.00536

 Mulliken charges and spin densities:
               1          2
     1  Na  -0.306914   0.251117
     2  Na   1.049887   0.368342
     3  Na   1.552850   0.274405
     4  Na  -0.303277  -0.102724
     5  Na   0.353332   0.050033
     6  Na  -2.314069   0.420657
     7  Na  -0.031809  -0.261831
 Sum of Mulliken charges =  -0.00000   1.00000

 Dipole moment (field-independent basis, Debye):
    X=              0.4461    Y=             -0.6173    Z=              0.5614  Tot=              0.9461
 Quadrupole moment (field-independent basis, Debye-Ang):
   XX=            -57.0893   YY=            -63.2614   ZZ=            -72.6790
   XY=              7.3541   XZ=             -1.0926   YZ=              1.9299

 Normal termination of Gaussian 16 at Tue Dec  5 13:34:13 2023.
