 Gaussian 16, Revision B.01,
 Gaussian 16:  ES64L-G16RevB.01 20-Dec-2017

 -------------------------
 #P B3LYP/6-311+g(d) force
 -------------------------

 -----
 DPGEN
 -----
 Symbolic Z-matrix:
 Charge =  0 Multiplicity = 2

                         Standard orientation:
 ---------------------------------------------------------------------
 Center     Atomic      Atomic             Coordinates (Angstroms)
 Number     Number       Type             X           Y           Z
 ---------------------------------------------------------------------
      1         11           0        0.568319   -1.804024    0.897816
      2         11           0        4.088713   -2.272898   -0.080177
      3         11           0        2.280578    0.193451   -1.022051
      4         11           0        1.768451    3.500707    0.387775
      5         11           0       -0.548553    1.261764   -0.393065
      6         11           0       -3.097282   -0.035314    1.175887
      7         11           0       -5.060227   -0.843686   -0.966186
 ---------------------------------------------------------------------

 SCF Done:  E(UB3LYP) =  -1136.11897617     A.U. after   20 cycles

 The electronic state is 2-A.
 Alpha  occ. eigenvalues --  -38.44206 -38.44144 -38.43898 -38.43831 -38.43818
 Alpha  occ. eigenvalues --  -38.43743 -38.43631  -2.20058  -2.19977  -2.19840
 Alpha  occ. eigenvalues --   -2.19653  -2.19624  -2.19607  -2.19571  -1.13780
 Alpha  occ. eigenvalues --   -1.13735  -1.13676  -1.13637  -1.13606  -1.13603
 Alpha  occ. eigenvalues --   -1.13600  -1.13519  -1.13446  -1.13334  -1.13307
 Alpha  occ. eigenvalues --   -1.13306  -1.13301  -1.13285  -1.13267  -1.13263
 Alpha  occ. eigenvalues --   -1.13258  -1.13246  -1.13238  -1.13220  -1.13120
 Alpha  occ. eigenvalues --   -0.17489  -0.14062  -0.12301  -0.10607
 Alpha virt. eigenvalues --   -0.06165  -0.05563  -0.04360  -0.03578  -0.02754
 Alpha virt. eigenvalues --   -0.02273  -0.02021  -0.01489  -0.00762  -0.00527
 Alpha virt. eigenvalues --   -0.00344   0.00219   0.00301   0.00468   0.00696

  Beta  occ. eigenvalues --  -38.44155 -38.44063 -38.43886 -38.43803 -38.43799
  Beta  occ. eigenvalues --  -38.43743 -38.43616  -2.19967  -2.19826  -2.19820
  Beta  occ. eigenvalues --   -2.19616  -2.19600  -2.19587  -2.19546  -1.13722
  Beta  occ. eigenvalues --   -1.13676  -1.13586  -1.13570  -1.13557  -1.13506
  Beta  occ. eigenvalues --   -1.13500  -1.13496  -1.13428  -1.13329  -1.13281
  Beta  occ. eigenvalues --   -1.13274  -1.13270  -1.13263  -1.13259  -1.13248
  Beta  occ. eigenvalues --   -1.13235  -1.13220  -1.13201  -1.13183  -1.13091
  Beta  occ. eigenvalues --   -0.16899  -0.13473  -0.12017
  Beta virt. eigenvalues --   -0.07210  -0.05950  -0.05053  -0.04131  -0.03286
  Beta virt. eigenvalues --   -0.02444  -0.02160  -0.01748  -0.01042  -0.00500
  Beta virt. eigenvalues --   -0.00305  -0.00164   0.00398   0.00452   0.00600

 Mulliken charges and spin densities:
               1          2
     1  Na  -0.363113   0.175132
     2  Na   0.554251   0.160249
     3  Na  -0.258957   0.216512
     4  Na   0.721222   0.184057
     5  Na  -1.221630  -0.080428
     6  Na   0.683287  -0.082276
     7  Na  -0.115061   0.426754
 Sum of Mulliken charges =  -0.00000   1.00000

 Dipole moment (field-independent basis, Debye):
    X=              0.8229    Y=             -0.2516    Z=              0.5310  Tot=              1.0112
 Quadrupole moment (field-independent basis, Debye-Ang):
   XX=            -67.6137   YY=            -65.9783   ZZ=            -65.5338
   XY=             -0.2007   XZ=              3.0500   YZ=              2.3285

 Normal termination of Gaussian 16 at Wed Nov 29 03:24:16 2023.
