 Gaussian 16, Revision B.01,
 Gaussian 16:  ES64L-G16RevB.01 20-Dec-2017

 -------------------------
 #P B3LYP/6-311+g(d) force
 -------------------------

 -----
 DPGEN
 -----
 Symbolic Z-matrix:
 Charge =  0 Multiplicity = 2

                         Standard orientation:
 ---------------------------------------------------------------------
 Center     Atomic      Atomic             Coordinates (Angstroms)
 Number     Number       Type             X           Y           Z
 ---------------------------------------------------------------------
      1         11           0       -3.239460   -1.097800   -0.138682
      2         11           0       -0.322825   -0.485727   -1.713461
      3         11           0        0.652773   -2.547072    0.552710
      4         11           0        3.058388   -0.376858   -0.612886
      5         11           0       -2.242380    1.986690    0.147709
      6         11           0        1.492189    2.291339   -0.245404
      7         11           0        0.601316    0.229428    2.010013
 ---------------------------------------------------------------------

 SCF Done:  E(UB3LYP) =  -1136.13257334     A.U. after   19 cycles

 The electronic state is 2-A.
 Alpha  occ. eigenvalues --  -38.44418 -38.44302 -38.43693 -38.43667 -38.43648
 Alpha  occ. eigenvalues --  -38.42962 -38.42945  -2.20234  -2.20190  -2.19608
 Alpha  occ. eigenvalues --   -2.19584  -2.19523  -2.18867  -2.18846  -1.13908
 Alpha  occ. eigenvalues --   -1.13904  -1.13876  -1.13869  -1.13843  -1.13823
 Alpha  occ. eigenvalues --   -1.13293  -1.13270  -1.13262  -1.13236  -1.13221
 Alpha  occ. eigenvalues --   -1.13207  -1.13196  -1.13180  -1.13154  -1.12551
 Alpha  occ. eigenvalues --   -1.12540  -1.12525  -1.12505  -1.12500  -1.12455
 Alpha  occ. eigenvalues --   -0.18822  -0.13548  -0.11979  -0.11103
 Alpha virt. eigenvalues --   -0.06084  -0.05153  -0.03973  -0.03485  -0.02904
 Alpha virt. eigenvalues --   -0.02698  -0.01874  -0.00935  -0.00258  -0.00101
 Alpha virt. eigenvalues --   -0.00015   0.00341   0.00757   0.00851   0.00891

  Beta  occ. eigenvalues --  -38.44419 -38.44281 -38.43691 -38.43594 -38.43573
  Beta  occ. eigenvalues --  -38.42953 -38.42925  -2.20237  -2.20155  -2.19522
  Beta  occ. eigenvalues --   -2.19486  -2.19437  -2.18854  -2.18814  -1.13909
  Beta  occ. eigenvalues --   -1.13899  -1.13872  -1.13853  -1.13808  -1.13789
  Beta  occ. eigenvalues --   -1.13220  -1.13198  -1.13192  -1.13167  -1.13158
  Beta  occ. eigenvalues --   -1.13152  -1.13137  -1.13120  -1.13095  -1.12546
  Beta  occ. eigenvalues --   -1.12517  -1.12500  -1.12475  -1.12451  -1.12440
  Beta  occ. eigenvalues --   -0.18085  -0.13330  -0.11724
  Beta virt. eigenvalues --   -0.07139  -0.05969  -0.05142  -0.03942  -0.02798
  Beta virt. eigenvalues --   -0.02142  -0.01819  -0.01545  -0.00903  -0.00210
  Beta virt. eigenvalues --   -0.00117   0.00097   0.00384   0.00826   0.00901

 Mulliken charges and spin densities:
               1          2
     1  Na   0.192714  -0.077896
     2  Na  -0.266142   0.460536
     3  Na   0.086763  -0.016908
     4  Na   0.387181   0.122674
     5  Na  -0.111425  -0.083669
     6  Na  -0.033220   0.005198
     7  Na  -0.255870   0.590066
 Sum of Mulliken charges =  -0.00000   1.00000

 Dipole moment (field-independent basis, Debye):
    X=             -0.3400    Y=             -0.1956    Z=             -0.0457  Tot=              0.3949
 Quadrupole moment (field-independent basis, Debye-Ang):
   XX=            -53.8428   YY=            -68.5435   ZZ=            -72.1567
   XY=              0.2527   XZ=             -2.0286   YZ=             -0.8752

 Normal termination of Gaussian 16 at Tue Dec  5 14:14:22 2023.
