 Gaussian 16, Revision B.01,
 Gaussian 16:  ES64L-G16RevB.01 20-Dec-2017

 -------------------------
 #P B3LYP/6-311+g(d) force
 -------------------------

 -----
 DPGEN
 -----
 Symbolic Z-matrix:
 Charge =  0 Multiplicity = 2

                         Standard orientation:
 ---------------------------------------------------------------------
 Center     Atomic      Atomic             Coordinates (Angstroms)
 Number     Number       Type             X           Y           Z
 ---------------------------------------------------------------------
      1         11           0       -3.726672   -0.368949    0.145460
      2         11           0        3.415636   -1.318056   -0.159894
      3         11           0        0.376572    0.035842    1.932449
      4         11           0       -0.688936   -2.533151    0.032019
      5         11           0       -1.084061    2.673176   -0.090400
      6         11           0        2.215883    1.848013   -0.242596
      7         11           0       -0.508422   -0.336875   -1.617038
 ---------------------------------------------------------------------

 SCF Done:  E(UB3LYP) =  -1136.12355735     A.U. after   22 cycles

 The electronic state is 2-A.
 Alpha  occ. eigenvalues --  -38.45694 -38.44711 -38.43699 -38.43637 -38.43516
 Alpha  occ. eigenvalues --  -38.43267 -38.42917  -2.21440  -2.20479  -2.19677
 Alpha  occ. eigenvalues --   -2.19536  -2.19385  -2.19175  -2.18758  -1.15118
 Alpha  occ. eigenvalues --   -1.15096  -1.15072  -1.14156  -1.14145  -1.14107
 Alpha  occ. eigenvalues --   -1.13655  -1.13324  -1.13250  -1.13187  -1.13114
 Alpha  occ. eigenvalues --   -1.13083  -1.13075  -1.13053  -1.13016  -1.12851
 Alpha  occ. eigenvalues --   -1.12803  -1.12779  -1.12442  -1.12422  -1.12390
 Alpha  occ. eigenvalues --   -0.18378  -0.13266  -0.11985  -0.10301
 Alpha virt. eigenvalues --   -0.06984  -0.05060  -0.04187  -0.03241  -0.02629
 Alpha virt. eigenvalues --   -0.02521  -0.02210  -0.01283  -0.00346  -0.00263
 Alpha virt. eigenvalues --   -0.00149   0.00189   0.00641   0.00733   0.00807

  Beta  occ. eigenvalues --  -38.45698 -38.44710 -38.43640 -38.43623 -38.43508
  Beta  occ. eigenvalues --  -38.43173 -38.42913  -2.21448  -2.20478  -2.19576
  Beta  occ. eigenvalues --   -2.19508  -2.19373  -2.19003  -2.18754  -1.15110
  Beta  occ. eigenvalues --   -1.15104  -1.15079  -1.14156  -1.14133  -1.14108
  Beta  occ. eigenvalues --   -1.13600  -1.13247  -1.13177  -1.13145  -1.13082
  Beta  occ. eigenvalues --   -1.13064  -1.13047  -1.13024  -1.13011  -1.12736
  Beta  occ. eigenvalues --   -1.12679  -1.12657  -1.12438  -1.12398  -1.12391
  Beta  occ. eigenvalues --   -0.17656  -0.13094  -0.11738
  Beta virt. eigenvalues --   -0.06900  -0.06431  -0.05066  -0.04154  -0.02586
  Beta virt. eigenvalues --   -0.02456  -0.01784  -0.01260  -0.01180  -0.00362
  Beta virt. eigenvalues --   -0.00291   0.00025   0.00217   0.00738   0.00796

 Mulliken charges and spin densities:
               1          2
     1  Na   0.126328  -0.088037
     2  Na   0.101942  -0.044487
     3  Na  -0.299930   0.740168
     4  Na   0.228906  -0.165696
     5  Na  -0.054376  -0.113690
     6  Na   0.074446   0.008123
     7  Na  -0.177316   0.663619
 Sum of Mulliken charges =  -0.00000   1.00000

 Dipole moment (field-independent basis, Debye):
    X=             -0.6425    Y=             -0.2856    Z=              0.1904  Tot=              0.7284
 Quadrupole moment (field-independent basis, Debye-Ang):
   XX=            -45.8048   YY=            -68.1470   ZZ=            -76.5910
   XY=             -1.2895   XZ=             -2.0391   YZ=             -0.6348

 Normal termination of Gaussian 16 at Tue Dec  5 13:20:09 2023.
