 Gaussian 16, Revision B.01,
 Gaussian 16:  ES64L-G16RevB.01 20-Dec-2017

 -------------------------
 #P B3LYP/6-311+g(d) force
 -------------------------

 -----
 DPGEN
 -----
 Symbolic Z-matrix:
 Charge =  0 Multiplicity = 2

                         Standard orientation:
 ---------------------------------------------------------------------
 Center     Atomic      Atomic             Coordinates (Angstroms)
 Number     Number       Type             X           Y           Z
 ---------------------------------------------------------------------
      1         11           0       -0.232293    0.230183   -1.834150
      2         11           0       -1.463814    2.577583    0.196493
      3         11           0        2.759059    1.808569   -0.022471
      4         11           0        2.345809   -1.731794   -0.262720
      5         11           0       -0.852689   -2.557084    0.155536
      6         11           0       -2.805930   -0.261962   -0.075564
      7         11           0        0.249858   -0.065495    1.842876
 ---------------------------------------------------------------------

 SCF Done:  E(UB3LYP) =  -1136.13464979     A.U. after   20 cycles

 The electronic state is 2-A.
 Alpha  occ. eigenvalues --  -38.44125 -38.43774 -38.43654 -38.43575 -38.43414
 Alpha  occ. eigenvalues --  -38.43354 -38.42914  -2.19910  -2.19639  -2.19618
 Alpha  occ. eigenvalues --   -2.19442  -2.19378  -2.19312  -2.18866  -1.13587
 Alpha  occ. eigenvalues --   -1.13565  -1.13557  -1.13349  -1.13324  -1.13320
 Alpha  occ. eigenvalues --   -1.13311  -1.13267  -1.13265  -1.13121  -1.13103
 Alpha  occ. eigenvalues --   -1.13066  -1.13048  -1.13000  -1.12991  -1.12987
 Alpha  occ. eigenvalues --   -1.12941  -1.12927  -1.12543  -1.12509  -1.12501
 Alpha  occ. eigenvalues --   -0.19133  -0.13248  -0.12426  -0.10913
 Alpha virt. eigenvalues --   -0.05673  -0.05203  -0.04366  -0.03344  -0.02889
 Alpha virt. eigenvalues --   -0.02549  -0.01435  -0.01123  -0.00266  -0.00077
 Alpha virt. eigenvalues --    0.00022   0.00368   0.00817   0.00890   0.00946

  Beta  occ. eigenvalues --  -38.44126 -38.43767 -38.43645 -38.43570 -38.43335
  Beta  occ. eigenvalues --  -38.43272 -38.42904  -2.19915  -2.19629  -2.19606
  Beta  occ. eigenvalues --   -2.19435  -2.19234  -2.19163  -2.18853  -1.13575
  Beta  occ. eigenvalues --   -1.13568  -1.13562  -1.13336  -1.13319  -1.13317
  Beta  occ. eigenvalues --   -1.13279  -1.13264  -1.13219  -1.13108  -1.13075
  Beta  occ. eigenvalues --   -1.13061  -1.12960  -1.12902  -1.12888  -1.12887
  Beta  occ. eigenvalues --   -1.12834  -1.12819  -1.12536  -1.12504  -1.12455
  Beta  occ. eigenvalues --   -0.18360  -0.13005  -0.12174
  Beta virt. eigenvalues --   -0.06960  -0.05677  -0.05137  -0.04368  -0.02521
  Beta virt. eigenvalues --   -0.02105  -0.01532  -0.01330  -0.01041  -0.00313
  Beta virt. eigenvalues --   -0.00100   0.00133   0.00387   0.00842   0.00925

 Mulliken charges and spin densities:
               1          2
     1  Na  -0.418344   0.559850
     2  Na   0.056369  -0.132103
     3  Na  -0.089014  -0.157041
     4  Na   0.086437  -0.037415
     5  Na   0.318464   0.041437
     6  Na   0.450789   0.108555
     7  Na  -0.404702   0.616717
 Sum of Mulliken charges =  -0.00000   1.00000

 Dipole moment (field-independent basis, Debye):
    X=              0.4416    Y=              0.3622    Z=             -0.0252  Tot=              0.5717
 Quadrupole moment (field-independent basis, Debye-Ang):
   XX=            -57.8045   YY=            -62.7369   ZZ=            -73.4738
   XY=              0.1606   XZ=             -0.9958   YZ=              0.8057

 Normal termination of Gaussian 16 at Thu Dec  7 01:50:04 2023.
