 Gaussian 16, Revision B.01,
 Gaussian 16:  ES64L-G16RevB.01 20-Dec-2017

 -------------------------
 #P B3LYP/6-311+g(d) force
 -------------------------

 -----
 DPGEN
 -----
 Symbolic Z-matrix:
 Charge =  0 Multiplicity = 2

                         Standard orientation:
 ---------------------------------------------------------------------
 Center     Atomic      Atomic             Coordinates (Angstroms)
 Number     Number       Type             X           Y           Z
 ---------------------------------------------------------------------
      1         11           0       -1.781603   -1.616150   -1.255470
      2         11           0       -1.435576    2.279929   -0.408802
      3         11           0        3.650622   -1.271079    0.375533
      4         11           0        1.980111    2.131134    0.023810
      5         11           0        0.114957   -0.579418    2.053602
      6         11           0        1.150716   -0.537084   -1.527860
      7         11           0       -3.679227   -0.407331    0.739187
 ---------------------------------------------------------------------

 SCF Done:  E(UB3LYP) =  -1136.12098209     A.U. after   25 cycles

 The electronic state is 2-A.
 Alpha  occ. eigenvalues --  -38.45297 -38.44976 -38.44615 -38.43744 -38.43559
 Alpha  occ. eigenvalues --  -38.43304 -38.42925  -2.21090  -2.20806  -2.20410
 Alpha  occ. eigenvalues --   -2.19646  -2.19521  -2.19162  -2.18740  -1.14771
 Alpha  occ. eigenvalues --   -1.14735  -1.14693  -1.14515  -1.14451  -1.14436
 Alpha  occ. eigenvalues --   -1.14097  -1.14069  -1.14050  -1.13395  -1.13282
 Alpha  occ. eigenvalues --   -1.13268  -1.13184  -1.13179  -1.13124  -1.12851
 Alpha  occ. eigenvalues --   -1.12826  -1.12770  -1.12418  -1.12410  -1.12370
 Alpha  occ. eigenvalues --   -0.18339  -0.14007  -0.11311  -0.11081
 Alpha virt. eigenvalues --   -0.07071  -0.05275  -0.04517  -0.03319  -0.02776
 Alpha virt. eigenvalues --   -0.02490  -0.02376  -0.01111  -0.00858  -0.00238
 Alpha virt. eigenvalues --    0.00120   0.00225   0.00253   0.00591   0.00763

  Beta  occ. eigenvalues --  -38.45222 -38.44973 -38.44625 -38.43698 -38.43494
  Beta  occ. eigenvalues --  -38.43299 -38.42920  -2.20951  -2.20800  -2.20430
  Beta  occ. eigenvalues --   -2.19566  -2.19407  -2.19154  -2.18733  -1.14675
  Beta  occ. eigenvalues --   -1.14640  -1.14589  -1.14513  -1.14444  -1.14426
  Beta  occ. eigenvalues --   -1.14108  -1.14082  -1.14057  -1.13317  -1.13226
  Beta  occ. eigenvalues --   -1.13205  -1.13114  -1.13088  -1.13042  -1.12833
  Beta  occ. eigenvalues --   -1.12816  -1.12768  -1.12408  -1.12398  -1.12368
  Beta  occ. eigenvalues --   -0.17587  -0.13962  -0.10959
  Beta virt. eigenvalues --   -0.07277  -0.06751  -0.05276  -0.03951  -0.03062
  Beta virt. eigenvalues --   -0.02436  -0.01800  -0.01740  -0.01024  -0.00540
  Beta virt. eigenvalues --   -0.00231   0.00146   0.00270   0.00424   0.00654

 Mulliken charges and spin densities:
               1          2
     1  Na  -0.139978   0.005149
     2  Na  -0.405987   0.010020
     3  Na   0.524573  -0.013425
     4  Na   0.156018  -0.006965
     5  Na  -0.505017   0.504607
     6  Na  -0.251359   0.302477
     7  Na   0.621750   0.198137
 Sum of Mulliken charges =  -0.00000   1.00000

 Dipole moment (field-independent basis, Debye):
    X=             -0.0176    Y=             -0.1744    Z=              0.8417  Tot=              0.8597
 Quadrupole moment (field-independent basis, Debye-Ang):
   XX=            -47.4131   YY=            -76.8148   ZZ=            -70.7483
   XY=             -0.6822   XZ=             -0.3209   YZ=             -0.2713

 Normal termination of Gaussian 16 at Fri Dec  8 06:32:42 2023.
