 Gaussian 16, Revision B.01,
 Gaussian 16:  ES64L-G16RevB.01 20-Dec-2017

 -------------------------
 #P B3LYP/6-311+g(d) force
 -------------------------

 -----
 DPGEN
 -----
 Symbolic Z-matrix:
 Charge =  0 Multiplicity = 2

                         Standard orientation:
 ---------------------------------------------------------------------
 Center     Atomic      Atomic             Coordinates (Angstroms)
 Number     Number       Type             X           Y           Z
 ---------------------------------------------------------------------
      1         11           0        1.496379   -1.106156    1.416050
      2         11           0        1.989888    2.371854    0.003595
      3         11           0        3.378078   -1.122555   -1.094743
      4         11           0       -2.436175   -1.750390    1.031760
      5         11           0       -0.756797    1.534458    1.463607
      6         11           0       -0.359610   -0.722977   -1.404680
      7         11           0       -3.311763    0.795766   -1.415588
 ---------------------------------------------------------------------

 SCF Done:  E(UB3LYP) =  -1136.12736582     A.U. after   23 cycles

 The electronic state is 2-A.
 Alpha  occ. eigenvalues --  -38.44759 -38.44447 -38.44028 -38.44001 -38.43722
 Alpha  occ. eigenvalues --  -38.43247 -38.42432  -2.20584  -2.20280  -2.19933
 Alpha  occ. eigenvalues --   -2.19899  -2.19551  -2.19068  -2.18324  -1.14260
 Alpha  occ. eigenvalues --   -1.14215  -1.14201  -1.13957  -1.13937  -1.13902
 Alpha  occ. eigenvalues --   -1.13661  -1.13608  -1.13589  -1.13564  -1.13548
 Alpha  occ. eigenvalues --   -1.13500  -1.13223  -1.13189  -1.13183  -1.12743
 Alpha  occ. eigenvalues --   -1.12733  -1.12703  -1.12020  -1.11988  -1.11939
 Alpha  occ. eigenvalues --   -0.18354  -0.13874  -0.11404  -0.10988
 Alpha virt. eigenvalues --   -0.06132  -0.05572  -0.04655  -0.03081  -0.02667
 Alpha virt. eigenvalues --   -0.02451  -0.02140  -0.01266  -0.00740  -0.00083
 Alpha virt. eigenvalues --    0.00195   0.00223   0.00453   0.00557   0.00628

  Beta  occ. eigenvalues --  -38.44703 -38.44411 -38.43994 -38.43977 -38.43712
  Beta  occ. eigenvalues --  -38.43244 -38.42412  -2.20479  -2.20216  -2.19874
  Beta  occ. eigenvalues --   -2.19858  -2.19531  -2.19063  -2.18291  -1.14178
  Beta  occ. eigenvalues --   -1.14143  -1.14136  -1.13915  -1.13889  -1.13840
  Beta  occ. eigenvalues --   -1.13621  -1.13549  -1.13543  -1.13529  -1.13507
  Beta  occ. eigenvalues --   -1.13468  -1.13208  -1.13173  -1.13169  -1.12740
  Beta  occ. eigenvalues --   -1.12725  -1.12699  -1.11999  -1.11940  -1.11921
  Beta  occ. eigenvalues --   -0.17624  -0.13584  -0.10891
  Beta virt. eigenvalues --   -0.07575  -0.05910  -0.05152  -0.04260  -0.02918
  Beta virt. eigenvalues --   -0.02209  -0.01946  -0.01708  -0.00889  -0.00553
  Beta virt. eigenvalues --    0.00025   0.00235   0.00351   0.00513   0.00675

 Mulliken charges and spin densities:
               1          2
     1  Na   0.081713   0.163874
     2  Na  -0.286731  -0.068980
     3  Na   0.408443   0.083729
     4  Na   0.219788   0.165981
     5  Na  -0.082019   0.210077
     6  Na  -0.587375   0.385931
     7  Na   0.246181   0.059389
 Sum of Mulliken charges =  -0.00000   1.00000

 Dipole moment (field-independent basis, Debye):
    X=             -0.7249    Y=             -0.1776    Z=             -0.2250  Tot=              0.7796
 Quadrupole moment (field-independent basis, Debye-Ang):
   XX=            -51.3722   YY=            -75.0141   ZZ=            -67.7946
   XY=              0.7144   XZ=             -2.0878   YZ=             -6.3104

 Normal termination of Gaussian 16 at Tue Dec  5 17:32:30 2023.
