 Gaussian 16, Revision B.01,
 Gaussian 16:  ES64L-G16RevB.01 20-Dec-2017

 -------------------------
 #P B3LYP/6-311+g(d) force
 -------------------------

 -----
 DPGEN
 -----
 Symbolic Z-matrix:
 Charge =  0 Multiplicity = 2

                         Standard orientation:
 ---------------------------------------------------------------------
 Center     Atomic      Atomic             Coordinates (Angstroms)
 Number     Number       Type             X           Y           Z
 ---------------------------------------------------------------------
      1         11           0       -2.981585    1.142273    0.435655
      2         11           0       -2.137252   -2.070380   -0.356858
      3         11           0        1.664979   -2.292068   -0.056870
      4         11           0        3.382237    0.659515   -0.034947
      5         11           0       -0.315964    0.200663   -1.667284
      6         11           0        0.139219   -0.400655    1.786585
      7         11           0        0.248366    2.760652   -0.106281
 ---------------------------------------------------------------------

 SCF Done:  E(UB3LYP) =  -1136.13412148     A.U. after   19 cycles

 The electronic state is 2-A.
 Alpha  occ. eigenvalues --  -38.44663 -38.44224 -38.43530 -38.43429 -38.43370
 Alpha  occ. eigenvalues --  -38.43107 -38.43079  -2.20450  -2.20059  -2.19404
 Alpha  occ. eigenvalues --   -2.19322  -2.19308  -2.19078  -2.18969  -1.14128
 Alpha  occ. eigenvalues --   -1.14106  -1.14090  -1.13726  -1.13720  -1.13700
 Alpha  occ. eigenvalues --   -1.13135  -1.13111  -1.13061  -1.13031  -1.12993
 Alpha  occ. eigenvalues --   -1.12965  -1.12932  -1.12907  -1.12890  -1.12837
 Alpha  occ. eigenvalues --   -1.12736  -1.12681  -1.12626  -1.12605  -1.12572
 Alpha  occ. eigenvalues --   -0.18791  -0.13323  -0.12256  -0.10498
 Alpha virt. eigenvalues --   -0.06184  -0.05201  -0.04304  -0.03261  -0.02681
 Alpha virt. eigenvalues --   -0.02225  -0.01962  -0.01165  -0.00332  -0.00265
 Alpha virt. eigenvalues --   -0.00002   0.00322   0.00760   0.00871   0.00885

  Beta  occ. eigenvalues --  -38.44665 -38.44212 -38.43518 -38.43423 -38.43296
  Beta  occ. eigenvalues --  -38.43101 -38.43006  -2.20456  -2.20039  -2.19385
  Beta  occ. eigenvalues --   -2.19306  -2.19180  -2.18964  -2.18941  -1.14127
  Beta  occ. eigenvalues --   -1.14105  -1.14093  -1.13711  -1.13691  -1.13687
  Beta  occ. eigenvalues --   -1.13101  -1.13081  -1.13024  -1.13022  -1.12955
  Beta  occ. eigenvalues --   -1.12917  -1.12893  -1.12830  -1.12806  -1.12776
  Beta  occ. eigenvalues --   -1.12649  -1.12606  -1.12593  -1.12563  -1.12545
  Beta  occ. eigenvalues --   -0.18076  -0.13102  -0.11986
  Beta virt. eigenvalues --   -0.06618  -0.06129  -0.05182  -0.04283  -0.02506
  Beta virt. eigenvalues --   -0.01936  -0.01859  -0.01207  -0.01084  -0.00361
  Beta virt. eigenvalues --   -0.00303   0.00132   0.00351   0.00811   0.00870

 Mulliken charges and spin densities:
               1          2
     1  Na   0.038929   0.049140
     2  Na   0.267765  -0.026837
     3  Na   0.289497  -0.082984
     4  Na  -0.079139  -0.102751
     5  Na  -0.213990   0.596104
     6  Na  -0.343039   0.675450
     7  Na   0.039977  -0.108122
 Sum of Mulliken charges =  -0.00000   1.00000

 Dipole moment (field-independent basis, Debye):
    X=              0.1736    Y=              0.0642    Z=              0.1227  Tot=              0.2221
 Quadrupole moment (field-independent basis, Debye-Ang):
   XX=            -50.8949   YY=            -65.3748   ZZ=            -75.6100
   XY=              0.4822   XZ=             -1.1983   YZ=              1.6912

 Normal termination of Gaussian 16 at Sun Dec  3 18:58:55 2023.
