 Gaussian 16, Revision B.01,
 Gaussian 16:  ES64L-G16RevB.01 20-Dec-2017

 -------------------------
 #P B3LYP/6-311+g(d) force
 -------------------------

 -----
 DPGEN
 -----
 Symbolic Z-matrix:
 Charge =  0 Multiplicity = 2

                         Standard orientation:
 ---------------------------------------------------------------------
 Center     Atomic      Atomic             Coordinates (Angstroms)
 Number     Number       Type             X           Y           Z
 ---------------------------------------------------------------------
      1         11           0        2.324644    0.831728    1.757250
      2         11           0        0.617626   -1.952358    1.553931
      3         11           0       -2.885049   -0.144598    1.169349
      4         11           0        0.221395   -0.229251   -0.942671
      5         11           0       -1.790125    2.889575   -0.303072
      6         11           0        3.549742    0.221029   -1.538695
      7         11           0       -2.038234   -1.616125   -1.696092
 ---------------------------------------------------------------------

 SCF Done:  E(UB3LYP) =  -1136.11043845     A.U. after   26 cycles

 The electronic state is 2-A.
 Alpha  occ. eigenvalues --  -38.44962 -38.44840 -38.44689 -38.44578 -38.43486
 Alpha  occ. eigenvalues --  -38.43441 -38.42613  -2.20760  -2.20662  -2.20519
 Alpha  occ. eigenvalues --   -2.20478  -2.19543  -2.19320  -2.18384  -1.14427
 Alpha  occ. eigenvalues --   -1.14401  -1.14376  -1.14359  -1.14331  -1.14309
 Alpha  occ. eigenvalues --   -1.14269  -1.14203  -1.14166  -1.14141  -1.14075
 Alpha  occ. eigenvalues --   -1.14041  -1.13292  -1.13187  -1.13147  -1.12994
 Alpha  occ. eigenvalues --   -1.12962  -1.12912  -1.12057  -1.12051  -1.12029
 Alpha  occ. eigenvalues --   -0.18073  -0.13764  -0.11572  -0.10793
 Alpha virt. eigenvalues --   -0.06477  -0.05611  -0.04229  -0.03172  -0.02868
 Alpha virt. eigenvalues --   -0.02562  -0.02073  -0.01288  -0.00477  -0.00313
 Alpha virt. eigenvalues --    0.00080   0.00102   0.00278   0.00539   0.00674

  Beta  occ. eigenvalues --  -38.44910 -38.44826 -38.44661 -38.44529 -38.43447
  Beta  occ. eigenvalues --  -38.43401 -38.42620  -2.20664  -2.20636  -2.20469
  Beta  occ. eigenvalues --   -2.20388  -2.19479  -2.19249  -2.18398  -1.14353
  Beta  occ. eigenvalues --   -1.14336  -1.14331  -1.14317  -1.14309  -1.14255
  Beta  occ. eigenvalues --   -1.14241  -1.14162  -1.14132  -1.14095  -1.14013
  Beta  occ. eigenvalues --   -1.13984  -1.13227  -1.13139  -1.13093  -1.12944
  Beta  occ. eigenvalues --   -1.12904  -1.12859  -1.12065  -1.12060  -1.12038
  Beta  occ. eigenvalues --   -0.17424  -0.13418  -0.10642
  Beta virt. eigenvalues --   -0.07817  -0.06131  -0.05073  -0.04071  -0.03035
  Beta virt. eigenvalues --   -0.02218  -0.02094  -0.01799  -0.00813  -0.00423
  Beta virt. eigenvalues --   -0.00028   0.00190   0.00212   0.00327   0.00568

 Mulliken charges and spin densities:
               1          2
     1  Na   0.317806   0.168427
     2  Na  -0.428724   0.077268
     3  Na   0.451418   0.251520
     4  Na  -1.192957   0.655778
     5  Na  -0.192938  -0.119464
     6  Na   0.233066   0.090372
     7  Na   0.812331  -0.123901
 Sum of Mulliken charges =  -0.00000   1.00000

 Dipole moment (field-independent basis, Debye):
    X=              0.6872    Y=             -0.7832    Z=              0.4169  Tot=              1.1223
 Quadrupole moment (field-independent basis, Debye-Ang):
   XX=            -55.0433   YY=            -75.3094   ZZ=            -63.8143
   XY=              6.0813   XZ=             -1.4922   YZ=              1.7639

 Normal termination of Gaussian 16 at Tue Dec  5 18:47:03 2023.
