 Gaussian 16, Revision B.01,
 Gaussian 16:  ES64L-G16RevB.01 20-Dec-2017

 -------------------------
 #P B3LYP/6-311+g(d) force
 -------------------------

 -----
 DPGEN
 -----
 Symbolic Z-matrix:
 Charge =  0 Multiplicity = 2

                         Standard orientation:
 ---------------------------------------------------------------------
 Center     Atomic      Atomic             Coordinates (Angstroms)
 Number     Number       Type             X           Y           Z
 ---------------------------------------------------------------------
      1         11           0        0.179503   -0.052234    1.928874
      2         11           0        2.964327   -0.171814   -0.266888
      3         11           0        0.906613    2.725675    0.305744
      4         11           0        0.112170   -0.003744   -1.830233
      5         11           0        0.597367   -2.723610    0.026029
      6         11           0       -2.449542   -1.412590    0.146354
      7         11           0       -2.310439    1.638317   -0.309881
 ---------------------------------------------------------------------

 SCF Done:  E(UB3LYP) =  -1136.13976536     A.U. after   18 cycles

 The electronic state is 2-A.
 Alpha  occ. eigenvalues --  -38.43706 -38.43517 -38.43407 -38.43361 -38.43347
 Alpha  occ. eigenvalues --  -38.43341 -38.43224  -2.19575  -2.19479  -2.19396
 Alpha  occ. eigenvalues --   -2.19267  -2.19252  -2.19217  -2.19130  -1.13284
 Alpha  occ. eigenvalues --   -1.13243  -1.13204  -1.13159  -1.13132  -1.13102
 Alpha  occ. eigenvalues --   -1.13084  -1.13052  -1.13033  -1.13012  -1.12926
 Alpha  occ. eigenvalues --   -1.12919  -1.12910  -1.12898  -1.12888  -1.12867
 Alpha  occ. eigenvalues --   -1.12846  -1.12825  -1.12797  -1.12793  -1.12743
 Alpha  occ. eigenvalues --   -0.19274  -0.13030  -0.12709  -0.11193
 Alpha virt. eigenvalues --   -0.05245  -0.04790  -0.04706  -0.03272  -0.03117
 Alpha virt. eigenvalues --   -0.02783  -0.01222  -0.01001  -0.00105   0.00024
 Alpha virt. eigenvalues --    0.00064   0.00380   0.00901   0.00959   0.00974

  Beta  occ. eigenvalues --  -38.43699 -38.43430 -38.43354 -38.43340 -38.43336
  Beta  occ. eigenvalues --  -38.43327 -38.43218  -2.19565  -2.19319  -2.19258
  Beta  occ. eigenvalues --   -2.19252  -2.19245  -2.19206  -2.19122  -1.13265
  Beta  occ. eigenvalues --   -1.13217  -1.13198  -1.13072  -1.13039  -1.13022
  Beta  occ. eigenvalues --   -1.12989  -1.12986  -1.12962  -1.12935  -1.12905
  Beta  occ. eigenvalues --   -1.12893  -1.12871  -1.12864  -1.12862  -1.12844
  Beta  occ. eigenvalues --   -1.12841  -1.12821  -1.12789  -1.12761  -1.12735
  Beta  occ. eigenvalues --   -0.18513  -0.12756  -0.12434
  Beta virt. eigenvalues --   -0.07233  -0.05235  -0.04772  -0.04690  -0.02442
  Beta virt. eigenvalues --   -0.02289  -0.01704  -0.01141  -0.00930  -0.00095
  Beta virt. eigenvalues --   -0.00022   0.00117   0.00391   0.00924   0.00952

 Mulliken charges and spin densities:
               1          2
     1  Na  -0.469997   0.665285
     2  Na   0.201958  -0.089032
     3  Na   0.121151  -0.053933
     4  Na  -0.407422   0.606221
     5  Na   0.238982  -0.074279
     6  Na   0.133454  -0.035054
     7  Na   0.181874  -0.019208
 Sum of Mulliken charges =  -0.00000   1.00000

 Dipole moment (field-independent basis, Debye):
    X=              0.2614    Y=              0.0345    Z=              0.0422  Tot=              0.2671
 Quadrupole moment (field-independent basis, Debye-Ang):
   XX=            -59.9157   YY=            -62.7092   ZZ=            -72.0619
   XY=              0.0627   XZ=             -0.1967   YZ=              0.0281

 Normal termination of Gaussian 16 at Thu Dec  7 09:09:41 2023.
