 Gaussian 16, Revision B.01,
 Gaussian 16:  ES64L-G16RevB.01 20-Dec-2017

 -------------------------
 #P B3LYP/6-311+g(d) force
 -------------------------

 -----
 DPGEN
 -----
 Symbolic Z-matrix:
 Charge =  0 Multiplicity = 2

                         Standard orientation:
 ---------------------------------------------------------------------
 Center     Atomic      Atomic             Coordinates (Angstroms)
 Number     Number       Type             X           Y           Z
 ---------------------------------------------------------------------
      1         11           0        0.472597    0.167061   -1.717738
      2         11           0        2.462525   -1.853060   -0.157041
      3         11           0       -1.268041   -2.558061   -0.168826
      4         11           0        2.504896    1.678281    0.165025
      5         11           0       -0.285367   -0.527115    2.114681
      6         11           0       -3.105882    0.300670   -0.425863
      7         11           0       -0.780729    2.792223    0.189763
 ---------------------------------------------------------------------

 SCF Done:  E(UB3LYP) =  -1136.13854790     A.U. after   18 cycles

 The electronic state is 2-A.
 Alpha  occ. eigenvalues --  -38.43878 -38.43786 -38.43773 -38.43738 -38.43455
 Alpha  occ. eigenvalues --  -38.43367 -38.43275  -2.19704  -2.19633  -2.19627
 Alpha  occ. eigenvalues --   -2.19614  -2.19332  -2.19322  -2.19119  -1.13374
 Alpha  occ. eigenvalues --   -1.13363  -1.13360  -1.13357  -1.13325  -1.13302
 Alpha  occ. eigenvalues --   -1.13293  -1.13284  -1.13265  -1.13252  -1.13238
 Alpha  occ. eigenvalues --   -1.13226  -1.13011  -1.12996  -1.12994  -1.12956
 Alpha  occ. eigenvalues --   -1.12949  -1.12940  -1.12788  -1.12784  -1.12756
 Alpha  occ. eigenvalues --   -0.18593  -0.13022  -0.12500  -0.10848
 Alpha virt. eigenvalues --   -0.05451  -0.05298  -0.04661  -0.03336  -0.03009
 Alpha virt. eigenvalues --   -0.02634  -0.01391  -0.01079  -0.00352  -0.00270
 Alpha virt. eigenvalues --   -0.00040   0.00370   0.00815   0.00886   0.00912

  Beta  occ. eigenvalues --  -38.43869 -38.43781 -38.43770 -38.43644 -38.43448
  Beta  occ. eigenvalues --  -38.43306 -38.43271  -2.19691  -2.19628  -2.19621
  Beta  occ. eigenvalues --   -2.19443  -2.19314  -2.19220  -2.19114  -1.13358
  Beta  occ. eigenvalues --   -1.13354  -1.13350  -1.13340  -1.13313  -1.13285
  Beta  occ. eigenvalues --   -1.13266  -1.13258  -1.13238  -1.13184  -1.13132
  Beta  occ. eigenvalues --   -1.13107  -1.12989  -1.12954  -1.12941  -1.12929
  Beta  occ. eigenvalues --   -1.12883  -1.12871  -1.12783  -1.12761  -1.12754
  Beta  occ. eigenvalues --   -0.17870  -0.12798  -0.12272
  Beta virt. eigenvalues --   -0.06957  -0.05428  -0.05257  -0.04568  -0.02552
  Beta virt. eigenvalues --   -0.02250  -0.01602  -0.01302  -0.01012  -0.00401
  Beta virt. eigenvalues --   -0.00308   0.00117   0.00400   0.00872   0.00900

 Mulliken charges and spin densities:
               1          2
     1  Na  -0.173462   0.470133
     2  Na   0.237746  -0.099916
     3  Na   0.306684  -0.046997
     4  Na   0.139797  -0.018692
     5  Na  -0.568561   0.718885
     6  Na   0.033147  -0.008915
     7  Na   0.024648  -0.014499
 Sum of Mulliken charges =  -0.00000   1.00000

 Dipole moment (field-independent basis, Debye):
    X=              0.1328    Y=             -0.1007    Z=              0.1045  Tot=              0.1968
 Quadrupole moment (field-independent basis, Debye-Ang):
   XX=            -57.8604   YY=            -63.4426   ZZ=            -73.1498
   XY=             -0.3883   XZ=              1.7101   YZ=              1.4706

 Normal termination of Gaussian 16 at Tue Dec  5 14:07:23 2023.
