 Gaussian 16, Revision B.01,
 Gaussian 16:  ES64L-G16RevB.01 20-Dec-2017

 -------------------------
 #P B3LYP/6-311+g(d) force
 -------------------------

 -----
 DPGEN
 -----
 Symbolic Z-matrix:
 Charge =  0 Multiplicity = 2

                         Standard orientation:
 ---------------------------------------------------------------------
 Center     Atomic      Atomic             Coordinates (Angstroms)
 Number     Number       Type             X           Y           Z
 ---------------------------------------------------------------------
      1         11           0        2.085165   -1.518107   -0.755682
      2         11           0        4.777043   -2.045446    0.899948
      3         11           0        3.907661    1.651102    0.786549
      4         11           0        0.798964    2.477025   -0.206859
      5         11           0       -1.074932    0.610328   -1.680709
      6         11           0       -4.346362   -1.144254   -0.864235
      7         11           0       -6.147538   -0.030648    1.820988
 ---------------------------------------------------------------------

 SCF Done:  E(UB3LYP) =  -1136.11316542     A.U. after   20 cycles

 The electronic state is 2-A.
 Alpha  occ. eigenvalues --  -38.44932 -38.44923 -38.44558 -38.44184 -38.43933
 Alpha  occ. eigenvalues --  -38.43864 -38.43648  -2.20744  -2.20737  -2.20319
 Alpha  occ. eigenvalues --   -2.19936  -2.19739  -2.19718  -2.19489  -1.14430
 Alpha  occ. eigenvalues --   -1.14406  -1.14405  -1.14393  -1.14360  -1.14330
 Alpha  occ. eigenvalues --   -1.13976  -1.13975  -1.13942  -1.13619  -1.13610
 Alpha  occ. eigenvalues --   -1.13574  -1.13445  -1.13410  -1.13399  -1.13377
 Alpha  occ. eigenvalues --   -1.13371  -1.13369  -1.13141  -1.13139  -1.13100
 Alpha  occ. eigenvalues --   -0.16486  -0.13687  -0.12234  -0.11373
 Alpha virt. eigenvalues --   -0.06707  -0.05569  -0.04324  -0.03823  -0.03051
 Alpha virt. eigenvalues --   -0.02446  -0.02275  -0.01291  -0.01136  -0.01029
 Alpha virt. eigenvalues --   -0.00562  -0.00349   0.00064   0.00310   0.00659

  Beta  occ. eigenvalues --  -38.44886 -38.44840 -38.44520 -38.44200 -38.43925
  Beta  occ. eigenvalues --  -38.43846 -38.43624  -2.20658  -2.20587  -2.20247
  Beta  occ. eigenvalues --   -2.19968  -2.19726  -2.19689  -2.19443  -1.14374
  Beta  occ. eigenvalues --   -1.14339  -1.14305  -1.14297  -1.14293  -1.14214
  Beta  occ. eigenvalues --   -1.13927  -1.13926  -1.13896  -1.13644  -1.13633
  Beta  occ. eigenvalues --   -1.13579  -1.13403  -1.13393  -1.13387  -1.13364
  Beta  occ. eigenvalues --   -1.13362  -1.13351  -1.13108  -1.13099  -1.13078
  Beta  occ. eigenvalues --   -0.15798  -0.13457  -0.11871
  Beta virt. eigenvalues --   -0.07842  -0.06228  -0.05357  -0.03876  -0.03522
  Beta virt. eigenvalues --   -0.02463  -0.02300  -0.02179  -0.01166  -0.00963
  Beta virt. eigenvalues --   -0.00702  -0.00229  -0.00091   0.00203   0.00394

 Mulliken charges and spin densities:
               1          2
     1  Na  -0.359177   0.323616
     2  Na   0.788521  -0.030404
     3  Na  -0.125008   0.379514
     4  Na   0.605987   0.118654
     5  Na  -1.054083   0.119057
     6  Na   0.026639  -0.088352
     7  Na   0.117122   0.177917
 Sum of Mulliken charges =  -0.00000   1.00000

 Dipole moment (field-independent basis, Debye):
    X=              0.9180    Y=             -0.0246    Z=              0.6565  Tot=              1.1289
 Quadrupole moment (field-independent basis, Debye-Ang):
   XX=            -61.6321   YY=            -68.7863   ZZ=            -66.1632
   XY=             -3.2665   XZ=             -0.1768   YZ=              2.9771

 Normal termination of Gaussian 16 at Tue Nov 28 20:27:48 2023.
