 Gaussian 16, Revision B.01,
 Gaussian 16:  ES64L-G16RevB.01 20-Dec-2017

 -------------------------
 #P B3LYP/6-311+g(d) force
 -------------------------

 -----
 DPGEN
 -----
 Symbolic Z-matrix:
 Charge =  0 Multiplicity = 2

                         Standard orientation:
 ---------------------------------------------------------------------
 Center     Atomic      Atomic             Coordinates (Angstroms)
 Number     Number       Type             X           Y           Z
 ---------------------------------------------------------------------
      1         11           0        0.982343    0.138818    2.035280
      2         11           0       -1.017708    1.872053   -0.328934
      3         11           0        3.523325   -0.766113    0.293776
      4         11           0        2.336019    1.978079   -0.914128
      5         11           0        1.106439   -1.962008   -1.042554
      6         11           0       -2.504106   -1.853446   -0.141768
      7         11           0       -4.426311    0.592618    0.098328
 ---------------------------------------------------------------------

 SCF Done:  E(UB3LYP) =  -1136.11333488     A.U. after   28 cycles

 The electronic state is 2-A.
 Alpha  occ. eigenvalues --  -38.45060 -38.44651 -38.44256 -38.44154 -38.44081
 Alpha  occ. eigenvalues --  -38.43532 -38.43530  -2.20875  -2.20582  -2.20061
 Alpha  occ. eigenvalues --   -2.20041  -2.19920  -2.19396  -2.19348  -1.14555
 Alpha  occ. eigenvalues --   -1.14525  -1.14502  -1.14285  -1.14254  -1.14214
 Alpha  occ. eigenvalues --   -1.13747  -1.13720  -1.13715  -1.13708  -1.13679
 Alpha  occ. eigenvalues --   -1.13635  -1.13597  -1.13576  -1.13555  -1.13091
 Alpha  occ. eigenvalues --   -1.13057  -1.13049  -1.13030  -1.13021  -1.12941
 Alpha  occ. eigenvalues --   -0.18126  -0.14556  -0.11442  -0.10423
 Alpha virt. eigenvalues --   -0.07727  -0.05841  -0.03626  -0.03450  -0.03329
 Alpha virt. eigenvalues --   -0.02318  -0.02136  -0.01830  -0.00621  -0.00497
 Alpha virt. eigenvalues --   -0.00397   0.00047   0.00265   0.00620   0.00666

  Beta  occ. eigenvalues --  -38.45032 -38.44617 -38.44258 -38.44076 -38.44066
  Beta  occ. eigenvalues --  -38.43526 -38.43496  -2.20822  -2.20526  -2.20069
  Beta  occ. eigenvalues --   -2.19915  -2.19878  -2.19344  -2.19331  -1.14519
  Beta  occ. eigenvalues --   -1.14486  -1.14467  -1.14251  -1.14208  -1.14146
  Beta  occ. eigenvalues --   -1.13756  -1.13725  -1.13696  -1.13602  -1.13596
  Beta  occ. eigenvalues --   -1.13586  -1.13564  -1.13524  -1.13513  -1.13069
  Beta  occ. eigenvalues --   -1.13033  -1.13014  -1.13005  -1.12975  -1.12919
  Beta  occ. eigenvalues --   -0.17474  -0.14143  -0.11308
  Beta virt. eigenvalues --   -0.07526  -0.06641  -0.05694  -0.03444  -0.03243
  Beta virt. eigenvalues --   -0.02915  -0.02026  -0.01511  -0.01338  -0.00504
  Beta virt. eigenvalues --   -0.00277  -0.00063   0.00073   0.00401   0.00695

 Mulliken charges and spin densities:
               1          2
     1  Na  -0.364226   0.329346
     2  Na  -0.580465  -0.106772
     3  Na   0.901031   0.509741
     4  Na   0.054742   0.223574
     5  Na  -0.396370  -0.103078
     6  Na  -0.182846   0.021581
     7  Na   0.568135   0.125609
 Sum of Mulliken charges =  -0.00000   1.00000

 Dipole moment (field-independent basis, Debye):
    X=             -0.7265    Y=              0.0228    Z=              0.6973  Tot=              1.0072
 Quadrupole moment (field-independent basis, Debye-Ang):
   XX=            -54.3583   YY=            -76.0491   ZZ=            -68.8473
   XY=             -1.6290   XZ=              2.4748   YZ=             -0.2384

 Normal termination of Gaussian 16 at Fri Dec  8 19:24:37 2023.
