 Gaussian 16, Revision B.01,
 Gaussian 16:  ES64L-G16RevB.01 20-Dec-2017

 -------------------------
 #P B3LYP/6-311+g(d) force
 -------------------------

 -----
 DPGEN
 -----
 Symbolic Z-matrix:
 Charge =  0 Multiplicity = 2

                         Standard orientation:
 ---------------------------------------------------------------------
 Center     Atomic      Atomic             Coordinates (Angstroms)
 Number     Number       Type             X           Y           Z
 ---------------------------------------------------------------------
      1         11           0        1.748825    2.396543    0.366099
      2         11           0       -0.216517   -0.357468    2.070132
      3         11           0       -1.652540   -2.639066    0.268437
      4         11           0        1.761633   -2.082530    0.088307
      5         11           0        3.545740   -0.045366   -1.406862
      6         11           0       -3.403611   -0.040173   -1.612394
      7         11           0       -1.783530    2.768060    0.226281
 ---------------------------------------------------------------------

 SCF Done:  E(UB3LYP) =  -1136.12456991     A.U. after   20 cycles

 The electronic state is 2-A.
 Alpha  occ. eigenvalues --  -38.44501 -38.44452 -38.44143 -38.43956 -38.43890
 Alpha  occ. eigenvalues --  -38.43886 -38.43851  -2.20328  -2.20287  -2.19933
 Alpha  occ. eigenvalues --   -2.19760  -2.19723  -2.19720  -2.19695  -1.14010
 Alpha  occ. eigenvalues --   -1.13990  -1.13941  -1.13926  -1.13919  -1.13909
 Alpha  occ. eigenvalues --   -1.13623  -1.13607  -1.13562  -1.13497  -1.13445
 Alpha  occ. eigenvalues --   -1.13435  -1.13408  -1.13405  -1.13387  -1.13383
 Alpha  occ. eigenvalues --   -1.13363  -1.13348  -1.13332  -1.13313  -1.13280
 Alpha  occ. eigenvalues --   -0.17297  -0.13528  -0.12580  -0.11151
 Alpha virt. eigenvalues --   -0.06091  -0.05425  -0.04681  -0.03866  -0.03367
 Alpha virt. eigenvalues --   -0.02329  -0.01315  -0.00936  -0.00858  -0.00652
 Alpha virt. eigenvalues --   -0.00375   0.00234   0.00367   0.00457   0.00626

  Beta  occ. eigenvalues --  -38.44418 -38.44382 -38.44137 -38.43962 -38.43890
  Beta  occ. eigenvalues --  -38.43877 -38.43803  -2.20198  -2.20132  -2.19926
  Beta  occ. eigenvalues --   -2.19749  -2.19738  -2.19724  -2.19604  -1.13926
  Beta  occ. eigenvalues --   -1.13907  -1.13836  -1.13826  -1.13814  -1.13808
  Beta  occ. eigenvalues --   -1.13617  -1.13601  -1.13547  -1.13461  -1.13438
  Beta  occ. eigenvalues --   -1.13420  -1.13420  -1.13403  -1.13401  -1.13384
  Beta  occ. eigenvalues --   -1.13353  -1.13324  -1.13271  -1.13254  -1.13234
  Beta  occ. eigenvalues --   -0.16722  -0.12788  -0.12392
  Beta virt. eigenvalues --   -0.07766  -0.06000  -0.05068  -0.04145  -0.03651
  Beta virt. eigenvalues --   -0.02717  -0.01832  -0.01206  -0.00952  -0.00699
  Beta virt. eigenvalues --   -0.00540  -0.00060   0.00444   0.00487   0.00686

 Mulliken charges and spin densities:
               1          2
     1  Na  -0.326233  -0.048358
     2  Na   0.903893   0.054832
     3  Na  -0.172413   0.193500
     4  Na  -0.691536   0.010724
     5  Na   0.605458   0.321674
     6  Na  -0.058484   0.382317
     7  Na  -0.260685   0.085312
 Sum of Mulliken charges =  -0.00000   1.00000

 Dipole moment (field-independent basis, Debye):
    X=             -0.0446    Y=             -0.0445    Z=             -0.0088  Tot=              0.0636
 Quadrupole moment (field-independent basis, Debye-Ang):
   XX=            -66.0235   YY=            -65.5432   ZZ=            -68.3598
   XY=              1.7106   XZ=             -0.4677   YZ=              0.5704

 Normal termination of Gaussian 16 at Wed Nov 29 01:30:18 2023.
