 Gaussian 16, Revision B.01,
 Gaussian 16:  ES64L-G16RevB.01 20-Dec-2017

 -------------------------
 #P B3LYP/6-311+g(d) force
 -------------------------

 -----
 DPGEN
 -----
 Symbolic Z-matrix:
 Charge =  0 Multiplicity = 2

                         Standard orientation:
 ---------------------------------------------------------------------
 Center     Atomic      Atomic             Coordinates (Angstroms)
 Number     Number       Type             X           Y           Z
 ---------------------------------------------------------------------
      1         11           0        1.428354   -2.312461    0.495826
      2         11           0        0.969979    2.678964   -0.040721
      3         11           0       -0.266263    0.892495    2.073218
      4         11           0       -2.422296   -1.927240    0.338491
      5         11           0        3.486391   -0.101772   -0.475698
      6         11           0       -0.301888   -0.440821   -1.758552
      7         11           0       -2.894277    1.210836   -0.632564
 ---------------------------------------------------------------------

 SCF Done:  E(UB3LYP) =  -1136.13105132     A.U. after   21 cycles

 The electronic state is 2-A.
 Alpha  occ. eigenvalues --  -38.44543 -38.44361 -38.43849 -38.43834 -38.43601
 Alpha  occ. eigenvalues --  -38.43296 -38.43136  -2.20346  -2.20207  -2.19765
 Alpha  occ. eigenvalues --   -2.19677  -2.19483  -2.19148  -2.18979  -1.14031
 Alpha  occ. eigenvalues --   -1.14002  -1.13978  -1.13900  -1.13872  -1.13825
 Alpha  occ. eigenvalues --   -1.13462  -1.13416  -1.13398  -1.13336  -1.13322
 Alpha  occ. eigenvalues --   -1.13318  -1.13186  -1.13114  -1.13101  -1.12827
 Alpha  occ. eigenvalues --   -1.12809  -1.12785  -1.12670  -1.12634  -1.12595
 Alpha  occ. eigenvalues --   -0.18317  -0.13363  -0.11995  -0.10910
 Alpha virt. eigenvalues --   -0.06165  -0.05300  -0.04119  -0.03425  -0.03117
 Alpha virt. eigenvalues --   -0.02571  -0.01912  -0.01095  -0.00454  -0.00111
 Alpha virt. eigenvalues --   -0.00062   0.00318   0.00682   0.00778   0.00852

  Beta  occ. eigenvalues --  -38.44536 -38.44342 -38.43826 -38.43795 -38.43520
  Beta  occ. eigenvalues --  -38.43286 -38.43134  -2.20335  -2.20174  -2.19666
  Beta  occ. eigenvalues --   -2.19666  -2.19333  -2.19132  -2.18979  -1.14023
  Beta  occ. eigenvalues --   -1.13987  -1.13972  -1.13868  -1.13842  -1.13801
  Beta  occ. eigenvalues --   -1.13404  -1.13358  -1.13330  -1.13323  -1.13297
  Beta  occ. eigenvalues --   -1.13281  -1.13089  -1.13006  -1.12999  -1.12818
  Beta  occ. eigenvalues --   -1.12793  -1.12761  -1.12657  -1.12618  -1.12598
  Beta  occ. eigenvalues --   -0.17607  -0.13147  -0.11772
  Beta virt. eigenvalues --   -0.07087  -0.06050  -0.05228  -0.03945  -0.02804
  Beta virt. eigenvalues --   -0.02423  -0.01791  -0.01612  -0.00997  -0.00432
  Beta virt. eigenvalues --   -0.00108   0.00079   0.00365   0.00787   0.00833

 Mulliken charges and spin densities:
               1          2
     1  Na  -0.012144   0.113338
     2  Na   0.119495  -0.073297
     3  Na  -0.375956   0.507505
     4  Na   0.073552   0.101805
     5  Na   0.032636  -0.003780
     6  Na  -0.182442   0.374332
     7  Na   0.344860  -0.019903
 Sum of Mulliken charges =  -0.00000   1.00000

 Dipole moment (field-independent basis, Debye):
    X=             -0.1704    Y=              0.0346    Z=             -0.1242  Tot=              0.2136
 Quadrupole moment (field-independent basis, Debye-Ang):
   XX=            -53.5039   YY=            -69.0075   ZZ=            -72.2373
   XY=              0.5693   XZ=             -1.2324   YZ=             -3.3994

 Normal termination of Gaussian 16 at Sun Dec  3 21:12:16 2023.
