 Gaussian 16, Revision B.01,
 Gaussian 16:  ES64L-G16RevB.01 20-Dec-2017

 -------------------------
 #P B3LYP/6-311+g(d) force
 -------------------------

 -----
 DPGEN
 -----
 Symbolic Z-matrix:
 Charge =  0 Multiplicity = 2

                         Standard orientation:
 ---------------------------------------------------------------------
 Center     Atomic      Atomic             Coordinates (Angstroms)
 Number     Number       Type             X           Y           Z
 ---------------------------------------------------------------------
      1         11           0        3.351864   -2.607940    0.123195
      2         11           0       -2.597737   -0.899043    2.024731
      3         11           0        0.080900   -2.368419   -0.542884
      4         11           0        1.085343    3.329844   -0.313245
      5         11           0        4.312318    0.955062   -0.105373
      6         11           0       -4.252382   -0.886725   -1.468085
      7         11           0       -1.980306    2.477222    0.281660
 ---------------------------------------------------------------------

 SCF Done:  E(UB3LYP) =  -1136.10484606     A.U. after   24 cycles

 The electronic state is 2-A.
 Alpha  occ. eigenvalues --  -38.46231 -38.44754 -38.44733 -38.44533 -38.44240
 Alpha  occ. eigenvalues --  -38.44176 -38.43651  -2.21948  -2.20536  -2.20503
 Alpha  occ. eigenvalues --   -2.20295  -2.20010  -2.19968  -2.19415  -1.15626
 Alpha  occ. eigenvalues --   -1.15621  -1.15591  -1.14188  -1.14183  -1.14178
 Alpha  occ. eigenvalues --   -1.14168  -1.14129  -1.14117  -1.13960  -1.13934
 Alpha  occ. eigenvalues --   -1.13916  -1.13688  -1.13675  -1.13656  -1.13647
 Alpha  occ. eigenvalues --   -1.13641  -1.13589  -1.13097  -1.13088  -1.13059
 Alpha  occ. eigenvalues --   -0.15850  -0.13681  -0.12457  -0.10366
 Alpha virt. eigenvalues --   -0.07517  -0.06525  -0.04385  -0.03119  -0.02873
 Alpha virt. eigenvalues --   -0.02624  -0.02264  -0.02011  -0.01676  -0.00814
 Alpha virt. eigenvalues --   -0.00675  -0.00130   0.00099   0.00182   0.00299

  Beta  occ. eigenvalues --  -38.46254 -38.44694 -38.44647 -38.44461 -38.44248
  Beta  occ. eigenvalues --  -38.44155 -38.43664  -2.21993  -2.20432  -2.20336
  Beta  occ. eigenvalues --   -2.20160  -2.20030  -2.19930  -2.19443  -1.15652
  Beta  occ. eigenvalues --   -1.15647  -1.15617  -1.14125  -1.14120  -1.14073
  Beta  occ. eigenvalues --   -1.14050  -1.14046  -1.13996  -1.13867  -1.13844
  Beta  occ. eigenvalues --   -1.13827  -1.13704  -1.13687  -1.13647  -1.13624
  Beta  occ. eigenvalues --   -1.13608  -1.13568  -1.13118  -1.13107  -1.13060
  Beta  occ. eigenvalues --   -0.15486  -0.13101  -0.12156
  Beta virt. eigenvalues --   -0.07180  -0.06791  -0.06444  -0.04148  -0.02886
  Beta virt. eigenvalues --   -0.02499  -0.02388  -0.01829  -0.01785  -0.01404
  Beta virt. eigenvalues --   -0.00659  -0.00422   0.00152   0.00194   0.00329

 Mulliken charges and spin densities:
               1          2
     1  Na   0.346752  -0.087750
     2  Na   0.394455  -0.025857
     3  Na  -0.637534   0.182574
     4  Na   0.324930  -0.061352
     5  Na  -0.260609   0.389212
     6  Na   0.215396   0.581167
     7  Na  -0.383389   0.022007
 Sum of Mulliken charges =  -0.00000   1.00000

 Dipole moment (field-independent basis, Debye):
    X=             -0.7465    Y=             -0.9034    Z=              0.9244  Tot=              1.4926
 Quadrupole moment (field-independent basis, Debye-Ang):
   XX=            -66.4679   YY=            -73.4613   ZZ=            -65.4415
   XY=             -2.5326   XZ=             -3.1934   YZ=             -2.2860

 Normal termination of Gaussian 16 at Sun Dec  3 19:11:08 2023.
