 Gaussian 16, Revision B.01,
 Gaussian 16:  ES64L-G16RevB.01 20-Dec-2017

 -------------------------
 #P B3LYP/6-311+g(d) force
 -------------------------

 -----
 DPGEN
 -----
 Symbolic Z-matrix:
 Charge =  0 Multiplicity = 2

                         Standard orientation:
 ---------------------------------------------------------------------
 Center     Atomic      Atomic             Coordinates (Angstroms)
 Number     Number       Type             X           Y           Z
 ---------------------------------------------------------------------
      1         11           0        3.226740   -0.935711   -0.709847
      2         11           0       -2.900015   -1.451759    0.647581
      3         11           0       -0.958816   -0.753934   -1.882888
      4         11           0       -2.633831    1.927269    0.124096
      5         11           0        0.501218   -2.024074    0.787098
      6         11           0        1.084694    2.122114   -0.938025
      7         11           0        1.680010    1.116095    1.971984
 ---------------------------------------------------------------------

 SCF Done:  E(UB3LYP) =  -1136.12838194     A.U. after   21 cycles

 The electronic state is 2-A.
 Alpha  occ. eigenvalues --  -38.44846 -38.44199 -38.44069 -38.44040 -38.43950
 Alpha  occ. eigenvalues --  -38.43175 -38.42921  -2.20651  -2.19976  -2.19929
 Alpha  occ. eigenvalues --   -2.19925  -2.19803  -2.19028  -2.18815  -1.14324
 Alpha  occ. eigenvalues --   -1.14308  -1.14289  -1.13660  -1.13646  -1.13623
 Alpha  occ. eigenvalues --   -1.13618  -1.13601  -1.13587  -1.13580  -1.13545
 Alpha  occ. eigenvalues --   -1.13530  -1.13467  -1.13440  -1.13432  -1.12719
 Alpha  occ. eigenvalues --   -1.12699  -1.12643  -1.12507  -1.12488  -1.12436
 Alpha  occ. eigenvalues --   -0.18137  -0.13652  -0.11620  -0.10913
 Alpha virt. eigenvalues --   -0.06329  -0.05348  -0.04488  -0.03412  -0.02918
 Alpha virt. eigenvalues --   -0.02615  -0.01922  -0.00960  -0.00362  -0.00207
 Alpha virt. eigenvalues --    0.00084   0.00335   0.00378   0.00583   0.00773

  Beta  occ. eigenvalues --  -38.44838 -38.44200 -38.44006 -38.43984 -38.43939
  Beta  occ. eigenvalues --  -38.43157 -38.42904  -2.20638  -2.19980  -2.19827
  Beta  occ. eigenvalues --   -2.19807  -2.19782  -2.18999  -2.18786  -1.14316
  Beta  occ. eigenvalues --   -1.14288  -1.14275  -1.13655  -1.13641  -1.13621
  Beta  occ. eigenvalues --   -1.13564  -1.13525  -1.13518  -1.13492  -1.13475
  Beta  occ. eigenvalues --   -1.13448  -1.13445  -1.13419  -1.13407  -1.12698
  Beta  occ. eigenvalues --   -1.12653  -1.12625  -1.12490  -1.12438  -1.12419
  Beta  occ. eigenvalues --   -0.17438  -0.13458  -0.11441
  Beta virt. eigenvalues --   -0.07163  -0.06132  -0.05245  -0.03884  -0.03259
  Beta virt. eigenvalues --   -0.02294  -0.01808  -0.01683  -0.00915  -0.00245
  Beta virt. eigenvalues --   -0.00017   0.00093   0.00401   0.00556   0.00719

 Mulliken charges and spin densities:
               1          2
     1  Na   0.399225   0.060733
     2  Na   0.299647   0.053773
     3  Na  -0.421606   0.352497
     4  Na  -0.063318  -0.044200
     5  Na   0.055195   0.241674
     6  Na  -0.039783   0.136581
     7  Na  -0.229360   0.198942
 Sum of Mulliken charges =  -0.00000   1.00000

 Dipole moment (field-independent basis, Debye):
    X=              0.0855    Y=             -0.1028    Z=             -0.0259  Tot=              0.1362
 Quadrupole moment (field-independent basis, Debye-Ang):
   XX=            -52.9638   YY=            -73.4745   ZZ=            -68.4993
   XY=             -1.0752   XZ=             -3.2061   YZ=              0.6523

 Normal termination of Gaussian 16 at Fri Dec  8 18:51:49 2023.
