 Gaussian 16, Revision B.01,
 Gaussian 16:  ES64L-G16RevB.01 20-Dec-2017

 -------------------------
 #P B3LYP/6-311+g(d) force
 -------------------------

 -----
 DPGEN
 -----
 Symbolic Z-matrix:
 Charge =  0 Multiplicity = 2

                         Standard orientation:
 ---------------------------------------------------------------------
 Center     Atomic      Atomic             Coordinates (Angstroms)
 Number     Number       Type             X           Y           Z
 ---------------------------------------------------------------------
      1         11           0        8.817755    0.070700   -0.109615
      2         11           0       -5.542344   -0.942941    0.502766
      3         11           0       -0.238483    1.278465   -0.769768
      4         11           0        2.516070   -0.309401   -0.378013
      5         11           0       -8.671345    0.857328    0.605579
      6         11           0       -3.131388   -0.920063   -0.942344
      7         11           0        6.249735   -0.034087    1.091395
 ---------------------------------------------------------------------

 SCF Done:  E(UB3LYP) =  -1136.10066994     A.U. after   19 cycles

 The electronic state is 2-A.
 Alpha  occ. eigenvalues --  -38.45235 -38.44760 -38.44567 -38.44509 -38.44415
 Alpha  occ. eigenvalues --  -38.44245 -38.44008  -2.21022  -2.20588  -2.20358
 Alpha  occ. eigenvalues --   -2.20293  -2.20285  -2.20075  -2.19845  -1.14654
 Alpha  occ. eigenvalues --   -1.14653  -1.14627  -1.14367  -1.14217  -1.14216
 Alpha  occ. eigenvalues --   -1.14090  -1.14051  -1.14018  -1.14008  -1.13963
 Alpha  occ. eigenvalues --   -1.13956  -1.13910  -1.13901  -1.13892  -1.13719
 Alpha  occ. eigenvalues --   -1.13716  -1.13707  -1.13493  -1.13490  -1.13476
 Alpha  occ. eigenvalues --   -0.15309  -0.14363  -0.13144  -0.11458
 Alpha virt. eigenvalues --   -0.07185  -0.04825  -0.04320  -0.03440  -0.03090
 Alpha virt. eigenvalues --   -0.02783  -0.02543  -0.02158  -0.01620  -0.01275
 Alpha virt. eigenvalues --   -0.00690  -0.00537  -0.00098   0.00336   0.00374

  Beta  occ. eigenvalues --  -38.45109 -38.44742 -38.44525 -38.44524 -38.44355
  Beta  occ. eigenvalues --  -38.44248 -38.44017  -2.20787  -2.20554  -2.20326
  Beta  occ. eigenvalues --   -2.20278  -2.20173  -2.20082  -2.19870  -1.14495
  Beta  occ. eigenvalues --   -1.14494  -1.14471  -1.14347  -1.14194  -1.14192
  Beta  occ. eigenvalues --   -1.14031  -1.14029  -1.13992  -1.13975  -1.13959
  Beta  occ. eigenvalues --   -1.13949  -1.13880  -1.13831  -1.13822  -1.13724
  Beta  occ. eigenvalues --   -1.13722  -1.13698  -1.13516  -1.13510  -1.13434
  Beta  occ. eigenvalues --   -0.14821  -0.13920  -0.12511
  Beta virt. eigenvalues --   -0.08141  -0.06636  -0.04537  -0.04021  -0.03287
  Beta virt. eigenvalues --   -0.02910  -0.02601  -0.02295  -0.01912  -0.01142
  Beta virt. eigenvalues --   -0.00897  -0.00352  -0.00252   0.00047   0.00401

 Mulliken charges and spin densities:
               1          2
     1  Na   0.310955   0.063488
     2  Na  -0.070022  -0.002706
     3  Na   0.138845  -0.047701
     4  Na   0.079737   0.216831
     5  Na   0.273556   0.626918
     6  Na  -0.341885   0.166900
     7  Na  -0.391187  -0.023730
 Sum of Mulliken charges =  -0.00000   1.00000

 Dipole moment (field-independent basis, Debye):
    X=              0.6990    Y=              0.4002    Z=             -0.2849  Tot=              0.8543
 Quadrupole moment (field-independent basis, Debye-Ang):
   XX=            -48.2365   YY=            -69.7987   ZZ=            -71.9281
   XY=             -5.0762   XZ=             -4.0877   YZ=             -0.3834

 Normal termination of Gaussian 16 at Sun Dec  3 21:32:56 2023.
