 Gaussian 16, Revision B.01,
 Gaussian 16:  ES64L-G16RevB.01 20-Dec-2017

 -------------------------
 #P B3LYP/6-311+g(d) force
 -------------------------

 -----
 DPGEN
 -----
 Symbolic Z-matrix:
 Charge =  0 Multiplicity = 2

                         Standard orientation:
 ---------------------------------------------------------------------
 Center     Atomic      Atomic             Coordinates (Angstroms)
 Number     Number       Type             X           Y           Z
 ---------------------------------------------------------------------
      1         11           0        3.844518   -1.394484   -0.728695
      2         11           0       -4.203188   -0.497235   -0.320481
      3         11           0       -2.317870    2.880721   -0.744092
      4         11           0        0.681275    3.426939    0.980179
      5         11           0        3.064405    1.918350    0.014462
      6         11           0       -2.570572   -2.761663    0.535718
      7         11           0        1.501432   -3.572627    0.262908
 ---------------------------------------------------------------------

 SCF Done:  E(UB3LYP) =  -1136.10442466     A.U. after   22 cycles

 The electronic state is 2-A.
 Alpha  occ. eigenvalues --  -38.44863 -38.44850 -38.44728 -38.44534 -38.44431
 Alpha  occ. eigenvalues --  -38.44297 -38.44029  -2.20635  -2.20627  -2.20547
 Alpha  occ. eigenvalues --   -2.20351  -2.20255  -2.20091  -2.19877  -1.14327
 Alpha  occ. eigenvalues --   -1.14324  -1.14305  -1.14298  -1.14291  -1.14280
 Alpha  occ. eigenvalues --   -1.14227  -1.14199  -1.14179  -1.14096  -1.14011
 Alpha  occ. eigenvalues --   -1.13999  -1.13892  -1.13884  -1.13872  -1.13740
 Alpha  occ. eigenvalues --   -1.13725  -1.13711  -1.13525  -1.13509  -1.13498
 Alpha  occ. eigenvalues --   -0.15673  -0.14073  -0.13601  -0.10745
 Alpha virt. eigenvalues --   -0.07855  -0.04661  -0.04372  -0.03715  -0.03524
 Alpha virt. eigenvalues --   -0.02305  -0.02245  -0.01828  -0.01404  -0.00983
 Alpha virt. eigenvalues --   -0.00620   0.00091   0.00160   0.00237   0.00677

  Beta  occ. eigenvalues --  -38.44854 -38.44819 -38.44716 -38.44540 -38.44393
  Beta  occ. eigenvalues --  -38.44207 -38.43973  -2.20639  -2.20554  -2.20530
  Beta  occ. eigenvalues --   -2.20369  -2.20187  -2.19923  -2.19773  -1.14314
  Beta  occ. eigenvalues --   -1.14312  -1.14290  -1.14282  -1.14240  -1.14228
  Beta  occ. eigenvalues --   -1.14193  -1.14182  -1.14156  -1.14084  -1.14030
  Beta  occ. eigenvalues --   -1.13989  -1.13848  -1.13843  -1.13815  -1.13624
  Beta  occ. eigenvalues --   -1.13613  -1.13601  -1.13463  -1.13439  -1.13429
  Beta  occ. eigenvalues --   -0.15158  -0.13438  -0.12852
  Beta virt. eigenvalues --   -0.07911  -0.07559  -0.04238  -0.03894  -0.03530
  Beta virt. eigenvalues --   -0.03186  -0.02147  -0.01970  -0.01674  -0.01281
  Beta virt. eigenvalues --   -0.00543  -0.00414   0.00119   0.00257   0.00376

 Mulliken charges and spin densities:
               1          2
     1  Na   0.297033  -0.020824
     2  Na   0.233607   0.039783
     3  Na  -0.159113   0.433918
     4  Na  -0.249069  -0.050299
     5  Na   0.016830   0.236352
     6  Na  -0.103546   0.138427
     7  Na  -0.035742   0.222643
 Sum of Mulliken charges =  -0.00000   1.00000

 Dipole moment (field-independent basis, Debye):
    X=              0.0991    Y=             -0.5042    Z=             -0.0140  Tot=              0.5140
 Quadrupole moment (field-independent basis, Debye-Ang):
   XX=            -63.8783   YY=            -68.1361   ZZ=            -70.4887
   XY=             -1.4905   XZ=             -0.7897   YZ=             -0.7991

 Normal termination of Gaussian 16 at Mon Dec  4 03:27:15 2023.
