 Gaussian 16, Revision B.01,
 Gaussian 16:  ES64L-G16RevB.01 20-Dec-2017

 -------------------------
 #P B3LYP/6-311+g(d) force
 -------------------------

 -----
 DPGEN
 -----
 Symbolic Z-matrix:
 Charge =  0 Multiplicity = 2

                         Standard orientation:
 ---------------------------------------------------------------------
 Center     Atomic      Atomic             Coordinates (Angstroms)
 Number     Number       Type             X           Y           Z
 ---------------------------------------------------------------------
      1         11           0       -0.061078   -0.702148    2.014664
      2         11           0        3.115246    0.508002   -0.000299
      3         11           0       -0.022031   -0.174727   -1.736598
      4         11           0        0.862453    2.703833    0.126219
      5         11           0       -3.072193   -1.535786   -0.108657
      6         11           0       -2.518616    1.737641   -0.034163
      7         11           0        1.696220   -2.536815   -0.261165
 ---------------------------------------------------------------------

 SCF Done:  E(UB3LYP) =  -1136.13384191     A.U. after   21 cycles

 The electronic state is 2-A.
 Alpha  occ. eigenvalues --  -38.44540 -38.44403 -38.44010 -38.43667 -38.43485
 Alpha  occ. eigenvalues --  -38.43473 -38.42792  -2.20337  -2.20261  -2.19844
 Alpha  occ. eigenvalues --   -2.19526  -2.19410  -2.19335  -2.18654  -1.14006
 Alpha  occ. eigenvalues --   -1.14002  -1.13982  -1.13945  -1.13921  -1.13902
 Alpha  occ. eigenvalues --   -1.13518  -1.13509  -1.13482  -1.13198  -1.13165
 Alpha  occ. eigenvalues --   -1.13143  -1.13109  -1.13075  -1.13030  -1.12985
 Alpha  occ. eigenvalues --   -1.12973  -1.12972  -1.12334  -1.12308  -1.12306
 Alpha  occ. eigenvalues --   -0.18432  -0.13479  -0.12092  -0.10621
 Alpha virt. eigenvalues --   -0.06211  -0.05507  -0.04239  -0.03422  -0.02790
 Alpha virt. eigenvalues --   -0.02463  -0.01893  -0.01212  -0.00599  -0.00211
 Alpha virt. eigenvalues --   -0.00033   0.00335   0.00702   0.00785   0.00826

  Beta  occ. eigenvalues --  -38.44540 -38.44400 -38.44008 -38.43578 -38.43465
  Beta  occ. eigenvalues --  -38.43415 -38.42788  -2.20340  -2.20257  -2.19842
  Beta  occ. eigenvalues --   -2.19361  -2.19324  -2.19282  -2.18650  -1.14010
  Beta  occ. eigenvalues --   -1.13989  -1.13982  -1.13945  -1.13905  -1.13893
  Beta  occ. eigenvalues --   -1.13513  -1.13492  -1.13486  -1.13097  -1.13055
  Beta  occ. eigenvalues --   -1.13039  -1.13026  -1.12990  -1.12974  -1.12951
  Beta  occ. eigenvalues --   -1.12940  -1.12914  -1.12334  -1.12307  -1.12283
  Beta  occ. eigenvalues --   -0.17716  -0.13284  -0.11865
  Beta virt. eigenvalues --   -0.06733  -0.06162  -0.05471  -0.04202  -0.02639
  Beta virt. eigenvalues --   -0.02014  -0.01813  -0.01446  -0.01134  -0.00665
  Beta virt. eigenvalues --   -0.00234   0.00136   0.00367   0.00765   0.00808

 Mulliken charges and spin densities:
               1          2
     1  Na  -0.444872   0.616702
     2  Na   0.160602   0.067767
     3  Na  -0.125970   0.402669
     4  Na  -0.168417  -0.013370
     5  Na   0.234961  -0.075198
     6  Na  -0.008222   0.041770
     7  Na   0.351919  -0.040341
 Sum of Mulliken charges =  -0.00000   1.00000

 Dipole moment (field-independent basis, Debye):
    X=             -0.3501    Y=             -0.4184    Z=              0.0326  Tot=              0.5466
 Quadrupole moment (field-independent basis, Debye-Ang):
   XX=            -53.1024   YY=            -65.8239   ZZ=            -75.0763
   XY=              0.2642   XZ=              0.1578   YZ=              1.0439

 Normal termination of Gaussian 16 at Tue Dec  5 10:48:07 2023.
