 Gaussian 16, Revision B.01,
 Gaussian 16:  ES64L-G16RevB.01 20-Dec-2017

 -------------------------
 #P B3LYP/6-311+g(d) force
 -------------------------

 -----
 DPGEN
 -----
 Symbolic Z-matrix:
 Charge =  0 Multiplicity = 2

                         Standard orientation:
 ---------------------------------------------------------------------
 Center     Atomic      Atomic             Coordinates (Angstroms)
 Number     Number       Type             X           Y           Z
 ---------------------------------------------------------------------
      1         11           0       -1.839725    1.702053    1.055030
      2         11           0        0.936317   -0.974576    2.248718
      3         11           0        2.537659    1.886941    0.017819
      4         11           0       -3.779416    0.049469   -0.922193
      5         11           0        3.489988   -0.835393   -1.100019
      6         11           0       -0.180143    0.231859   -1.390905
      7         11           0       -1.164680   -2.060353    0.091550
 ---------------------------------------------------------------------

 SCF Done:  E(UB3LYP) =  -1136.11707055     A.U. after   24 cycles

 The electronic state is 2-A.
 Alpha  occ. eigenvalues --  -38.45088 -38.44633 -38.44502 -38.44200 -38.43974
 Alpha  occ. eigenvalues --  -38.42678 -38.42657  -2.20902  -2.20577  -2.20340
 Alpha  occ. eigenvalues --   -2.20067  -2.19814  -2.18618  -2.18501  -1.14583
 Alpha  occ. eigenvalues --   -1.14551  -1.14521  -1.14319  -1.14288  -1.14158
 Alpha  occ. eigenvalues --   -1.14028  -1.13994  -1.13976  -1.13748  -1.13700
 Alpha  occ. eigenvalues --   -1.13674  -1.13483  -1.13478  -1.13456  -1.12363
 Alpha  occ. eigenvalues --   -1.12282  -1.12225  -1.12157  -1.12143  -1.12113
 Alpha  occ. eigenvalues --   -0.18425  -0.14171  -0.11233  -0.10803
 Alpha virt. eigenvalues --   -0.06825  -0.05509  -0.04217  -0.03038  -0.02810
 Alpha virt. eigenvalues --   -0.02584  -0.02370  -0.01354  -0.00562  -0.00273
 Alpha virt. eigenvalues --    0.00126   0.00174   0.00521   0.00652   0.00716

  Beta  occ. eigenvalues --  -38.45060 -38.44604 -38.44495 -38.44143 -38.43971
  Beta  occ. eigenvalues --  -38.42657 -38.42626  -2.20850  -2.20530  -2.20329
  Beta  occ. eigenvalues --   -2.19963  -2.19811  -2.18583  -2.18444  -1.14551
  Beta  occ. eigenvalues --   -1.14511  -1.14487  -1.14285  -1.14216  -1.14129
  Beta  occ. eigenvalues --   -1.14018  -1.13981  -1.13962  -1.13677  -1.13630
  Beta  occ. eigenvalues --   -1.13591  -1.13483  -1.13477  -1.13432  -1.12340
  Beta  occ. eigenvalues --   -1.12238  -1.12204  -1.12108  -1.12103  -1.12075
  Beta  occ. eigenvalues --   -0.17695  -0.13953  -0.10661
  Beta virt. eigenvalues --   -0.07480  -0.06586  -0.04917  -0.04021  -0.02829
  Beta virt. eigenvalues --   -0.02574  -0.02144  -0.01652  -0.00840  -0.00515
  Beta virt. eigenvalues --   -0.00155   0.00149   0.00296   0.00563   0.00710

 Mulliken charges and spin densities:
               1          2
     1  Na  -0.315621   0.312892
     2  Na  -0.108158   0.279815
     3  Na   0.059501   0.086533
     4  Na   0.811559   0.025876
     5  Na   0.232736   0.000708
     6  Na  -0.310470   0.394782
     7  Na  -0.369547  -0.100607
 Sum of Mulliken charges =  -0.00000   1.00000

 Dipole moment (field-independent basis, Debye):
    X=              0.1050    Y=             -0.2026    Z=             -0.1570  Tot=              0.2770
 Quadrupole moment (field-independent basis, Debye-Ang):
   XX=            -51.2471   YY=            -73.3943   ZZ=            -70.5773
   XY=             -1.1682   XZ=              1.3813   YZ=              6.9611

 Normal termination of Gaussian 16 at Tue Dec  5 15:39:06 2023.
