 Gaussian 16, Revision B.01,
 Gaussian 16:  ES64L-G16RevB.01 20-Dec-2017

 -------------------------
 #P B3LYP/6-311+g(d) force
 -------------------------

 -----
 DPGEN
 -----
 Symbolic Z-matrix:
 Charge =  0 Multiplicity = 2

                         Standard orientation:
 ---------------------------------------------------------------------
 Center     Atomic      Atomic             Coordinates (Angstroms)
 Number     Number       Type             X           Y           Z
 ---------------------------------------------------------------------
      1         11           0        1.194943   -2.634075   -0.405670
      2         11           0       -3.329295    1.245352    0.038605
      3         11           0       -2.208785   -1.905046   -0.421256
      4         11           0        0.130397   -0.378072    2.311782
      5         11           0        0.965177    3.185158   -0.150917
      6         11           0        3.290634    0.024567   -0.159609
      7         11           0       -0.043070    0.462115   -1.212935
 ---------------------------------------------------------------------

 SCF Done:  E(UB3LYP) =  -1136.13067992     A.U. after   20 cycles

 The electronic state is 2-A.
 Alpha  occ. eigenvalues --  -38.44710 -38.44668 -38.43812 -38.43671 -38.43612
 Alpha  occ. eigenvalues --  -38.43130 -38.42953  -2.20487  -2.20470  -2.19611
 Alpha  occ. eigenvalues --   -2.19513  -2.19476  -2.18998  -2.18949  -1.14155
 Alpha  occ. eigenvalues --   -1.14149  -1.14144  -1.14132  -1.14130  -1.14101
 Alpha  occ. eigenvalues --   -1.13331  -1.13263  -1.13232  -1.13177  -1.13164
 Alpha  occ. eigenvalues --   -1.13138  -1.13127  -1.13123  -1.13105  -1.12693
 Alpha  occ. eigenvalues --   -1.12652  -1.12644  -1.12642  -1.12602  -1.12562
 Alpha  occ. eigenvalues --   -0.18198  -0.13085  -0.12189  -0.10465
 Alpha virt. eigenvalues --   -0.06415  -0.05094  -0.04747  -0.03005  -0.02623
 Alpha virt. eigenvalues --   -0.02474  -0.02003  -0.01226  -0.00867  -0.00437
 Alpha virt. eigenvalues --   -0.00043   0.00281   0.00723   0.00740   0.00856

  Beta  occ. eigenvalues --  -38.44712 -38.44663 -38.43813 -38.43602 -38.43552
  Beta  occ. eigenvalues --  -38.43120 -38.42921  -2.20492  -2.20463  -2.19614
  Beta  occ. eigenvalues --   -2.19460  -2.19292  -2.18982  -2.18893  -1.14150
  Beta  occ. eigenvalues --   -1.14148  -1.14138  -1.14135  -1.14117  -1.14100
  Beta  occ. eigenvalues --   -1.13330  -1.13256  -1.13236  -1.13162  -1.13103
  Beta  occ. eigenvalues --   -1.13098  -1.13015  -1.12978  -1.12972  -1.12678
  Beta  occ. eigenvalues --   -1.12635  -1.12615  -1.12592  -1.12561  -1.12522
  Beta  occ. eigenvalues --   -0.17513  -0.12919  -0.12006
  Beta virt. eigenvalues --   -0.06443  -0.06364  -0.05053  -0.04702  -0.02341
  Beta virt. eigenvalues --   -0.01943  -0.01883  -0.01388  -0.01130  -0.00876
  Beta virt. eigenvalues --   -0.00467   0.00161   0.00344   0.00740   0.00824

 Mulliken charges and spin densities:
               1          2
     1  Na   0.264944   0.100274
     2  Na   0.088232   0.017367
     3  Na   0.392927   0.066544
     4  Na  -0.654253   0.751252
     5  Na   0.064144  -0.008727
     6  Na   0.212726   0.031030
     7  Na  -0.368719   0.042260
 Sum of Mulliken charges =  -0.00000   1.00000

 Dipole moment (field-independent basis, Debye):
    X=             -0.0656    Y=              0.3657    Z=              0.1881  Tot=              0.4164
 Quadrupole moment (field-independent basis, Debye-Ang):
   XX=            -52.6196   YY=            -62.6531   ZZ=            -76.8239
   XY=             -1.2988   XZ=             -0.4303   YZ=              1.9968

 Normal termination of Gaussian 16 at Thu Dec  7 08:12:16 2023.
