 Gaussian 16, Revision B.01,
 Gaussian 16:  ES64L-G16RevB.01 20-Dec-2017

 -------------------------
 #P B3LYP/6-311+g(d) force
 -------------------------

 -----
 DPGEN
 -----
 Symbolic Z-matrix:
 Charge =  0 Multiplicity = 2

                         Standard orientation:
 ---------------------------------------------------------------------
 Center     Atomic      Atomic             Coordinates (Angstroms)
 Number     Number       Type             X           Y           Z
 ---------------------------------------------------------------------
      1         11           0        1.693859    1.594845   -0.020757
      2         11           0        0.498275   -0.106967   -1.732357
      3         11           0        2.641165   -1.117946   -0.019557
      4         11           0        0.546275   -0.090566    1.738743
      5         11           0       -1.151441    1.616317    0.017943
      6         11           0       -0.847710   -1.655580    0.029543
      7         11           0       -3.380423   -0.240104   -0.013557
 ---------------------------------------------------------------------

 SCF Done:  E(UB3LYP) =  -1136.06888367     A.U. after   23 cycles

 The electronic state is 2-A.
 Alpha  occ. eigenvalues --  -38.45530 -38.44566 -38.44559 -38.44246 -38.43624
 Alpha  occ. eigenvalues --  -38.43422 -38.42764  -2.21437  -2.20829  -2.20816
 Alpha  occ. eigenvalues --   -2.20305  -2.19857  -2.19586  -2.18940  -1.15153
 Alpha  occ. eigenvalues --   -1.15121  -1.15050  -1.14733  -1.14617  -1.14610
 Alpha  occ. eigenvalues --   -1.14540  -1.14452  -1.14413  -1.14021  -1.13930
 Alpha  occ. eigenvalues --   -1.13876  -1.13526  -1.13452  -1.13409  -1.13264
 Alpha  occ. eigenvalues --   -1.13240  -1.13110  -1.12661  -1.12568  -1.12534
 Alpha  occ. eigenvalues --   -0.21468  -0.14708  -0.11999  -0.11844
 Alpha virt. eigenvalues --   -0.06749  -0.04253  -0.03987  -0.03397  -0.02454
 Alpha virt. eigenvalues --   -0.02338  -0.02208  -0.00529  -0.00119   0.00171
 Alpha virt. eigenvalues --    0.00449   0.00609   0.00809   0.00986   0.01042

  Beta  occ. eigenvalues --  -38.45538 -38.44470 -38.44462 -38.44231 -38.43602
  Beta  occ. eigenvalues --  -38.43402 -38.42749  -2.21454  -2.20657  -2.20642
  Beta  occ. eigenvalues --   -2.20284  -2.19827  -2.19557  -2.18920  -1.15163
  Beta  occ. eigenvalues --   -1.15137  -1.15047  -1.14645  -1.14495  -1.14481
  Beta  occ. eigenvalues --   -1.14430  -1.14337  -1.14286  -1.13998  -1.13863
  Beta  occ. eigenvalues --   -1.13857  -1.13507  -1.13397  -1.13352  -1.13248
  Beta  occ. eigenvalues --   -1.13150  -1.13100  -1.12655  -1.12529  -1.12492
  Beta  occ. eigenvalues --   -0.20650  -0.14410  -0.11487
  Beta virt. eigenvalues --   -0.07774  -0.06664  -0.04274  -0.03170  -0.03069
  Beta virt. eigenvalues --   -0.02175  -0.01586  -0.01435  -0.00503   0.00071
  Beta virt. eigenvalues --    0.00208   0.00465   0.00593   0.01008   0.01048

 Mulliken charges and spin densities:
               1          2
     1  Na   0.314780   0.006402
     2  Na  -0.135848   0.445621
     3  Na   0.443058   0.030227
     4  Na  -0.099909   0.436849
     5  Na  -0.241378   0.070689
     6  Na   0.058904   0.172592
     7  Na  -0.339606  -0.162381
 Sum of Mulliken charges =  -0.00000   1.00000

 Dipole moment (field-independent basis, Debye):
    X=             -0.7017    Y=             -0.2253    Z=             -0.0068  Tot=              0.7370
 Quadrupole moment (field-independent basis, Debye-Ang):
   XX=            -47.7910   YY=            -76.7884   ZZ=            -69.9058
   XY=             -0.8529   XZ=              0.0146   YZ=             -0.0004

 Normal termination of Gaussian 16 at Fri Dec  8 17:45:39 2023.
