 Gaussian 16, Revision B.01,
 Gaussian 16:  ES64L-G16RevB.01 20-Dec-2017

 -------------------------
 #P B3LYP/6-311+g(d) force
 -------------------------

 -----
 DPGEN
 -----
 Symbolic Z-matrix:
 Charge =  0 Multiplicity = 2

                         Standard orientation:
 ---------------------------------------------------------------------
 Center     Atomic      Atomic             Coordinates (Angstroms)
 Number     Number       Type             X           Y           Z
 ---------------------------------------------------------------------
      1         11           0        2.128692    1.795833   -0.180644
      2         11           0       -0.578935    0.516841    1.414807
      3         11           0       -1.890220   -2.405384    0.199554
      4         11           0        2.202349   -1.211690    0.874768
      5         11           0        4.725989   -0.763414   -1.159288
      6         11           0       -4.828203   -0.601221   -1.013791
      7         11           0       -1.759672    2.669035   -0.135405
 ---------------------------------------------------------------------

 SCF Done:  E(UB3LYP) =  -1136.11612844     A.U. after   20 cycles

 The electronic state is 2-A.
 Alpha  occ. eigenvalues --  -38.44743 -38.44426 -38.44338 -38.44116 -38.44109
 Alpha  occ. eigenvalues --  -38.43741 -38.43444  -2.20581  -2.20186  -2.20151
 Alpha  occ. eigenvalues --   -2.20013  -2.19940  -2.19516  -2.19420  -1.14320
 Alpha  occ. eigenvalues --   -1.14278  -1.14146  -1.13848  -1.13832  -1.13823
 Alpha  occ. eigenvalues --   -1.13804  -1.13800  -1.13780  -1.13724  -1.13709
 Alpha  occ. eigenvalues --   -1.13679  -1.13608  -1.13587  -1.13526  -1.13216
 Alpha  occ. eigenvalues --   -1.13202  -1.13135  -1.13106  -1.13078  -1.13003
 Alpha  occ. eigenvalues --   -0.17455  -0.13962  -0.11703  -0.11178
 Alpha virt. eigenvalues --   -0.06308  -0.05604  -0.04561  -0.03600  -0.02789
 Alpha virt. eigenvalues --   -0.02517  -0.02102  -0.01194  -0.00661  -0.00578
 Alpha virt. eigenvalues --   -0.00227  -0.00058   0.00191   0.00281   0.00606

  Beta  occ. eigenvalues --  -38.44740 -38.44366 -38.44299 -38.44089 -38.44086
  Beta  occ. eigenvalues --  -38.43740 -38.43409  -2.20575  -2.20076  -2.20071
  Beta  occ. eigenvalues --   -2.19968  -2.19897  -2.19518  -2.19363  -1.14310
  Beta  occ. eigenvalues --   -1.14275  -1.14138  -1.13775  -1.13769  -1.13753
  Beta  occ. eigenvalues --   -1.13751  -1.13728  -1.13727  -1.13695  -1.13683
  Beta  occ. eigenvalues --   -1.13654  -1.13558  -1.13534  -1.13492  -1.13216
  Beta  occ. eigenvalues --   -1.13207  -1.13110  -1.13047  -1.13045  -1.12952
  Beta  occ. eigenvalues --   -0.16829  -0.13507  -0.11445
  Beta virt. eigenvalues --   -0.07726  -0.05964  -0.05063  -0.04247  -0.03474
  Beta virt. eigenvalues --   -0.02453  -0.02066  -0.01728  -0.01106  -0.00521
  Beta virt. eigenvalues --   -0.00263  -0.00100   0.00108   0.00351   0.00395

 Mulliken charges and spin densities:
               1          2
     1  Na  -0.229772   0.146491
     2  Na   0.150122  -0.164992
     3  Na  -0.030509   0.103550
     4  Na  -0.310778   0.077617
     5  Na   0.414323   0.222206
     6  Na  -0.028322   0.342798
     7  Na   0.034936   0.272331
 Sum of Mulliken charges =  -0.00000   1.00000

 Dipole moment (field-independent basis, Debye):
    X=              1.0943    Y=              0.4565    Z=             -0.6435  Tot=              1.3491
 Quadrupole moment (field-independent basis, Debye-Ang):
   XX=            -58.4496   YY=            -68.9218   ZZ=            -69.0745
   XY=             -4.1205   XZ=             -0.9911   YZ=             -1.7135

 Normal termination of Gaussian 16 at Wed Nov 29 00:48:07 2023.
