 Gaussian 16, Revision B.01,
 Gaussian 16:  ES64L-G16RevB.01 20-Dec-2017

 -------------------------
 #P B3LYP/6-311+g(d) force
 -------------------------

 -----
 DPGEN
 -----
 Symbolic Z-matrix:
 Charge =  0 Multiplicity = 2

                         Standard orientation:
 ---------------------------------------------------------------------
 Center     Atomic      Atomic             Coordinates (Angstroms)
 Number     Number       Type             X           Y           Z
 ---------------------------------------------------------------------
      1         11           0        1.072096    2.038436   -0.906936
      2         11           0       -0.107916   -0.238227    1.715421
      3         11           0        2.549384   -1.264085   -1.107412
      4         11           0       -3.700393   -1.393455    0.372371
      5         11           0       -0.806567   -0.596778   -1.688250
      6         11           0        3.754169   -0.093888    1.297787
      7         11           0       -2.760772    1.547998    0.317020
 ---------------------------------------------------------------------

 SCF Done:  E(UB3LYP) =  -1136.11773734     A.U. after   32 cycles

 The electronic state is 2-A.
 Alpha  occ. eigenvalues --  -38.45377 -38.44883 -38.44272 -38.43972 -38.43619
 Alpha  occ. eigenvalues --  -38.43063 -38.43015  -2.21203  -2.20761  -2.20175
 Alpha  occ. eigenvalues --   -2.19814  -2.19458  -2.18946  -2.18921  -1.14914
 Alpha  occ. eigenvalues --   -1.14868  -1.14797  -1.14450  -1.14432  -1.14370
 Alpha  occ. eigenvalues --   -1.13898  -1.13840  -1.13786  -1.13494  -1.13464
 Alpha  occ. eigenvalues --   -1.13444  -1.13145  -1.13105  -1.13084  -1.12658
 Alpha  occ. eigenvalues --   -1.12619  -1.12590  -1.12584  -1.12561  -1.12516
 Alpha  occ. eigenvalues --   -0.18515  -0.14499  -0.11186  -0.10737
 Alpha virt. eigenvalues --   -0.07053  -0.05534  -0.04767  -0.03053  -0.02880
 Alpha virt. eigenvalues --   -0.02492  -0.02103  -0.01224  -0.01032  -0.00319
 Alpha virt. eigenvalues --    0.00072   0.00203   0.00316   0.00482   0.00666

  Beta  occ. eigenvalues --  -38.45330 -38.44861 -38.44241 -38.43961 -38.43630
  Beta  occ. eigenvalues --  -38.43044 -38.42971  -2.21119  -2.20723  -2.20116
  Beta  occ. eigenvalues --   -2.19795  -2.19479  -2.18888  -2.18867  -1.14843
  Beta  occ. eigenvalues --   -1.14796  -1.14738  -1.14413  -1.14400  -1.14348
  Beta  occ. eigenvalues --   -1.13854  -1.13797  -1.13752  -1.13485  -1.13442
  Beta  occ. eigenvalues --   -1.13431  -1.13158  -1.13119  -1.13092  -1.12616
  Beta  occ. eigenvalues --   -1.12578  -1.12552  -1.12530  -1.12516  -1.12468
  Beta  occ. eigenvalues --   -0.17801  -0.14419  -0.10548
  Beta virt. eigenvalues --   -0.07376  -0.06867  -0.04931  -0.04513  -0.02827
  Beta virt. eigenvalues --   -0.02676  -0.01976  -0.01451  -0.00908  -0.00708
  Beta virt. eigenvalues --   -0.00243   0.00077   0.00323   0.00330   0.00615

 Mulliken charges and spin densities:
               1          2
     1  Na  -0.212963   0.224571
     2  Na  -0.686705   0.439907
     3  Na   0.016366  -0.083560
     4  Na   0.460951  -0.055763
     5  Na  -0.353689   0.413446
     6  Na   0.223399   0.019425
     7  Na   0.552641   0.041973
 Sum of Mulliken charges =  -0.00000   1.00000

 Dipole moment (field-independent basis, Debye):
    X=             -0.7048    Y=              0.6621    Z=             -0.0926  Tot=              0.9714
 Quadrupole moment (field-independent basis, Debye-Ang):
   XX=            -58.6962   YY=            -67.3610   ZZ=            -74.1733
   XY=              1.0546   XZ=             -1.2804   YZ=              3.0233

 Normal termination of Gaussian 16 at Tue Dec  5 10:25:43 2023.
