 Gaussian 16, Revision B.01,
 Gaussian 16:  ES64L-G16RevB.01 20-Dec-2017

 -------------------------
 #P B3LYP/6-311+g(d) force
 -------------------------

 -----
 DPGEN
 -----
 Symbolic Z-matrix:
 Charge =  0 Multiplicity = 2

                         Standard orientation:
 ---------------------------------------------------------------------
 Center     Atomic      Atomic             Coordinates (Angstroms)
 Number     Number       Type             X           Y           Z
 ---------------------------------------------------------------------
      1         11           0        2.378505   -0.303034    0.079204
      2         11           0        0.499276   -2.202236    0.105268
      3         11           0        1.008361    2.137149    0.009169
      4         11           0       -2.077307   -1.285057   -0.079575
      5         11           0       -1.868303    1.592737   -0.114273
      6         11           0       -0.143823    0.117406    1.812173
      7         11           0        0.203291   -0.056965   -1.811967
 ---------------------------------------------------------------------

 SCF Done:  E(UB3LYP) =  -1136.08496133     A.U. after   19 cycles

 The electronic state is 2-A.
 Alpha  occ. eigenvalues --  -38.44088 -38.44042 -38.43822 -38.43730 -38.43588
 Alpha  occ. eigenvalues --  -38.43449 -38.43449  -2.20311  -2.20261  -2.20003
 Alpha  occ. eigenvalues --   -2.19905  -2.19692  -2.19579  -2.19525  -1.14231
 Alpha  occ. eigenvalues --   -1.14037  -1.14029  -1.14009  -1.13963  -1.13933
 Alpha  occ. eigenvalues --   -1.13920  -1.13690  -1.13676  -1.13552  -1.13470
 Alpha  occ. eigenvalues --   -1.13463  -1.13370  -1.13342  -1.13292  -1.13214
 Alpha  occ. eigenvalues --   -1.13191  -1.13169  -1.13148  -1.13108  -1.13016
 Alpha  occ. eigenvalues --   -0.21709  -0.13580  -0.13315  -0.12385
 Alpha virt. eigenvalues --   -0.04908  -0.04381  -0.04220  -0.03587  -0.03456
 Alpha virt. eigenvalues --   -0.02970  -0.00753  -0.00603  -0.00106   0.00364
 Alpha virt. eigenvalues --    0.00829   0.00902   0.01109   0.01168   0.01210

  Beta  occ. eigenvalues --  -38.43992 -38.43946 -38.43807 -38.43714 -38.43577
  Beta  occ. eigenvalues --  -38.43438 -38.43436  -2.20141  -2.20090  -2.19982
  Beta  occ. eigenvalues --   -2.19884  -2.19678  -2.19562  -2.19512  -1.14172
  Beta  occ. eigenvalues --   -1.13993  -1.13935  -1.13908  -1.13849  -1.13828
  Beta  occ. eigenvalues --   -1.13807  -1.13658  -1.13628  -1.13472  -1.13450
  Beta  occ. eigenvalues --   -1.13388  -1.13359  -1.13331  -1.13230  -1.13209
  Beta  occ. eigenvalues --   -1.13162  -1.13123  -1.13108  -1.13086  -1.13013
  Beta  occ. eigenvalues --   -0.20857  -0.13203  -0.12936
  Beta virt. eigenvalues --   -0.08175  -0.04948  -0.04365  -0.04208  -0.02628
  Beta virt. eigenvalues --   -0.02496  -0.01863  -0.00694  -0.00554   0.00042
  Beta virt. eigenvalues --    0.00383   0.00787   0.00860   0.01165   0.01168

 Mulliken charges and spin densities:
               1          2
     1  Na   0.186224   0.032114
     2  Na   0.210604   0.082845
     3  Na   0.179297   0.033405
     4  Na   0.062402   0.008903
     5  Na   0.090465   0.015392
     6  Na  -0.358675   0.404285
     7  Na  -0.370316   0.423055
 Sum of Mulliken charges =  -0.00000   1.00000

 Dipole moment (field-independent basis, Debye):
    X=             -0.1833    Y=              0.1790    Z=             -0.0159  Tot=              0.2567
 Quadrupole moment (field-independent basis, Debye-Ang):
   XX=            -64.0891   YY=            -66.6637   ZZ=            -67.9376
   XY=              0.0637   XZ=              0.6541   YZ=             -0.3069

 Normal termination of Gaussian 16 at Fri Dec  8 03:55:29 2023.
