 Gaussian 16, Revision B.01,
 Gaussian 16:  ES64L-G16RevB.01 20-Dec-2017

 -------------------------
 #P B3LYP/6-311+g(d) force
 -------------------------

 -----
 DPGEN
 -----
 Symbolic Z-matrix:
 Charge =  0 Multiplicity = 2

                         Standard orientation:
 ---------------------------------------------------------------------
 Center     Atomic      Atomic             Coordinates (Angstroms)
 Number     Number       Type             X           Y           Z
 ---------------------------------------------------------------------
      1         11           0       -0.539889   -0.281243   -0.803863
      2         11           0        1.834434   -0.560399    2.125759
      3         11           0        2.784585    0.718771   -1.083402
      4         11           0       -2.800800    1.730169    0.126036
      5         11           0        1.478524   -2.588292   -0.532535
      6         11           0       -3.321364   -1.799756    0.069794
      7         11           0        0.564510    2.780750    0.098212
 ---------------------------------------------------------------------

 SCF Done:  E(UB3LYP) =  -1136.12682805     A.U. after   21 cycles

 The electronic state is 2-A.
 Alpha  occ. eigenvalues --  -38.44752 -38.44333 -38.44197 -38.43819 -38.43440
 Alpha  occ. eigenvalues --  -38.43046 -38.42909  -2.20535  -2.20166  -2.20075
 Alpha  occ. eigenvalues --   -2.19685  -2.19305  -2.18950  -2.18903  -1.14207
 Alpha  occ. eigenvalues --   -1.14200  -1.14172  -1.13872  -1.13833  -1.13771
 Alpha  occ. eigenvalues --   -1.13749  -1.13733  -1.13702  -1.13408  -1.13339
 Alpha  occ. eigenvalues --   -1.13304  -1.12954  -1.12927  -1.12922  -1.12654
 Alpha  occ. eigenvalues --   -1.12632  -1.12602  -1.12563  -1.12550  -1.12541
 Alpha  occ. eigenvalues --   -0.18228  -0.13763  -0.12189  -0.10209
 Alpha virt. eigenvalues --   -0.06450  -0.05558  -0.04491  -0.03240  -0.02442
 Alpha virt. eigenvalues --   -0.02170  -0.01908  -0.01312  -0.00858  -0.00454
 Alpha virt. eigenvalues --   -0.00118   0.00282   0.00609   0.00702   0.00766

  Beta  occ. eigenvalues --  -38.44758 -38.44332 -38.44160 -38.43806 -38.43337
  Beta  occ. eigenvalues --  -38.43042 -38.42884  -2.20547  -2.20165  -2.20011
  Beta  occ. eigenvalues --   -2.19665  -2.19113  -2.18908  -2.18899  -1.14212
  Beta  occ. eigenvalues --   -1.14207  -1.14181  -1.13871  -1.13828  -1.13775
  Beta  occ. eigenvalues --   -1.13707  -1.13663  -1.13660  -1.13396  -1.13300
  Beta  occ. eigenvalues --   -1.13285  -1.12822  -1.12801  -1.12788  -1.12630
  Beta  occ. eigenvalues --   -1.12603  -1.12563  -1.12548  -1.12535  -1.12526
  Beta  occ. eigenvalues --   -0.17623  -0.13544  -0.12000
  Beta virt. eigenvalues --   -0.06419  -0.06198  -0.05391  -0.04458  -0.02709
  Beta virt. eigenvalues --   -0.01971  -0.01786  -0.01272  -0.01076  -0.00817
  Beta virt. eigenvalues --   -0.00415   0.00181   0.00373   0.00689   0.00789

 Mulliken charges and spin densities:
               1          2
     1  Na  -1.391567   0.328491
     2  Na  -0.820698   0.548177
     3  Na   0.953197   0.168432
     4  Na   0.214969  -0.044541
     5  Na   0.364889   0.057452
     6  Na   0.394046  -0.092041
     7  Na   0.285164   0.034031
 Sum of Mulliken charges =  -0.00000   1.00000

 Dipole moment (field-independent basis, Debye):
    X=             -0.8956    Y=             -0.2733    Z=             -0.0603  Tot=              0.9383
 Quadrupole moment (field-independent basis, Debye-Ang):
   XX=            -53.0466   YY=            -62.6317   ZZ=            -76.4737
   XY=              1.2796   XZ=             -4.1744   YZ=              1.0184

 Normal termination of Gaussian 16 at Wed Nov 29 16:37:36 2023.
