 Gaussian 16, Revision B.01,
 Gaussian 16:  ES64L-G16RevB.01 20-Dec-2017

 -------------------------
 #P B3LYP/6-311+g(d) force
 -------------------------

 -----
 DPGEN
 -----
 Symbolic Z-matrix:
 Charge =  0 Multiplicity = 2

                         Standard orientation:
 ---------------------------------------------------------------------
 Center     Atomic      Atomic             Coordinates (Angstroms)
 Number     Number       Type             X           Y           Z
 ---------------------------------------------------------------------
      1         11           0        1.003371   -2.785300    0.100586
      2         11           0        0.731717    2.854063    0.352171
      3         11           0       -2.433406    1.566772   -0.468713
      4         11           0       -0.509056   -0.261690    2.212924
      5         11           0       -2.320876   -1.600336   -0.437877
      6         11           0        3.401308    0.196303   -0.355989
      7         11           0        0.126941    0.030188   -1.403102
 ---------------------------------------------------------------------

 SCF Done:  E(UB3LYP) =  -1136.13525943     A.U. after   19 cycles

 The electronic state is 2-A.
 Alpha  occ. eigenvalues --  -38.44144 -38.43841 -38.43545 -38.43528 -38.43467
 Alpha  occ. eigenvalues --  -38.43461 -38.42979  -2.19925  -2.19716  -2.19393
 Alpha  occ. eigenvalues --   -2.19382  -2.19376  -2.19354  -2.19033  -1.13608
 Alpha  occ. eigenvalues --   -1.13577  -1.13562  -1.13375  -1.13353  -1.13326
 Alpha  occ. eigenvalues --   -1.13172  -1.13099  -1.13075  -1.13064  -1.13053
 Alpha  occ. eigenvalues --   -1.13039  -1.13027  -1.13023  -1.13008  -1.12999
 Alpha  occ. eigenvalues --   -1.12976  -1.12947  -1.12710  -1.12660  -1.12655
 Alpha  occ. eigenvalues --   -0.18776  -0.12866  -0.12527  -0.10961
 Alpha virt. eigenvalues --   -0.05646  -0.04897  -0.04779  -0.03005  -0.02976
 Alpha virt. eigenvalues --   -0.02730  -0.01492  -0.01089  -0.00384  -0.00205
 Alpha virt. eigenvalues --   -0.00030   0.00333   0.00810   0.00880   0.00907

  Beta  occ. eigenvalues --  -38.44141 -38.43735 -38.43542 -38.43522 -38.43454
  Beta  occ. eigenvalues --  -38.43446 -38.42931  -2.19921  -2.19521  -2.19379
  Beta  occ. eigenvalues --   -2.19370  -2.19357  -2.19345  -2.18948  -1.13596
  Beta  occ. eigenvalues --   -1.13575  -1.13561  -1.13249  -1.13221  -1.13185
  Beta  occ. eigenvalues --   -1.13149  -1.13088  -1.13066  -1.13050  -1.13032
  Beta  occ. eigenvalues --   -1.13024  -1.13003  -1.13000  -1.12989  -1.12980
  Beta  occ. eigenvalues --   -1.12966  -1.12930  -1.12651  -1.12605  -1.12582
  Beta  occ. eigenvalues --   -0.18047  -0.12606  -0.12317
  Beta virt. eigenvalues --   -0.06974  -0.05575  -0.04896  -0.04698  -0.02314
  Beta virt. eigenvalues --   -0.02222  -0.01643  -0.01372  -0.01029  -0.00375
  Beta virt. eigenvalues --   -0.00249   0.00136   0.00378   0.00848   0.00899

 Mulliken charges and spin densities:
               1          2
     1  Na   0.088689   0.020841
     2  Na  -0.000338   0.082068
     3  Na   0.338014   0.083879
     4  Na  -0.600003   0.708722
     5  Na   0.462818   0.077379
     6  Na   0.014858  -0.016382
     7  Na  -0.304039   0.043493
 Sum of Mulliken charges =  -0.00000   1.00000

 Dipole moment (field-independent basis, Debye):
    X=              0.2740    Y=             -0.0360    Z=              0.3289  Tot=              0.4296
 Quadrupole moment (field-independent basis, Debye-Ang):
   XX=            -57.6853   YY=            -62.2219   ZZ=            -73.4025
   XY=             -0.1788   XZ=              1.0464   YZ=              0.6029

 Normal termination of Gaussian 16 at Thu Dec  7 10:41:37 2023.
