 Gaussian 16, Revision B.01,
 Gaussian 16:  ES64L-G16RevB.01 20-Dec-2017

 -------------------------
 #P B3LYP/6-311+g(d) force
 -------------------------

 -----
 DPGEN
 -----
 Symbolic Z-matrix:
 Charge =  0 Multiplicity = 2

                         Standard orientation:
 ---------------------------------------------------------------------
 Center     Atomic      Atomic             Coordinates (Angstroms)
 Number     Number       Type             X           Y           Z
 ---------------------------------------------------------------------
      1         11           0        2.789652    1.583836    0.438949
      2         11           0       -2.183000   -2.564982    0.219979
      3         11           0       -0.455201    3.230003   -0.234733
      4         11           0        0.402564   -0.625248   -1.812987
      5         11           0       -0.208117   -0.377624    1.843408
      6         11           0       -3.078404    0.855224   -0.258923
      7         11           0        2.732505   -2.101210   -0.195694
 ---------------------------------------------------------------------

 SCF Done:  E(UB3LYP) =  -1136.13164507     A.U. after   19 cycles

 The electronic state is 2-A.
 Alpha  occ. eigenvalues --  -38.44285 -38.44238 -38.44203 -38.44059 -38.43749
 Alpha  occ. eigenvalues --  -38.43739 -38.43334  -2.20069  -2.20044  -2.20005
 Alpha  occ. eigenvalues --   -2.19868  -2.19612  -2.19604  -2.19115  -1.13747
 Alpha  occ. eigenvalues --   -1.13743  -1.13730  -1.13706  -1.13695  -1.13685
 Alpha  occ. eigenvalues --   -1.13672  -1.13670  -1.13640  -1.13548  -1.13522
 Alpha  occ. eigenvalues --   -1.13507  -1.13299  -1.13266  -1.13249  -1.13238
 Alpha  occ. eigenvalues --   -1.13225  -1.13222  -1.12791  -1.12777  -1.12763
 Alpha  occ. eigenvalues --   -0.17771  -0.13114  -0.12212  -0.10374
 Alpha virt. eigenvalues --   -0.05991  -0.05676  -0.04917  -0.03260  -0.02735
 Alpha virt. eigenvalues --   -0.02355  -0.01756  -0.01499  -0.00863  -0.00627
 Alpha virt. eigenvalues --   -0.00045   0.00313   0.00698   0.00711   0.00779

  Beta  occ. eigenvalues --  -38.44271 -38.44231 -38.44194 -38.44052 -38.43675
  Beta  occ. eigenvalues --  -38.43670 -38.43334  -2.20045  -2.20036  -2.19991
  Beta  occ. eigenvalues --   -2.19859  -2.19479  -2.19474  -2.19117  -1.13726
  Beta  occ. eigenvalues --   -1.13716  -1.13713  -1.13696  -1.13682  -1.13668
  Beta  occ. eigenvalues --   -1.13663  -1.13659  -1.13627  -1.13530  -1.13507
  Beta  occ. eigenvalues --   -1.13503  -1.13208  -1.13176  -1.13157  -1.13148
  Beta  occ. eigenvalues --   -1.13134  -1.13120  -1.12790  -1.12779  -1.12756
  Beta  occ. eigenvalues --   -0.17117  -0.12878  -0.11963
  Beta virt. eigenvalues --   -0.06706  -0.05867  -0.05536  -0.04828  -0.02557
  Beta virt. eigenvalues --   -0.02113  -0.01637  -0.01502  -0.01304  -0.00895
  Beta virt. eigenvalues --   -0.00626   0.00116   0.00371   0.00719   0.00806

 Mulliken charges and spin densities:
               1          2
     1  Na  -0.081909   0.063484
     2  Na   0.219311  -0.060265
     3  Na  -0.229829  -0.035066
     4  Na  -0.010014   0.574894
     5  Na   0.045697   0.513390
     6  Na  -0.082075   0.035102
     7  Na   0.138818  -0.091539
 Sum of Mulliken charges =  -0.00000   1.00000

 Dipole moment (field-independent basis, Debye):
    X=              0.1377    Y=             -0.5849    Z=              0.0615  Tot=              0.6041
 Quadrupole moment (field-independent basis, Debye-Ang):
   XX=            -55.6406   YY=            -62.4682   ZZ=            -75.9756
   XY=              0.7439   XZ=              1.8178   YZ=             -0.5687

 Normal termination of Gaussian 16 at Thu Dec  7 07:27:00 2023.
