 Gaussian 16, Revision B.01,
 Gaussian 16:  ES64L-G16RevB.01 20-Dec-2017

 -------------------------
 #P B3LYP/6-311+g(d) force
 -------------------------

 -----
 DPGEN
 -----
 Symbolic Z-matrix:
 Charge =  0 Multiplicity = 2

                         Standard orientation:
 ---------------------------------------------------------------------
 Center     Atomic      Atomic             Coordinates (Angstroms)
 Number     Number       Type             X           Y           Z
 ---------------------------------------------------------------------
      1         11           0       -4.597467   -0.557590   -0.277887
      2         11           0       -3.278881    2.296997    0.669316
      3         11           0       -2.088210   -3.741860   -0.115598
      4         11           0        2.031266   -3.067945   -0.106901
      5         11           0        0.314824    3.997421   -0.309283
      6         11           0        4.397016   -1.130464    0.457664
      7         11           0        3.221452    2.203441   -0.317311
 ---------------------------------------------------------------------

 SCF Done:  E(UB3LYP) =  -1136.10378699     A.U. after   20 cycles

 The electronic state is 2-A.
 Alpha  occ. eigenvalues --  -38.45303 -38.45028 -38.44835 -38.44813 -38.44697
 Alpha  occ. eigenvalues --  -38.44258 -38.44131  -2.21066  -2.20791  -2.20612
 Alpha  occ. eigenvalues --   -2.20573  -2.20460  -2.20021  -2.19960  -1.14748
 Alpha  occ. eigenvalues --   -1.14738  -1.14722  -1.14473  -1.14461  -1.14422
 Alpha  occ. eigenvalues --   -1.14306  -1.14276  -1.14258  -1.14247  -1.14225
 Alpha  occ. eigenvalues --   -1.14182  -1.14111  -1.14097  -1.14074  -1.13691
 Alpha  occ. eigenvalues --   -1.13682  -1.13657  -1.13620  -1.13604  -1.13594
 Alpha  occ. eigenvalues --   -0.15269  -0.14015  -0.13259  -0.11154
 Alpha virt. eigenvalues --   -0.07782  -0.04967  -0.04682  -0.03492  -0.03466
 Alpha virt. eigenvalues --   -0.02586  -0.02207  -0.02032  -0.01602  -0.00836
 Alpha virt. eigenvalues --   -0.00632  -0.00390  -0.00103   0.00255   0.00364

  Beta  occ. eigenvalues --  -38.45301 -38.45011 -38.44811 -38.44790 -38.44599
  Beta  occ. eigenvalues --  -38.44237 -38.44094  -2.21069  -2.20763  -2.20574
  Beta  occ. eigenvalues --   -2.20531  -2.20279  -2.19985  -2.19892  -1.14753
  Beta  occ. eigenvalues --   -1.14744  -1.14690  -1.14456  -1.14445  -1.14380
  Beta  occ. eigenvalues --   -1.14271  -1.14255  -1.14221  -1.14215  -1.14203
  Beta  occ. eigenvalues --   -1.14137  -1.13989  -1.13975  -1.13952  -1.13668
  Beta  occ. eigenvalues --   -1.13660  -1.13622  -1.13575  -1.13557  -1.13550
  Beta  occ. eigenvalues --   -0.14793  -0.13410  -0.12353
  Beta virt. eigenvalues --   -0.07986  -0.07971  -0.04471  -0.04219  -0.03307
  Beta virt. eigenvalues --   -0.03197  -0.02378  -0.02056  -0.01825  -0.01375
  Beta virt. eigenvalues --   -0.00471  -0.00337  -0.00151   0.00156   0.00310

 Mulliken charges and spin densities:
               1          2
     1  Na  -0.045688  -0.028208
     2  Na  -0.228977   0.192937
     3  Na   0.029318   0.482680
     4  Na  -0.277726   0.050008
     5  Na   0.227075   0.037612
     6  Na   0.348599   0.163337
     7  Na  -0.052601   0.101633
 Sum of Mulliken charges =  -0.00000   1.00000

 Dipole moment (field-independent basis, Debye):
    X=              0.2036    Y=              0.0672    Z=              0.0462  Tot=              0.2193
 Quadrupole moment (field-independent basis, Debye-Ang):
   XX=            -58.8409   YY=            -67.4180   ZZ=            -73.9864
   XY=              0.2303   XZ=              1.2841   YZ=              1.2697

 Normal termination of Gaussian 16 at Sun Dec  3 18:23:14 2023.
