 Gaussian 16, Revision B.01,
 Gaussian 16:  ES64L-G16RevB.01 20-Dec-2017

 -------------------------
 #P B3LYP/6-311+g(d) force
 -------------------------

 -----
 DPGEN
 -----
 Symbolic Z-matrix:
 Charge =  0 Multiplicity = 2

                         Standard orientation:
 ---------------------------------------------------------------------
 Center     Atomic      Atomic             Coordinates (Angstroms)
 Number     Number       Type             X           Y           Z
 ---------------------------------------------------------------------
      1         11           0        2.090015    2.704415   -1.089067
      2         11           0        0.398553   -3.192010   -1.182847
      3         11           0        1.949658   -1.842044    1.646306
      4         11           0        4.189684    0.191248    0.324596
      5         11           0       -3.984026    0.511197    1.180313
      6         11           0       -1.435041    3.195414    0.033128
      7         11           0       -3.208844   -1.568220   -0.912430
 ---------------------------------------------------------------------

 SCF Done:  E(UB3LYP) =  -1136.10592348     A.U. after   22 cycles

 The electronic state is 2-A.
 Alpha  occ. eigenvalues --  -38.45188 -38.44993 -38.44975 -38.44316 -38.44246
 Alpha  occ. eigenvalues --  -38.43922 -38.43774  -2.20974  -2.20769  -2.20718
 Alpha  occ. eigenvalues --   -2.20065  -2.20055  -2.19752  -2.19563  -1.14673
 Alpha  occ. eigenvalues --   -1.14637  -1.14609  -1.14446  -1.14440  -1.14418
 Alpha  occ. eigenvalues --   -1.14400  -1.14382  -1.14329  -1.13752  -1.13739
 Alpha  occ. eigenvalues --   -1.13717  -1.13713  -1.13700  -1.13669  -1.13425
 Alpha  occ. eigenvalues --   -1.13394  -1.13372  -1.13218  -1.13204  -1.13191
 Alpha  occ. eigenvalues --   -0.15660  -0.13976  -0.12768  -0.10492
 Alpha virt. eigenvalues --   -0.07458  -0.04979  -0.04731  -0.03552  -0.03487
 Alpha virt. eigenvalues --   -0.02228  -0.01933  -0.01576  -0.01317  -0.00836
 Alpha virt. eigenvalues --   -0.00701  -0.00135  -0.00025   0.00345   0.00659

  Beta  occ. eigenvalues --  -38.45170 -38.44997 -38.44935 -38.44317 -38.44199
  Beta  occ. eigenvalues --  -38.43878 -38.43708  -2.20948  -2.20781  -2.20647
  Beta  occ. eigenvalues --   -2.20069  -2.19969  -2.19672  -2.19441  -1.14646
  Beta  occ. eigenvalues --   -1.14626  -1.14563  -1.14458  -1.14450  -1.14398
  Beta  occ. eigenvalues --   -1.14353  -1.14335  -1.14266  -1.13756  -1.13742
  Beta  occ. eigenvalues --   -1.13693  -1.13651  -1.13643  -1.13624  -1.13368
  Beta  occ. eigenvalues --   -1.13339  -1.13319  -1.13136  -1.13125  -1.13107
  Beta  occ. eigenvalues --   -0.15197  -0.13418  -0.12031
  Beta virt. eigenvalues --   -0.07609  -0.07305  -0.04598  -0.04260  -0.03323
  Beta virt. eigenvalues --   -0.03180  -0.02038  -0.01636  -0.01268  -0.01162
  Beta virt. eigenvalues --   -0.00702  -0.00455   0.00105   0.00160   0.00359

 Mulliken charges and spin densities:
               1          2
     1  Na  -0.034318  -0.018877
     2  Na   0.012027   0.318652
     3  Na  -0.117852   0.001521
     4  Na   0.197282   0.206460
     5  Na   0.071877   0.173268
     6  Na   0.017123   0.196436
     7  Na  -0.146139   0.122540
 Sum of Mulliken charges =  -0.00000   1.00000

 Dipole moment (field-independent basis, Debye):
    X=             -0.0717    Y=             -0.0293    Z=              0.2818  Tot=              0.2922
 Quadrupole moment (field-independent basis, Debye-Ang):
   XX=            -64.8805   YY=            -73.2553   ZZ=            -65.1133
   XY=             -0.8240   XZ=             -2.1275   YZ=              0.9820

 Normal termination of Gaussian 16 at Mon Dec  4 01:27:31 2023.
