 Gaussian 16, Revision B.01,
 Gaussian 16:  ES64L-G16RevB.01 20-Dec-2017

 -------------------------
 #P B3LYP/6-311+g(d) force
 -------------------------

 -----
 DPGEN
 -----
 Symbolic Z-matrix:
 Charge =  0 Multiplicity = 2

                         Standard orientation:
 ---------------------------------------------------------------------
 Center     Atomic      Atomic             Coordinates (Angstroms)
 Number     Number       Type             X           Y           Z
 ---------------------------------------------------------------------
      1         11           0       -4.089025    1.820359   -0.494968
      2         11           0       -2.769449   -1.706796   -1.054896
      3         11           0        3.860943   -0.147960   -0.431657
      4         11           0        1.055040   -2.625092   -0.749465
      5         11           0        2.864695    2.793285   -0.505790
      6         11           0       -1.052205    1.630058    1.234934
      7         11           0        0.130001   -1.763853    2.001842
 ---------------------------------------------------------------------

 SCF Done:  E(UB3LYP) =  -1136.11354337     A.U. after   21 cycles

 The electronic state is 2-A.
 Alpha  occ. eigenvalues --  -38.45169 -38.44479 -38.44247 -38.44193 -38.44143
 Alpha  occ. eigenvalues --  -38.44101 -38.44057  -2.20925  -2.20239  -2.20094
 Alpha  occ. eigenvalues --   -2.19970  -2.19948  -2.19892  -2.19883  -1.14612
 Alpha  occ. eigenvalues --   -1.14574  -1.14526  -1.13914  -1.13900  -1.13881
 Alpha  occ. eigenvalues --   -1.13823  -1.13738  -1.13729  -1.13724  -1.13637
 Alpha  occ. eigenvalues --   -1.13621  -1.13608  -1.13586  -1.13560  -1.13549
 Alpha  occ. eigenvalues --   -1.13540  -1.13532  -1.13526  -1.13507  -1.13501
 Alpha  occ. eigenvalues --   -0.16613  -0.13463  -0.12208  -0.10853
 Alpha virt. eigenvalues --   -0.06976  -0.05608  -0.04678  -0.03538  -0.03172
 Alpha virt. eigenvalues --   -0.02139  -0.01925  -0.01802  -0.01321  -0.00589
 Alpha virt. eigenvalues --   -0.00349   0.00012   0.00326   0.00499   0.00562

  Beta  occ. eigenvalues --  -38.45109 -38.44479 -38.44199 -38.44193 -38.44125
  Beta  occ. eigenvalues --  -38.44053 -38.44042  -2.20815  -2.20240  -2.19995
  Beta  occ. eigenvalues --   -2.19983  -2.19914  -2.19876  -2.19784  -1.14536
  Beta  occ. eigenvalues --   -1.14498  -1.14446  -1.13916  -1.13896  -1.13876
  Beta  occ. eigenvalues --   -1.13770  -1.13720  -1.13668  -1.13655  -1.13644
  Beta  occ. eigenvalues --   -1.13624  -1.13585  -1.13565  -1.13533  -1.13521
  Beta  occ. eigenvalues --   -1.13506  -1.13489  -1.13488  -1.13469  -1.13431
  Beta  occ. eigenvalues --   -0.15967  -0.13139  -0.12167
  Beta virt. eigenvalues --   -0.07243  -0.06728  -0.05057  -0.04442  -0.03178
  Beta virt. eigenvalues --   -0.02701  -0.01842  -0.01764  -0.01516  -0.01042
  Beta virt. eigenvalues --   -0.00574  -0.00091   0.00147   0.00423   0.00602

 Mulliken charges and spin densities:
               1          2
     1  Na   0.519218   0.033434
     2  Na  -0.181623   0.294505
     3  Na  -0.405106   0.114570
     4  Na   0.136551   0.173609
     5  Na   0.345766  -0.080138
     6  Na  -0.943459   0.294046
     7  Na   0.528654   0.169974
 Sum of Mulliken charges =  -0.00000   1.00000

 Dipole moment (field-independent basis, Debye):
    X=             -0.5052    Y=             -0.1735    Z=             -0.1433  Tot=              0.5531
 Quadrupole moment (field-independent basis, Debye-Ang):
   XX=            -64.3005   YY=            -63.5401   ZZ=            -71.5433
   XY=             -4.4155   XZ=              1.4955   YZ=             -0.8313

 Normal termination of Gaussian 16 at Sun Dec  3 11:52:34 2023.
