 Gaussian 16, Revision B.01,
 Gaussian 16:  ES64L-G16RevB.01 20-Dec-2017

 -------------------------
 #P B3LYP/6-311+g(d) force
 -------------------------

 -----
 DPGEN
 -----
 Symbolic Z-matrix:
 Charge =  0 Multiplicity = 2

                         Standard orientation:
 ---------------------------------------------------------------------
 Center     Atomic      Atomic             Coordinates (Angstroms)
 Number     Number       Type             X           Y           Z
 ---------------------------------------------------------------------
      1         11           0       -3.059121    1.224660    0.162527
      2         11           0        0.120533    3.137795   -0.135111
      3         11           0       -0.075279   -0.699953   -1.320303
      4         11           0        2.802652    1.263978   -0.515053
      5         11           0        0.144134   -0.186183    1.942513
      6         11           0        2.463520   -2.378623    0.258258
      7         11           0       -2.396440   -2.361674   -0.392831
 ---------------------------------------------------------------------

 SCF Done:  E(UB3LYP) =  -1136.13110155     A.U. after   20 cycles

 The electronic state is 2-A.
 Alpha  occ. eigenvalues --  -38.44492 -38.44232 -38.44067 -38.43814 -38.43622
 Alpha  occ. eigenvalues --  -38.43319 -38.43243  -2.20271  -2.20035  -2.19903
 Alpha  occ. eigenvalues --   -2.19654  -2.19495  -2.19211  -2.19132  -1.13953
 Alpha  occ. eigenvalues --   -1.13929  -1.13906  -1.13704  -1.13690  -1.13679
 Alpha  occ. eigenvalues --   -1.13637  -1.13541  -1.13517  -1.13332  -1.13320
 Alpha  occ. eigenvalues --   -1.13280  -1.13197  -1.13124  -1.13091  -1.12904
 Alpha  occ. eigenvalues --   -1.12857  -1.12821  -1.12804  -1.12797  -1.12776
 Alpha  occ. eigenvalues --   -0.18122  -0.13127  -0.12416  -0.10207
 Alpha virt. eigenvalues --   -0.06098  -0.05481  -0.04918  -0.03009  -0.02673
 Alpha virt. eigenvalues --   -0.02110  -0.01874  -0.01524  -0.00808  -0.00554
 Alpha virt. eigenvalues --   -0.00024   0.00285   0.00696   0.00720   0.00808

  Beta  occ. eigenvalues --  -38.44489 -38.44225 -38.44048 -38.43794 -38.43532
  Beta  occ. eigenvalues --  -38.43318 -38.43203  -2.20266  -2.20025  -2.19871
  Beta  occ. eigenvalues --   -2.19617  -2.19330  -2.19141  -2.19132  -1.13944
  Beta  occ. eigenvalues --   -1.13923  -1.13901  -1.13693  -1.13676  -1.13669
  Beta  occ. eigenvalues --   -1.13609  -1.13508  -1.13498  -1.13306  -1.13288
  Beta  occ. eigenvalues --   -1.13251  -1.13087  -1.13014  -1.12967  -1.12839
  Beta  occ. eigenvalues --   -1.12806  -1.12805  -1.12793  -1.12774  -1.12761
  Beta  occ. eigenvalues --   -0.17495  -0.12850  -0.12146
  Beta virt. eigenvalues --   -0.06562  -0.05931  -0.05357  -0.04837  -0.02369
  Beta virt. eigenvalues --   -0.02063  -0.01721  -0.01411  -0.01150  -0.00830
  Beta virt. eigenvalues --   -0.00541   0.00142   0.00353   0.00724   0.00792

 Mulliken charges and spin densities:
               1          2
     1  Na  -0.003820   0.009221
     2  Na  -0.210499  -0.003782
     3  Na  -0.158036   0.129677
     4  Na   0.182023   0.117901
     5  Na  -0.264801   0.620531
     6  Na   0.138445   0.055378
     7  Na   0.316687   0.071076
 Sum of Mulliken charges =  -0.00000   1.00000

 Dipole moment (field-independent basis, Debye):
    X=             -0.1740    Y=             -0.4485    Z=              0.2358  Tot=              0.5358
 Quadrupole moment (field-independent basis, Debye-Ang):
   XX=            -54.4422   YY=            -61.3249   ZZ=            -76.7572
   XY=             -2.5502   XZ=             -0.7423   YZ=             -0.8374

 Normal termination of Gaussian 16 at Tue Dec  5 20:28:24 2023.
