 Gaussian 16, Revision B.01,
 Gaussian 16:  ES64L-G16RevB.01 20-Dec-2017

 -------------------------
 #P B3LYP/6-311+g(d) force
 -------------------------

 -----
 DPGEN
 -----
 Symbolic Z-matrix:
 Charge =  0 Multiplicity = 2

                         Standard orientation:
 ---------------------------------------------------------------------
 Center     Atomic      Atomic             Coordinates (Angstroms)
 Number     Number       Type             X           Y           Z
 ---------------------------------------------------------------------
      1         11           0       -0.754971    0.556845    1.654013
      2         11           0        2.170833   -0.994935   -0.863784
      3         11           0        1.977840    1.077869    0.984820
      4         11           0       -0.340238   -0.538101   -1.675491
      5         11           0       -0.315378    2.224411   -0.822931
      6         11           0       -2.545109   -0.220206   -0.206639
      7         11           0       -0.192977   -2.105884    0.930011
 ---------------------------------------------------------------------

 SCF Done:  E(UB3LYP) =  -1136.08635812     A.U. after   23 cycles

 The electronic state is 2-A.
 Alpha  occ. eigenvalues --  -38.44591 -38.44379 -38.43993 -38.43966 -38.43788
 Alpha  occ. eigenvalues --  -38.43310 -38.43203  -2.20863  -2.20618  -2.20090
 Alpha  occ. eigenvalues --   -2.20020  -2.19830  -2.19374  -2.19240  -1.14828
 Alpha  occ. eigenvalues --   -1.14586  -1.14481  -1.14458  -1.14323  -1.14250
 Alpha  occ. eigenvalues --   -1.13865  -1.13769  -1.13686  -1.13628  -1.13601
 Alpha  occ. eigenvalues --   -1.13585  -1.13491  -1.13420  -1.13339  -1.13090
 Alpha  occ. eigenvalues --   -1.13015  -1.12958  -1.12933  -1.12889  -1.12808
 Alpha  occ. eigenvalues --   -0.21261  -0.13498  -0.12961  -0.12523
 Alpha virt. eigenvalues --   -0.04953  -0.04175  -0.03994  -0.03715  -0.03575
 Alpha virt. eigenvalues --   -0.03373  -0.00827  -0.00481  -0.00251   0.00358
 Alpha virt. eigenvalues --    0.00871   0.00895   0.01029   0.01075   0.01138

  Beta  occ. eigenvalues --  -38.44505 -38.44301 -38.43981 -38.43947 -38.43764
  Beta  occ. eigenvalues --  -38.43279 -38.43178  -2.20711  -2.20480  -2.20074
  Beta  occ. eigenvalues --   -2.19989  -2.19791  -2.19322  -2.19200  -1.14720
  Beta  occ. eigenvalues --   -1.14503  -1.14388  -1.14339  -1.14230  -1.14142
  Beta  occ. eigenvalues --   -1.13842  -1.13728  -1.13647  -1.13598  -1.13578
  Beta  occ. eigenvalues --   -1.13552  -1.13452  -1.13379  -1.13317  -1.13051
  Beta  occ. eigenvalues --   -1.12951  -1.12925  -1.12903  -1.12835  -1.12785
  Beta  occ. eigenvalues --   -0.20440  -0.13207  -0.12311
  Beta virt. eigenvalues --   -0.08570  -0.04927  -0.03885  -0.03827  -0.03108
  Beta virt. eigenvalues --   -0.02774  -0.02221  -0.00794  -0.00434  -0.00063
  Beta virt. eigenvalues --    0.00390   0.00914   0.00931   0.01054   0.01136

 Mulliken charges and spin densities:
               1          2
     1  Na   0.538463   0.469875
     2  Na   0.386341  -0.031925
     3  Na  -0.096187   0.049109
     4  Na   0.333058   0.484104
     5  Na  -0.674664   0.012126
     6  Na   0.311780  -0.072776
     7  Na  -0.798793   0.089487
 Sum of Mulliken charges =  -0.00000   1.00000

 Dipole moment (field-independent basis, Debye):
    X=              0.0639    Y=              0.0688    Z=              0.0638  Tot=              0.1135
 Quadrupole moment (field-independent basis, Debye-Ang):
   XX=            -63.3411   YY=            -70.2163   ZZ=            -64.7076
   XY=              0.0133   XZ=              0.5581   YZ=             -1.6653

 Normal termination of Gaussian 16 at Thu Dec  7 06:31:06 2023.
