 Gaussian 16, Revision B.01,
 Gaussian 16:  ES64L-G16RevB.01 20-Dec-2017

 -------------------------
 #P B3LYP/6-311+g(d) force
 -------------------------

 -----
 DPGEN
 -----
 Symbolic Z-matrix:
 Charge =  0 Multiplicity = 2

                         Standard orientation:
 ---------------------------------------------------------------------
 Center     Atomic      Atomic             Coordinates (Angstroms)
 Number     Number       Type             X           Y           Z
 ---------------------------------------------------------------------
      1         11           0        3.326019    1.235949   -0.263640
      2         11           0        0.252767    2.943641   -0.838751
      3         11           0       -0.322999    0.029902    0.302392
      4         11           0       -3.351791    1.458517    0.778605
      5         11           0        1.056688   -2.497965   -1.288953
      6         11           0       -3.052944   -1.810536   -0.469701
      7         11           0        2.092259   -1.359508    1.780049
 ---------------------------------------------------------------------

 SCF Done:  E(UB3LYP) =  -1136.12146894     A.U. after   23 cycles

 The electronic state is 2-A.
 Alpha  occ. eigenvalues --  -38.45047 -38.44912 -38.44133 -38.43723 -38.43340
 Alpha  occ. eigenvalues --  -38.43273 -38.43068  -2.20828  -2.20691  -2.19944
 Alpha  occ. eigenvalues --   -2.19553  -2.19230  -2.19094  -2.19088  -1.14511
 Alpha  occ. eigenvalues --   -1.14477  -1.14468  -1.14369  -1.14364  -1.14318
 Alpha  occ. eigenvalues --   -1.13615  -1.13588  -1.13572  -1.13242  -1.13205
 Alpha  occ. eigenvalues --   -1.13172  -1.12962  -1.12856  -1.12851  -1.12837
 Alpha  occ. eigenvalues --   -1.12797  -1.12747  -1.12714  -1.12695  -1.12690
 Alpha  occ. eigenvalues --   -0.17602  -0.13657  -0.12221  -0.09863
 Alpha virt. eigenvalues --   -0.06629  -0.05649  -0.04374  -0.03407  -0.02730
 Alpha virt. eigenvalues --   -0.02294  -0.01518  -0.01498  -0.00746  -0.00426
 Alpha virt. eigenvalues --   -0.00269   0.00175   0.00364   0.00642   0.00703

  Beta  occ. eigenvalues --  -38.45040 -38.44909 -38.44103 -38.43685 -38.43273
  Beta  occ. eigenvalues --  -38.43252 -38.43058  -2.20819  -2.20689  -2.19888
  Beta  occ. eigenvalues --   -2.19483  -2.19105  -2.19077  -2.19054  -1.14502
  Beta  occ. eigenvalues --   -1.14475  -1.14439  -1.14370  -1.14365  -1.14296
  Beta  occ. eigenvalues --   -1.13574  -1.13552  -1.13536  -1.13196  -1.13155
  Beta  occ. eigenvalues --   -1.13115  -1.12897  -1.12827  -1.12769  -1.12752
  Beta  occ. eigenvalues --   -1.12742  -1.12717  -1.12695  -1.12681  -1.12668
  Beta  occ. eigenvalues --   -0.17119  -0.13306  -0.11810
  Beta virt. eigenvalues --   -0.06632  -0.06500  -0.05276  -0.04013  -0.03006
  Beta virt. eigenvalues --   -0.02276  -0.02161  -0.01348  -0.00928  -0.00681
  Beta virt. eigenvalues --   -0.00295   0.00054   0.00282   0.00479   0.00664

 Mulliken charges and spin densities:
               1          2
     1  Na   0.991414   0.124583
     2  Na   0.037311  -0.031728
     3  Na  -2.984193   0.498208
     4  Na   0.058618  -0.005157
     5  Na   0.582166   0.189425
     6  Na   0.264993  -0.005186
     7  Na   1.049691   0.229856
 Sum of Mulliken charges =  -0.00000   1.00000

 Dipole moment (field-independent basis, Debye):
    X=             -0.2573    Y=             -0.1720    Z=             -0.4590  Tot=              0.5537
 Quadrupole moment (field-independent basis, Debye-Ang):
   XX=            -50.8427   YY=            -66.7210   ZZ=            -73.7058
   XY=              0.9435   XZ=             -2.2198   YZ=              1.5249

 Normal termination of Gaussian 16 at Tue Dec  5 15:09:13 2023.
