 Gaussian 16, Revision B.01,
 Gaussian 16:  ES64L-G16RevB.01 20-Dec-2017

 -------------------------
 #P B3LYP/6-311+g(d) force
 -------------------------

 -----
 DPGEN
 -----
 Symbolic Z-matrix:
 Charge =  0 Multiplicity = 2

                         Standard orientation:
 ---------------------------------------------------------------------
 Center     Atomic      Atomic             Coordinates (Angstroms)
 Number     Number       Type             X           Y           Z
 ---------------------------------------------------------------------
      1         11           0       -2.373582   -1.605577    0.080046
      2         11           0        0.949668   -2.642762   -0.152354
      3         11           0        0.164569    0.085536   -1.690341
      4         11           0       -0.052480    0.152225    2.015885
      5         11           0        0.842648    2.759988   -0.051812
      6         11           0        3.315393   -0.011939    0.030676
      7         11           0       -2.846216    1.262528   -0.232101
 ---------------------------------------------------------------------

 SCF Done:  E(UB3LYP) =  -1136.13520160     A.U. after   19 cycles

 The electronic state is 2-A.
 Alpha  occ. eigenvalues --  -38.44696 -38.44102 -38.43558 -38.43539 -38.43236
 Alpha  occ. eigenvalues --  -38.43229 -38.42975  -2.20495  -2.19973  -2.19462
 Alpha  occ. eigenvalues --   -2.19456  -2.19220  -2.19080  -2.18846  -1.14172
 Alpha  occ. eigenvalues --   -1.14149  -1.14134  -1.13735  -1.13621  -1.13593
 Alpha  occ. eigenvalues --   -1.13150  -1.13118  -1.13112  -1.13094  -1.13082
 Alpha  occ. eigenvalues --   -1.13067  -1.12919  -1.12901  -1.12834  -1.12748
 Alpha  occ. eigenvalues --   -1.12741  -1.12694  -1.12532  -1.12504  -1.12473
 Alpha  occ. eigenvalues --   -0.18858  -0.13351  -0.12205  -0.10804
 Alpha virt. eigenvalues --   -0.06143  -0.04865  -0.04402  -0.03354  -0.02755
 Alpha virt. eigenvalues --   -0.02583  -0.01879  -0.00933  -0.00332  -0.00164
 Alpha virt. eigenvalues --   -0.00023   0.00354   0.00798   0.00893   0.00902

  Beta  occ. eigenvalues --  -38.44695 -38.44096 -38.43533 -38.43464 -38.43224
  Beta  occ. eigenvalues --  -38.43168 -38.42970  -2.20496  -2.19966  -2.19449
  Beta  occ. eigenvalues --   -2.19288  -2.19095  -2.19074  -2.18840  -1.14155
  Beta  occ. eigenvalues --   -1.14152  -1.14138  -1.13734  -1.13595  -1.13586
  Beta  occ. eigenvalues --   -1.13124  -1.13097  -1.13066  -1.13017  -1.12964
  Beta  occ. eigenvalues --   -1.12952  -1.12851  -1.12818  -1.12746  -1.12726
  Beta  occ. eigenvalues --   -1.12701  -1.12693  -1.12522  -1.12478  -1.12471
  Beta  occ. eigenvalues --   -0.18110  -0.13128  -0.11948
  Beta virt. eigenvalues --   -0.06869  -0.06106  -0.04874  -0.04382  -0.02548
  Beta virt. eigenvalues --   -0.01965  -0.01782  -0.01505  -0.00870  -0.00392
  Beta virt. eigenvalues --   -0.00209   0.00117   0.00374   0.00833   0.00898

 Mulliken charges and spin densities:
               1          2
     1  Na   0.245131   0.051121
     2  Na   0.148924  -0.052797
     3  Na  -0.309387   0.542691
     4  Na  -0.507318   0.739156
     5  Na   0.097023  -0.143798
     6  Na   0.094438  -0.086559
     7  Na   0.231188  -0.049813
 Sum of Mulliken charges =  -0.00000   1.00000

 Dipole moment (field-independent basis, Debye):
    X=              0.4276    Y=              0.2134    Z=              0.1421  Tot=              0.4985
 Quadrupole moment (field-independent basis, Debye-Ang):
   XX=            -53.5037   YY=            -65.6814   ZZ=            -74.1994
   XY=             -0.4878   XZ=              0.6525   YZ=             -0.3245

 Normal termination of Gaussian 16 at Thu Dec  7 13:16:34 2023.
