 Gaussian 16, Revision B.01,
 Gaussian 16:  ES64L-G16RevB.01 20-Dec-2017

 -------------------------
 #P B3LYP/6-311+g(d) force
 -------------------------

 -----
 DPGEN
 -----
 Symbolic Z-matrix:
 Charge =  0 Multiplicity = 2

                         Standard orientation:
 ---------------------------------------------------------------------
 Center     Atomic      Atomic             Coordinates (Angstroms)
 Number     Number       Type             X           Y           Z
 ---------------------------------------------------------------------
      1         11           0       -3.267503   -0.732659    0.260534
      2         11           0       -0.160992   -2.719096   -0.150155
      3         11           0       -1.517436    2.565421   -0.413044
      4         11           0        0.055961    0.214333    2.135273
      5         11           0       -0.326337   -0.080239   -1.675227
      6         11           0        2.897987   -1.243767   -0.174176
      7         11           0        2.318320    1.996007    0.016793
 ---------------------------------------------------------------------

 SCF Done:  E(UB3LYP) =  -1136.13574291     A.U. after   19 cycles

 The electronic state is 2-A.
 Alpha  occ. eigenvalues --  -38.44549 -38.43875 -38.43840 -38.43703 -38.43541
 Alpha  occ. eigenvalues --  -38.43318 -38.43053  -2.20338  -2.19733  -2.19681
 Alpha  occ. eigenvalues --   -2.19531  -2.19374  -2.19295  -2.18937  -1.14012
 Alpha  occ. eigenvalues --   -1.13988  -1.13983  -1.13399  -1.13366  -1.13364
 Alpha  occ. eigenvalues --   -1.13353  -1.13338  -1.13335  -1.13200  -1.13190
 Alpha  occ. eigenvalues --   -1.13163  -1.13123  -1.13029  -1.13007  -1.12991
 Alpha  occ. eigenvalues --   -1.12929  -1.12891  -1.12627  -1.12592  -1.12544
 Alpha  occ. eigenvalues --   -0.18489  -0.13058  -0.12251  -0.10828
 Alpha virt. eigenvalues --   -0.05969  -0.05212  -0.04369  -0.03277  -0.02879
 Alpha virt. eigenvalues --   -0.02673  -0.01780  -0.01086  -0.00410  -0.00244
 Alpha virt. eigenvalues --   -0.00042   0.00342   0.00760   0.00851   0.00886

  Beta  occ. eigenvalues --  -38.44545 -38.43838 -38.43780 -38.43702 -38.43529
  Beta  occ. eigenvalues --  -38.43253 -38.43046  -2.20333  -2.19680  -2.19556
  Beta  occ. eigenvalues --   -2.19530  -2.19357  -2.19177  -2.18928  -1.13992
  Beta  occ. eigenvalues --   -1.13986  -1.13982  -1.13369  -1.13340  -1.13320
  Beta  occ. eigenvalues --   -1.13280  -1.13242  -1.13226  -1.13189  -1.13174
  Beta  occ. eigenvalues --   -1.13164  -1.13090  -1.13002  -1.12982  -1.12931
  Beta  occ. eigenvalues --   -1.12856  -1.12810  -1.12610  -1.12567  -1.12537
  Beta  occ. eigenvalues --   -0.17764  -0.12864  -0.11991
  Beta virt. eigenvalues --   -0.06921  -0.05886  -0.05213  -0.04335  -0.02529
  Beta virt. eigenvalues --   -0.02094  -0.01669  -0.01613  -0.01015  -0.00460
  Beta virt. eigenvalues --   -0.00289   0.00105   0.00367   0.00827   0.00846

 Mulliken charges and spin densities:
               1          2
     1  Na   0.111178  -0.000702
     2  Na   0.252429  -0.009185
     3  Na   0.111711  -0.086500
     4  Na  -0.555432   0.768954
     5  Na  -0.154170   0.419743
     6  Na   0.050450  -0.046753
     7  Na   0.183835  -0.045558
 Sum of Mulliken charges =  -0.00000   1.00000

 Dipole moment (field-independent basis, Debye):
    X=             -0.3242    Y=              0.0764    Z=              0.2387  Tot=              0.4098
 Quadrupole moment (field-independent basis, Debye-Ang):
   XX=            -54.1176   YY=            -65.3161   ZZ=            -74.0320
   XY=              0.3379   XZ=             -1.1754   YZ=             -0.6977

 Normal termination of Gaussian 16 at Thu Dec  7 12:33:27 2023.
