 Gaussian 16, Revision B.01,
 Gaussian 16:  ES64L-G16RevB.01 20-Dec-2017

 -------------------------
 #P B3LYP/6-311+g(d) force
 -------------------------

 -----
 DPGEN
 -----
 Symbolic Z-matrix:
 Charge =  0 Multiplicity = 2

                         Standard orientation:
 ---------------------------------------------------------------------
 Center     Atomic      Atomic             Coordinates (Angstroms)
 Number     Number       Type             X           Y           Z
 ---------------------------------------------------------------------
      1         11           0        1.617361   -2.211441   -0.102933
      2         11           0       -2.195059   -2.063402    0.210798
      3         11           0       -3.047540    0.963042   -0.284160
      4         11           0        0.169883   -0.136153   -1.501669
      5         11           0        0.264125    2.902059    0.009964
      6         11           0        0.064687    0.152790    1.698117
      7         11           0        3.126544    0.393105   -0.030117
 ---------------------------------------------------------------------

 SCF Done:  E(UB3LYP) =  -1136.13044849     A.U. after   20 cycles

 The electronic state is 2-A.
 Alpha  occ. eigenvalues --  -38.44459 -38.44393 -38.43560 -38.43369 -38.43072
 Alpha  occ. eigenvalues --  -38.43059 -38.42862  -2.20352  -2.20227  -2.19427
 Alpha  occ. eigenvalues --   -2.19340  -2.19138  -2.18914  -2.18871  -1.14065
 Alpha  occ. eigenvalues --   -1.14009  -1.13978  -1.13906  -1.13894  -1.13859
 Alpha  occ. eigenvalues --   -1.13176  -1.13101  -1.13088  -1.13070  -1.12986
 Alpha  occ. eigenvalues --   -1.12950  -1.12838  -1.12742  -1.12722  -1.12634
 Alpha  occ. eigenvalues --   -1.12579  -1.12554  -1.12535  -1.12476  -1.12462
 Alpha  occ. eigenvalues --   -0.19244  -0.13669  -0.12300  -0.10359
 Alpha virt. eigenvalues --   -0.06138  -0.05064  -0.04449  -0.03244  -0.02508
 Alpha virt. eigenvalues --   -0.01970  -0.01927  -0.01084  -0.00358  -0.00215
 Alpha virt. eigenvalues --    0.00039   0.00342   0.00777   0.00880   0.00909

  Beta  occ. eigenvalues --  -38.44452 -38.44387 -38.43554 -38.43357 -38.43055
  Beta  occ. eigenvalues --  -38.43009 -38.42779  -2.20344  -2.20218  -2.19421
  Beta  occ. eigenvalues --   -2.19324  -2.19024  -2.18910  -2.18719  -1.14063
  Beta  occ. eigenvalues --   -1.13987  -1.13959  -1.13903  -1.13869  -1.13855
  Beta  occ. eigenvalues --   -1.13147  -1.13098  -1.13070  -1.13055  -1.12964
  Beta  occ. eigenvalues --   -1.12915  -1.12758  -1.12673  -1.12640  -1.12606
  Beta  occ. eigenvalues --   -1.12556  -1.12534  -1.12455  -1.12371  -1.12356
  Beta  occ. eigenvalues --   -0.18521  -0.13399  -0.12028
  Beta virt. eigenvalues --   -0.06466  -0.06082  -0.05049  -0.04451  -0.02439
  Beta virt. eigenvalues --   -0.01839  -0.01755  -0.01023  -0.00977  -0.00385
  Beta virt. eigenvalues --   -0.00261   0.00176   0.00375   0.00819   0.00877

 Mulliken charges and spin densities:
               1          2
     1  Na   0.537173   0.072616
     2  Na   0.215822  -0.009771
     3  Na  -0.014042  -0.041380
     4  Na  -0.581334   0.463466
     5  Na  -0.024500  -0.126973
     6  Na  -0.426618   0.677527
     7  Na   0.293498  -0.035486
 Sum of Mulliken charges =  -0.00000   1.00000

 Dipole moment (field-independent basis, Debye):
    X=             -0.0895    Y=              0.1940    Z=              0.0947  Tot=              0.2336
 Quadrupole moment (field-independent basis, Debye-Ang):
   XX=            -51.3733   YY=            -63.5487   ZZ=            -76.6145
   XY=              0.3282   XZ=              0.4438   YZ=             -0.9428

 Normal termination of Gaussian 16 at Tue Nov 28 21:35:59 2023.
