 Gaussian 16, Revision B.01,
 Gaussian 16:  ES64L-G16RevB.01 20-Dec-2017

 -------------------------
 #P B3LYP/6-311+g(d) force
 -------------------------

 -----
 DPGEN
 -----
 Symbolic Z-matrix:
 Charge =  0 Multiplicity = 2

                         Standard orientation:
 ---------------------------------------------------------------------
 Center     Atomic      Atomic             Coordinates (Angstroms)
 Number     Number       Type             X           Y           Z
 ---------------------------------------------------------------------
      1         11           0        2.087880    1.615780   -0.166542
      2         11           0        3.057857   -1.318565    0.206614
      3         11           0       -0.745671    2.991453   -0.040748
      4         11           0       -2.724451    0.226379   -0.054638
      5         11           0       -0.002554   -0.131312   -1.541479
      6         11           0       -0.532708   -0.581205    2.227694
      7         11           0       -1.140354   -2.802530   -0.630903
 ---------------------------------------------------------------------

 SCF Done:  E(UB3LYP) =  -1136.13006451     A.U. after   20 cycles

 The electronic state is 2-A.
 Alpha  occ. eigenvalues --  -38.44076 -38.43926 -38.43834 -38.43776 -38.43343
 Alpha  occ. eigenvalues --  -38.43307 -38.43236  -2.19938  -2.19742  -2.19700
 Alpha  occ. eigenvalues --   -2.19699  -2.19355  -2.19281  -2.19102  -1.13612
 Alpha  occ. eigenvalues --   -1.13567  -1.13556  -1.13460  -1.13445  -1.13413
 Alpha  occ. eigenvalues --   -1.13397  -1.13376  -1.13364  -1.13338  -1.13332
 Alpha  occ. eigenvalues --   -1.13282  -1.13124  -1.13010  -1.12965  -1.12940
 Alpha  occ. eigenvalues --   -1.12914  -1.12896  -1.12756  -1.12746  -1.12741
 Alpha  occ. eigenvalues --   -0.18836  -0.13184  -0.12476  -0.11074
 Alpha virt. eigenvalues --   -0.05593  -0.05018  -0.04590  -0.03335  -0.02932
 Alpha virt. eigenvalues --   -0.02788  -0.01335  -0.01260  -0.00233  -0.00038
 Alpha virt. eigenvalues --   -0.00002   0.00344   0.00792   0.00889   0.00918

  Beta  occ. eigenvalues --  -38.43976 -38.43927 -38.43815 -38.43765 -38.43339
  Beta  occ. eigenvalues --  -38.43246 -38.43237  -2.19752  -2.19743  -2.19684
  Beta  occ. eigenvalues --   -2.19669  -2.19277  -2.19244  -2.19105  -1.13500
  Beta  occ. eigenvalues --   -1.13449  -1.13437  -1.13431  -1.13420  -1.13390
  Beta  occ. eigenvalues --   -1.13386  -1.13378  -1.13325  -1.13310  -1.13296
  Beta  occ. eigenvalues --   -1.13273  -1.13078  -1.12957  -1.12939  -1.12898
  Beta  occ. eigenvalues --   -1.12874  -1.12846  -1.12756  -1.12748  -1.12730
  Beta  occ. eigenvalues --   -0.18123  -0.12937  -0.12270
  Beta virt. eigenvalues --   -0.07080  -0.05536  -0.04922  -0.04570  -0.02570
  Beta virt. eigenvalues --   -0.02216  -0.01718  -0.01237  -0.01175  -0.00277
  Beta virt. eigenvalues --   -0.00022   0.00135   0.00383   0.00826   0.00913

 Mulliken charges and spin densities:
               1          2
     1  Na   0.209386   0.068314
     2  Na  -0.005785   0.007087
     3  Na  -0.012181  -0.007088
     4  Na   0.510667   0.194505
     5  Na  -0.210854   0.095692
     6  Na  -0.722077   0.614786
     7  Na   0.230845   0.026705
 Sum of Mulliken charges =  -0.00000   1.00000

 Dipole moment (field-independent basis, Debye):
    X=             -0.0895    Y=             -0.4887    Z=              0.3426  Tot=              0.6036
 Quadrupole moment (field-independent basis, Debye-Ang):
   XX=            -61.3229   YY=            -60.6439   ZZ=            -72.8837
   XY=             -1.4684   XZ=              1.1087   YZ=              0.6083

 Normal termination of Gaussian 16 at Thu Dec  7 02:09:08 2023.
