 Gaussian 16, Revision B.01,
 Gaussian 16:  ES64L-G16RevB.01 20-Dec-2017

 -------------------------
 #P B3LYP/6-311+g(d) force
 -------------------------

 -----
 DPGEN
 -----
 Symbolic Z-matrix:
 Charge =  0 Multiplicity = 2

                         Standard orientation:
 ---------------------------------------------------------------------
 Center     Atomic      Atomic             Coordinates (Angstroms)
 Number     Number       Type             X           Y           Z
 ---------------------------------------------------------------------
      1         11           0       -1.974389   -1.664924    0.759941
      2         11           0        3.741789   -1.427534    0.079616
      3         11           0        0.922151   -1.503274   -1.632700
      4         11           0       -4.379465    0.181819   -0.345143
      5         11           0        0.507571    0.386736    2.132132
      6         11           0        2.476463    2.453782   -0.310774
      7         11           0       -1.294120    1.573395   -0.683073
 ---------------------------------------------------------------------

 SCF Done:  E(UB3LYP) =  -1136.11570925     A.U. after   32 cycles

 The electronic state is 2-A.
 Alpha  occ. eigenvalues --  -38.44969 -38.44599 -38.44217 -38.43982 -38.43963
 Alpha  occ. eigenvalues --  -38.43917 -38.43764  -2.20794  -2.20364  -2.20020
 Alpha  occ. eigenvalues --   -2.19819  -2.19814  -2.19789  -2.19532  -1.14458
 Alpha  occ. eigenvalues --   -1.14441  -1.14430  -1.14041  -1.14026  -1.14016
 Alpha  occ. eigenvalues --   -1.13685  -1.13675  -1.13648  -1.13541  -1.13532
 Alpha  occ. eigenvalues --   -1.13488  -1.13464  -1.13453  -1.13444  -1.13424
 Alpha  occ. eigenvalues --   -1.13407  -1.13395  -1.13212  -1.13184  -1.13159
 Alpha  occ. eigenvalues --   -0.17782  -0.13900  -0.11042  -0.10911
 Alpha virt. eigenvalues --   -0.07487  -0.05715  -0.03916  -0.03480  -0.03033
 Alpha virt. eigenvalues --   -0.02469  -0.02250  -0.01776  -0.00746  -0.00489
 Alpha virt. eigenvalues --   -0.00385   0.00104   0.00293   0.00557   0.00612

  Beta  occ. eigenvalues --  -38.44935 -38.44609 -38.44191 -38.43975 -38.43882
  Beta  occ. eigenvalues --  -38.43874 -38.43752  -2.20731  -2.20385  -2.19972
  Beta  occ. eigenvalues --   -2.19808  -2.19729  -2.19652  -2.19509  -1.14414
  Beta  occ. eigenvalues --   -1.14397  -1.14386  -1.14047  -1.14040  -1.14030
  Beta  occ. eigenvalues --   -1.13658  -1.13634  -1.13614  -1.13530  -1.13498
  Beta  occ. eigenvalues --   -1.13427  -1.13403  -1.13400  -1.13372  -1.13354
  Beta  occ. eigenvalues --   -1.13345  -1.13280  -1.13193  -1.13168  -1.13146
  Beta  occ. eigenvalues --   -0.17095  -0.13617  -0.10902
  Beta virt. eigenvalues --   -0.07359  -0.07046  -0.05457  -0.03509  -0.03171
  Beta virt. eigenvalues --   -0.02842  -0.02098  -0.01563  -0.01528  -0.00427
  Beta virt. eigenvalues --   -0.00353  -0.00292   0.00135   0.00393   0.00606

 Mulliken charges and spin densities:
               1          2
     1  Na   0.207546   0.181828
     2  Na  -0.005535  -0.046350
     3  Na  -0.044705   0.118682
     4  Na   0.268439  -0.026955
     5  Na   0.072696   0.303873
     6  Na  -0.038445   0.225011
     7  Na  -0.459997   0.243910
 Sum of Mulliken charges =  -0.00000   1.00000

 Dipole moment (field-independent basis, Debye):
    X=             -0.4251    Y=             -0.0392    Z=              0.3923  Tot=              0.5798
 Quadrupole moment (field-independent basis, Debye-Ang):
   XX=            -49.3717   YY=            -77.6898   ZZ=            -69.4861
   XY=              3.0090   XZ=              3.2825   YZ=             -3.4272

 Normal termination of Gaussian 16 at Sun Dec  3 17:02:20 2023.
