 Gaussian 16, Revision B.01,
 Gaussian 16:  ES64L-G16RevB.01 20-Dec-2017

 -------------------------
 #P B3LYP/6-311+g(d) force
 -------------------------

 -----
 DPGEN
 -----
 Symbolic Z-matrix:
 Charge =  0 Multiplicity = 2

                         Standard orientation:
 ---------------------------------------------------------------------
 Center     Atomic      Atomic             Coordinates (Angstroms)
 Number     Number       Type             X           Y           Z
 ---------------------------------------------------------------------
      1         11           0       -0.668674    0.197042   -0.935462
      2         11           0       -6.088676   -0.279879   -0.930188
      3         11           0       -3.490645    0.108143    0.918277
      4         11           0       -0.485795   -1.541977    1.269677
      5         11           0        2.933244   -0.422172   -0.608540
      6         11           0        1.459724    2.663223    0.511550
      7         11           0        6.340822   -0.724381   -0.225313
 ---------------------------------------------------------------------

 SCF Done:  E(UB3LYP) =  -1136.10587787     A.U. after   24 cycles

 The electronic state is 2-A.
 Alpha  occ. eigenvalues --  -38.45514 -38.45376 -38.45157 -38.43830 -38.43719
 Alpha  occ. eigenvalues --  -38.43624 -38.43469  -2.21326  -2.21310  -2.21063
 Alpha  occ. eigenvalues --   -2.19612  -2.19583  -2.19384  -2.19287  -1.15176
 Alpha  occ. eigenvalues --   -1.14980  -1.14970  -1.14951  -1.14944  -1.14894
 Alpha  occ. eigenvalues --   -1.14688  -1.14661  -1.14641  -1.13316  -1.13280
 Alpha  occ. eigenvalues --   -1.13270  -1.13261  -1.13244  -1.13166  -1.13046
 Alpha  occ. eigenvalues --   -1.13044  -1.13027  -1.12990  -1.12979  -1.12882
 Alpha  occ. eigenvalues --   -0.17835  -0.13910  -0.11465  -0.11406
 Alpha virt. eigenvalues --   -0.07024  -0.06332  -0.04127  -0.03822  -0.02778
 Alpha virt. eigenvalues --   -0.02662  -0.01901  -0.01733  -0.01428  -0.00837
 Alpha virt. eigenvalues --   -0.00647  -0.00086   0.00072   0.00329   0.00383

  Beta  occ. eigenvalues --  -38.45405 -38.45373 -38.45095 -38.43816 -38.43720
  Beta  occ. eigenvalues --  -38.43606 -38.43469  -2.21311  -2.21124  -2.20948
  Beta  occ. eigenvalues --   -2.19587  -2.19584  -2.19351  -2.19289  -1.15139
  Beta  occ. eigenvalues --   -1.14974  -1.14905  -1.14830  -1.14813  -1.14795
  Beta  occ. eigenvalues --   -1.14606  -1.14584  -1.14577  -1.13304  -1.13281
  Beta  occ. eigenvalues --   -1.13253  -1.13246  -1.13236  -1.13154  -1.13024
  Beta  occ. eigenvalues --   -1.13021  -1.13010  -1.12991  -1.12963  -1.12883
  Beta  occ. eigenvalues --   -0.17278  -0.13505  -0.10992
  Beta virt. eigenvalues --   -0.08028  -0.06641  -0.05977  -0.03853  -0.03398
  Beta virt. eigenvalues --   -0.02437  -0.02228  -0.01699  -0.01454  -0.01117
  Beta virt. eigenvalues --   -0.00685  -0.00487   0.00132   0.00293   0.00379

 Mulliken charges and spin densities:
               1          2
     1  Na  -0.310722   0.493017
     2  Na  -0.259642   0.076004
     3  Na   0.442469  -0.073513
     4  Na   0.468008   0.229837
     5  Na  -0.707368  -0.100529
     6  Na   0.265716   0.419884
     7  Na   0.101539  -0.044701
 Sum of Mulliken charges =  -0.00000   1.00000

 Dipole moment (field-independent basis, Debye):
    X=             -0.5270    Y=              0.3875    Z=              0.7475  Tot=              0.9933
 Quadrupole moment (field-independent basis, Debye-Ang):
   XX=            -78.5516   YY=            -69.6044   ZZ=            -64.4561
   XY=              3.4613   XZ=              5.6268   YZ=              0.9469

 Normal termination of Gaussian 16 at Wed Nov 29 01:56:10 2023.
