 Gaussian 16, Revision B.01,
 Gaussian 16:  ES64L-G16RevB.01 20-Dec-2017

 -------------------------
 #P B3LYP/6-311+g(d) force
 -------------------------

 -----
 DPGEN
 -----
 Symbolic Z-matrix:
 Charge =  0 Multiplicity = 2

                         Standard orientation:
 ---------------------------------------------------------------------
 Center     Atomic      Atomic             Coordinates (Angstroms)
 Number     Number       Type             X           Y           Z
 ---------------------------------------------------------------------
      1         11           0       -2.067411   -2.095429    0.102799
      2         11           0       -0.248033   -0.033624   -1.636208
      3         11           0        0.876623    2.725047    0.088422
      4         11           0        1.247894   -2.366743    0.145237
      5         11           0       -2.942991    1.376228   -0.161569
      6         11           0       -0.107476    0.299927    1.691397
      7         11           0        3.241395    0.094594   -0.230077
 ---------------------------------------------------------------------

 SCF Done:  E(UB3LYP) =  -1136.13561613     A.U. after   20 cycles

 The electronic state is 2-A.
 Alpha  occ. eigenvalues --  -38.44296 -38.44214 -38.43543 -38.43469 -38.43043
 Alpha  occ. eigenvalues --  -38.42995 -38.42919  -2.20120  -2.20053  -2.19432
 Alpha  occ. eigenvalues --   -2.19340  -2.19051  -2.18927  -2.18923  -1.13797
 Alpha  occ. eigenvalues --   -1.13780  -1.13753  -1.13737  -1.13711  -1.13688
 Alpha  occ. eigenvalues --   -1.13132  -1.13097  -1.13079  -1.13064  -1.13007
 Alpha  occ. eigenvalues --   -1.12946  -1.12771  -1.12693  -1.12663  -1.12625
 Alpha  occ. eigenvalues --   -1.12587  -1.12572  -1.12561  -1.12540  -1.12518
 Alpha  occ. eigenvalues --   -0.19100  -0.13287  -0.12525  -0.10429
 Alpha virt. eigenvalues --   -0.05990  -0.05180  -0.04418  -0.03088  -0.02720
 Alpha virt. eigenvalues --   -0.02092  -0.01839  -0.01159  -0.00394  -0.00119
 Alpha virt. eigenvalues --    0.00024   0.00334   0.00786   0.00866   0.00920

  Beta  occ. eigenvalues --  -38.44290 -38.44210 -38.43536 -38.43461 -38.42986
  Beta  occ. eigenvalues --  -38.42974 -38.42838  -2.20111  -2.20047  -2.19424
  Beta  occ. eigenvalues --   -2.19330  -2.18926  -2.18912  -2.18779  -1.13780
  Beta  occ. eigenvalues --   -1.13767  -1.13748  -1.13737  -1.13691  -1.13684
  Beta  occ. eigenvalues --   -1.13127  -1.13069  -1.13063  -1.13054  -1.12976
  Beta  occ. eigenvalues --   -1.12944  -1.12694  -1.12623  -1.12586  -1.12566
  Beta  occ. eigenvalues --   -1.12553  -1.12523  -1.12495  -1.12437  -1.12420
  Beta  occ. eigenvalues --   -0.18383  -0.13032  -0.12243
  Beta virt. eigenvalues --   -0.06544  -0.05939  -0.05174  -0.04414  -0.02326
  Beta virt. eigenvalues --   -0.01925  -0.01733  -0.01113  -0.01062  -0.00441
  Beta virt. eigenvalues --   -0.00163   0.00157   0.00368   0.00817   0.00882

 Mulliken charges and spin densities:
               1          2
     1  Na   0.272740  -0.045382
     2  Na  -0.513912   0.680244
     3  Na   0.185753  -0.132576
     4  Na   0.212417   0.004680
     5  Na   0.169096  -0.123855
     6  Na  -0.375249   0.613880
     7  Na   0.049154   0.003009
 Sum of Mulliken charges =  -0.00000   1.00000

 Dipole moment (field-independent basis, Debye):
    X=             -0.2140    Y=              0.2955    Z=             -0.0274  Tot=              0.3659
 Quadrupole moment (field-independent basis, Debye-Ang):
   XX=            -52.1757   YY=            -63.2739   ZZ=            -76.1190
   XY=              0.0145   XZ=             -0.5727   YZ=             -0.9076

 Normal termination of Gaussian 16 at Thu Dec  7 12:01:58 2023.
