 Gaussian 16, Revision B.01,
 Gaussian 16:  ES64L-G16RevB.01 20-Dec-2017

 -------------------------
 #P B3LYP/6-311+g(d) force
 -------------------------

 -----
 DPGEN
 -----
 Symbolic Z-matrix:
 Charge =  0 Multiplicity = 2

                         Standard orientation:
 ---------------------------------------------------------------------
 Center     Atomic      Atomic             Coordinates (Angstroms)
 Number     Number       Type             X           Y           Z
 ---------------------------------------------------------------------
      1         11           0        2.042546   -2.091561    0.339571
      2         11           0       -2.228292    2.089520   -0.656708
      3         11           0        4.848176    0.120375   -0.585267
      4         11           0       -0.440965    0.504048    2.171849
      5         11           0       -1.197472   -1.441167   -0.855965
      6         11           0       -4.311226   -1.033697   -0.204612
      7         11           0        1.287234    1.852482   -0.208868
 ---------------------------------------------------------------------

 SCF Done:  E(UB3LYP) =  -1136.12056393     A.U. after   21 cycles

 The electronic state is 2-A.
 Alpha  occ. eigenvalues --  -38.45164 -38.44376 -38.44160 -38.43798 -38.43700
 Alpha  occ. eigenvalues --  -38.43619 -38.43589  -2.21000  -2.20161  -2.19983
 Alpha  occ. eigenvalues --   -2.19609  -2.19564  -2.19427  -2.19414  -1.14676
 Alpha  occ. eigenvalues --   -1.14653  -1.14607  -1.13812  -1.13804  -1.13770
 Alpha  occ. eigenvalues --   -1.13691  -1.13642  -1.13578  -1.13319  -1.13272
 Alpha  occ. eigenvalues --   -1.13250  -1.13247  -1.13227  -1.13165  -1.13136
 Alpha  occ. eigenvalues --   -1.13116  -1.13103  -1.13076  -1.13045  -1.13012
 Alpha  occ. eigenvalues --   -0.17657  -0.13759  -0.11429  -0.11052
 Alpha virt. eigenvalues --   -0.06957  -0.05484  -0.04491  -0.03192  -0.02859
 Alpha virt. eigenvalues --   -0.02432  -0.02087  -0.01584  -0.01183  -0.00603
 Alpha virt. eigenvalues --   -0.00419   0.00057   0.00427   0.00589   0.00613

  Beta  occ. eigenvalues --  -38.45122 -38.44292 -38.44137 -38.43781 -38.43686
  Beta  occ. eigenvalues --  -38.43608 -38.43583  -2.20923  -2.20003  -2.19941
  Beta  occ. eigenvalues --   -2.19578  -2.19544  -2.19418  -2.19400  -1.14626
  Beta  occ. eigenvalues --   -1.14601  -1.14542  -1.13704  -1.13694  -1.13669
  Beta  occ. eigenvalues --   -1.13662  -1.13617  -1.13542  -1.13307  -1.13250
  Beta  occ. eigenvalues --   -1.13227  -1.13221  -1.13211  -1.13137  -1.13130
  Beta  occ. eigenvalues --   -1.13099  -1.13095  -1.13064  -1.13006  -1.13004
  Beta  occ. eigenvalues --   -0.17119  -0.13106  -0.11259
  Beta virt. eigenvalues --   -0.07611  -0.06569  -0.05261  -0.03982  -0.02993
  Beta virt. eigenvalues --   -0.02669  -0.01975  -0.01783  -0.01240  -0.00787
  Beta virt. eigenvalues --   -0.00449  -0.00249   0.00149   0.00534   0.00626

 Mulliken charges and spin densities:
               1          2
     1  Na   0.037245  -0.026871
     2  Na   0.109169   0.199563
     3  Na   0.136757   0.422365
     4  Na   0.213861   0.196726
     5  Na  -0.586664   0.057854
     6  Na   0.356982   0.102134
     7  Na  -0.267349   0.048228
 Sum of Mulliken charges =  -0.00000   1.00000

 Dipole moment (field-independent basis, Debye):
    X=             -0.6475    Y=              0.5495    Z=              1.0514  Tot=              1.3515
 Quadrupole moment (field-independent basis, Debye-Ang):
   XX=            -61.3119   YY=            -74.7729   ZZ=            -64.5833
   XY=             -2.1273   XZ=             -2.7914   YZ=             -3.2831

 Normal termination of Gaussian 16 at Sun Dec  3 13:59:50 2023.
