 Gaussian 16, Revision B.01,
 Gaussian 16:  ES64L-G16RevB.01 20-Dec-2017

 -------------------------
 #P B3LYP/6-311+g(d) force
 -------------------------

 -----
 DPGEN
 -----
 Symbolic Z-matrix:
 Charge =  0 Multiplicity = 2

                         Standard orientation:
 ---------------------------------------------------------------------
 Center     Atomic      Atomic             Coordinates (Angstroms)
 Number     Number       Type             X           Y           Z
 ---------------------------------------------------------------------
      1         11           0        1.500915    0.339545   -1.655650
      2         11           0       -0.164083   -1.913218   -0.944901
      3         11           0       -2.996045   -1.868063    0.564070
      4         11           0        3.428688   -1.474401    0.775748
      5         11           0       -1.748227    0.922698   -0.873089
      6         11           0        0.080632    3.587967    0.280359
      7         11           0       -0.101881    0.405471    1.853464
 ---------------------------------------------------------------------

 SCF Done:  E(UB3LYP) =  -1136.12909792     A.U. after   19 cycles

 The electronic state is 2-A.
 Alpha  occ. eigenvalues --  -38.44167 -38.44048 -38.43585 -38.43547 -38.43503
 Alpha  occ. eigenvalues --  -38.43422 -38.43338  -2.20043  -2.19818  -2.19486
 Alpha  occ. eigenvalues --   -2.19433  -2.19403  -2.19316  -2.19306  -1.13754
 Alpha  occ. eigenvalues --   -1.13670  -1.13654  -1.13489  -1.13478  -1.13438
 Alpha  occ. eigenvalues --   -1.13392  -1.13154  -1.13107  -1.13106  -1.13084
 Alpha  occ. eigenvalues --   -1.13079  -1.13063  -1.13031  -1.13011  -1.12986
 Alpha  occ. eigenvalues --   -1.12977  -1.12966  -1.12950  -1.12928  -1.12868
 Alpha  occ. eigenvalues --   -0.18661  -0.12669  -0.12365  -0.11181
 Alpha virt. eigenvalues --   -0.05828  -0.05013  -0.04268  -0.03269  -0.02938
 Alpha virt. eigenvalues --   -0.02651  -0.01567  -0.01389  -0.00583  -0.00012
 Alpha virt. eigenvalues --    0.00259   0.00404   0.00784   0.00799   0.00827

  Beta  occ. eigenvalues --  -38.44102 -38.44026 -38.43580 -38.43505 -38.43493
  Beta  occ. eigenvalues --  -38.43392 -38.43311  -2.19922  -2.19777  -2.19424
  Beta  occ. eigenvalues --   -2.19394  -2.19351  -2.19310  -2.19274  -1.13674
  Beta  occ. eigenvalues --   -1.13581  -1.13565  -1.13461  -1.13442  -1.13415
  Beta  occ. eigenvalues --   -1.13324  -1.13138  -1.13099  -1.13062  -1.13050
  Beta  occ. eigenvalues --   -1.13031  -1.13013  -1.12986  -1.12977  -1.12960
  Beta  occ. eigenvalues --   -1.12959  -1.12947  -1.12907  -1.12898  -1.12849
  Beta  occ. eigenvalues --   -0.17856  -0.12484  -0.12195
  Beta virt. eigenvalues --   -0.07227  -0.05595  -0.04890  -0.04096  -0.02801
  Beta virt. eigenvalues --   -0.02380  -0.01752  -0.01461  -0.01265  -0.00266
  Beta virt. eigenvalues --   -0.00000   0.00283   0.00515   0.00810   0.00837

 Mulliken charges and spin densities:
               1          2
     1  Na   0.306827   0.085656
     2  Na  -0.124866   0.223293
     3  Na   0.533617  -0.107121
     4  Na  -0.274897  -0.061111
     5  Na   0.098376   0.201897
     6  Na  -0.073590  -0.140974
     7  Na  -0.465468   0.798358
 Sum of Mulliken charges =  -0.00000   1.00000

 Dipole moment (field-independent basis, Debye):
    X=              0.0688    Y=              0.0972    Z=              0.4098  Tot=              0.4268
 Quadrupole moment (field-independent basis, Debye-Ang):
   XX=            -59.9515   YY=            -62.4011   ZZ=            -70.0586
   XY=              2.0660   XZ=              0.7486   YZ=             -2.1712

 Normal termination of Gaussian 16 at Thu Dec  7 02:59:03 2023.
