 Gaussian 16, Revision B.01,
 Gaussian 16:  ES64L-G16RevB.01 20-Dec-2017

 -------------------------
 #P B3LYP/6-311+g(d) force
 -------------------------

 -----
 DPGEN
 -----
 Symbolic Z-matrix:
 Charge =  0 Multiplicity = 2

                         Standard orientation:
 ---------------------------------------------------------------------
 Center     Atomic      Atomic             Coordinates (Angstroms)
 Number     Number       Type             X           Y           Z
 ---------------------------------------------------------------------
      1         11           0        3.236675    2.140564   -0.380909
      2         11           0       -3.108156    2.356089    0.565131
      3         11           0       -4.142814   -0.833374    0.417951
      4         11           0        1.913898   -3.235698   -0.197844
      5         11           0       -2.054577   -2.858127   -0.792197
      6         11           0        3.788994   -1.059507    0.972814
      7         11           0        0.365980    3.490053   -0.584945
 ---------------------------------------------------------------------

 SCF Done:  E(UB3LYP) =  -1136.10770091     A.U. after   20 cycles

 The electronic state is 2-A.
 Alpha  occ. eigenvalues --  -38.44980 -38.44726 -38.44613 -38.44600 -38.44389
 Alpha  occ. eigenvalues --  -38.44173 -38.44153  -2.20764  -2.20535  -2.20421
 Alpha  occ. eigenvalues --   -2.20391  -2.20204  -2.19983  -2.19956  -1.14462
 Alpha  occ. eigenvalues --   -1.14427  -1.14410  -1.14229  -1.14203  -1.14197
 Alpha  occ. eigenvalues --   -1.14089  -1.14074  -1.14066  -1.14063  -1.14062
 Alpha  occ. eigenvalues --   -1.14044  -1.13859  -1.13847  -1.13827  -1.13630
 Alpha  occ. eigenvalues --   -1.13624  -1.13611  -1.13605  -1.13593  -1.13583
 Alpha  occ. eigenvalues --   -0.15716  -0.14298  -0.13424  -0.10829
 Alpha virt. eigenvalues --   -0.07806  -0.04610  -0.04470  -0.03733  -0.03594
 Alpha virt. eigenvalues --   -0.02327  -0.02042  -0.01874  -0.01232  -0.01038
 Alpha virt. eigenvalues --   -0.00744  -0.00006   0.00118   0.00313   0.00793

  Beta  occ. eigenvalues --  -38.44966 -38.44723 -38.44607 -38.44574 -38.44352
  Beta  occ. eigenvalues --  -38.44105 -38.44074  -2.20743  -2.20538  -2.20385
  Beta  occ. eigenvalues --   -2.20375  -2.20138  -2.19857  -2.19809  -1.14437
  Beta  occ. eigenvalues --   -1.14416  -1.14384  -1.14221  -1.14212  -1.14159
  Beta  occ. eigenvalues --   -1.14072  -1.14064  -1.14044  -1.14038  -1.14022
  Beta  occ. eigenvalues --   -1.14016  -1.13816  -1.13806  -1.13775  -1.13547
  Beta  occ. eigenvalues --   -1.13540  -1.13525  -1.13505  -1.13497  -1.13485
  Beta  occ. eigenvalues --   -0.15209  -0.13564  -0.12664
  Beta virt. eigenvalues --   -0.07959  -0.07674  -0.04122  -0.03954  -0.03533
  Beta virt. eigenvalues --   -0.03324  -0.02068  -0.01936  -0.01654  -0.01132
  Beta virt. eigenvalues --   -0.00665  -0.00473   0.00183   0.00265   0.00362

 Mulliken charges and spin densities:
               1          2
     1  Na  -0.089554   0.105814
     2  Na  -0.061529   0.384034
     3  Na   0.397792   0.013639
     4  Na   0.053648   0.083451
     5  Na  -0.390016   0.295265
     6  Na  -0.195652   0.091075
     7  Na   0.285312   0.026721
 Sum of Mulliken charges =  -0.00000   1.00000

 Dipole moment (field-independent basis, Debye):
    X=              0.5803    Y=             -0.2935    Z=              0.0563  Tot=              0.6528
 Quadrupole moment (field-independent basis, Debye-Ang):
   XX=            -61.7735   YY=            -68.6510   ZZ=            -71.5033
   XY=              0.0449   XZ=              0.2344   YZ=              0.9125

 Normal termination of Gaussian 16 at Sun Dec  3 11:38:19 2023.
