 Gaussian 16, Revision B.01,
 Gaussian 16:  ES64L-G16RevB.01 20-Dec-2017

 -------------------------
 #P B3LYP/6-311+g(d) force
 -------------------------

 -----
 DPGEN
 -----
 Symbolic Z-matrix:
 Charge =  0 Multiplicity = 2

                         Standard orientation:
 ---------------------------------------------------------------------
 Center     Atomic      Atomic             Coordinates (Angstroms)
 Number     Number       Type             X           Y           Z
 ---------------------------------------------------------------------
      1         11           0       -3.381938    2.818417    0.256585
      2         11           0       -0.408396    2.549658   -0.850540
      3         11           0        5.253288   -0.787523    1.118275
      4         11           0        8.033713   -0.416264   -0.460523
      5         11           0        1.655548   -0.782131   -0.320126
      6         11           0       -5.396643   -0.326467    0.977301
      7         11           0       -5.755572   -3.055690   -0.720973
 ---------------------------------------------------------------------

 SCF Done:  E(UB3LYP) =  -1136.10286809     A.U. after   19 cycles

 The electronic state is 2-A.
 Alpha  occ. eigenvalues --  -38.45259 -38.44783 -38.44506 -38.44488 -38.44457
 Alpha  occ. eigenvalues --  -38.44210 -38.44030  -2.21030  -2.20577  -2.20283
 Alpha  occ. eigenvalues --   -2.20263  -2.20252  -2.19978  -2.19802  -1.14679
 Alpha  occ. eigenvalues --   -1.14668  -1.14632  -1.14218  -1.14217  -1.14215
 Alpha  occ. eigenvalues --   -1.13995  -1.13937  -1.13935  -1.13935  -1.13928
 Alpha  occ. eigenvalues --   -1.13920  -1.13909  -1.13898  -1.13839  -1.13659
 Alpha  occ. eigenvalues --   -1.13652  -1.13630  -1.13478  -1.13470  -1.13445
 Alpha  occ. eigenvalues --   -0.14954  -0.14033  -0.12671  -0.11511
 Alpha virt. eigenvalues --   -0.07122  -0.05534  -0.04245  -0.03295  -0.03133
 Alpha virt. eigenvalues --   -0.02710  -0.02261  -0.01896  -0.01852  -0.01079
 Alpha virt. eigenvalues --   -0.00908  -0.00603  -0.00278   0.00116   0.00355

  Beta  occ. eigenvalues --  -38.45154 -38.44716 -38.44510 -38.44475 -38.44405
  Beta  occ. eigenvalues --  -38.44224 -38.44039  -2.20833  -2.20452  -2.20297
  Beta  occ. eigenvalues --   -2.20225  -2.20164  -2.20011  -2.19822  -1.14545
  Beta  occ. eigenvalues --   -1.14534  -1.14504  -1.14136  -1.14132  -1.14131
  Beta  occ. eigenvalues --   -1.13989  -1.13967  -1.13932  -1.13897  -1.13896
  Beta  occ. eigenvalues --   -1.13891  -1.13846  -1.13835  -1.13802  -1.13686
  Beta  occ. eigenvalues --   -1.13678  -1.13613  -1.13494  -1.13486  -1.13441
  Beta  occ. eigenvalues --   -0.14384  -0.13388  -0.12248
  Beta virt. eigenvalues --   -0.08342  -0.06714  -0.05077  -0.03891  -0.03121
  Beta virt. eigenvalues --   -0.02958  -0.02550  -0.02064  -0.01617  -0.01484
  Beta virt. eigenvalues --   -0.00987  -0.00651  -0.00262   0.00012   0.00216

 Mulliken charges and spin densities:
               1          2
     1  Na   0.206253   0.240730
     2  Na   0.045602  -0.077361
     3  Na  -0.307087  -0.075435
     4  Na   0.347692   0.327498
     5  Na  -0.225027   0.478077
     6  Na  -0.290364  -0.049265
     7  Na   0.222930   0.155757
 Sum of Mulliken charges =  -0.00000   1.00000

 Dipole moment (field-independent basis, Debye):
    X=              0.6599    Y=             -0.2847    Z=             -0.6063  Tot=              0.9403
 Quadrupole moment (field-independent basis, Debye-Ang):
   XX=            -61.8970   YY=            -65.4399   ZZ=            -69.1304
   XY=              1.8708   XZ=             -3.9832   YZ=              3.2274

 Normal termination of Gaussian 16 at Mon Dec  4 04:52:03 2023.
