 Gaussian 16, Revision B.01,
 Gaussian 16:  ES64L-G16RevB.01 20-Dec-2017

 -------------------------
 #P B3LYP/6-311+g(d) force
 -------------------------

 -----
 DPGEN
 -----
 Symbolic Z-matrix:
 Charge =  0 Multiplicity = 2

                         Standard orientation:
 ---------------------------------------------------------------------
 Center     Atomic      Atomic             Coordinates (Angstroms)
 Number     Number       Type             X           Y           Z
 ---------------------------------------------------------------------
      1         11           0       -2.909746    1.182426    0.254041
      2         11           0       -2.353679   -2.299507   -0.288601
      3         11           0        1.573524   -2.507554    0.070193
      4         11           0        3.107104    0.274592   -0.491598
      5         11           0        0.352939    3.156260   -0.204904
      6         11           0        0.517455    0.077677    2.160478
      7         11           0       -0.287599    0.116105   -1.499609
 ---------------------------------------------------------------------

 SCF Done:  E(UB3LYP) =  -1136.13648077     A.U. after   20 cycles

 The electronic state is 2-A.
 Alpha  occ. eigenvalues --  -38.44277 -38.44061 -38.43703 -38.43664 -38.43579
 Alpha  occ. eigenvalues --  -38.43570 -38.43095  -2.20087  -2.19902  -2.19521
 Alpha  occ. eigenvalues --   -2.19505  -2.19432  -2.19373  -2.19059  -1.13774
 Alpha  occ. eigenvalues --   -1.13756  -1.13708  -1.13584  -1.13561  -1.13541
 Alpha  occ. eigenvalues --   -1.13189  -1.13187  -1.13161  -1.13149  -1.13146
 Alpha  occ. eigenvalues --   -1.13144  -1.13102  -1.13087  -1.13064  -1.13061
 Alpha  occ. eigenvalues --   -1.13031  -1.13009  -1.12752  -1.12700  -1.12683
 Alpha  occ. eigenvalues --   -0.18252  -0.13075  -0.12248  -0.10566
 Alpha virt. eigenvalues --   -0.05702  -0.05287  -0.04945  -0.03228  -0.02715
 Alpha virt. eigenvalues --   -0.02511  -0.01552  -0.01283  -0.00580  -0.00550
 Alpha virt. eigenvalues --   -0.00025   0.00341   0.00773   0.00819   0.00855

  Beta  occ. eigenvalues --  -38.44274 -38.44049 -38.43701 -38.43574 -38.43567
  Beta  occ. eigenvalues --  -38.43561 -38.43046  -2.20083  -2.19882  -2.19503
  Beta  occ. eigenvalues --   -2.19425  -2.19371  -2.19332  -2.18971  -1.13768
  Beta  occ. eigenvalues --   -1.13743  -1.13708  -1.13571  -1.13531  -1.13525
  Beta  occ. eigenvalues --   -1.13177  -1.13157  -1.13146  -1.13112  -1.13075
  Beta  occ. eigenvalues --   -1.13062  -1.13054  -1.13045  -1.13027  -1.13014
  Beta  occ. eigenvalues --   -1.13006  -1.12992  -1.12687  -1.12636  -1.12615
  Beta  occ. eigenvalues --   -0.17553  -0.12875  -0.12042
  Beta virt. eigenvalues --   -0.06656  -0.05651  -0.05256  -0.04869  -0.02483
  Beta virt. eigenvalues --   -0.02031  -0.01491  -0.01410  -0.01221  -0.00598
  Beta virt. eigenvalues --   -0.00583   0.00141   0.00384   0.00808   0.00844

 Mulliken charges and spin densities:
               1          2
     1  Na   0.058421   0.007286
     2  Na   0.067239  -0.033840
     3  Na   0.207774   0.042929
     4  Na   0.175648   0.003274
     5  Na   0.035800  -0.059211
     6  Na  -0.483075   0.726098
     7  Na  -0.061807   0.313465
 Sum of Mulliken charges =  -0.00000   1.00000

 Dipole moment (field-independent basis, Debye):
    X=             -0.1033    Y=              0.1294    Z=              0.1313  Tot=              0.2113
 Quadrupole moment (field-independent basis, Debye-Ang):
   XX=            -56.8059   YY=            -60.8554   ZZ=            -75.4398
   XY=              0.1142   XZ=             -1.9876   YZ=              0.2782

 Normal termination of Gaussian 16 at Thu Dec  7 18:43:16 2023.
