 Gaussian 16, Revision B.01,
 Gaussian 16:  ES64L-G16RevB.01 20-Dec-2017

 -------------------------
 #P B3LYP/6-311+g(d) force
 -------------------------

 -----
 DPGEN
 -----
 Symbolic Z-matrix:
 Charge =  0 Multiplicity = 2

                         Standard orientation:
 ---------------------------------------------------------------------
 Center     Atomic      Atomic             Coordinates (Angstroms)
 Number     Number       Type             X           Y           Z
 ---------------------------------------------------------------------
      1         11           0        3.465687    1.158617   -0.443697
      2         11           0       -3.512244   -1.174575   -0.081942
      3         11           0       -2.462002    1.810344   -0.683718
      4         11           0        0.455497    3.243049    1.013223
      5         11           0       -0.685201   -2.583211    0.754384
      6         11           0        2.740669   -2.528858   -0.138298
      7         11           0       -0.002407    0.074634   -0.419953
 ---------------------------------------------------------------------

 SCF Done:  E(UB3LYP) =  -1136.12076909     A.U. after   25 cycles

 The electronic state is 2-A.
 Alpha  occ. eigenvalues --  -38.44597 -38.44395 -38.43881 -38.43854 -38.43834
 Alpha  occ. eigenvalues --  -38.43740 -38.43368  -2.20372  -2.20280  -2.19841
 Alpha  occ. eigenvalues --   -2.19705  -2.19682  -2.19552  -2.19273  -1.14063
 Alpha  occ. eigenvalues --   -1.14037  -1.14026  -1.14013  -1.13943  -1.13887
 Alpha  occ. eigenvalues --   -1.13592  -1.13497  -1.13467  -1.13370  -1.13361
 Alpha  occ. eigenvalues --   -1.13352  -1.13341  -1.13322  -1.13300  -1.13216
 Alpha  occ. eigenvalues --   -1.13195  -1.13177  -1.12957  -1.12909  -1.12868
 Alpha  occ. eigenvalues --   -0.17678  -0.13743  -0.13133  -0.09568
 Alpha virt. eigenvalues --   -0.06710  -0.05824  -0.04217  -0.03311  -0.02842
 Alpha virt. eigenvalues --   -0.02404  -0.01944  -0.01318  -0.00803  -0.00503
 Alpha virt. eigenvalues --    0.00007   0.00225   0.00285   0.00600   0.00738

  Beta  occ. eigenvalues --  -38.44598 -38.44373 -38.43856 -38.43818 -38.43803
  Beta  occ. eigenvalues --  -38.43697 -38.43330  -2.20378  -2.20245  -2.19844
  Beta  occ. eigenvalues --   -2.19650  -2.19566  -2.19474  -2.19204  -1.14073
  Beta  occ. eigenvalues --   -1.14037  -1.14021  -1.13979  -1.13925  -1.13816
  Beta  occ. eigenvalues --   -1.13580  -1.13496  -1.13481  -1.13327  -1.13311
  Beta  occ. eigenvalues --   -1.13305  -1.13273  -1.13247  -1.13210  -1.13161
  Beta  occ. eigenvalues --   -1.13139  -1.13127  -1.12911  -1.12860  -1.12827
  Beta  occ. eigenvalues --   -0.17371  -0.13002  -0.12706
  Beta virt. eigenvalues --   -0.06727  -0.06289  -0.05563  -0.04036  -0.02768
  Beta virt. eigenvalues --   -0.02267  -0.02167  -0.01849  -0.01015  -0.00654
  Beta virt. eigenvalues --   -0.00337   0.00277   0.00335   0.00474   0.00660

 Mulliken charges and spin densities:
               1          2
     1  Na   0.500746   0.435074
     2  Na   0.563134   0.253079
     3  Na   1.882125   0.300163
     4  Na   0.537398   0.151515
     5  Na   0.657635   0.099643
     6  Na   0.584285   0.030963
     7  Na  -4.725323  -0.270438
 Sum of Mulliken charges =  -0.00000   1.00000

 Dipole moment (field-independent basis, Debye):
    X=             -0.2525    Y=             -0.1002    Z=              0.5387  Tot=              0.6033
 Quadrupole moment (field-independent basis, Debye-Ang):
   XX=            -66.8759   YY=            -59.2439   ZZ=            -71.1317
   XY=             -0.6489   XZ=              0.3476   YZ=              0.2663

 Normal termination of Gaussian 16 at Wed Nov 29 17:08:08 2023.
