 Gaussian 16, Revision B.01,
 Gaussian 16:  ES64L-G16RevB.01 20-Dec-2017

 -------------------------
 #P B3LYP/6-311+g(d) force
 -------------------------

 -----
 DPGEN
 -----
 Symbolic Z-matrix:
 Charge =  0 Multiplicity = 2

                         Standard orientation:
 ---------------------------------------------------------------------
 Center     Atomic      Atomic             Coordinates (Angstroms)
 Number     Number       Type             X           Y           Z
 ---------------------------------------------------------------------
      1         11           0        1.637984   -1.665082   -0.808807
      2         11           0        4.695092   -0.318461   -0.739124
      3         11           0        2.567223    1.932756    0.092321
      4         11           0       -0.922557    2.045264    0.579305
      5         11           0       -1.952470   -0.556617   -1.191372
      6         11           0       -0.003894   -1.428676    2.528740
      7         11           0       -6.021378   -0.009184   -0.461062
 ---------------------------------------------------------------------

 SCF Done:  E(UB3LYP) =  -1136.10265817     A.U. after   32 cycles

 The electronic state is 2-A.
 Alpha  occ. eigenvalues --  -38.45237 -38.44892 -38.44727 -38.44669 -38.44527
 Alpha  occ. eigenvalues --  -38.44245 -38.43641  -2.21059  -2.20728  -2.20512
 Alpha  occ. eigenvalues --   -2.20472  -2.20311  -2.19949  -2.19479  -1.14740
 Alpha  occ. eigenvalues --   -1.14697  -1.14675  -1.14422  -1.14384  -1.14328
 Alpha  occ. eigenvalues --   -1.14190  -1.14164  -1.14153  -1.14140  -1.14136
 Alpha  occ. eigenvalues --   -1.14095  -1.14017  -1.13986  -1.13902  -1.13630
 Alpha  occ. eigenvalues --   -1.13627  -1.13577  -1.13145  -1.13134  -1.13123
 Alpha  occ. eigenvalues --   -0.17460  -0.13390  -0.12183  -0.10745
 Alpha virt. eigenvalues --   -0.07587  -0.05414  -0.05081  -0.03525  -0.03029
 Alpha virt. eigenvalues --   -0.02701  -0.02257  -0.01682  -0.01455  -0.00783
 Alpha virt. eigenvalues --   -0.00420   0.00003   0.00264   0.00362   0.00407

  Beta  occ. eigenvalues --  -38.45164 -38.44839 -38.44718 -38.44613 -38.44513
  Beta  occ. eigenvalues --  -38.44252 -38.43638  -2.20927  -2.20630  -2.20457
  Beta  occ. eigenvalues --   -2.20412  -2.20284  -2.19962  -2.19474  -1.14654
  Beta  occ. eigenvalues --   -1.14593  -1.14578  -1.14354  -1.14321  -1.14252
  Beta  occ. eigenvalues --   -1.14143  -1.14123  -1.14119  -1.14102  -1.14087
  Beta  occ. eigenvalues --   -1.14043  -1.13991  -1.13969  -1.13883  -1.13640
  Beta  occ. eigenvalues --   -1.13636  -1.13585  -1.13137  -1.13128  -1.13121
  Beta  occ. eigenvalues --   -0.16635  -0.13271  -0.10669
  Beta virt. eigenvalues --   -0.08188  -0.07371  -0.05053  -0.04469  -0.03011
  Beta virt. eigenvalues --   -0.02798  -0.02359  -0.01855  -0.01576  -0.01150
  Beta virt. eigenvalues --   -0.00761  -0.00286   0.00163   0.00387   0.00485

 Mulliken charges and spin densities:
               1          2
     1  Na  -0.607797   0.422530
     2  Na   0.656527  -0.039230
     3  Na  -0.181655   0.097601
     4  Na  -0.092770   0.537127
     5  Na   0.013076   0.029922
     6  Na   0.079478   0.003552
     7  Na   0.133141  -0.051502
 Sum of Mulliken charges =  -0.00000   1.00000

 Dipole moment (field-independent basis, Debye):
    X=              1.5923    Y=             -0.2155    Z=              1.1396  Tot=              1.9699
 Quadrupole moment (field-independent basis, Debye-Ang):
   XX=            -70.7869   YY=            -68.7346   ZZ=            -68.5037
   XY=             -2.0009   XZ=             -4.2435   YZ=              2.5698

 Normal termination of Gaussian 16 at Wed Nov 29 00:39:34 2023.
