 Gaussian 16, Revision B.01,
 Gaussian 16:  ES64L-G16RevB.01 20-Dec-2017

 -------------------------
 #P B3LYP/6-311+g(d) force
 -------------------------

 -----
 DPGEN
 -----
 Symbolic Z-matrix:
 Charge =  0 Multiplicity = 2

                         Standard orientation:
 ---------------------------------------------------------------------
 Center     Atomic      Atomic             Coordinates (Angstroms)
 Number     Number       Type             X           Y           Z
 ---------------------------------------------------------------------
      1         11           0        0.386977    0.041556    2.299557
      2         11           0        2.199626   -2.008665    0.007259
      3         11           0        2.825197    1.108801   -0.447349
      4         11           0       -2.875645    0.380881    0.257065
      5         11           0       -0.724206    3.055886   -0.302407
      6         11           0       -1.790089   -2.557164   -0.474243
      7         11           0       -0.021861   -0.021296   -1.339882
 ---------------------------------------------------------------------

 SCF Done:  E(UB3LYP) =  -1136.13446790     A.U. after   18 cycles

 The electronic state is 2-A.
 Alpha  occ. eigenvalues --  -38.44041 -38.43981 -38.43789 -38.43788 -38.43357
 Alpha  occ. eigenvalues --  -38.43336 -38.42869  -2.19906  -2.19832  -2.19665
 Alpha  occ. eigenvalues --   -2.19658  -2.19210  -2.19156  -2.18929  -1.13616
 Alpha  occ. eigenvalues --   -1.13562  -1.13541  -1.13486  -1.13455  -1.13450
 Alpha  occ. eigenvalues --   -1.13363  -1.13340  -1.13327  -1.13313  -1.13304
 Alpha  occ. eigenvalues --   -1.13281  -1.12910  -1.12860  -1.12848  -1.12839
 Alpha  occ. eigenvalues --   -1.12810  -1.12797  -1.12613  -1.12574  -1.12549
 Alpha  occ. eigenvalues --   -0.18647  -0.13298  -0.12209  -0.10897
 Alpha virt. eigenvalues --   -0.05465  -0.05236  -0.04707  -0.03317  -0.02768
 Alpha virt. eigenvalues --   -0.02639  -0.01445  -0.01180  -0.00368  -0.00310
 Alpha virt. eigenvalues --   -0.00021   0.00348   0.00808   0.00845   0.00897

  Beta  occ. eigenvalues --  -38.44029 -38.43868 -38.43784 -38.43783 -38.43351
  Beta  occ. eigenvalues --  -38.43334 -38.42824  -2.19888  -2.19661  -2.19652
  Beta  occ. eigenvalues --   -2.19624  -2.19201  -2.19156  -2.18849  -1.13601
  Beta  occ. eigenvalues --   -1.13535  -1.13526  -1.13364  -1.13354  -1.13330
  Beta  occ. eigenvalues --   -1.13315  -1.13311  -1.13307  -1.13294  -1.13282
  Beta  occ. eigenvalues --   -1.13271  -1.12897  -1.12851  -1.12841  -1.12831
  Beta  occ. eigenvalues --   -1.12803  -1.12796  -1.12550  -1.12514  -1.12491
  Beta  occ. eigenvalues --   -0.17941  -0.13085  -0.11995
  Beta virt. eigenvalues --   -0.06892  -0.05427  -0.05172  -0.04659  -0.02534
  Beta virt. eigenvalues --   -0.01984  -0.01627  -0.01354  -0.01114  -0.00394
  Beta virt. eigenvalues --   -0.00316   0.00145   0.00390   0.00846   0.00897

 Mulliken charges and spin densities:
               1          2
     1  Na  -0.575294   0.691931
     2  Na   0.323132   0.120536
     3  Na   0.222917   0.036475
     4  Na   0.233735   0.115342
     5  Na   0.070313   0.018940
     6  Na   0.188242   0.053540
     7  Na  -0.463045  -0.036764
 Sum of Mulliken charges =  -0.00000   1.00000

 Dipole moment (field-independent basis, Debye):
    X=              0.2981    Y=              0.0112    Z=              0.2928  Tot=              0.4180
 Quadrupole moment (field-independent basis, Debye-Ang):
   XX=            -58.0257   YY=            -61.5730   ZZ=            -74.1236
   XY=              0.0332   XZ=             -1.1755   YZ=              0.0158

 Normal termination of Gaussian 16 at Fri Dec  8 07:27:31 2023.
