 Gaussian 16, Revision B.01,
 Gaussian 16:  ES64L-G16RevB.01 20-Dec-2017

 -------------------------
 #P B3LYP/6-311+g(d) force
 -------------------------

 -----
 DPGEN
 -----
 Symbolic Z-matrix:
 Charge =  0 Multiplicity = 2

                         Standard orientation:
 ---------------------------------------------------------------------
 Center     Atomic      Atomic             Coordinates (Angstroms)
 Number     Number       Type             X           Y           Z
 ---------------------------------------------------------------------
      1         11           0       -0.956566    1.174677   -1.294680
      2         11           0        2.518080    2.038090   -0.264728
      3         11           0       -2.789883   -1.812722   -0.308373
      4         11           0        0.985940   -1.436384   -1.321052
      5         11           0        0.082510   -0.410422    1.952057
      6         11           0        3.482804   -0.900880    0.561135
      7         11           0       -3.322885    1.347642    0.675640
 ---------------------------------------------------------------------

 SCF Done:  E(UB3LYP) =  -1136.11691036     A.U. after   29 cycles

 The electronic state is 2-A.
 Alpha  occ. eigenvalues --  -38.45073 -38.44983 -38.44532 -38.44444 -38.43673
 Alpha  occ. eigenvalues --  -38.43228 -38.43165  -2.20887  -2.20844  -2.20337
 Alpha  occ. eigenvalues --   -2.20299  -2.19490  -2.19145  -2.19097  -1.14583
 Alpha  occ. eigenvalues --   -1.14528  -1.14523  -1.14510  -1.14495  -1.14470
 Alpha  occ. eigenvalues --   -1.14029  -1.14013  -1.13985  -1.13979  -1.13940
 Alpha  occ. eigenvalues --   -1.13909  -1.13159  -1.13155  -1.13141  -1.12890
 Alpha  occ. eigenvalues --   -1.12799  -1.12770  -1.12761  -1.12738  -1.12696
 Alpha  occ. eigenvalues --   -0.18511  -0.14523  -0.11048  -0.10694
 Alpha virt. eigenvalues --   -0.07142  -0.05900  -0.04485  -0.03042  -0.02757
 Alpha virt. eigenvalues --   -0.02367  -0.02303  -0.01396  -0.00751  -0.00440
 Alpha virt. eigenvalues --    0.00113   0.00194   0.00290   0.00535   0.00633

  Beta  occ. eigenvalues --  -38.45015 -38.44975 -38.44533 -38.44422 -38.43670
  Beta  occ. eigenvalues --  -38.43176 -38.43121  -2.20829  -2.20780  -2.20342
  Beta  occ. eigenvalues --   -2.20257  -2.19487  -2.19053  -2.19019  -1.14518
  Beta  occ. eigenvalues --   -1.14506  -1.14488  -1.14465  -1.14449  -1.14414
  Beta  occ. eigenvalues --   -1.14029  -1.14002  -1.13979  -1.13956  -1.13910
  Beta  occ. eigenvalues --   -1.13883  -1.13161  -1.13149  -1.13126  -1.12817
  Beta  occ. eigenvalues --   -1.12728  -1.12718  -1.12690  -1.12663  -1.12640
  Beta  occ. eigenvalues --   -0.17782  -0.14303  -0.10508
  Beta virt. eigenvalues --   -0.07193  -0.06858  -0.05952  -0.03769  -0.02853
  Beta virt. eigenvalues --   -0.02562  -0.01803  -0.01508  -0.01313  -0.00511
  Beta virt. eigenvalues --   -0.00305   0.00142   0.00189   0.00448   0.00621

 Mulliken charges and spin densities:
               1          2
     1  Na  -0.323697   0.140595
     2  Na  -0.305221  -0.032878
     3  Na   0.154828  -0.003287
     4  Na  -0.290227   0.133301
     5  Na  -0.502318   0.354724
     6  Na   0.801783   0.236775
     7  Na   0.464853   0.170771
 Sum of Mulliken charges =  -0.00000   1.00000

 Dipole moment (field-independent basis, Debye):
    X=             -0.0936    Y=             -0.5696    Z=              0.6417  Tot=              0.8632
 Quadrupole moment (field-independent basis, Debye-Ang):
   XX=            -46.7769   YY=            -76.6828   ZZ=            -71.1241
   XY=             -0.0131   XZ=             -0.1254   YZ=              2.2780

 Normal termination of Gaussian 16 at Thu Dec  7 10:59:11 2023.
