 Gaussian 16, Revision B.01,
 Gaussian 16:  ES64L-G16RevB.01 20-Dec-2017

 -------------------------
 #P B3LYP/6-311+g(d) force
 -------------------------

 -----
 DPGEN
 -----
 Symbolic Z-matrix:
 Charge =  0 Multiplicity = 2

                         Standard orientation:
 ---------------------------------------------------------------------
 Center     Atomic      Atomic             Coordinates (Angstroms)
 Number     Number       Type             X           Y           Z
 ---------------------------------------------------------------------
      1         11           0        3.417790   -1.113932   -0.618278
      2         11           0        1.295801    0.783010    1.849838
      3         11           0        0.011727   -2.259877    0.919182
      4         11           0        0.150404    2.958657   -0.905640
      5         11           0       -3.211943   -1.401428   -0.646934
      6         11           0        0.093762   -0.167828   -1.775865
      7         11           0       -1.757541    1.201398    1.177697
 ---------------------------------------------------------------------

 SCF Done:  E(UB3LYP) =  -1136.13394564     A.U. after   20 cycles

 The electronic state is 2-A.
 Alpha  occ. eigenvalues --  -38.44107 -38.43824 -38.43794 -38.43780 -38.43520
 Alpha  occ. eigenvalues --  -38.43436 -38.43255  -2.19881  -2.19712  -2.19681
 Alpha  occ. eigenvalues --   -2.19670  -2.19351  -2.19324  -2.19112  -1.13556
 Alpha  occ. eigenvalues --   -1.13544  -1.13510  -1.13435  -1.13408  -1.13384
 Alpha  occ. eigenvalues --   -1.13362  -1.13333  -1.13318  -1.13307  -1.13287
 Alpha  occ. eigenvalues --   -1.13248  -1.13047  -1.13020  -1.13000  -1.12987
 Alpha  occ. eigenvalues --   -1.12963  -1.12934  -1.12793  -1.12753  -1.12731
 Alpha  occ. eigenvalues --   -0.18457  -0.12531  -0.12138  -0.11627
 Alpha virt. eigenvalues --   -0.05799  -0.04630  -0.04433  -0.03286  -0.03157
 Alpha virt. eigenvalues --   -0.03014  -0.01696  -0.00933  -0.00636   0.00179
 Alpha virt. eigenvalues --    0.00264   0.00329   0.00641   0.00794   0.00848

  Beta  occ. eigenvalues --  -38.44102 -38.43805 -38.43724 -38.43715 -38.43517
  Beta  occ. eigenvalues --  -38.43410 -38.43235  -2.19873  -2.19637  -2.19585
  Beta  occ. eigenvalues --   -2.19565  -2.19319  -2.19306  -2.19077  -1.13543
  Beta  occ. eigenvalues --   -1.13536  -1.13506  -1.13383  -1.13332  -1.13309
  Beta  occ. eigenvalues --   -1.13297  -1.13261  -1.13242  -1.13224  -1.13218
  Beta  occ. eigenvalues --   -1.13203  -1.13008  -1.13001  -1.12979  -1.12960
  Beta  occ. eigenvalues --   -1.12957  -1.12915  -1.12756  -1.12731  -1.12703
  Beta  occ. eigenvalues --   -0.17645  -0.12380  -0.11938
  Beta virt. eigenvalues --   -0.07587  -0.05665  -0.04444  -0.04258  -0.02760
  Beta virt. eigenvalues --   -0.02635  -0.02007  -0.01605  -0.00861  -0.00291
  Beta virt. eigenvalues --    0.00168   0.00335   0.00350   0.00714   0.00858

 Mulliken charges and spin densities:
               1          2
     1  Na  -0.063678  -0.089482
     2  Na   0.262549   0.292117
     3  Na  -0.293381   0.082345
     4  Na  -0.200735  -0.124570
     5  Na   0.205488  -0.131295
     6  Na   0.002967   0.701009
     7  Na   0.086790   0.269876
 Sum of Mulliken charges =  -0.00000   1.00000

 Dipole moment (field-independent basis, Debye):
    X=              0.3459    Y=             -0.0956    Z=             -0.0718  Tot=              0.3660
 Quadrupole moment (field-independent basis, Debye-Ang):
   XX=            -57.9937   YY=            -67.6781   ZZ=            -68.1116
   XY=              0.3346   XZ=             -0.2814   YZ=             -0.8999

 Normal termination of Gaussian 16 at Wed Dec  6 00:09:40 2023.
