 Gaussian 16, Revision B.01,
 Gaussian 16:  ES64L-G16RevB.01 20-Dec-2017

 -------------------------
 #P B3LYP/6-311+g(d) force
 -------------------------

 -----
 DPGEN
 -----
 Symbolic Z-matrix:
 Charge =  0 Multiplicity = 2

                         Standard orientation:
 ---------------------------------------------------------------------
 Center     Atomic      Atomic             Coordinates (Angstroms)
 Number     Number       Type             X           Y           Z
 ---------------------------------------------------------------------
      1         11           0        1.913164    0.087706    1.351051
      2         11           0       -0.170170   -2.661316   -0.505346
      3         11           0       -1.368129    0.025563    1.208380
      4         11           0        1.200674    2.532357   -0.969852
      5         11           0       -1.848090    3.206629   -0.159553
      6         11           0       -3.807969   -1.942146   -0.459558
      7         11           0        4.080521   -1.248794   -0.465120
 ---------------------------------------------------------------------

 SCF Done:  E(UB3LYP) =  -1136.11898696     A.U. after   21 cycles

 The electronic state is 2-A.
 Alpha  occ. eigenvalues --  -38.45257 -38.44659 -38.44189 -38.44179 -38.44143
 Alpha  occ. eigenvalues --  -38.43331 -38.43112  -2.21017  -2.20464  -2.19984
 Alpha  occ. eigenvalues --   -2.19975  -2.19949  -2.19253  -2.19035  -1.14721
 Alpha  occ. eigenvalues --   -1.14707  -1.14613  -1.14145  -1.14129  -1.14096
 Alpha  occ. eigenvalues --   -1.13649  -1.13641  -1.13640  -1.13633  -1.13631
 Alpha  occ. eigenvalues --   -1.13622  -1.13589  -1.13586  -1.13583  -1.12945
 Alpha  occ. eigenvalues --   -1.12912  -1.12889  -1.12729  -1.12690  -1.12639
 Alpha  occ. eigenvalues --   -0.17356  -0.13237  -0.12885  -0.09955
 Alpha virt. eigenvalues --   -0.06565  -0.06309  -0.04288  -0.03422  -0.02906
 Alpha virt. eigenvalues --   -0.02293  -0.02072  -0.01417  -0.01073  -0.00761
 Alpha virt. eigenvalues --   -0.00102   0.00261   0.00279   0.00505   0.00615

  Beta  occ. eigenvalues --  -38.45263 -38.44642 -38.44174 -38.44149 -38.44104
  Beta  occ. eigenvalues --  -38.43288 -38.43056  -2.21032  -2.20434  -2.19976
  Beta  occ. eigenvalues --   -2.19900  -2.19875  -2.19183  -2.18940  -1.14733
  Beta  occ. eigenvalues --   -1.14698  -1.14623  -1.14123  -1.14101  -1.14074
  Beta  occ. eigenvalues --   -1.13637  -1.13633  -1.13617  -1.13586  -1.13585
  Beta  occ. eigenvalues --   -1.13579  -1.13541  -1.13535  -1.13532  -1.12892
  Beta  occ. eigenvalues --   -1.12855  -1.12812  -1.12664  -1.12608  -1.12563
  Beta  occ. eigenvalues --   -0.16729  -0.12917  -0.12635
  Beta virt. eigenvalues --   -0.06449  -0.06337  -0.06109  -0.04051  -0.03056
  Beta virt. eigenvalues --   -0.02514  -0.02109  -0.01833  -0.01021  -0.00700
  Beta virt. eigenvalues --   -0.00637   0.00077   0.00337   0.00380   0.00620

 Mulliken charges and spin densities:
               1          2
     1  Na   0.170110   0.174044
     2  Na  -0.156218  -0.104415
     3  Na  -0.486564   0.259339
     4  Na  -0.148507   0.110220
     5  Na   0.253554  -0.003608
     6  Na   0.310430   0.272620
     7  Na   0.057195   0.291801
 Sum of Mulliken charges =  -0.00000   1.00000

 Dipole moment (field-independent basis, Debye):
    X=             -0.4025    Y=             -0.2079    Z=             -0.3018  Tot=              0.5443
 Quadrupole moment (field-independent basis, Debye-Ang):
   XX=            -59.9050   YY=            -66.2100   ZZ=            -72.5368
   XY=             -3.6126   XZ=             -1.6270   YZ=              2.5187

 Normal termination of Gaussian 16 at Wed Nov 29 01:01:21 2023.
