 Gaussian 16, Revision B.01,
 Gaussian 16:  ES64L-G16RevB.01 20-Dec-2017

 -------------------------
 #P B3LYP/6-311+g(d) force
 -------------------------

 -----
 DPGEN
 -----
 Symbolic Z-matrix:
 Charge =  0 Multiplicity = 2

                         Standard orientation:
 ---------------------------------------------------------------------
 Center     Atomic      Atomic             Coordinates (Angstroms)
 Number     Number       Type             X           Y           Z
 ---------------------------------------------------------------------
      1         11           0        1.431944    1.738329   -1.147059
      2         11           0       -1.731859    2.682849    0.427556
      3         11           0       -3.143715   -2.089338    0.421429
      4         11           0       -1.842086    0.185178   -1.444960
      5         11           0       -0.189447   -0.141240    1.874296
      6         11           0        3.741161    0.011361    0.811491
      7         11           0        1.734002   -2.387140   -0.942753
 ---------------------------------------------------------------------

 SCF Done:  E(UB3LYP) =  -1136.12411928     A.U. after   22 cycles

 The electronic state is 2-A.
 Alpha  occ. eigenvalues --  -38.44942 -38.44749 -38.43941 -38.43808 -38.43777
 Alpha  occ. eigenvalues --  -38.43671 -38.43364  -2.20693  -2.20534  -2.19781
 Alpha  occ. eigenvalues --   -2.19604  -2.19594  -2.19515  -2.19282  -1.14367
 Alpha  occ. eigenvalues --   -1.14358  -1.14318  -1.14209  -1.14192  -1.14164
 Alpha  occ. eigenvalues --   -1.13461  -1.13429  -1.13393  -1.13300  -1.13293
 Alpha  occ. eigenvalues --   -1.13279  -1.13246  -1.13237  -1.13235  -1.13211
 Alpha  occ. eigenvalues --   -1.13172  -1.13133  -1.12956  -1.12936  -1.12882
 Alpha  occ. eigenvalues --   -0.17744  -0.13467  -0.11593  -0.10519
 Alpha virt. eigenvalues --   -0.06519  -0.05688  -0.04558  -0.03370  -0.02754
 Alpha virt. eigenvalues --   -0.02447  -0.01987  -0.01331  -0.00918  -0.00247
 Alpha virt. eigenvalues --   -0.00068   0.00256   0.00326   0.00601   0.00666

  Beta  occ. eigenvalues --  -38.44920 -38.44743 -38.43861 -38.43813 -38.43752
  Beta  occ. eigenvalues --  -38.43668 -38.43328  -2.20653  -2.20524  -2.19636
  Beta  occ. eigenvalues --   -2.19604  -2.19562  -2.19513  -2.19217  -1.14332
  Beta  occ. eigenvalues --   -1.14328  -1.14293  -1.14202  -1.14174  -1.14158
  Beta  occ. eigenvalues --   -1.13361  -1.13325  -1.13299  -1.13288  -1.13267
  Beta  occ. eigenvalues --   -1.13248  -1.13237  -1.13231  -1.13229  -1.13189
  Beta  occ. eigenvalues --   -1.13154  -1.13126  -1.12912  -1.12886  -1.12835
  Beta  occ. eigenvalues --   -0.17046  -0.13332  -0.11421
  Beta virt. eigenvalues --   -0.06819  -0.06308  -0.05542  -0.04235  -0.02984
  Beta virt. eigenvalues --   -0.02164  -0.01957  -0.01499  -0.01241  -0.00643
  Beta virt. eigenvalues --   -0.00207   0.00038   0.00313   0.00406   0.00680

 Mulliken charges and spin densities:
               1          2
     1  Na  -0.248025   0.185133
     2  Na   0.289721  -0.051292
     3  Na   0.053639  -0.136633
     4  Na   0.121467   0.329618
     5  Na  -0.429775   0.593684
     6  Na   0.419986   0.003019
     7  Na  -0.207012   0.076471
 Sum of Mulliken charges =  -0.00000   1.00000

 Dipole moment (field-independent basis, Debye):
    X=              0.8889    Y=             -0.0787    Z=              0.2067  Tot=              0.9160
 Quadrupole moment (field-independent basis, Debye-Ang):
   XX=            -54.2109   YY=            -66.7082   ZZ=            -72.8923
   XY=             -0.9511   XZ=              0.0805   YZ=              1.3331

 Normal termination of Gaussian 16 at Wed Dec  6 00:07:56 2023.
