 Gaussian 16, Revision B.01,
 Gaussian 16:  ES64L-G16RevB.01 20-Dec-2017

 -------------------------
 #P B3LYP/6-311+g(d) force
 -------------------------

 -----
 DPGEN
 -----
 Symbolic Z-matrix:
 Charge =  0 Multiplicity = 2

                         Standard orientation:
 ---------------------------------------------------------------------
 Center     Atomic      Atomic             Coordinates (Angstroms)
 Number     Number       Type             X           Y           Z
 ---------------------------------------------------------------------
      1         11           0        0.137302    0.238392    2.037930
      2         11           0        1.950514   -2.153870   -0.316302
      3         11           0       -0.748399    3.350349   -0.172025
      4         11           0       -0.002075   -0.113732   -1.525562
      5         11           0        3.319880    1.061507   -0.026128
      6         11           0       -1.632486   -2.912815    0.214242
      7         11           0       -3.024738    0.530169   -0.212156
 ---------------------------------------------------------------------

 SCF Done:  E(UB3LYP) =  -1136.13294706     A.U. after   19 cycles

 The electronic state is 2-A.
 Alpha  occ. eigenvalues --  -38.44345 -38.44158 -38.44071 -38.43750 -38.43712
 Alpha  occ. eigenvalues --  -38.43510 -38.43272  -2.20118  -2.19926  -2.19889
 Alpha  occ. eigenvalues --   -2.19617  -2.19505  -2.19360  -2.19223  -1.13790
 Alpha  occ. eigenvalues --   -1.13774  -1.13765  -1.13601  -1.13590  -1.13580
 Alpha  occ. eigenvalues --   -1.13573  -1.13553  -1.13500  -1.13367  -1.13273
 Alpha  occ. eigenvalues --   -1.13221  -1.13173  -1.13160  -1.13153  -1.13039
 Alpha  occ. eigenvalues --   -1.12982  -1.12972  -1.12910  -1.12866  -1.12826
 Alpha  occ. eigenvalues --   -0.18061  -0.12910  -0.12253  -0.10272
 Alpha virt. eigenvalues --   -0.05917  -0.05440  -0.05030  -0.02992  -0.02755
 Alpha virt. eigenvalues --   -0.02276  -0.01707  -0.01542  -0.00768  -0.00602
 Alpha virt. eigenvalues --   -0.00017   0.00315   0.00729   0.00748   0.00816

  Beta  occ. eigenvalues --  -38.44346 -38.44157 -38.44064 -38.43738 -38.43709
  Beta  occ. eigenvalues --  -38.43413 -38.43217  -2.20123  -2.19927  -2.19880
  Beta  occ. eigenvalues --   -2.19599  -2.19502  -2.19180  -2.19123  -1.13787
  Beta  occ. eigenvalues --   -1.13769  -1.13769  -1.13593  -1.13585  -1.13577
  Beta  occ. eigenvalues --   -1.13567  -1.13535  -1.13496  -1.13345  -1.13239
  Beta  occ. eigenvalues --   -1.13214  -1.13162  -1.13152  -1.13152  -1.12920
  Beta  occ. eigenvalues --   -1.12857  -1.12843  -1.12833  -1.12789  -1.12757
  Beta  occ. eigenvalues --   -0.17359  -0.12677  -0.12081
  Beta virt. eigenvalues --   -0.06404  -0.05922  -0.05346  -0.04989  -0.02252
  Beta virt. eigenvalues --   -0.02065  -0.01619  -0.01471  -0.01246  -0.00803
  Beta virt. eigenvalues --   -0.00632   0.00137   0.00355   0.00735   0.00778

 Mulliken charges and spin densities:
               1          2
     1  Na  -0.456963   0.834122
     2  Na   0.316661   0.044034
     3  Na  -0.033099  -0.107511
     4  Na  -0.006362   0.344866
     5  Na   0.015830  -0.098815
     6  Na   0.015864   0.002840
     7  Na   0.148070  -0.019535
 Sum of Mulliken charges =  -0.00000   1.00000

 Dipole moment (field-independent basis, Debye):
    X=              0.1173    Y=              0.3174    Z=              0.0582  Tot=              0.3434
 Quadrupole moment (field-independent basis, Debye-Ang):
   XX=            -56.7579   YY=            -57.7104   ZZ=            -77.3151
   XY=              1.9173   XZ=             -0.3663   YZ=             -0.9066

 Normal termination of Gaussian 16 at Thu Dec  7 14:24:35 2023.
