 Gaussian 16, Revision B.01,
 Gaussian 16:  ES64L-G16RevB.01 20-Dec-2017

 -------------------------
 #P B3LYP/6-311+g(d) force
 -------------------------

 -----
 DPGEN
 -----
 Symbolic Z-matrix:
 Charge =  0 Multiplicity = 2

                         Standard orientation:
 ---------------------------------------------------------------------
 Center     Atomic      Atomic             Coordinates (Angstroms)
 Number     Number       Type             X           Y           Z
 ---------------------------------------------------------------------
      1         11           0        0.261781   -1.588910   -1.089798
      2         11           0       -1.147727    0.222387    2.095936
      3         11           0       -2.249690    1.661040   -0.685880
      4         11           0        2.296062   -1.354059    1.463560
      5         11           0        0.750020    2.009598    0.278139
      6         11           0        3.429635    0.419000   -1.374991
      7         11           0       -3.340080   -1.369056   -0.686966
 ---------------------------------------------------------------------

 SCF Done:  E(UB3LYP) =  -1136.12693240     A.U. after   24 cycles

 The electronic state is 2-A.
 Alpha  occ. eigenvalues --  -38.44764 -38.44479 -38.44110 -38.43872 -38.43734
 Alpha  occ. eigenvalues --  -38.43429 -38.42361  -2.20583  -2.20328  -2.20006
 Alpha  occ. eigenvalues --   -2.19780  -2.19566  -2.19254  -2.18281  -1.14247
 Alpha  occ. eigenvalues --   -1.14231  -1.14199  -1.14016  -1.13967  -1.13948
 Alpha  occ. eigenvalues --   -1.13700  -1.13649  -1.13625  -1.13470  -1.13435
 Alpha  occ. eigenvalues --   -1.13402  -1.13276  -1.13259  -1.13162  -1.12929
 Alpha  occ. eigenvalues --   -1.12911  -1.12888  -1.11984  -1.11962  -1.11891
 Alpha  occ. eigenvalues --   -0.18412  -0.14035  -0.11449  -0.11128
 Alpha virt. eigenvalues --   -0.06301  -0.05450  -0.04637  -0.03156  -0.02813
 Alpha virt. eigenvalues --   -0.02476  -0.02133  -0.01021  -0.00757  -0.00124
 Alpha virt. eigenvalues --    0.00201   0.00285   0.00396   0.00579   0.00666

  Beta  occ. eigenvalues --  -38.44714 -38.44433 -38.44053 -38.43856 -38.43726
  Beta  occ. eigenvalues --  -38.43429 -38.42349  -2.20490  -2.20247  -2.19903
  Beta  occ. eigenvalues --   -2.19750  -2.19555  -2.19255  -2.18263  -1.14181
  Beta  occ. eigenvalues --   -1.14164  -1.14140  -1.13959  -1.13913  -1.13872
  Beta  occ. eigenvalues --   -1.13636  -1.13568  -1.13550  -1.13448  -1.13413
  Beta  occ. eigenvalues --   -1.13377  -1.13259  -1.13234  -1.13160  -1.12922
  Beta  occ. eigenvalues --   -1.12912  -1.12890  -1.11977  -1.11919  -1.11878
  Beta  occ. eigenvalues --   -0.17737  -0.13751  -0.10997
  Beta virt. eigenvalues --   -0.07607  -0.06076  -0.04914  -0.04373  -0.03022
  Beta virt. eigenvalues --   -0.02206  -0.01928  -0.01803  -0.00705  -0.00484
  Beta virt. eigenvalues --    0.00018   0.00260   0.00346   0.00492   0.00701

 Mulliken charges and spin densities:
               1          2
     1  Na  -0.667635   0.211422
     2  Na  -0.005282   0.353854
     3  Na   0.202570  -0.019323
     4  Na   0.308272   0.122499
     5  Na  -0.356255   0.327141
     6  Na   0.342986   0.058526
     7  Na   0.175344  -0.054117
 Sum of Mulliken charges =  -0.00000   1.00000

 Dipole moment (field-independent basis, Debye):
    X=              0.6588    Y=             -0.0789    Z=              0.2129  Tot=              0.6968
 Quadrupole moment (field-independent basis, Debye-Ang):
   XX=            -52.4908   YY=            -76.4704   ZZ=            -66.4807
   XY=             -1.1006   XZ=             -1.4444   YZ=             -5.4834

 Normal termination of Gaussian 16 at Tue Dec  5 23:06:14 2023.
