 Gaussian 16, Revision B.01,
 Gaussian 16:  ES64L-G16RevB.01 20-Dec-2017

 -------------------------
 #P B3LYP/6-311+g(d) force
 -------------------------

 -----
 DPGEN
 -----
 Symbolic Z-matrix:
 Charge =  0 Multiplicity = 2

                         Standard orientation:
 ---------------------------------------------------------------------
 Center     Atomic      Atomic             Coordinates (Angstroms)
 Number     Number       Type             X           Y           Z
 ---------------------------------------------------------------------
      1         11           0       -2.567584    2.321934    0.557832
      2         11           0       -3.703953   -0.904383   -0.033359
      3         11           0       -1.064773   -2.914658   -1.128232
      4         11           0        0.745092   -0.229143    1.325728
      5         11           0        2.519600   -2.568893    0.486021
      6         11           0        3.027124    0.840088   -0.425304
      7         11           0        1.044493    3.455055   -0.782685
 ---------------------------------------------------------------------

 SCF Done:  E(UB3LYP) =  -1136.11926140     A.U. after   19 cycles

 The electronic state is 2-A.
 Alpha  occ. eigenvalues --  -38.44990 -38.44412 -38.44317 -38.44272 -38.43840
 Alpha  occ. eigenvalues --  -38.43749 -38.43703  -2.20874  -2.20289  -2.20127
 Alpha  occ. eigenvalues --   -2.20092  -2.19628  -2.19550  -2.19504  -1.14596
 Alpha  occ. eigenvalues --   -1.14529  -1.14513  -1.13987  -1.13956  -1.13900
 Alpha  occ. eigenvalues --   -1.13804  -1.13778  -1.13768  -1.13757  -1.13750
 Alpha  occ. eigenvalues --   -1.13744  -1.13293  -1.13271  -1.13256  -1.13210
 Alpha  occ. eigenvalues --   -1.13194  -1.13170  -1.13167  -1.13155  -1.13136
 Alpha  occ. eigenvalues --   -0.17136  -0.13610  -0.13057  -0.10081
 Alpha virt. eigenvalues --   -0.06442  -0.06054  -0.04490  -0.03488  -0.03116
 Alpha virt. eigenvalues --   -0.02079  -0.01682  -0.01555  -0.01127  -0.01015
 Alpha virt. eigenvalues --   -0.00042   0.00107   0.00366   0.00517   0.00714

  Beta  occ. eigenvalues --  -38.44972 -38.44393 -38.44316 -38.44256 -38.43791
  Beta  occ. eigenvalues --  -38.43678 -38.43668  -2.20842  -2.20260  -2.20099
  Beta  occ. eigenvalues --   -2.20097  -2.19535  -2.19442  -2.19419  -1.14576
  Beta  occ. eigenvalues --   -1.14517  -1.14478  -1.13973  -1.13939  -1.13844
  Beta  occ. eigenvalues --   -1.13786  -1.13780  -1.13765  -1.13752  -1.13723
  Beta  occ. eigenvalues --   -1.13704  -1.13229  -1.13210  -1.13195  -1.13129
  Beta  occ. eigenvalues --   -1.13122  -1.13110  -1.13109  -1.13086  -1.13073
  Beta  occ. eigenvalues --   -0.16792  -0.13030  -0.12367
  Beta virt. eigenvalues --   -0.06854  -0.06484  -0.05864  -0.04172  -0.02906
  Beta virt. eigenvalues --   -0.02625  -0.01882  -0.01660  -0.01368  -0.00904
  Beta virt. eigenvalues --   -0.00705   0.00225   0.00297   0.00474   0.00598

 Mulliken charges and spin densities:
               1          2
     1  Na  -0.005581   0.229227
     2  Na   0.051314   0.024533
     3  Na  -0.225456   0.336667
     4  Na  -0.163699   0.110085
     5  Na   0.532315   0.024013
     6  Na  -0.161258   0.152432
     7  Na  -0.027636   0.123043
 Sum of Mulliken charges =  -0.00000   1.00000

 Dipole moment (field-independent basis, Debye):
    X=              1.0176    Y=             -0.4540    Z=              0.0780  Tot=              1.1170
 Quadrupole moment (field-independent basis, Debye-Ang):
   XX=            -61.4426   YY=            -66.1329   ZZ=            -72.3319
   XY=             -7.0726   XZ=             -1.4386   YZ=             -0.7798

 Normal termination of Gaussian 16 at Sun Dec  3 13:20:42 2023.
