 Gaussian 16, Revision B.01,
 Gaussian 16:  ES64L-G16RevB.01 20-Dec-2017

 -------------------------
 #P B3LYP/6-311+g(d) force
 -------------------------

 -----
 DPGEN
 -----
 Symbolic Z-matrix:
 Charge =  0 Multiplicity = 2

                         Standard orientation:
 ---------------------------------------------------------------------
 Center     Atomic      Atomic             Coordinates (Angstroms)
 Number     Number       Type             X           Y           Z
 ---------------------------------------------------------------------
      1         11           0        3.066368    0.581586   -0.274638
      2         11           0        0.128824    3.129577   -0.396465
      3         11           0        2.072692   -2.238178   -0.165343
      4         11           0       -3.078525    0.858172   -0.152446
      5         11           0        0.195750    0.424044    2.122232
      6         11           0       -2.007420   -2.436489    0.047161
      7         11           0       -0.377688   -0.318712   -1.180501
 ---------------------------------------------------------------------

 SCF Done:  E(UB3LYP) =  -1136.12978440     A.U. after   19 cycles

 The electronic state is 2-A.
 Alpha  occ. eigenvalues --  -38.44503 -38.44160 -38.43934 -38.43694 -38.43520
 Alpha  occ. eigenvalues --  -38.43275 -38.42971  -2.20339  -2.20019  -2.19791
 Alpha  occ. eigenvalues --   -2.19569  -2.19318  -2.19148  -2.19035  -1.14049
 Alpha  occ. eigenvalues --   -1.13997  -1.13953  -1.13750  -1.13674  -1.13648
 Alpha  occ. eigenvalues --   -1.13547  -1.13431  -1.13405  -1.13249  -1.13211
 Alpha  occ. eigenvalues --   -1.13200  -1.12996  -1.12977  -1.12959  -1.12830
 Alpha  occ. eigenvalues --   -1.12767  -1.12755  -1.12716  -1.12672  -1.12664
 Alpha  occ. eigenvalues --   -0.18537  -0.13432  -0.12300  -0.10258
 Alpha virt. eigenvalues --   -0.05944  -0.05337  -0.04831  -0.03102  -0.02655
 Alpha virt. eigenvalues --   -0.02126  -0.01744  -0.01275  -0.00662  -0.00550
 Alpha virt. eigenvalues --   -0.00000   0.00325   0.00747   0.00812   0.00853

  Beta  occ. eigenvalues --  -38.44497 -38.44152 -38.43932 -38.43689 -38.43513
  Beta  occ. eigenvalues --  -38.43168 -38.42936  -2.20331  -2.20007  -2.19790
  Beta  occ. eigenvalues --   -2.19562  -2.19307  -2.18976  -2.18949  -1.14041
  Beta  occ. eigenvalues --   -1.13974  -1.13951  -1.13745  -1.13650  -1.13635
  Beta  occ. eigenvalues --   -1.13544  -1.13416  -1.13404  -1.13243  -1.13208
  Beta  occ. eigenvalues --   -1.13177  -1.12981  -1.12960  -1.12953  -1.12710
  Beta  occ. eigenvalues --   -1.12643  -1.12630  -1.12625  -1.12623  -1.12614
  Beta  occ. eigenvalues --   -0.17857  -0.13197  -0.12093
  Beta virt. eigenvalues --   -0.06367  -0.05889  -0.05300  -0.04771  -0.02358
  Beta virt. eigenvalues --   -0.01935  -0.01655  -0.01218  -0.01109  -0.00685
  Beta virt. eigenvalues --   -0.00565   0.00185   0.00391   0.00787   0.00841

 Mulliken charges and spin densities:
               1          2
     1  Na   0.226195   0.049683
     2  Na   0.065748   0.021445
     3  Na   0.317146   0.070678
     4  Na   0.318107   0.009130
     5  Na  -0.531646   0.688214
     6  Na   0.393009   0.062637
     7  Na  -0.788559   0.098213
 Sum of Mulliken charges =  -0.00000   1.00000

 Dipole moment (field-independent basis, Debye):
    X=             -0.3411    Y=              0.0244    Z=              0.2010  Tot=              0.3966
 Quadrupole moment (field-independent basis, Debye-Ang):
   XX=            -54.6048   YY=            -60.6459   ZZ=            -77.0550
   XY=              0.3978   XZ=             -1.1230   YZ=             -1.6075

 Normal termination of Gaussian 16 at Fri Dec  8 00:11:47 2023.
