 Gaussian 16, Revision B.01,
 Gaussian 16:  ES64L-G16RevB.01 20-Dec-2017

 -------------------------
 #P B3LYP/6-311+g(d) force
 -------------------------

 -----
 DPGEN
 -----
 Symbolic Z-matrix:
 Charge =  0 Multiplicity = 2

                         Standard orientation:
 ---------------------------------------------------------------------
 Center     Atomic      Atomic             Coordinates (Angstroms)
 Number     Number       Type             X           Y           Z
 ---------------------------------------------------------------------
      1         11           0        0.190919    0.136301   -1.429749
      2         11           0        3.950001   -0.430772   -1.313150
      3         11           0        1.120671    2.474303    0.720594
      4         11           0       -3.415918    0.300088   -1.455740
      5         11           0        1.480051   -0.990473    1.834801
      6         11           0       -1.310592   -2.281995    0.390932
      7         11           0       -2.015133    0.792547    1.252312
 ---------------------------------------------------------------------

 SCF Done:  E(UB3LYP) =  -1136.12116750     A.U. after   27 cycles

 The electronic state is 2-A.
 Alpha  occ. eigenvalues --  -38.45444 -38.44325 -38.44267 -38.44257 -38.43466
 Alpha  occ. eigenvalues --  -38.43271 -38.42356  -2.21203  -2.20252  -2.20169
 Alpha  occ. eigenvalues --   -2.20102  -2.19303  -2.19111  -2.18246  -1.14863
 Alpha  occ. eigenvalues --   -1.14844  -1.14806  -1.13982  -1.13940  -1.13884
 Alpha  occ. eigenvalues --   -1.13875  -1.13839  -1.13786  -1.13754  -1.13722
 Alpha  occ. eigenvalues --   -1.13715  -1.12983  -1.12959  -1.12918  -1.12793
 Alpha  occ. eigenvalues --   -1.12775  -1.12735  -1.11943  -1.11928  -1.11849
 Alpha  occ. eigenvalues --   -0.18378  -0.13671  -0.11647  -0.10813
 Alpha virt. eigenvalues --   -0.06732  -0.05285  -0.04327  -0.03079  -0.02716
 Alpha virt. eigenvalues --   -0.02556  -0.02275  -0.01336  -0.00559  -0.00267
 Alpha virt. eigenvalues --    0.00094   0.00216   0.00287   0.00618   0.00734

  Beta  occ. eigenvalues --  -38.45373 -38.44303 -38.44251 -38.44235 -38.43425
  Beta  occ. eigenvalues --  -38.43253 -38.42355  -2.21070  -2.20215  -2.20141
  Beta  occ. eigenvalues --   -2.20061  -2.19230  -2.19080  -2.18245  -1.14769
  Beta  occ. eigenvalues --   -1.14754  -1.14721  -1.13951  -1.13903  -1.13853
  Beta  occ. eigenvalues --   -1.13843  -1.13825  -1.13760  -1.13724  -1.13694
  Beta  occ. eigenvalues --   -1.13684  -1.12935  -1.12899  -1.12863  -1.12771
  Beta  occ. eigenvalues --   -1.12736  -1.12716  -1.11943  -1.11922  -1.11841
  Beta  occ. eigenvalues --   -0.17761  -0.13203  -0.10648
  Beta virt. eigenvalues --   -0.07950  -0.06359  -0.04783  -0.04194  -0.02851
  Beta virt. eigenvalues --   -0.02332  -0.02023  -0.01748  -0.01011  -0.00496
  Beta virt. eigenvalues --   -0.00047   0.00201   0.00294   0.00363   0.00679

 Mulliken charges and spin densities:
               1          2
     1  Na  -0.522901   0.158031
     2  Na   0.103089   0.256427
     3  Na  -0.210677   0.223097
     4  Na   0.606862   0.154033
     5  Na   0.012785   0.097824
     6  Na  -0.358553   0.087828
     7  Na   0.369395   0.022759
 Sum of Mulliken charges =  -0.00000   1.00000

 Dipole moment (field-independent basis, Debye):
    X=              0.3779    Y=              0.0328    Z=             -0.2829  Tot=              0.4732
 Quadrupole moment (field-independent basis, Debye-Ang):
   XX=            -50.4982   YY=            -76.9719   ZZ=            -66.0469
   XY=             -0.3248   XZ=              0.6605   YZ=              5.6221

 Normal termination of Gaussian 16 at Thu Dec  7 10:22:02 2023.
