 Gaussian 16, Revision B.01,
 Gaussian 16:  ES64L-G16RevB.01 20-Dec-2017

 -------------------------
 #P B3LYP/6-311+g(d) force
 -------------------------

 -----
 DPGEN
 -----
 Symbolic Z-matrix:
 Charge =  0 Multiplicity = 2

                         Standard orientation:
 ---------------------------------------------------------------------
 Center     Atomic      Atomic             Coordinates (Angstroms)
 Number     Number       Type             X           Y           Z
 ---------------------------------------------------------------------
      1         11           0       -3.742969   -1.365530   -0.524973
      2         11           0        2.927839   -1.861020    0.632946
      3         11           0        1.409571    1.080052    1.933357
      4         11           0       -0.171633   -1.269456   -0.803851
      5         11           0       -0.541270    2.331485   -1.178340
      6         11           0        2.443802    0.499264   -1.563512
      7         11           0       -2.325339    0.585205    1.504373
 ---------------------------------------------------------------------

 SCF Done:  E(UB3LYP) =  -1136.12870159     A.U. after   21 cycles

 The electronic state is 2-A.
 Alpha  occ. eigenvalues --  -38.44281 -38.44178 -38.44136 -38.43900 -38.43820
 Alpha  occ. eigenvalues --  -38.43462 -38.42976  -2.20187  -2.20035  -2.19979
 Alpha  occ. eigenvalues --   -2.19793  -2.19638  -2.19320  -2.18807  -1.13895
 Alpha  occ. eigenvalues --   -1.13841  -1.13791  -1.13723  -1.13707  -1.13668
 Alpha  occ. eigenvalues --   -1.13654  -1.13621  -1.13581  -1.13501  -1.13465
 Alpha  occ. eigenvalues --   -1.13402  -1.13304  -1.13288  -1.13269  -1.12986
 Alpha  occ. eigenvalues --   -1.12972  -1.12961  -1.12489  -1.12459  -1.12440
 Alpha  occ. eigenvalues --   -0.18308  -0.13897  -0.11538  -0.11216
 Alpha virt. eigenvalues --   -0.06111  -0.05255  -0.04791  -0.03256  -0.02823
 Alpha virt. eigenvalues --   -0.02521  -0.02101  -0.01009  -0.00792  -0.00112
 Alpha virt. eigenvalues --    0.00182   0.00262   0.00304   0.00525   0.00779

  Beta  occ. eigenvalues --  -38.44239 -38.44155 -38.44062 -38.43873 -38.43821
  Beta  occ. eigenvalues --  -38.43450 -38.42958  -2.20113  -2.19993  -2.19843
  Beta  occ. eigenvalues --   -2.19748  -2.19641  -2.19299  -2.18777  -1.13837
  Beta  occ. eigenvalues --   -1.13786  -1.13735  -1.13690  -1.13674  -1.13638
  Beta  occ. eigenvalues --   -1.13562  -1.13527  -1.13482  -1.13451  -1.13427
  Beta  occ. eigenvalues --   -1.13376  -1.13303  -1.13290  -1.13268  -1.12972
  Beta  occ. eigenvalues --   -1.12957  -1.12933  -1.12465  -1.12435  -1.12411
  Beta  occ. eigenvalues --   -0.17578  -0.13747  -0.11005
  Beta virt. eigenvalues --   -0.07580  -0.05948  -0.04994  -0.04322  -0.02882
  Beta virt. eigenvalues --   -0.02328  -0.02132  -0.01704  -0.00832  -0.00386
  Beta virt. eigenvalues --   -0.00045   0.00249   0.00333   0.00435   0.00616

 Mulliken charges and spin densities:
               1          2
     1  Na   0.131161  -0.003471
     2  Na   0.598945  -0.031635
     3  Na  -0.391396   0.500329
     4  Na  -0.920609   0.427948
     5  Na  -0.067656   0.029460
     6  Na   0.474712   0.065630
     7  Na   0.174842   0.011739
 Sum of Mulliken charges =  -0.00000   1.00000

 Dipole moment (field-independent basis, Debye):
    X=              0.0791    Y=              0.2606    Z=             -0.0066  Tot=              0.2725
 Quadrupole moment (field-independent basis, Debye-Ang):
   XX=            -55.2099   YY=            -73.7086   ZZ=            -66.8649
   XY=             -0.3975   XZ=              0.4617   YZ=             -0.5590

 Normal termination of Gaussian 16 at Tue Dec  5 11:36:21 2023.
