 Gaussian 16, Revision B.01,
 Gaussian 16:  ES64L-G16RevB.01 20-Dec-2017

 -------------------------
 #P B3LYP/6-311+g(d) force
 -------------------------

 -----
 DPGEN
 -----
 Symbolic Z-matrix:
 Charge =  0 Multiplicity = 2

                         Standard orientation:
 ---------------------------------------------------------------------
 Center     Atomic      Atomic             Coordinates (Angstroms)
 Number     Number       Type             X           Y           Z
 ---------------------------------------------------------------------
      1         11           0       -1.438857   -0.127295    1.988084
      2         11           0        1.750366    1.704901    0.650823
      3         11           0       -2.485582    2.008615   -0.656465
      4         11           0       -3.219428   -1.500865   -0.284228
      5         11           0        4.306187   -0.226268   -0.206538
      6         11           0       -0.021816   -0.026181   -1.519520
      7         11           0        1.109130   -1.832907    0.027844
 ---------------------------------------------------------------------

 SCF Done:  E(UB3LYP) =  -1136.10650753     A.U. after   27 cycles

 The electronic state is 2-A.
 Alpha  occ. eigenvalues --  -38.46479 -38.45039 -38.44329 -38.43680 -38.43555
 Alpha  occ. eigenvalues --  -38.43530 -38.43259  -2.22248  -2.20854  -2.20349
 Alpha  occ. eigenvalues --   -2.19607  -2.19459  -2.19385  -2.19099  -1.15921
 Alpha  occ. eigenvalues --   -1.15914  -1.15872  -1.14553  -1.14504  -1.14480
 Alpha  occ. eigenvalues --   -1.14313  -1.13967  -1.13913  -1.13296  -1.13242
 Alpha  occ. eigenvalues --   -1.13135  -1.13126  -1.13106  -1.13091  -1.13058
 Alpha  occ. eigenvalues --   -1.13050  -1.12992  -1.12776  -1.12755  -1.12731
 Alpha  occ. eigenvalues --   -0.18675  -0.14405  -0.10731  -0.10643
 Alpha virt. eigenvalues --   -0.07885  -0.05323  -0.04047  -0.03478  -0.02838
 Alpha virt. eigenvalues --   -0.02102  -0.02056  -0.01570  -0.00825  -0.00280
 Alpha virt. eigenvalues --   -0.00061   0.00218   0.00360   0.00654   0.00714

  Beta  occ. eigenvalues --  -38.46486 -38.45032 -38.44266 -38.43668 -38.43514
  Beta  occ. eigenvalues --  -38.43471 -38.43243  -2.22262  -2.20845  -2.20237
  Beta  occ. eigenvalues --   -2.19590  -2.19358  -2.19303  -2.19071  -1.15927
  Beta  occ. eigenvalues --   -1.15925  -1.15881  -1.14536  -1.14483  -1.14478
  Beta  occ. eigenvalues --   -1.14236  -1.13881  -1.13836  -1.13273  -1.13193
  Beta  occ. eigenvalues --   -1.13123  -1.13075  -1.13022  -1.13011  -1.13004
  Beta  occ. eigenvalues --   -1.12978  -1.12945  -1.12748  -1.12734  -1.12706
  Beta  occ. eigenvalues --   -0.17984  -0.14220  -0.10428
  Beta virt. eigenvalues --   -0.07736  -0.06772  -0.05287  -0.03588  -0.03205
  Beta virt. eigenvalues --   -0.02687  -0.01558  -0.01361  -0.01210  -0.00495
  Beta virt. eigenvalues --   -0.00190  -0.00036   0.00199   0.00531   0.00683

 Mulliken charges and spin densities:
               1          2
     1  Na   0.055342   0.539512
     2  Na  -0.484758   0.119841
     3  Na  -0.201673   0.029497
     4  Na   0.305600   0.042963
     5  Na   0.489019  -0.065044
     6  Na   0.036315   0.203769
     7  Na  -0.199844   0.129462
 Sum of Mulliken charges =  -0.00000   1.00000

 Dipole moment (field-independent basis, Debye):
    X=              1.3737    Y=             -0.3514    Z=             -0.0767  Tot=              1.4200
 Quadrupole moment (field-independent basis, Debye-Ang):
   XX=            -35.1469   YY=            -78.4388   ZZ=            -74.4314
   XY=              0.7407   XZ=              0.3701   YZ=              0.4681

 Normal termination of Gaussian 16 at Thu Dec  7 12:03:48 2023.
