 Gaussian 16, Revision B.01,
 Gaussian 16:  ES64L-G16RevB.01 20-Dec-2017

 -------------------------
 #P B3LYP/6-311+g(d) force
 -------------------------

 -----
 DPGEN
 -----
 Symbolic Z-matrix:
 Charge =  0 Multiplicity = 2

                         Standard orientation:
 ---------------------------------------------------------------------
 Center     Atomic      Atomic             Coordinates (Angstroms)
 Number     Number       Type             X           Y           Z
 ---------------------------------------------------------------------
      1         11           0        0.698801    3.027147   -1.007794
      2         11           0       -1.501968    1.449396    2.295725
      3         11           0       -3.166744    0.638132   -0.212458
      4         11           0       -2.866503   -2.387238   -0.915482
      5         11           0        0.398470   -1.171816   -0.613243
      6         11           0        3.437206    0.857556   -0.596625
      7         11           0        3.000738   -2.413178    1.049877
 ---------------------------------------------------------------------

 SCF Done:  E(UB3LYP) =  -1136.12022169     A.U. after   21 cycles

 The electronic state is 2-A.
 Alpha  occ. eigenvalues --  -38.44641 -38.44398 -38.44310 -38.44114 -38.43887
 Alpha  occ. eigenvalues --  -38.43674 -38.43624  -2.20436  -2.20266  -2.20136
 Alpha  occ. eigenvalues --   -2.19944  -2.19699  -2.19467  -2.19446  -1.14126
 Alpha  occ. eigenvalues --   -1.14104  -1.14050  -1.14004  -1.13927  -1.13921
 Alpha  occ. eigenvalues --   -1.13770  -1.13763  -1.13732  -1.13668  -1.13621
 Alpha  occ. eigenvalues --   -1.13564  -1.13354  -1.13349  -1.13314  -1.13127
 Alpha  occ. eigenvalues --   -1.13125  -1.13106  -1.13104  -1.13099  -1.13074
 Alpha  occ. eigenvalues --   -0.16917  -0.14003  -0.12194  -0.10695
 Alpha virt. eigenvalues --   -0.06185  -0.05350  -0.04860  -0.03496  -0.03025
 Alpha virt. eigenvalues --   -0.02228  -0.01905  -0.01417  -0.00908  -0.00676
 Alpha virt. eigenvalues --   -0.00306   0.00064   0.00324   0.00540   0.00672

  Beta  occ. eigenvalues --  -38.44624 -38.44389 -38.44225 -38.44113 -38.43843
  Beta  occ. eigenvalues --  -38.43651 -38.43591  -2.20409  -2.20256  -2.19978
  Beta  occ. eigenvalues --   -2.19943  -2.19616  -2.19406  -2.19404  -1.14109
  Beta  occ. eigenvalues --   -1.14088  -1.14008  -1.13961  -1.13927  -1.13900
  Beta  occ. eigenvalues --   -1.13664  -1.13659  -1.13655  -1.13632  -1.13623
  Beta  occ. eigenvalues --   -1.13559  -1.13297  -1.13292  -1.13263  -1.13098
  Beta  occ. eigenvalues --   -1.13089  -1.13076  -1.13062  -1.13059  -1.13034
  Beta  occ. eigenvalues --   -0.16491  -0.13469  -0.11521
  Beta virt. eigenvalues --   -0.07466  -0.06110  -0.04939  -0.04602  -0.03124
  Beta virt. eigenvalues --   -0.02568  -0.02123  -0.01425  -0.01266  -0.00699
  Beta virt. eigenvalues --   -0.00567  -0.00033   0.00241   0.00479   0.00694

 Mulliken charges and spin densities:
               1          2
     1  Na  -0.113054   0.064243
     2  Na  -0.049614   0.304290
     3  Na   0.230180   0.152756
     4  Na   0.273484   0.040935
     5  Na  -1.587864   0.121803
     6  Na   0.777782   0.129018
     7  Na   0.469086   0.186955
 Sum of Mulliken charges =  -0.00000   1.00000

 Dipole moment (field-independent basis, Debye):
    X=              0.3156    Y=             -0.1631    Z=              0.3591  Tot=              0.5051
 Quadrupole moment (field-independent basis, Debye-Ang):
   XX=            -57.5975   YY=            -69.7306   ZZ=            -70.0093
   XY=             -0.2692   XZ=              3.2252   YZ=             -2.7600

 Normal termination of Gaussian 16 at Tue Dec  5 19:26:19 2023.
