 Gaussian 16, Revision B.01,
 Gaussian 16:  ES64L-G16RevB.01 20-Dec-2017

 -------------------------
 #P B3LYP/6-311+g(d) force
 -------------------------

 -----
 DPGEN
 -----
 Symbolic Z-matrix:
 Charge =  0 Multiplicity = 2

                         Standard orientation:
 ---------------------------------------------------------------------
 Center     Atomic      Atomic             Coordinates (Angstroms)
 Number     Number       Type             X           Y           Z
 ---------------------------------------------------------------------
      1         11           0        1.515754    2.407337    0.430650
      2         11           0       -4.519139   -0.114360   -0.515917
      3         11           0        1.903857   -2.290338    0.001555
      4         11           0        0.006630   -0.287163    2.337221
      5         11           0       -1.327596   -1.936693   -0.535276
      6         11           0       -1.819302    1.946166   -0.589462
      7         11           0        4.239795    0.275051   -1.128771
 ---------------------------------------------------------------------

 SCF Done:  E(UB3LYP) =  -1136.12326004     A.U. after   22 cycles

 The electronic state is 2-A.
 Alpha  occ. eigenvalues --  -38.45298 -38.44775 -38.44433 -38.43939 -38.43698
 Alpha  occ. eigenvalues --  -38.43441 -38.43079  -2.21117  -2.20564  -2.20233
 Alpha  occ. eigenvalues --   -2.19740  -2.19527  -2.19263  -2.18875  -1.14780
 Alpha  occ. eigenvalues --   -1.14764  -1.14715  -1.14213  -1.14197  -1.14179
 Alpha  occ. eigenvalues --   -1.13890  -1.13886  -1.13859  -1.13443  -1.13418
 Alpha  occ. eigenvalues --   -1.13357  -1.13233  -1.13214  -1.13142  -1.12954
 Alpha  occ. eigenvalues --   -1.12925  -1.12889  -1.12560  -1.12549  -1.12511
 Alpha  occ. eigenvalues --   -0.17170  -0.13762  -0.11721  -0.11422
 Alpha virt. eigenvalues --   -0.06510  -0.05409  -0.04620  -0.03347  -0.02960
 Alpha virt. eigenvalues --   -0.02636  -0.02206  -0.01403  -0.00998  -0.00461
 Alpha virt. eigenvalues --   -0.00135   0.00016   0.00446   0.00545   0.00732

  Beta  occ. eigenvalues --  -38.45221 -38.44681 -38.44396 -38.43940 -38.43700
  Beta  occ. eigenvalues --  -38.43438 -38.43078  -2.20976  -2.20388  -2.20164
  Beta  occ. eigenvalues --   -2.19745  -2.19531  -2.19260  -2.18876  -1.14689
  Beta  occ. eigenvalues --   -1.14670  -1.14608  -1.14094  -1.14075  -1.14064
  Beta  occ. eigenvalues --   -1.13842  -1.13838  -1.13815  -1.13449  -1.13419
  Beta  occ. eigenvalues --   -1.13345  -1.13238  -1.13210  -1.13141  -1.12955
  Beta  occ. eigenvalues --   -1.12926  -1.12861  -1.12565  -1.12546  -1.12495
  Beta  occ. eigenvalues --   -0.16627  -0.12942  -0.11619
  Beta virt. eigenvalues --   -0.07986  -0.06085  -0.05271  -0.04065  -0.03238
  Beta virt. eigenvalues --   -0.02461  -0.02219  -0.01779  -0.01297  -0.00597
  Beta virt. eigenvalues --   -0.00346  -0.00071   0.00098   0.00540   0.00683

 Mulliken charges and spin densities:
               1          2
     1  Na  -0.199556  -0.021540
     2  Na   0.437881   0.180632
     3  Na  -0.026933   0.158322
     4  Na   0.008617   0.277780
     5  Na  -0.218938  -0.055013
     6  Na  -0.120252   0.019324
     7  Na   0.119182   0.440495
 Sum of Mulliken charges =  -0.00000   1.00000

 Dipole moment (field-independent basis, Debye):
    X=             -0.6911    Y=             -0.2918    Z=              0.5830  Tot=              0.9501
 Quadrupole moment (field-independent basis, Debye-Ang):
   XX=            -57.1065   YY=            -75.1818   ZZ=            -65.7554
   XY=              0.6649   XZ=             -1.7011   YZ=             -0.4500

 Normal termination of Gaussian 16 at Mon Dec  4 02:51:51 2023.
