 Gaussian 16, Revision B.01,
 Gaussian 16:  ES64L-G16RevB.01 20-Dec-2017

 -------------------------
 #P B3LYP/6-311+g(d) force
 -------------------------

 -----
 DPGEN
 -----
 Symbolic Z-matrix:
 Charge =  0 Multiplicity = 2

                         Standard orientation:
 ---------------------------------------------------------------------
 Center     Atomic      Atomic             Coordinates (Angstroms)
 Number     Number       Type             X           Y           Z
 ---------------------------------------------------------------------
      1         11           0        2.659438   -1.532685    0.948276
      2         11           0        5.797702   -0.813701   -0.584560
      3         11           0        3.480269    1.564088    0.165120
      4         11           0        0.192436    2.276642   -0.072728
      5         11           0       -0.230476   -1.158228   -0.618178
      6         11           0       -4.587791    0.068884    0.495295
      7         11           0       -7.311578   -0.405002   -0.333224
 ---------------------------------------------------------------------

 SCF Done:  E(UB3LYP) =  -1136.11414571     A.U. after   19 cycles

 The electronic state is 2-A.
 Alpha  occ. eigenvalues --  -38.44880 -38.44428 -38.44295 -38.44228 -38.44145
 Alpha  occ. eigenvalues --  -38.43761 -38.43754  -2.20741  -2.20304  -2.20091
 Alpha  occ. eigenvalues --   -2.20051  -2.19966  -2.19588  -2.19561  -1.14432
 Alpha  occ. eigenvalues --   -1.14419  -1.14338  -1.13997  -1.13969  -1.13911
 Alpha  occ. eigenvalues --   -1.13759  -1.13755  -1.13716  -1.13710  -1.13708
 Alpha  occ. eigenvalues --   -1.13679  -1.13628  -1.13621  -1.13573  -1.13446
 Alpha  occ. eigenvalues --   -1.13243  -1.13240  -1.13194  -1.13193  -1.13085
 Alpha  occ. eigenvalues --   -0.17053  -0.13404  -0.12211  -0.11646
 Alpha virt. eigenvalues --   -0.06602  -0.05083  -0.04751  -0.03353  -0.03133
 Alpha virt. eigenvalues --   -0.02696  -0.02142  -0.01558  -0.01265  -0.01129
 Alpha virt. eigenvalues --   -0.00341  -0.00170   0.00252   0.00347   0.00433

  Beta  occ. eigenvalues --  -38.44825 -38.44371 -38.44291 -38.44181 -38.44096
  Beta  occ. eigenvalues --  -38.43760 -38.43757  -2.20643  -2.20202  -2.20083
  Beta  occ. eigenvalues --   -2.19966  -2.19877  -2.19589  -2.19563  -1.14365
  Beta  occ. eigenvalues --   -1.14351  -1.14252  -1.13931  -1.13906  -1.13821
  Beta  occ. eigenvalues --   -1.13752  -1.13742  -1.13702  -1.13654  -1.13646
  Beta  occ. eigenvalues --   -1.13620  -1.13570  -1.13550  -1.13509  -1.13448
  Beta  occ. eigenvalues --   -1.13243  -1.13241  -1.13196  -1.13194  -1.13087
  Beta  occ. eigenvalues --   -0.16251  -0.13409  -0.12019
  Beta virt. eigenvalues --   -0.07508  -0.06448  -0.04884  -0.04277  -0.03100
  Beta virt. eigenvalues --   -0.02649  -0.02362  -0.01930  -0.01497  -0.01072
  Beta virt. eigenvalues --   -0.00699  -0.00097   0.00013   0.00373   0.00466

 Mulliken charges and spin densities:
               1          2
     1  Na  -0.082185   0.283518
     2  Na   0.491868  -0.009714
     3  Na  -0.026786   0.209039
     4  Na  -0.155132   0.284737
     5  Na  -0.027863   0.291317
     6  Na  -0.888343  -0.046522
     7  Na   0.688441  -0.012373
 Sum of Mulliken charges =  -0.00000   1.00000

 Dipole moment (field-independent basis, Debye):
    X=              1.6897    Y=             -0.3153    Z=             -0.3630  Tot=              1.7568
 Quadrupole moment (field-independent basis, Debye-Ang):
   XX=            -58.3431   YY=            -69.9592   ZZ=            -69.7163
   XY=             -2.2023   XZ=              0.7172   YZ=              1.1055

 Normal termination of Gaussian 16 at Tue Nov 28 21:51:05 2023.
