 Gaussian 16, Revision B.01,
 Gaussian 16:  ES64L-G16RevB.01 20-Dec-2017

 -------------------------
 #P B3LYP/6-311+g(d) force
 -------------------------

 -----
 DPGEN
 -----
 Symbolic Z-matrix:
 Charge =  0 Multiplicity = 2

                         Standard orientation:
 ---------------------------------------------------------------------
 Center     Atomic      Atomic             Coordinates (Angstroms)
 Number     Number       Type             X           Y           Z
 ---------------------------------------------------------------------
      1         11           0       -0.339273    0.368079    1.783783
      2         11           0        1.122046    2.402093   -0.154407
      3         11           0        0.981437   -2.388013    0.222939
      4         11           0       -0.054727   -0.462409   -1.710198
      5         11           0       -2.204518    1.759183   -0.245602
      6         11           0       -2.600052   -1.549144    0.069477
      7         11           0        3.095086   -0.129789    0.034007
 ---------------------------------------------------------------------

 SCF Done:  E(UB3LYP) =  -1136.13315960     A.U. after   20 cycles

 The electronic state is 2-A.
 Alpha  occ. eigenvalues --  -38.44057 -38.43788 -38.43572 -38.43245 -38.43227
 Alpha  occ. eigenvalues --  -38.43214 -38.43031  -2.19942  -2.19669  -2.19498
 Alpha  occ. eigenvalues --   -2.19252  -2.19241  -2.19194  -2.18957  -1.13634
 Alpha  occ. eigenvalues --   -1.13608  -1.13585  -1.13363  -1.13338  -1.13311
 Alpha  occ. eigenvalues --   -1.13226  -1.13165  -1.13114  -1.13100  -1.12935
 Alpha  occ. eigenvalues --   -1.12898  -1.12878  -1.12858  -1.12850  -1.12821
 Alpha  occ. eigenvalues --   -1.12794  -1.12764  -1.12628  -1.12609  -1.12585
 Alpha  occ. eigenvalues --   -0.19556  -0.13517  -0.12547  -0.10886
 Alpha virt. eigenvalues --   -0.05653  -0.05134  -0.04240  -0.03331  -0.02869
 Alpha virt. eigenvalues --   -0.02356  -0.01566  -0.00953  -0.00037   0.00003
 Alpha virt. eigenvalues --    0.00056   0.00359   0.00833   0.00945   0.00968

  Beta  occ. eigenvalues --  -38.44055 -38.43782 -38.43562 -38.43235 -38.43147
  Beta  occ. eigenvalues --  -38.43139 -38.43023  -2.19942  -2.19662  -2.19485
  Beta  occ. eigenvalues --   -2.19185  -2.19109  -2.19095  -2.18946  -1.13637
  Beta  occ. eigenvalues --   -1.13609  -1.13564  -1.13359  -1.13311  -1.13301
  Beta  occ. eigenvalues --   -1.13210  -1.13123  -1.13110  -1.13046  -1.12853
  Beta  occ. eigenvalues --   -1.12822  -1.12806  -1.12792  -1.12762  -1.12744
  Beta  occ. eigenvalues --   -1.12738  -1.12698  -1.12614  -1.12583  -1.12565
  Beta  occ. eigenvalues --   -0.18799  -0.13256  -0.12280
  Beta virt. eigenvalues --   -0.06908  -0.05620  -0.05133  -0.04227  -0.02497
  Beta virt. eigenvalues --   -0.02066  -0.01490  -0.01293  -0.00896  -0.00079
  Beta virt. eigenvalues --    0.00006   0.00139   0.00384   0.00883   0.00943

 Mulliken charges and spin densities:
               1          2
     1  Na  -0.657228   0.653367
     2  Na   0.300001  -0.033137
     3  Na   0.453421  -0.029817
     4  Na  -0.654661   0.583370
     5  Na   0.306765  -0.046023
     6  Na   0.304496  -0.077714
     7  Na  -0.052792  -0.050046
 Sum of Mulliken charges =  -0.00000   1.00000

 Dipole moment (field-independent basis, Debye):
    X=             -0.1146    Y=             -0.0606    Z=              0.0329  Tot=              0.1338
 Quadrupole moment (field-independent basis, Debye-Ang):
   XX=            -54.4194   YY=            -65.6969   ZZ=            -73.6060
   XY=              0.5878   XZ=              0.5134   YZ=             -1.7515

 Normal termination of Gaussian 16 at Tue Dec  5 17:46:45 2023.
