 Gaussian 16, Revision B.01,
 Gaussian 16:  ES64L-G16RevB.01 20-Dec-2017

 -------------------------
 #P B3LYP/6-311+g(d) force
 -------------------------

 -----
 DPGEN
 -----
 Symbolic Z-matrix:
 Charge =  0 Multiplicity = 2

                         Standard orientation:
 ---------------------------------------------------------------------
 Center     Atomic      Atomic             Coordinates (Angstroms)
 Number     Number       Type             X           Y           Z
 ---------------------------------------------------------------------
      1         11           0       -0.417174   -2.207875   -0.121252
      2         11           0        0.290370    0.528296   -1.796438
      3         11           0       -3.420869   -0.759953   -0.467727
      4         11           0       -1.976380    2.067513    0.276544
      5         11           0       -0.468647   -0.214424    1.980866
      6         11           0        2.557494    1.940294    0.106912
      7         11           0        3.435205   -1.353851    0.021097
 ---------------------------------------------------------------------

 SCF Done:  E(UB3LYP) =  -1136.11984816     A.U. after   24 cycles

 The electronic state is 2-A.
 Alpha  occ. eigenvalues --  -38.45181 -38.45137 -38.44084 -38.43954 -38.43815
 Alpha  occ. eigenvalues --  -38.43307 -38.42679  -2.21011  -2.20897  -2.19895
 Alpha  occ. eigenvalues --   -2.19855  -2.19759  -2.19185  -2.18612  -1.14682
 Alpha  occ. eigenvalues --   -1.14663  -1.14652  -1.14579  -1.14556  -1.14531
 Alpha  occ. eigenvalues --   -1.13609  -1.13563  -1.13546  -1.13531  -1.13492
 Alpha  occ. eigenvalues --   -1.13485  -1.13452  -1.13397  -1.13345  -1.12864
 Alpha  occ. eigenvalues --   -1.12843  -1.12818  -1.12334  -1.12284  -1.12189
 Alpha  occ. eigenvalues --   -0.18596  -0.13774  -0.11367  -0.10796
 Alpha virt. eigenvalues --   -0.06988  -0.05626  -0.03605  -0.03305  -0.02703
 Alpha virt. eigenvalues --   -0.02514  -0.02408  -0.01487  -0.00411  -0.00186
 Alpha virt. eigenvalues --    0.00041   0.00215   0.00540   0.00616   0.00764

  Beta  occ. eigenvalues --  -38.45168 -38.45144 -38.44086 -38.43896 -38.43719
  Beta  occ. eigenvalues --  -38.43292 -38.42662  -2.20989  -2.20910  -2.19900
  Beta  occ. eigenvalues --   -2.19748  -2.19583  -2.19162  -2.18587  -1.14666
  Beta  occ. eigenvalues --   -1.14640  -1.14629  -1.14584  -1.14563  -1.14541
  Beta  occ. eigenvalues --   -1.13595  -1.13554  -1.13534  -1.13481  -1.13413
  Beta  occ. eigenvalues --   -1.13378  -1.13372  -1.13271  -1.13224  -1.12847
  Beta  occ. eigenvalues --   -1.12809  -1.12794  -1.12315  -1.12232  -1.12174
  Beta  occ. eigenvalues --   -0.17839  -0.13620  -0.11112
  Beta virt. eigenvalues --   -0.06892  -0.06828  -0.05626  -0.03311  -0.02916
  Beta virt. eigenvalues --   -0.02455  -0.01837  -0.01475  -0.01339  -0.00450
  Beta virt. eigenvalues --   -0.00022   0.00047   0.00244   0.00674   0.00748

 Mulliken charges and spin densities:
               1          2
     1  Na   0.012911   0.058664
     2  Na  -0.195039   0.472259
     3  Na   0.235152   0.071238
     4  Na   0.105092   0.005026
     5  Na  -0.288242   0.597253
     6  Na   0.164251  -0.109887
     7  Na  -0.034126  -0.094554
 Sum of Mulliken charges =  -0.00000   1.00000

 Dipole moment (field-independent basis, Debye):
    X=              0.2950    Y=             -0.1119    Z=             -0.0791  Tot=              0.3253
 Quadrupole moment (field-independent basis, Debye-Ang):
   XX=            -45.4380   YY=            -73.0064   ZZ=            -73.7394
   XY=             -0.3811   XZ=              2.1338   YZ=              2.0411

 Normal termination of Gaussian 16 at Tue Dec  5 18:09:39 2023.
