 Gaussian 16, Revision B.01,
 Gaussian 16:  ES64L-G16RevB.01 20-Dec-2017

 -------------------------
 #P B3LYP/6-311+g(d) force
 -------------------------

 -----
 DPGEN
 -----
 Symbolic Z-matrix:
 Charge =  0 Multiplicity = 2

                         Standard orientation:
 ---------------------------------------------------------------------
 Center     Atomic      Atomic             Coordinates (Angstroms)
 Number     Number       Type             X           Y           Z
 ---------------------------------------------------------------------
      1         11           0       -2.993902    0.890206   -0.165735
      2         11           0       -0.163914    2.714229    0.043103
      3         11           0       -1.391420   -2.567271    0.071836
      4         11           0        2.478120    1.411828    0.455763
      5         11           0       -0.310456   -0.086793   -1.997430
      6         11           0       -0.170519   -0.749596    2.278269
      7         11           0        2.552091   -1.612603   -0.685805
 ---------------------------------------------------------------------

 SCF Done:  E(UB3LYP) =  -1136.13212572     A.U. after   19 cycles

 The electronic state is 2-A.
 Alpha  occ. eigenvalues --  -38.44431 -38.43998 -38.43964 -38.43912 -38.43583
 Alpha  occ. eigenvalues --  -38.43447 -38.43086  -2.20287  -2.19911  -2.19791
 Alpha  occ. eigenvalues --   -2.19737  -2.19436  -2.19335  -2.18979  -1.13963
 Alpha  occ. eigenvalues --   -1.13916  -1.13901  -1.13586  -1.13557  -1.13552
 Alpha  occ. eigenvalues --   -1.13463  -1.13449  -1.13421  -1.13416  -1.13402
 Alpha  occ. eigenvalues --   -1.13364  -1.13134  -1.13098  -1.13086  -1.13050
 Alpha  occ. eigenvalues --   -1.12977  -1.12971  -1.12643  -1.12627  -1.12608
 Alpha  occ. eigenvalues --   -0.18500  -0.12908  -0.12410  -0.11555
 Alpha virt. eigenvalues --   -0.05604  -0.04963  -0.04381  -0.03535  -0.03407
 Alpha virt. eigenvalues --   -0.03134  -0.01386  -0.00868  -0.00239  -0.00091
 Alpha virt. eigenvalues --    0.00051   0.00380   0.00830   0.00881   0.00893

  Beta  occ. eigenvalues --  -38.44339 -38.43961 -38.43923 -38.43897 -38.43578
  Beta  occ. eigenvalues --  -38.43441 -38.43082  -2.20116  -2.19789  -2.19774
  Beta  occ. eigenvalues --   -2.19711  -2.19431  -2.19326  -2.18975  -1.13849
  Beta  occ. eigenvalues --   -1.13795  -1.13783  -1.13508  -1.13475  -1.13464
  Beta  occ. eigenvalues --   -1.13452  -1.13421  -1.13413  -1.13397  -1.13360
  Beta  occ. eigenvalues --   -1.13349  -1.13118  -1.13082  -1.13075  -1.13051
  Beta  occ. eigenvalues --   -1.12970  -1.12948  -1.12642  -1.12616  -1.12596
  Beta  occ. eigenvalues --   -0.17755  -0.12690  -0.12143
  Beta virt. eigenvalues --   -0.07652  -0.05577  -0.04794  -0.04278  -0.02749
  Beta virt. eigenvalues --   -0.02659  -0.02209  -0.01287  -0.00792  -0.00213
  Beta virt. eigenvalues --   -0.00009   0.00062   0.00421   0.00884   0.00932

 Mulliken charges and spin densities:
               1          2
     1  Na   0.252895  -0.024155
     2  Na  -0.052526   0.038687
     3  Na   0.252147  -0.060153
     4  Na  -0.026651   0.042688
     5  Na  -0.165703   0.468975
     6  Na  -0.444961   0.518448
     7  Na   0.184799   0.015509
 Sum of Mulliken charges =  -0.00000   1.00000

 Dipole moment (field-independent basis, Debye):
    X=             -0.3059    Y=             -0.4108    Z=              0.0828  Tot=              0.5189
 Quadrupole moment (field-independent basis, Debye-Ang):
   XX=            -60.6313   YY=            -67.3346   ZZ=            -69.1208
   XY=             -0.9849   XZ=             -0.1710   YZ=              1.6663

 Normal termination of Gaussian 16 at Thu Dec  7 04:55:33 2023.
