 Gaussian 16, Revision B.01,
 Gaussian 16:  ES64L-G16RevB.01 20-Dec-2017

 -------------------------
 #P B3LYP/6-311+g(d) force
 -------------------------

 -----
 DPGEN
 -----
 Symbolic Z-matrix:
 Charge =  0 Multiplicity = 2

                         Standard orientation:
 ---------------------------------------------------------------------
 Center     Atomic      Atomic             Coordinates (Angstroms)
 Number     Number       Type             X           Y           Z
 ---------------------------------------------------------------------
      1         11           0        0.060032   -1.671890   -0.678051
      2         11           0        2.825573   -3.491977    0.080102
      3         11           0        2.932347    0.004494    0.106070
      4         11           0        2.850642    3.559732   -0.336867
      5         11           0       -0.052393    1.942321    0.561434
      6         11           0       -2.950804   -0.748971    0.739508
      7         11           0       -5.665398    0.406291   -0.472197
 ---------------------------------------------------------------------

 SCF Done:  E(UB3LYP) =  -1136.12653169     A.U. after   19 cycles

 The electronic state is 2-A.
 Alpha  occ. eigenvalues --  -38.44485 -38.44289 -38.44159 -38.43956 -38.43918
 Alpha  occ. eigenvalues --  -38.43895 -38.43164  -2.20299  -2.20137  -2.19959
 Alpha  occ. eigenvalues --   -2.19787  -2.19777  -2.19708  -2.18998  -1.13999
 Alpha  occ. eigenvalues --   -1.13989  -1.13889  -1.13855  -1.13845  -1.13712
 Alpha  occ. eigenvalues --   -1.13621  -1.13621  -1.13575  -1.13486  -1.13463
 Alpha  occ. eigenvalues --   -1.13419  -1.13409  -1.13405  -1.13402  -1.13367
 Alpha  occ. eigenvalues --   -1.13360  -1.13313  -1.12683  -1.12674  -1.12645
 Alpha  occ. eigenvalues --   -0.16973  -0.13697  -0.12873  -0.10635
 Alpha virt. eigenvalues --   -0.05879  -0.05628  -0.04883  -0.03600  -0.02464
 Alpha virt. eigenvalues --   -0.02390  -0.02004  -0.01755  -0.01049  -0.00740
 Alpha virt. eigenvalues --   -0.00352  -0.00026   0.00308   0.00463   0.00578

  Beta  occ. eigenvalues --  -38.44461 -38.44275 -38.44144 -38.43888 -38.43874
  Beta  occ. eigenvalues --  -38.43854 -38.43163  -2.20258  -2.20113  -2.19930
  Beta  occ. eigenvalues --   -2.19734  -2.19669  -2.19585  -2.19005  -1.13973
  Beta  occ. eigenvalues --   -1.13961  -1.13850  -1.13835  -1.13822  -1.13693
  Beta  occ. eigenvalues --   -1.13601  -1.13597  -1.13557  -1.13455  -1.13429
  Beta  occ. eigenvalues --   -1.13366  -1.13339  -1.13325  -1.13295  -1.13282
  Beta  occ. eigenvalues --   -1.13275  -1.13272  -1.12695  -1.12679  -1.12592
  Beta  occ. eigenvalues --   -0.16452  -0.12934  -0.12655
  Beta virt. eigenvalues --   -0.07233  -0.05649  -0.05341  -0.04521  -0.03237
  Beta virt. eigenvalues --   -0.02280  -0.02132  -0.01911  -0.01462  -0.00656
  Beta virt. eigenvalues --   -0.00480   0.00013   0.00159   0.00437   0.00597

 Mulliken charges and spin densities:
               1          2
     1  Na  -0.927357  -0.108626
     2  Na   0.938268   0.153453
     3  Na  -0.811173   0.286448
     4  Na   0.830155   0.081894
     5  Na  -0.355755   0.057813
     6  Na   0.207846   0.041990
     7  Na   0.118017   0.487027
 Sum of Mulliken charges =  -0.00000   1.00000

 Dipole moment (field-independent basis, Debye):
    X=              1.5274    Y=              0.4269    Z=             -0.1389  Tot=              1.5920
 Quadrupole moment (field-independent basis, Debye-Ang):
   XX=            -71.0131   YY=            -57.4553   ZZ=            -70.2687
   XY=             -0.7017   XZ=              1.2365   YZ=             -1.7793

 Normal termination of Gaussian 16 at Tue Nov 28 19:14:37 2023.
