 Gaussian 16, Revision B.01,
 Gaussian 16:  ES64L-G16RevB.01 20-Dec-2017

 -------------------------
 #P B3LYP/6-311+g(d) force
 -------------------------

 -----
 DPGEN
 -----
 Symbolic Z-matrix:
 Charge =  0 Multiplicity = 2

                         Standard orientation:
 ---------------------------------------------------------------------
 Center     Atomic      Atomic             Coordinates (Angstroms)
 Number     Number       Type             X           Y           Z
 ---------------------------------------------------------------------
      1         11           0       -0.187221   -2.341146   -0.108519
      2         11           0        0.062359   -0.089175    2.030196
      3         11           0        2.676980   -1.115463    0.147638
      4         11           0        0.281265    0.247180   -2.018076
      5         11           0        1.625235    2.132112   -0.105606
      6         11           0       -2.802632   -0.828772   -0.250416
      7         11           0       -1.655986    1.995264    0.304784
 ---------------------------------------------------------------------

 SCF Done:  E(UB3LYP) =  -1136.13168490     A.U. after   19 cycles

 The electronic state is 2-A.
 Alpha  occ. eigenvalues --  -38.43997 -38.43992 -38.43607 -38.43534 -38.43139
 Alpha  occ. eigenvalues --  -38.43127 -38.42827  -2.19987  -2.19978  -2.19521
 Alpha  occ. eigenvalues --   -2.19445  -2.19081  -2.19065  -2.18831  -1.13680
 Alpha  occ. eigenvalues --   -1.13664  -1.13635  -1.13632  -1.13598  -1.13580
 Alpha  occ. eigenvalues --   -1.13231  -1.13206  -1.13154  -1.13135  -1.13105
 Alpha  occ. eigenvalues --   -1.13084  -1.12788  -1.12760  -1.12734  -1.12731
 Alpha  occ. eigenvalues --   -1.12704  -1.12647  -1.12512  -1.12488  -1.12451
 Alpha  occ. eigenvalues --   -0.19776  -0.13223  -0.12552  -0.11808
 Alpha virt. eigenvalues --   -0.05177  -0.04743  -0.04062  -0.03546  -0.03315
 Alpha virt. eigenvalues --   -0.03196  -0.01211  -0.00704  -0.00141   0.00345
 Alpha virt. eigenvalues --    0.00363   0.00420   0.00897   0.01021   0.01037

  Beta  occ. eigenvalues --  -38.43905 -38.43904 -38.43603 -38.43529 -38.43129
  Beta  occ. eigenvalues --  -38.43119 -38.42816  -2.19821  -2.19816  -2.19518
  Beta  occ. eigenvalues --   -2.19439  -2.19068  -2.19056  -2.18816  -1.13576
  Beta  occ. eigenvalues --   -1.13556  -1.13518  -1.13508  -1.13479  -1.13465
  Beta  occ. eigenvalues --   -1.13232  -1.13207  -1.13135  -1.13128  -1.13092
  Beta  occ. eigenvalues --   -1.13062  -1.12782  -1.12739  -1.12720  -1.12697
  Beta  occ. eigenvalues --   -1.12683  -1.12645  -1.12506  -1.12450  -1.12430
  Beta  occ. eigenvalues --   -0.18959  -0.12959  -0.12252
  Beta virt. eigenvalues --   -0.07780  -0.05134  -0.04742  -0.04070  -0.02689
  Beta virt. eigenvalues --   -0.02406  -0.02127  -0.01139  -0.00652   0.00023
  Beta virt. eigenvalues --    0.00294   0.00339   0.00406   0.00969   0.01003

 Mulliken charges and spin densities:
               1          2
     1  Na   0.517585   0.088910
     2  Na  -0.895495   0.496484
     3  Na   0.376192  -0.048489
     4  Na  -0.919924   0.510688
     5  Na   0.500251  -0.007281
     6  Na  -0.031330  -0.078192
     7  Na   0.452722   0.037880
 Sum of Mulliken charges =  -0.00000   1.00000

 Dipole moment (field-independent basis, Debye):
    X=              0.1355    Y=              0.0826    Z=              0.0032  Tot=              0.1587
 Quadrupole moment (field-independent basis, Debye-Ang):
   XX=            -59.3440   YY=            -68.7226   ZZ=            -68.3036
   XY=             -0.1111   XZ=              0.6993   YZ=              0.6824

 Normal termination of Gaussian 16 at Tue Dec  5 22:15:39 2023.
