 Gaussian 16, Revision B.01,
 Gaussian 16:  ES64L-G16RevB.01 20-Dec-2017

 -------------------------
 #P B3LYP/6-311+g(d) force
 -------------------------

 -----
 DPGEN
 -----
 Symbolic Z-matrix:
 Charge =  0 Multiplicity = 2

                         Standard orientation:
 ---------------------------------------------------------------------
 Center     Atomic      Atomic             Coordinates (Angstroms)
 Number     Number       Type             X           Y           Z
 ---------------------------------------------------------------------
      1         11           0       -1.774071   -0.232579    1.702917
      2         11           0       -1.956301   -2.476268   -0.207684
      3         11           0        3.923895   -0.808983   -0.519417
      4         11           0        0.330064   -0.342234   -1.312475
      5         11           0       -2.515332    1.045292   -0.988320
      6         11           0        0.127272    2.641278   -0.074717
      7         11           0        1.864473    0.173495    1.399696
 ---------------------------------------------------------------------

 SCF Done:  E(UB3LYP) =  -1136.12095284     A.U. after   21 cycles

 The electronic state is 2-A.
 Alpha  occ. eigenvalues --  -38.44683 -38.44163 -38.43803 -38.43699 -38.43656
 Alpha  occ. eigenvalues --  -38.43184 -38.42657  -2.20506  -2.20117  -2.19783
 Alpha  occ. eigenvalues --   -2.19671  -2.19653  -2.19077  -2.18563  -1.14221
 Alpha  occ. eigenvalues --   -1.14144  -1.14139  -1.13844  -1.13817  -1.13702
 Alpha  occ. eigenvalues --   -1.13476  -1.13447  -1.13435  -1.13389  -1.13321
 Alpha  occ. eigenvalues --   -1.13312  -1.13290  -1.13276  -1.13255  -1.12749
 Alpha  occ. eigenvalues --   -1.12734  -1.12696  -1.12253  -1.12217  -1.12197
 Alpha  occ. eigenvalues --   -0.19142  -0.13946  -0.11738  -0.11118
 Alpha virt. eigenvalues --   -0.06592  -0.04609  -0.04314  -0.03291  -0.02639
 Alpha virt. eigenvalues --   -0.02476  -0.02178  -0.00814  -0.00604  -0.00042
 Alpha virt. eigenvalues --    0.00225   0.00340   0.00410   0.00802   0.00941

  Beta  occ. eigenvalues --  -38.44679 -38.44135 -38.43741 -38.43664 -38.43607
  Beta  occ. eigenvalues --  -38.43180 -38.42652  -2.20498  -2.20069  -2.19668
  Beta  occ. eigenvalues --   -2.19591  -2.19581  -2.19074  -2.18558  -1.14216
  Beta  occ. eigenvalues --   -1.14139  -1.14128  -1.13810  -1.13757  -1.13672
  Beta  occ. eigenvalues --   -1.13407  -1.13384  -1.13349  -1.13308  -1.13262
  Beta  occ. eigenvalues --   -1.13258  -1.13234  -1.13221  -1.13185  -1.12742
  Beta  occ. eigenvalues --   -1.12720  -1.12686  -1.12252  -1.12204  -1.12174
  Beta  occ. eigenvalues --   -0.18382  -0.13794  -0.11503
  Beta virt. eigenvalues --   -0.07119  -0.06436  -0.04526  -0.03723  -0.03228
  Beta virt. eigenvalues --   -0.02240  -0.01803  -0.01490  -0.00744  -0.00231
  Beta virt. eigenvalues --   -0.00048   0.00265   0.00412   0.00553   0.00839

 Mulliken charges and spin densities:
               1          2
     1  Na  -0.116406   0.341712
     2  Na  -0.012967   0.033908
     3  Na   0.198287   0.055408
     4  Na  -0.709377   0.311705
     5  Na   0.681713   0.128655
     6  Na  -0.124415   0.043691
     7  Na   0.083165   0.084920
 Sum of Mulliken charges =  -0.00000   1.00000

 Dipole moment (field-independent basis, Debye):
    X=              0.4921    Y=              0.0233    Z=             -0.2112  Tot=              0.5360
 Quadrupole moment (field-independent basis, Debye-Ang):
   XX=            -52.7689   YY=            -70.0849   ZZ=            -70.3709
   XY=             -1.5864   XZ=             -0.5428   YZ=              1.7154

 Normal termination of Gaussian 16 at Sat Dec  9 07:18:28 2023.
