 Gaussian 16, Revision B.01,
 Gaussian 16:  ES64L-G16RevB.01 20-Dec-2017

 -------------------------
 #P B3LYP/6-311+g(d) force
 -------------------------

 -----
 DPGEN
 -----
 Symbolic Z-matrix:
 Charge =  0 Multiplicity = 2

                         Standard orientation:
 ---------------------------------------------------------------------
 Center     Atomic      Atomic             Coordinates (Angstroms)
 Number     Number       Type             X           Y           Z
 ---------------------------------------------------------------------
      1         11           0        0.418882   -0.433998   -1.552060
      2         11           0        0.117305    2.939620   -0.800628
      3         11           0       -2.146207    1.196225    0.730934
      4         11           0        1.686444    1.065988    1.467889
      5         11           0       -2.868079   -1.545684   -0.913321
      6         11           0       -0.385725   -1.799395    1.732494
      7         11           0        3.177379   -1.422756   -0.665309
 ---------------------------------------------------------------------

 SCF Done:  E(UB3LYP) =  -1136.13418031     A.U. after   19 cycles

 The electronic state is 2-A.
 Alpha  occ. eigenvalues --  -38.44056 -38.43869 -38.43794 -38.43730 -38.43669
 Alpha  occ. eigenvalues --  -38.43353 -38.42880  -2.19903  -2.19696  -2.19673
 Alpha  occ. eigenvalues --   -2.19568  -2.19556  -2.19313  -2.18751  -1.13595
 Alpha  occ. eigenvalues --   -1.13549  -1.13508  -1.13426  -1.13362  -1.13348
 Alpha  occ. eigenvalues --   -1.13330  -1.13323  -1.13280  -1.13275  -1.13239
 Alpha  occ. eigenvalues --   -1.13235  -1.13223  -1.13200  -1.13147  -1.12983
 Alpha  occ. eigenvalues --   -1.12952  -1.12936  -1.12417  -1.12400  -1.12395
 Alpha  occ. eigenvalues --   -0.18526  -0.13013  -0.12080  -0.11383
 Alpha virt. eigenvalues --   -0.05535  -0.05109  -0.04368  -0.03439  -0.03063
 Alpha virt. eigenvalues --   -0.02778  -0.01504  -0.01001  -0.00579   0.00154
 Alpha virt. eigenvalues --    0.00297   0.00333   0.00592   0.00751   0.00785

  Beta  occ. eigenvalues --  -38.43995 -38.43859 -38.43756 -38.43718 -38.43661
  Beta  occ. eigenvalues --  -38.43296 -38.42872  -2.19793  -2.19680  -2.19606
  Beta  occ. eigenvalues --   -2.19547  -2.19545  -2.19209  -2.18738  -1.13517
  Beta  occ. eigenvalues --   -1.13463  -1.13432  -1.13401  -1.13333  -1.13316
  Beta  occ. eigenvalues --   -1.13306  -1.13268  -1.13265  -1.13238  -1.13226
  Beta  occ. eigenvalues --   -1.13208  -1.13200  -1.13182  -1.13141  -1.12908
  Beta  occ. eigenvalues --   -1.12878  -1.12862  -1.12404  -1.12393  -1.12378
  Beta  occ. eigenvalues --   -0.17765  -0.12821  -0.11902
  Beta virt. eigenvalues --   -0.07425  -0.05396  -0.04883  -0.04156  -0.02930
  Beta virt. eigenvalues --   -0.02541  -0.01828  -0.01414  -0.00919  -0.00224
  Beta virt. eigenvalues --    0.00144   0.00373   0.00384   0.00722   0.00792

 Mulliken charges and spin densities:
               1          2
     1  Na  -0.385493   0.520142
     2  Na   0.303440  -0.172619
     3  Na  -0.125498   0.257856
     4  Na   0.084075   0.282044
     5  Na   0.430253  -0.132735
     6  Na  -0.362405   0.289845
     7  Na   0.055628  -0.044532
 Sum of Mulliken charges =  -0.00000   1.00000

 Dipole moment (field-independent basis, Debye):
    X=              0.0209    Y=             -0.3581    Z=              0.2023  Tot=              0.4119
 Quadrupole moment (field-independent basis, Debye-Ang):
   XX=            -58.6178   YY=            -67.4598   ZZ=            -68.0788
   XY=              0.4475   XZ=              1.3448   YZ=             -0.3433

 Normal termination of Gaussian 16 at Wed Nov 29 17:21:51 2023.
