 Gaussian 16, Revision B.01,
 Gaussian 16:  ES64L-G16RevB.01 20-Dec-2017

 -------------------------
 #P B3LYP/6-311+g(d) force
 -------------------------

 -----
 DPGEN
 -----
 Symbolic Z-matrix:
 Charge =  0 Multiplicity = 2

                         Standard orientation:
 ---------------------------------------------------------------------
 Center     Atomic      Atomic             Coordinates (Angstroms)
 Number     Number       Type             X           Y           Z
 ---------------------------------------------------------------------
      1         11           0       -0.395861    1.634027    1.428031
      2         11           0        2.081353    3.293436   -0.788974
      3         11           0        3.490626    0.274016    0.151198
      4         11           0        0.143275   -1.158088   -0.672740
      5         11           0       -3.110692   -1.511701    0.224590
      6         11           0        3.734726   -2.763737    0.045608
      7         11           0       -5.943427    0.232047   -0.387713
 ---------------------------------------------------------------------

 SCF Done:  E(UB3LYP) =  -1136.11772598     A.U. after   20 cycles

 The electronic state is 2-A.
 Alpha  occ. eigenvalues --  -38.45329 -38.44674 -38.44470 -38.43967 -38.43768
 Alpha  occ. eigenvalues --  -38.43694 -38.43296  -2.21088  -2.20477  -2.20303
 Alpha  occ. eigenvalues --   -2.19758  -2.19570  -2.19567  -2.19116  -1.14783
 Alpha  occ. eigenvalues --   -1.14766  -1.14685  -1.14109  -1.14107  -1.14094
 Alpha  occ. eigenvalues --   -1.13989  -1.13973  -1.13899  -1.13434  -1.13422
 Alpha  occ. eigenvalues --   -1.13374  -1.13258  -1.13257  -1.13242  -1.13240
 Alpha  occ. eigenvalues --   -1.13221  -1.13212  -1.12781  -1.12767  -1.12738
 Alpha  occ. eigenvalues --   -0.16669  -0.13967  -0.11954  -0.11283
 Alpha virt. eigenvalues --   -0.06519  -0.05136  -0.04847  -0.03534  -0.02794
 Alpha virt. eigenvalues --   -0.02499  -0.02061  -0.01410  -0.01164  -0.01016
 Alpha virt. eigenvalues --   -0.00532  -0.00336   0.00374   0.00488   0.00525

  Beta  occ. eigenvalues --  -38.45320 -38.44561 -38.44420 -38.43941 -38.43773
  Beta  occ. eigenvalues --  -38.43672 -38.43290  -2.21072  -2.20267  -2.20212
  Beta  occ. eigenvalues --   -2.19712  -2.19586  -2.19529  -2.19106  -1.14773
  Beta  occ. eigenvalues --   -1.14752  -1.14671  -1.13966  -1.13964  -1.13957
  Beta  occ. eigenvalues --   -1.13926  -1.13914  -1.13829  -1.13397  -1.13389
  Beta  occ. eigenvalues --   -1.13347  -1.13277  -1.13254  -1.13228  -1.13214
  Beta  occ. eigenvalues --   -1.13181  -1.13179  -1.12769  -1.12759  -1.12734
  Beta  occ. eigenvalues --   -0.16158  -0.13085  -0.11829
  Beta virt. eigenvalues --   -0.07786  -0.06191  -0.04746  -0.04652  -0.03254
  Beta virt. eigenvalues --   -0.02574  -0.02080  -0.01891  -0.01148  -0.00896
  Beta virt. eigenvalues --   -0.00603  -0.00299  -0.00103   0.00440   0.00565

 Mulliken charges and spin densities:
               1          2
     1  Na   0.174030  -0.019562
     2  Na   0.127646   0.096180
     3  Na  -0.222735   0.224186
     4  Na  -0.658549   0.073591
     5  Na  -0.202852   0.096508
     6  Na   0.559833   0.025890
     7  Na   0.222628   0.503206
 Sum of Mulliken charges =  -0.00000   1.00000

 Dipole moment (field-independent basis, Debye):
    X=             -0.2778    Y=              0.7864    Z=              0.2228  Tot=              0.8632
 Quadrupole moment (field-independent basis, Debye-Ang):
   XX=            -69.6122   YY=            -65.1065   ZZ=            -67.2493
   XY=             -2.9644   XZ=             -0.8497   YZ=             -0.9345

 Normal termination of Gaussian 16 at Wed Nov 29 02:12:25 2023.
