 Gaussian 16, Revision B.01,
 Gaussian 16:  ES64L-G16RevB.01 20-Dec-2017

 -------------------------
 #P B3LYP/6-311+g(d) force
 -------------------------

 -----
 DPGEN
 -----
 Symbolic Z-matrix:
 Charge =  0 Multiplicity = 2

                         Standard orientation:
 ---------------------------------------------------------------------
 Center     Atomic      Atomic             Coordinates (Angstroms)
 Number     Number       Type             X           Y           Z
 ---------------------------------------------------------------------
      1         11           0       -2.181997   -0.373234    1.849346
      2         11           0       -3.902737   -1.172684   -0.965946
      3         11           0        1.850167    0.951276   -1.833223
      4         11           0        1.680952    1.258077    1.847128
      5         11           0       -1.139183    2.526988   -0.584572
      6         11           0        3.461753   -1.748851   -0.012818
      7         11           0        0.231045   -1.441572   -0.299915
 ---------------------------------------------------------------------

 SCF Done:  E(UB3LYP) =  -1136.12388489     A.U. after   22 cycles

 The electronic state is 2-A.
 Alpha  occ. eigenvalues --  -38.44662 -38.44344 -38.44306 -38.43958 -38.43924
 Alpha  occ. eigenvalues --  -38.43643 -38.43196  -2.20428  -2.20152  -2.20131
 Alpha  occ. eigenvalues --   -2.19844  -2.19793  -2.19462  -2.18979  -1.14098
 Alpha  occ. eigenvalues --   -1.14087  -1.14057  -1.13839  -1.13823  -1.13802
 Alpha  occ. eigenvalues --   -1.13782  -1.13765  -1.13734  -1.13591  -1.13536
 Alpha  occ. eigenvalues --   -1.13481  -1.13458  -1.13427  -1.13372  -1.13131
 Alpha  occ. eigenvalues --   -1.13119  -1.13097  -1.12657  -1.12638  -1.12615
 Alpha  occ. eigenvalues --   -0.17783  -0.13595  -0.11162  -0.10961
 Alpha virt. eigenvalues --   -0.06460  -0.05310  -0.04957  -0.03086  -0.02809
 Alpha virt. eigenvalues --   -0.02415  -0.02227  -0.01388  -0.00862  -0.00309
 Alpha virt. eigenvalues --    0.00135   0.00235   0.00335   0.00459   0.00551

  Beta  occ. eigenvalues --  -38.44648 -38.44286 -38.44279 -38.43944 -38.43870
  Beta  occ. eigenvalues --  -38.43644 -38.43187  -2.20402  -2.20083  -2.20044
  Beta  occ. eigenvalues --   -2.19825  -2.19694  -2.19465  -2.18965  -1.14079
  Beta  occ. eigenvalues --   -1.14068  -1.14041  -1.13804  -1.13753  -1.13744
  Beta  occ. eigenvalues --   -1.13722  -1.13691  -1.13685  -1.13548  -1.13502
  Beta  occ. eigenvalues --   -1.13457  -1.13405  -1.13370  -1.13300  -1.13134
  Beta  occ. eigenvalues --   -1.13109  -1.13098  -1.12642  -1.12619  -1.12609
  Beta  occ. eigenvalues --   -0.17090  -0.13421  -0.10967
  Beta virt. eigenvalues --   -0.07269  -0.06096  -0.05216  -0.04467  -0.02921
  Beta virt. eigenvalues --   -0.02280  -0.02044  -0.01758  -0.01130  -0.00510
  Beta virt. eigenvalues --   -0.00191   0.00191   0.00333   0.00477   0.00540

 Mulliken charges and spin densities:
               1          2
     1  Na   0.413980  -0.000331
     2  Na   0.228258  -0.001457
     3  Na   0.094850   0.054843
     4  Na  -0.095818   0.360758
     5  Na  -0.184125   0.171267
     6  Na   0.757531  -0.051593
     7  Na  -1.214676   0.466513
 Sum of Mulliken charges =  -0.00000   1.00000

 Dipole moment (field-independent basis, Debye):
    X=             -0.1798    Y=              0.1037    Z=              0.0325  Tot=              0.2101
 Quadrupole moment (field-independent basis, Debye-Ang):
   XX=            -51.9814   YY=            -75.4459   ZZ=            -66.8023
   XY=             -0.2716   XZ=              3.1855   YZ=              0.9776

 Normal termination of Gaussian 16 at Thu Dec  7 15:47:37 2023.
