 Gaussian 16, Revision B.01,
 Gaussian 16:  ES64L-G16RevB.01 20-Dec-2017

 -------------------------
 #P B3LYP/6-311+g(d) force
 -------------------------

 -----
 DPGEN
 -----
 Symbolic Z-matrix:
 Charge =  0 Multiplicity = 2

                         Standard orientation:
 ---------------------------------------------------------------------
 Center     Atomic      Atomic             Coordinates (Angstroms)
 Number     Number       Type             X           Y           Z
 ---------------------------------------------------------------------
      1         11           0        0.730343    2.823046   -0.248367
      2         11           0       -2.587814    1.799678    0.010848
      3         11           0       -2.333751   -2.232660   -0.287679
      4         11           0        1.284801   -2.541547   -0.131852
      5         11           0       -0.181158   -0.106143    2.203909
      6         11           0        2.999362    0.208987    0.083546
      7         11           0        0.088218    0.048638   -1.630404
 ---------------------------------------------------------------------

 SCF Done:  E(UB3LYP) =  -1136.13815952     A.U. after   19 cycles

 The electronic state is 2-A.
 Alpha  occ. eigenvalues --  -38.43941 -38.43865 -38.43858 -38.43504 -38.43474
 Alpha  occ. eigenvalues --  -38.43436 -38.43212  -2.19745  -2.19717  -2.19649
 Alpha  occ. eigenvalues --   -2.19387  -2.19342  -2.19308  -2.19202  -1.13420
 Alpha  occ. eigenvalues --   -1.13413  -1.13385  -1.13375  -1.13344  -1.13335
 Alpha  occ. eigenvalues --   -1.13326  -1.13302  -1.13292  -1.13121  -1.13083
 Alpha  occ. eigenvalues --   -1.13057  -1.13029  -1.13006  -1.12982  -1.12965
 Alpha  occ. eigenvalues --   -1.12949  -1.12923  -1.12871  -1.12825  -1.12808
 Alpha  occ. eigenvalues --   -0.18585  -0.12784  -0.12568  -0.10874
 Alpha virt. eigenvalues --   -0.05540  -0.05110  -0.04800  -0.03122  -0.03020
 Alpha virt. eigenvalues --   -0.02719  -0.01339  -0.01255  -0.00401  -0.00289
 Alpha virt. eigenvalues --   -0.00030   0.00359   0.00816   0.00845   0.00909

  Beta  occ. eigenvalues --  -38.43940 -38.43854 -38.43762 -38.43497 -38.43468
  Beta  occ. eigenvalues --  -38.43432 -38.43152  -2.19745  -2.19645  -2.19527
  Beta  occ. eigenvalues --   -2.19378  -2.19334  -2.19304  -2.19093  -1.13413
  Beta  occ. eigenvalues --   -1.13401  -1.13388  -1.13310  -1.13303  -1.13291
  Beta  occ. eigenvalues --   -1.13249  -1.13210  -1.13199  -1.13112  -1.13064
  Beta  occ. eigenvalues --   -1.13036  -1.13015  -1.12992  -1.12969  -1.12950
  Beta  occ. eigenvalues --   -1.12935  -1.12921  -1.12800  -1.12750  -1.12731
  Beta  occ. eigenvalues --   -0.17851  -0.12563  -0.12347
  Beta virt. eigenvalues --   -0.06917  -0.05553  -0.05035  -0.04773  -0.02318
  Beta virt. eigenvalues --   -0.02243  -0.01661  -0.01251  -0.01180  -0.00448
  Beta virt. eigenvalues --   -0.00349   0.00122   0.00383   0.00843   0.00865

 Mulliken charges and spin densities:
               1          2
     1  Na   0.280213   0.004082
     2  Na   0.056630  -0.070570
     3  Na   0.049072  -0.080304
     4  Na   0.269207   0.000989
     5  Na  -0.640894   0.761086
     6  Na   0.219594   0.048369
     7  Na  -0.233822   0.336347
 Sum of Mulliken charges =  -0.00000   1.00000

 Dipole moment (field-independent basis, Debye):
    X=             -0.2940    Y=              0.0118    Z=              0.1873  Tot=              0.3488
 Quadrupole moment (field-independent basis, Debye-Ang):
   XX=            -58.7295   YY=            -61.2660   ZZ=            -73.8624
   XY=              0.2026   XZ=              0.5911   YZ=              0.3477

 Normal termination of Gaussian 16 at Thu Nov 30 08:54:04 2023.
