 Gaussian 16, Revision B.01,
 Gaussian 16:  ES64L-G16RevB.01 20-Dec-2017

 -------------------------
 #P B3LYP/6-311+g(d) force
 -------------------------

 -----
 DPGEN
 -----
 Symbolic Z-matrix:
 Charge =  0 Multiplicity = 2

                         Standard orientation:
 ---------------------------------------------------------------------
 Center     Atomic      Atomic             Coordinates (Angstroms)
 Number     Number       Type             X           Y           Z
 ---------------------------------------------------------------------
      1         11           0        0.069947   -0.474289    1.904458
      2         11           0        2.085933   -2.168167   -0.138850
      3         11           0       -2.194518   -2.017724   -0.069246
      4         11           0        0.089331   -0.066071   -1.866034
      5         11           0       -2.620010    0.909184    0.002837
      6         11           0       -0.245757    2.688636    0.095093
      7         11           0        2.815075    1.128432    0.071741
 ---------------------------------------------------------------------

 SCF Done:  E(UB3LYP) =  -1136.13422078     A.U. after   19 cycles

 The electronic state is 2-A.
 Alpha  occ. eigenvalues --  -38.44068 -38.43726 -38.43689 -38.43679 -38.43512
 Alpha  occ. eigenvalues --  -38.43460 -38.42843  -2.19920  -2.19650  -2.19584
 Alpha  occ. eigenvalues --   -2.19578  -2.19448  -2.19420  -2.18760  -1.13591
 Alpha  occ. eigenvalues --   -1.13588  -1.13565  -1.13468  -1.13357  -1.13288
 Alpha  occ. eigenvalues --   -1.13273  -1.13264  -1.13229  -1.13218  -1.13209
 Alpha  occ. eigenvalues --   -1.13159  -1.13114  -1.13088  -1.13070  -1.13061
 Alpha  occ. eigenvalues --   -1.13044  -1.13036  -1.12445  -1.12404  -1.12397
 Alpha  occ. eigenvalues --   -0.19197  -0.13493  -0.12335  -0.11047
 Alpha virt. eigenvalues --   -0.05617  -0.05286  -0.04212  -0.03517  -0.02888
 Alpha virt. eigenvalues --   -0.02661  -0.01463  -0.01018  -0.00185  -0.00027
 Alpha virt. eigenvalues --    0.00031   0.00375   0.00806   0.00893   0.00967

  Beta  occ. eigenvalues --  -38.44065 -38.43720 -38.43684 -38.43672 -38.43430
  Beta  occ. eigenvalues --  -38.43377 -38.42837  -2.19917  -2.19642  -2.19578
  Beta  occ. eigenvalues --   -2.19573  -2.19298  -2.19269  -2.18754  -1.13589
  Beta  occ. eigenvalues --   -1.13568  -1.13563  -1.13469  -1.13353  -1.13266
  Beta  occ. eigenvalues --   -1.13245  -1.13228  -1.13218  -1.13209  -1.13188
  Beta  occ. eigenvalues --   -1.13160  -1.13020  -1.12989  -1.12964  -1.12955
  Beta  occ. eigenvalues --   -1.12937  -1.12928  -1.12444  -1.12401  -1.12365
  Beta  occ. eigenvalues --   -0.18428  -0.13237  -0.12086
  Beta virt. eigenvalues --   -0.07101  -0.05599  -0.05255  -0.04204  -0.02646
  Beta virt. eigenvalues --   -0.02094  -0.01609  -0.01371  -0.00952  -0.00253
  Beta virt. eigenvalues --   -0.00010   0.00116   0.00394   0.00879   0.00886

 Mulliken charges and spin densities:
               1          2
     1  Na  -0.497179   0.590436
     2  Na   0.229574  -0.139263
     3  Na   0.446039  -0.070853
     4  Na  -0.441544   0.576479
     5  Na   0.125730   0.086896
     6  Na   0.049859  -0.017438
     7  Na   0.087521  -0.026258
 Sum of Mulliken charges =  -0.00000   1.00000

 Dipole moment (field-independent basis, Debye):
    X=              0.4421    Y=             -0.3524    Z=              0.0212  Tot=              0.5658
 Quadrupole moment (field-independent basis, Debye-Ang):
   XX=            -57.2404   YY=            -65.0025   ZZ=            -72.7478
   XY=              0.7270   XZ=              0.1280   YZ=              0.9302

 Normal termination of Gaussian 16 at Thu Dec  7 08:02:17 2023.
