 Gaussian 16, Revision B.01,
 Gaussian 16:  ES64L-G16RevB.01 20-Dec-2017

 -------------------------
 #P B3LYP/6-311+g(d) force
 -------------------------

 -----
 DPGEN
 -----
 Symbolic Z-matrix:
 Charge =  0 Multiplicity = 2

                         Standard orientation:
 ---------------------------------------------------------------------
 Center     Atomic      Atomic             Coordinates (Angstroms)
 Number     Number       Type             X           Y           Z
 ---------------------------------------------------------------------
      1         11           0        3.699238    1.881976    0.248828
      2         11           0        2.179083   -1.013154   -1.552948
      3         11           0       -3.576939    1.621075   -0.726816
      4         11           0       -1.344282   -1.672081   -1.401382
      5         11           0       -2.447742   -0.652233    1.782046
      6         11           0        1.628488   -1.598067    1.454635
      7         11           0       -0.137845    1.432484    0.195638
 ---------------------------------------------------------------------

 SCF Done:  E(UB3LYP) =  -1136.12305591     A.U. after   24 cycles

 The electronic state is 2-A.
 Alpha  occ. eigenvalues --  -38.44515 -38.44475 -38.44385 -38.44157 -38.43984
 Alpha  occ. eigenvalues --  -38.43663 -38.43549  -2.20355  -2.20300  -2.20182
 Alpha  occ. eigenvalues --   -2.19995  -2.19854  -2.19424  -2.19384  -1.14037
 Alpha  occ. eigenvalues --   -1.14013  -1.14008  -1.13974  -1.13961  -1.13901
 Alpha  occ. eigenvalues --   -1.13852  -1.13839  -1.13806  -1.13718  -1.13684
 Alpha  occ. eigenvalues --   -1.13585  -1.13543  -1.13522  -1.13438  -1.13103
 Alpha  occ. eigenvalues --   -1.13092  -1.13075  -1.13056  -1.13045  -1.12987
 Alpha  occ. eigenvalues --   -0.17971  -0.13954  -0.10983  -0.10857
 Alpha virt. eigenvalues --   -0.06267  -0.06055  -0.05040  -0.03149  -0.02518
 Alpha virt. eigenvalues --   -0.02327  -0.02180  -0.01492  -0.00839  -0.00402
 Alpha virt. eigenvalues --    0.00016   0.00129   0.00233   0.00358   0.00493

  Beta  occ. eigenvalues --  -38.44463 -38.44449 -38.44365 -38.44145 -38.43956
  Beta  occ. eigenvalues --  -38.43671 -38.43509  -2.20261  -2.20253  -2.20146
  Beta  occ. eigenvalues --   -2.19977  -2.19803  -2.19439  -2.19313  -1.13972
  Beta  occ. eigenvalues --   -1.13967  -1.13952  -1.13933  -1.13888  -1.13868
  Beta  occ. eigenvalues --   -1.13824  -1.13808  -1.13783  -1.13681  -1.13665
  Beta  occ. eigenvalues --   -1.13577  -1.13505  -1.13489  -1.13395  -1.13110
  Beta  occ. eigenvalues --   -1.13104  -1.13066  -1.13023  -1.12983  -1.12939
  Beta  occ. eigenvalues --   -0.17307  -0.13799  -0.10782
  Beta virt. eigenvalues --   -0.07099  -0.06103  -0.05927  -0.04377  -0.02890
  Beta virt. eigenvalues --   -0.02347  -0.01896  -0.01661  -0.01204  -0.00423
  Beta virt. eigenvalues --   -0.00258   0.00127   0.00176   0.00277   0.00444

 Mulliken charges and spin densities:
               1          2
     1  Na   0.118362  -0.067401
     2  Na   0.478842   0.077566
     3  Na   0.812137   0.009661
     4  Na  -0.267708   0.287059
     5  Na   0.407733   0.237635
     6  Na  -0.067051   0.222644
     7  Na  -1.482317   0.232837
 Sum of Mulliken charges =  -0.00000   1.00000

 Dipole moment (field-independent basis, Debye):
    X=             -0.6432    Y=             -0.4524    Z=              0.1668  Tot=              0.8039
 Quadrupole moment (field-independent basis, Debye-Ang):
   XX=            -51.4807   YY=            -74.4843   ZZ=            -68.8688
   XY=             -1.9520   XZ=              0.6207   YZ=             -2.2686

 Normal termination of Gaussian 16 at Thu Dec  7 15:24:29 2023.
