 Gaussian 16, Revision B.01,
 Gaussian 16:  ES64L-G16RevB.01 20-Dec-2017

 -------------------------
 #P B3LYP/6-311+g(d) force
 -------------------------

 -----
 DPGEN
 -----
 Symbolic Z-matrix:
 Charge =  0 Multiplicity = 2

                         Standard orientation:
 ---------------------------------------------------------------------
 Center     Atomic      Atomic             Coordinates (Angstroms)
 Number     Number       Type             X           Y           Z
 ---------------------------------------------------------------------
      1         11           0       -3.006892   -1.863559   -0.332666
      2         11           0        3.979117   -0.751012   -0.498796
      3         11           0       -0.416496    2.979134    1.242095
      4         11           0       -0.798738   -0.365067    2.164282
      5         11           0       -2.279110    0.861455   -1.947113
      6         11           0        1.600233    1.608462   -0.926403
      7         11           0        0.921885   -2.469413    0.298601
 ---------------------------------------------------------------------

 SCF Done:  E(UB3LYP) =  -1136.12545525     A.U. after   19 cycles

 The electronic state is 2-A.
 Alpha  occ. eigenvalues --  -38.44833 -38.44434 -38.44106 -38.44003 -38.43870
 Alpha  occ. eigenvalues --  -38.43686 -38.43492  -2.20636  -2.20289  -2.19912
 Alpha  occ. eigenvalues --   -2.19800  -2.19662  -2.19511  -2.19317  -1.14300
 Alpha  occ. eigenvalues --   -1.14291  -1.14242  -1.13973  -1.13925  -1.13899
 Alpha  occ. eigenvalues --   -1.13591  -1.13583  -1.13538  -1.13510  -1.13478
 Alpha  occ. eigenvalues --   -1.13397  -1.13338  -1.13325  -1.13291  -1.13209
 Alpha  occ. eigenvalues --   -1.13191  -1.13131  -1.12982  -1.12969  -1.12940
 Alpha  occ. eigenvalues --   -0.17305  -0.13148  -0.12231  -0.11600
 Alpha virt. eigenvalues --   -0.05907  -0.05316  -0.04711  -0.03499  -0.03403
 Alpha virt. eigenvalues --   -0.02691  -0.01745  -0.01176  -0.00423  -0.00405
 Alpha virt. eigenvalues --   -0.00165   0.00321   0.00438   0.00527   0.00781

  Beta  occ. eigenvalues --  -38.44757 -38.44351 -38.44099 -38.43994 -38.43862
  Beta  occ. eigenvalues --  -38.43677 -38.43470  -2.20495  -2.20137  -2.19902
  Beta  occ. eigenvalues --   -2.19785  -2.19647  -2.19496  -2.19277  -1.14204
  Beta  occ. eigenvalues --   -1.14197  -1.14140  -1.13869  -1.13827  -1.13785
  Beta  occ. eigenvalues --   -1.13581  -1.13573  -1.13516  -1.13489  -1.13467
  Beta  occ. eigenvalues --   -1.13389  -1.13324  -1.13313  -1.13284  -1.13191
  Beta  occ. eigenvalues --   -1.13181  -1.13123  -1.12948  -1.12940  -1.12913
  Beta  occ. eigenvalues --   -0.16636  -0.12688  -0.12068
  Beta virt. eigenvalues --   -0.07933  -0.05538  -0.05073  -0.04448  -0.02993
  Beta virt. eigenvalues --   -0.02869  -0.02121  -0.01654  -0.01034  -0.00307
  Beta virt. eigenvalues --   -0.00190  -0.00051   0.00382   0.00634   0.00657

 Mulliken charges and spin densities:
               1          2
     1  Na   0.089602   0.150870
     2  Na   0.279125  -0.083713
     3  Na   0.327907   0.048519
     4  Na   0.056495   0.271184
     5  Na  -0.031059   0.202961
     6  Na  -0.555910   0.351339
     7  Na  -0.166160   0.058839
 Sum of Mulliken charges =  -0.00000   1.00000

 Dipole moment (field-independent basis, Debye):
    X=             -0.3421    Y=             -0.1500    Z=              0.0029  Tot=              0.3736
 Quadrupole moment (field-independent basis, Debye-Ang):
   XX=            -61.5867   YY=            -67.3314   ZZ=            -68.4807
   XY=              0.0243   XZ=             -0.4442   YZ=              0.3334

 Normal termination of Gaussian 16 at Mon Dec  4 02:30:50 2023.
