 Gaussian 16, Revision B.01,
 Gaussian 16:  ES64L-G16RevB.01 20-Dec-2017

 -------------------------
 #P B3LYP/6-311+g(d) force
 -------------------------

 -----
 DPGEN
 -----
 Symbolic Z-matrix:
 Charge =  0 Multiplicity = 2

                         Standard orientation:
 ---------------------------------------------------------------------
 Center     Atomic      Atomic             Coordinates (Angstroms)
 Number     Number       Type             X           Y           Z
 ---------------------------------------------------------------------
      1         11           0       -3.171409   -2.313967   -0.089423
      2         11           0       -0.595599    3.069990    0.174742
      3         11           0        0.419763   -1.131544   -0.404417
      4         11           0       -1.625448    0.175297    1.850856
      5         11           0        3.840145    1.380709   -0.235877
      6         11           0        3.894495   -1.999971    0.048878
      7         11           0       -2.761948    0.819486   -1.344760
 ---------------------------------------------------------------------

 SCF Done:  E(UB3LYP) =  -1136.11746732     A.U. after   24 cycles

 The electronic state is 2-A.
 Alpha  occ. eigenvalues --  -38.45602 -38.44881 -38.44627 -38.43890 -38.43614
 Alpha  occ. eigenvalues --  -38.43553 -38.42657  -2.21352  -2.20660  -2.20450
 Alpha  occ. eigenvalues --   -2.19795  -2.19440  -2.19439  -2.18462  -1.15029
 Alpha  occ. eigenvalues --   -1.15001  -1.14981  -1.14331  -1.14323  -1.14296
 Alpha  occ. eigenvalues --   -1.14164  -1.14127  -1.14042  -1.13479  -1.13451
 Alpha  occ. eigenvalues --   -1.13392  -1.13133  -1.13122  -1.13115  -1.13082
 Alpha  occ. eigenvalues --   -1.13067  -1.13020  -1.12135  -1.12120  -1.12116
 Alpha  occ. eigenvalues --   -0.17452  -0.14168  -0.11515  -0.09957
 Alpha virt. eigenvalues --   -0.06977  -0.06209  -0.04497  -0.03090  -0.02789
 Alpha virt. eigenvalues --   -0.02378  -0.01996  -0.01541  -0.01412  -0.00656
 Alpha virt. eigenvalues --   -0.00282   0.00047   0.00390   0.00492   0.00509

  Beta  occ. eigenvalues --  -38.45581 -38.44885 -38.44602 -38.43828 -38.43598
  Beta  occ. eigenvalues --  -38.43484 -38.42657  -2.21313  -2.20669  -2.20408
  Beta  occ. eigenvalues --   -2.19683  -2.19415  -2.19312  -2.18463  -1.15002
  Beta  occ. eigenvalues --   -1.14971  -1.14955  -1.14338  -1.14322  -1.14301
  Beta  occ. eigenvalues --   -1.14107  -1.14101  -1.14023  -1.13396  -1.13368
  Beta  occ. eigenvalues --   -1.13315  -1.13107  -1.13083  -1.13042  -1.13036
  Beta  occ. eigenvalues --   -1.12998  -1.12926  -1.12132  -1.12122  -1.12107
  Beta  occ. eigenvalues --   -0.16816  -0.13890  -0.11330
  Beta virt. eigenvalues --   -0.06791  -0.06125  -0.06075  -0.04437  -0.02875
  Beta virt. eigenvalues --   -0.02529  -0.01779  -0.01733  -0.01289  -0.01054
  Beta virt. eigenvalues --   -0.00543   0.00088   0.00170   0.00475   0.00538

 Mulliken charges and spin densities:
               1          2
     1  Na   0.673358   0.181234
     2  Na  -0.138688  -0.008997
     3  Na  -1.421001   0.018157
     4  Na   0.154480   0.217461
     5  Na   0.143797   0.129692
     6  Na   0.401158  -0.009283
     7  Na   0.186896   0.471737
 Sum of Mulliken charges =  -0.00000   1.00000

 Dipole moment (field-independent basis, Debye):
    X=              1.9128    Y=             -0.7608    Z=              0.6306  Tot=              2.1530
 Quadrupole moment (field-independent basis, Debye-Ang):
   XX=            -59.3057   YY=            -65.1812   ZZ=            -72.2326
   XY=              1.8182   XZ=             -3.6776   YZ=             -0.0579

 Normal termination of Gaussian 16 at Tue Dec  5 17:53:40 2023.
