 Gaussian 16, Revision B.01,
 Gaussian 16:  ES64L-G16RevB.01 20-Dec-2017

 -------------------------
 #P B3LYP/6-311+g(d) force
 -------------------------

 -----
 DPGEN
 -----
 Symbolic Z-matrix:
 Charge =  0 Multiplicity = 2

                         Standard orientation:
 ---------------------------------------------------------------------
 Center     Atomic      Atomic             Coordinates (Angstroms)
 Number     Number       Type             X           Y           Z
 ---------------------------------------------------------------------
      1         11           0        2.805326   -0.613244   -0.189456
      2         11           0        1.345023    2.337120   -0.167100
      3         11           0        0.212709   -2.509849    0.542555
      4         11           0        0.120069    0.341478    1.727854
      5         11           0        0.044474   -0.486177   -1.722745
      6         11           0       -2.658554   -1.052340   -0.193541
      7         11           0       -1.869047    1.983012    0.002434
 ---------------------------------------------------------------------

 SCF Done:  E(UB3LYP) =  -1136.13114348     A.U. after   19 cycles

 The electronic state is 2-A.
 Alpha  occ. eigenvalues --  -38.43578 -38.43504 -38.43320 -38.43256 -38.43252
 Alpha  occ. eigenvalues --  -38.43251 -38.43197  -2.19510  -2.19434  -2.19336
 Alpha  occ. eigenvalues --   -2.19315  -2.19265  -2.19206  -2.19180  -1.13244
 Alpha  occ. eigenvalues --   -1.13191  -1.13170  -1.13164  -1.13131  -1.13117
 Alpha  occ. eigenvalues --   -1.13093  -1.13043  -1.13012  -1.13005  -1.12959
 Alpha  occ. eigenvalues --   -1.12921  -1.12906  -1.12887  -1.12873  -1.12846
 Alpha  occ. eigenvalues --   -1.12836  -1.12802  -1.12797  -1.12790  -1.12772
 Alpha  occ. eigenvalues --   -0.19955  -0.13314  -0.12915  -0.11196
 Alpha virt. eigenvalues --   -0.05184  -0.04832  -0.04527  -0.03235  -0.03121
 Alpha virt. eigenvalues --   -0.02499  -0.01252  -0.00862  -0.00032   0.00204
 Alpha virt. eigenvalues --    0.00230   0.00370   0.00923   0.01005   0.01008

  Beta  occ. eigenvalues --  -38.43570 -38.43497 -38.43314 -38.43248 -38.43177
  Beta  occ. eigenvalues --  -38.43176 -38.43170  -2.19498  -2.19425  -2.19259
  Beta  occ. eigenvalues --   -2.19202  -2.19183  -2.19178  -2.19146  -1.13226
  Beta  occ. eigenvalues --   -1.13167  -1.13158  -1.13131  -1.13116  -1.13072
  Beta  occ. eigenvalues --   -1.13054  -1.12991  -1.12958  -1.12929  -1.12912
  Beta  occ. eigenvalues --   -1.12876  -1.12856  -1.12822  -1.12809  -1.12805
  Beta  occ. eigenvalues --   -1.12797  -1.12779  -1.12755  -1.12746  -1.12719
  Beta  occ. eigenvalues --   -0.19197  -0.13014  -0.12639
  Beta virt. eigenvalues --   -0.07164  -0.05170  -0.04826  -0.04513  -0.02393
  Beta virt. eigenvalues --   -0.02295  -0.01409  -0.01172  -0.00808   0.00084
  Beta virt. eigenvalues --    0.00159   0.00204   0.00393   0.00958   0.00998

 Mulliken charges and spin densities:
               1          2
     1  Na   0.277092  -0.033656
     2  Na   0.188132  -0.041684
     3  Na   0.361852   0.032971
     4  Na  -0.548592   0.510384
     5  Na  -0.665155   0.604980
     6  Na   0.221447  -0.023190
     7  Na   0.165225  -0.049805
 Sum of Mulliken charges =  -0.00000   1.00000

 Dipole moment (field-independent basis, Debye):
    X=              0.0612    Y=             -0.0206    Z=             -0.0810  Tot=              0.1036
 Quadrupole moment (field-independent basis, Debye-Ang):
   XX=            -58.2132   YY=            -63.9763   ZZ=            -72.3879
   XY=              0.0962   XZ=             -0.1965   YZ=             -1.5287

 Normal termination of Gaussian 16 at Fri Dec  8 04:22:25 2023.
