 Gaussian 16, Revision B.01,
 Gaussian 16:  ES64L-G16RevB.01 20-Dec-2017

 -------------------------
 #P B3LYP/6-311+g(d) force
 -------------------------

 -----
 DPGEN
 -----
 Symbolic Z-matrix:
 Charge =  0 Multiplicity = 2

                         Standard orientation:
 ---------------------------------------------------------------------
 Center     Atomic      Atomic             Coordinates (Angstroms)
 Number     Number       Type             X           Y           Z
 ---------------------------------------------------------------------
      1         11           0        3.811537   -1.181062    0.770224
      2         11           0       -3.671417    0.307414    1.431171
      3         11           0        2.554636    2.176819   -0.313626
      4         11           0        0.273932   -0.314616    1.732919
      5         11           0        0.998021   -1.089595   -1.532343
      6         11           0       -1.563771    1.770497   -1.005363
      7         11           0       -2.402938   -1.669456   -1.082982
 ---------------------------------------------------------------------

 SCF Done:  E(UB3LYP) =  -1136.11819263     A.U. after   35 cycles

 The electronic state is 2-A.
 Alpha  occ. eigenvalues --  -38.45738 -38.45142 -38.44575 -38.44074 -38.43734
 Alpha  occ. eigenvalues --  -38.43410 -38.43127  -2.21530  -2.20934  -2.20391
 Alpha  occ. eigenvalues --   -2.19890  -2.19508  -2.19256  -2.18993  -1.15239
 Alpha  occ. eigenvalues --   -1.15176  -1.15142  -1.14606  -1.14572  -1.14554
 Alpha  occ. eigenvalues --   -1.14051  -1.14041  -1.14021  -1.13574  -1.13554
 Alpha  occ. eigenvalues --   -1.13518  -1.13195  -1.13166  -1.13149  -1.12937
 Alpha  occ. eigenvalues --   -1.12912  -1.12894  -1.12703  -1.12645  -1.12608
 Alpha  occ. eigenvalues --   -0.17942  -0.14290  -0.11228  -0.10483
 Alpha virt. eigenvalues --   -0.07054  -0.05673  -0.05105  -0.03062  -0.02923
 Alpha virt. eigenvalues --   -0.02444  -0.02156  -0.01415  -0.01130  -0.00383
 Alpha virt. eigenvalues --    0.00022   0.00189   0.00240   0.00278   0.00473

  Beta  occ. eigenvalues --  -38.45709 -38.45103 -38.44534 -38.44048 -38.43729
  Beta  occ. eigenvalues --  -38.43392 -38.43102  -2.21475  -2.20861  -2.20315
  Beta  occ. eigenvalues --   -2.19846  -2.19503  -2.19226  -2.18951  -1.15193
  Beta  occ. eigenvalues --   -1.15144  -1.15097  -1.14550  -1.14527  -1.14507
  Beta  occ. eigenvalues --   -1.13995  -1.13989  -1.13972  -1.13547  -1.13508
  Beta  occ. eigenvalues --   -1.13479  -1.13189  -1.13161  -1.13136  -1.12903
  Beta  occ. eigenvalues --   -1.12897  -1.12864  -1.12679  -1.12600  -1.12570
  Beta  occ. eigenvalues --   -0.17307  -0.13994  -0.10194
  Beta virt. eigenvalues --   -0.07644  -0.06771  -0.05508  -0.04557  -0.02784
  Beta virt. eigenvalues --   -0.02659  -0.01908  -0.01555  -0.01136  -0.00896
  Beta virt. eigenvalues --   -0.00339   0.00077   0.00244   0.00318   0.00438

 Mulliken charges and spin densities:
               1          2
     1  Na   0.755255   0.114440
     2  Na   0.552913   0.240767
     3  Na  -0.139634  -0.054506
     4  Na  -0.685652   0.275874
     5  Na  -0.237873   0.205119
     6  Na  -0.280015   0.137644
     7  Na   0.035006   0.080662
 Sum of Mulliken charges =  -0.00000   1.00000

 Dipole moment (field-independent basis, Debye):
    X=              0.3911    Y=             -0.3668    Z=              0.6845  Tot=              0.8695
 Quadrupole moment (field-independent basis, Debye-Ang):
   XX=            -47.3566   YY=            -79.4101   ZZ=            -68.6770
   XY=             -1.1138   XZ=              0.1332   YZ=             -4.1053

 Normal termination of Gaussian 16 at Tue Dec  5 18:31:58 2023.
