 Gaussian 16, Revision B.01,
 Gaussian 16:  ES64L-G16RevB.01 20-Dec-2017

 -------------------------
 #P B3LYP/6-311+g(d) force
 -------------------------

 -----
 DPGEN
 -----
 Symbolic Z-matrix:
 Charge =  0 Multiplicity = 2

                         Standard orientation:
 ---------------------------------------------------------------------
 Center     Atomic      Atomic             Coordinates (Angstroms)
 Number     Number       Type             X           Y           Z
 ---------------------------------------------------------------------
      1         11           0       -2.971049   -2.649769   -0.227579
      2         11           0       -1.991875    1.421021   -0.628945
      3         11           0        0.209126   -1.311592   -0.978675
      4         11           0        4.080323   -1.769313   -0.170675
      5         11           0        1.774212    0.780062    0.863504
      6         11           0        0.303714    3.527002   -0.559365
      7         11           0       -1.404452    0.002589    1.701735
 ---------------------------------------------------------------------

 SCF Done:  E(UB3LYP) =  -1136.11714466     A.U. after   22 cycles

 The electronic state is 2-A.
 Alpha  occ. eigenvalues --  -38.44553 -38.44447 -38.44404 -38.44185 -38.43811
 Alpha  occ. eigenvalues --  -38.43597 -38.43393  -2.20394  -2.20337  -2.20153
 Alpha  occ. eigenvalues --   -2.20064  -2.19653  -2.19587  -2.19301  -1.14221
 Alpha  occ. eigenvalues --   -1.14060  -1.14009  -1.14005  -1.13982  -1.13956
 Alpha  occ. eigenvalues --   -1.13827  -1.13826  -1.13807  -1.13774  -1.13743
 Alpha  occ. eigenvalues --   -1.13640  -1.13325  -1.13299  -1.13282  -1.13264
 Alpha  occ. eigenvalues --   -1.13238  -1.13128  -1.13027  -1.12971  -1.12873
 Alpha  occ. eigenvalues --   -0.18477  -0.13057  -0.12594  -0.10175
 Alpha virt. eigenvalues --   -0.06469  -0.06286  -0.04094  -0.02987  -0.02677
 Alpha virt. eigenvalues --   -0.02334  -0.02118  -0.01611  -0.00731  -0.00407
 Alpha virt. eigenvalues --    0.00049   0.00123   0.00311   0.00609   0.00726

  Beta  occ. eigenvalues --  -38.44541 -38.44426 -38.44407 -38.44164 -38.43787
  Beta  occ. eigenvalues --  -38.43510 -38.43366  -2.20361  -2.20316  -2.20158
  Beta  occ. eigenvalues --   -2.20029  -2.19609  -2.19430  -2.19256  -1.14160
  Beta  occ. eigenvalues --   -1.14035  -1.13995  -1.13980  -1.13963  -1.13944
  Beta  occ. eigenvalues --   -1.13830  -1.13828  -1.13778  -1.13769  -1.13711
  Beta  occ. eigenvalues --   -1.13616  -1.13289  -1.13270  -1.13250  -1.13163
  Beta  occ. eigenvalues --   -1.13125  -1.13018  -1.12992  -1.12914  -1.12841
  Beta  occ. eigenvalues --   -0.17797  -0.12925  -0.12286
  Beta virt. eigenvalues --   -0.06517  -0.06248  -0.06066  -0.03824  -0.02550
  Beta virt. eigenvalues --   -0.02266  -0.02232  -0.01877  -0.00917  -0.00645
  Beta virt. eigenvalues --   -0.00142   0.00136   0.00277   0.00446   0.00684

 Mulliken charges and spin densities:
               1          2
     1  Na   0.514645   0.131458
     2  Na   0.131572   0.646503
     3  Na  -1.035178   0.050609
     4  Na   0.359577  -0.045404
     5  Na  -0.148440   0.356579
     6  Na   0.067170  -0.121941
     7  Na   0.110654  -0.017804
 Sum of Mulliken charges =  -0.00000   1.00000

 Dipole moment (field-independent basis, Debye):
    X=             -0.1364    Y=             -0.6747    Z=              0.2195  Tot=              0.7225
 Quadrupole moment (field-independent basis, Debye-Ang):
   XX=            -54.0694   YY=            -61.5480   ZZ=            -75.4113
   XY=              3.1581   XZ=             -0.2948   YZ=              0.6436

 Normal termination of Gaussian 16 at Tue Dec  5 23:15:46 2023.
