 Gaussian 16, Revision B.01,
 Gaussian 16:  ES64L-G16RevB.01 20-Dec-2017

 -------------------------
 #P B3LYP/6-311+g(d) force
 -------------------------

 -----
 DPGEN
 -----
 Symbolic Z-matrix:
 Charge =  0 Multiplicity = 2

                         Standard orientation:
 ---------------------------------------------------------------------
 Center     Atomic      Atomic             Coordinates (Angstroms)
 Number     Number       Type             X           Y           Z
 ---------------------------------------------------------------------
      1         11           0        1.917773    2.478927   -0.208619
      2         11           0       -2.825717   -1.335272   -0.139854
      3         11           0        0.573879   -2.712845   -0.604741
      4         11           0        3.164150   -0.554697    0.056558
      5         11           0       -0.399688    0.238636   -1.740249
      6         11           0       -0.150973   -0.386416    2.578425
      7         11           0       -2.279423    2.271667    0.058479
 ---------------------------------------------------------------------

 SCF Done:  E(UB3LYP) =  -1136.13196051     A.U. after   19 cycles

 The electronic state is 2-A.
 Alpha  occ. eigenvalues --  -38.44705 -38.44189 -38.43969 -38.43932 -38.43645
 Alpha  occ. eigenvalues --  -38.43616 -38.43108  -2.20498  -2.20011  -2.19785
 Alpha  occ. eigenvalues --   -2.19730  -2.19580  -2.19416  -2.18953  -1.14133
 Alpha  occ. eigenvalues --   -1.14124  -1.14119  -1.13704  -1.13675  -1.13639
 Alpha  occ. eigenvalues --   -1.13457  -1.13451  -1.13440  -1.13426  -1.13393
 Alpha  occ. eigenvalues --   -1.13362  -1.13260  -1.13217  -1.13210  -1.13090
 Alpha  occ. eigenvalues --   -1.13079  -1.13049  -1.12647  -1.12606  -1.12582
 Alpha  occ. eigenvalues --   -0.17973  -0.12975  -0.11988  -0.11287
 Alpha virt. eigenvalues --   -0.05674  -0.05588  -0.04391  -0.03411  -0.03305
 Alpha virt. eigenvalues --   -0.02884  -0.01462  -0.01126  -0.00542  -0.00314
 Alpha virt. eigenvalues --   -0.00124   0.00347   0.00665   0.00790   0.00834

  Beta  occ. eigenvalues --  -38.44586 -38.44186 -38.43971 -38.43931 -38.43616
  Beta  occ. eigenvalues --  -38.43593 -38.43098  -2.20276  -2.20009  -2.19789
  Beta  occ. eigenvalues --   -2.19730  -2.19486  -2.19417  -2.18937  -1.13983
  Beta  occ. eigenvalues --   -1.13972  -1.13963  -1.13695  -1.13659  -1.13641
  Beta  occ. eigenvalues --   -1.13462  -1.13446  -1.13439  -1.13418  -1.13383
  Beta  occ. eigenvalues --   -1.13365  -1.13201  -1.13147  -1.13146  -1.13081
  Beta  occ. eigenvalues --   -1.13076  -1.13052  -1.12629  -1.12583  -1.12574
  Beta  occ. eigenvalues --   -0.17280  -0.12847  -0.11808
  Beta virt. eigenvalues --   -0.07205  -0.05669  -0.05448  -0.04298  -0.02664
  Beta virt. eigenvalues --   -0.02357  -0.02066  -0.01371  -0.01057  -0.00588
  Beta virt. eigenvalues --   -0.00350   0.00089   0.00404   0.00809   0.00835

 Mulliken charges and spin densities:
               1          2
     1  Na   0.002689  -0.018630
     2  Na   0.149483   0.050265
     3  Na   0.068875   0.059538
     4  Na  -0.025458   0.011653
     5  Na   0.447268   0.126123
     6  Na  -0.592631   0.759840
     7  Na  -0.050225   0.011212
 Sum of Mulliken charges =  -0.00000   1.00000

 Dipole moment (field-independent basis, Debye):
    X=             -0.3707    Y=              0.0407    Z=              0.2926  Tot=              0.4740
 Quadrupole moment (field-independent basis, Debye-Ang):
   XX=            -58.2044   YY=            -66.1214   ZZ=            -71.9123
   XY=             -0.2382   XZ=             -0.2451   YZ=              1.0123

 Normal termination of Gaussian 16 at Thu Dec  7 13:48:09 2023.
