 Gaussian 16, Revision B.01,
 Gaussian 16:  ES64L-G16RevB.01 20-Dec-2017

 -------------------------
 #P B3LYP/6-311+g(d) force
 -------------------------

 -----
 DPGEN
 -----
 Symbolic Z-matrix:
 Charge =  0 Multiplicity = 2

                         Standard orientation:
 ---------------------------------------------------------------------
 Center     Atomic      Atomic             Coordinates (Angstroms)
 Number     Number       Type             X           Y           Z
 ---------------------------------------------------------------------
      1         11           0       -4.070968    1.664873   -0.414941
      2         11           0        2.996752   -0.306247   -1.821957
      3         11           0       -0.352153    0.527238   -0.328549
      4         11           0        0.469342   -2.736006   -0.261075
      5         11           0        1.605594   -0.443891    2.278165
      6         11           0       -2.808716   -1.425393    0.214288
      7         11           0        2.160150    2.719426    0.334069
 ---------------------------------------------------------------------

 SCF Done:  E(UB3LYP) =  -1136.12533214     A.U. after   21 cycles

 The electronic state is 2-A.
 Alpha  occ. eigenvalues --  -38.44588 -38.44513 -38.44166 -38.44127 -38.43649
 Alpha  occ. eigenvalues --  -38.43626 -38.42737  -2.20423  -2.20321  -2.19974
 Alpha  occ. eigenvalues --   -2.19937  -2.19572  -2.19450  -2.18589  -1.14100
 Alpha  occ. eigenvalues --   -1.14061  -1.14018  -1.13987  -1.13949  -1.13927
 Alpha  occ. eigenvalues --   -1.13700  -1.13651  -1.13618  -1.13606  -1.13589
 Alpha  occ. eigenvalues --   -1.13530  -1.13295  -1.13251  -1.13192  -1.13122
 Alpha  occ. eigenvalues --   -1.13102  -1.13084  -1.12275  -1.12249  -1.12228
 Alpha  occ. eigenvalues --   -0.17751  -0.13577  -0.11571  -0.10965
 Alpha virt. eigenvalues --   -0.06503  -0.05431  -0.04399  -0.03159  -0.02823
 Alpha virt. eigenvalues --   -0.02556  -0.01983  -0.01354  -0.00992  -0.00566
 Alpha virt. eigenvalues --   -0.00134   0.00175   0.00385   0.00648   0.00796

  Beta  occ. eigenvalues --  -38.44505 -38.44419 -38.44172 -38.44129 -38.43646
  Beta  occ. eigenvalues --  -38.43619 -38.42734  -2.20268  -2.20146  -2.19976
  Beta  occ. eigenvalues --   -2.19947  -2.19562  -2.19446  -2.18585  -1.13991
  Beta  occ. eigenvalues --   -1.13959  -1.13905  -1.13864  -1.13831  -1.13805
  Beta  occ. eigenvalues --   -1.13701  -1.13650  -1.13625  -1.13613  -1.13595
  Beta  occ. eigenvalues --   -1.13536  -1.13253  -1.13248  -1.13193  -1.13122
  Beta  occ. eigenvalues --   -1.13086  -1.13078  -1.12274  -1.12246  -1.12205
  Beta  occ. eigenvalues --   -0.17144  -0.13316  -0.11444
  Beta virt. eigenvalues --   -0.07021  -0.06198  -0.05330  -0.04193  -0.02764
  Beta virt. eigenvalues --   -0.02302  -0.01961  -0.01552  -0.01295  -0.00773
  Beta virt. eigenvalues --   -0.00262  -0.00039   0.00252   0.00513   0.00666

 Mulliken charges and spin densities:
               1          2
     1  Na   0.271948  -0.092485
     2  Na   0.192619   0.361625
     3  Na  -1.676246   0.485211
     4  Na   0.636264   0.114906
     5  Na  -0.027221   0.199652
     6  Na   0.366139  -0.025183
     7  Na   0.236496  -0.043726
 Sum of Mulliken charges =  -0.00000   1.00000

 Dipole moment (field-independent basis, Debye):
    X=             -0.0754    Y=              0.0589    Z=              0.5041  Tot=              0.5131
 Quadrupole moment (field-independent basis, Debye-Ang):
   XX=            -56.8274   YY=            -65.1355   ZZ=            -71.2183
   XY=             -0.5465   XZ=              0.8676   YZ=             -1.0181

 Normal termination of Gaussian 16 at Tue Dec  5 17:04:33 2023.
