 Gaussian 16, Revision B.01,
 Gaussian 16:  ES64L-G16RevB.01 20-Dec-2017

 -------------------------
 #P B3LYP/6-311+g(d) force
 -------------------------

 -----
 DPGEN
 -----
 Symbolic Z-matrix:
 Charge =  0 Multiplicity = 2

                         Standard orientation:
 ---------------------------------------------------------------------
 Center     Atomic      Atomic             Coordinates (Angstroms)
 Number     Number       Type             X           Y           Z
 ---------------------------------------------------------------------
      1         11           0        3.350085    2.082818   -0.632966
      2         11           0        5.114745   -1.234709    0.055479
      3         11           0        2.074537   -2.059607    0.484884
      4         11           0       -2.112196   -2.484826   -0.405022
      5         11           0       -5.230097   -0.637405    0.090763
      6         11           0       -0.206523    2.869382    0.598691
      7         11           0       -2.990552    1.464347   -0.191830
 ---------------------------------------------------------------------

 SCF Done:  E(UB3LYP) =  -1136.10902474     A.U. after   26 cycles

 The electronic state is 2-A.
 Alpha  occ. eigenvalues --  -38.45911 -38.45041 -38.44734 -38.44502 -38.44279
 Alpha  occ. eigenvalues --  -38.43987 -38.42985  -2.21625  -2.20802  -2.20507
 Alpha  occ. eigenvalues --   -2.20358  -2.20084  -2.19836  -2.18786  -1.15328
 Alpha  occ. eigenvalues --   -1.15300  -1.15238  -1.14487  -1.14469  -1.14399
 Alpha  occ. eigenvalues --   -1.14197  -1.14179  -1.14148  -1.14056  -1.14033
 Alpha  occ. eigenvalues --   -1.14000  -1.13745  -1.13741  -1.13716  -1.13501
 Alpha  occ. eigenvalues --   -1.13474  -1.13442  -1.12462  -1.12442  -1.12418
 Alpha  occ. eigenvalues --   -0.15974  -0.14468  -0.12194  -0.10796
 Alpha virt. eigenvalues --   -0.07469  -0.05266  -0.04410  -0.03612  -0.03262
 Alpha virt. eigenvalues --   -0.02751  -0.02057  -0.01558  -0.01376  -0.00667
 Alpha virt. eigenvalues --   -0.00397  -0.00168   0.00044   0.00463   0.00499

  Beta  occ. eigenvalues --  -38.45918 -38.44985 -38.44719 -38.44470 -38.44271
  Beta  occ. eigenvalues --  -38.43932 -38.42960  -2.21639  -2.20700  -2.20480
  Beta  occ. eigenvalues --   -2.20306  -2.20067  -2.19734  -2.18740  -1.15338
  Beta  occ. eigenvalues --   -1.15310  -1.15242  -1.14420  -1.14401  -1.14306
  Beta  occ. eigenvalues --   -1.14182  -1.14165  -1.14109  -1.14004  -1.13981
  Beta  occ. eigenvalues --   -1.13962  -1.13738  -1.13733  -1.13697  -1.13424
  Beta  occ. eigenvalues --   -1.13404  -1.13378  -1.12424  -1.12411  -1.12391
  Beta  occ. eigenvalues --   -0.15373  -0.14210  -0.11815
  Beta virt. eigenvalues --   -0.07495  -0.07141  -0.04604  -0.04164  -0.03440
  Beta virt. eigenvalues --   -0.02832  -0.02568  -0.01963  -0.01264  -0.01073
  Beta virt. eigenvalues --   -0.00391  -0.00199   0.00128   0.00185   0.00533

 Mulliken charges and spin densities:
               1          2
     1  Na  -0.055350  -0.020454
     2  Na   0.876391   0.213796
     3  Na  -0.696834   0.089443
     4  Na  -0.129581   0.153085
     5  Na   0.789777   0.225036
     6  Na  -0.167211  -0.009210
     7  Na  -0.617192   0.348304
 Sum of Mulliken charges =  -0.00000   1.00000

 Dipole moment (field-independent basis, Debye):
    X=              0.7288    Y=             -0.4382    Z=             -0.2726  Tot=              0.8930
 Quadrupole moment (field-independent basis, Debye-Ang):
   XX=            -51.7637   YY=            -70.7399   ZZ=            -72.3184
   XY=              4.0506   XZ=             -1.6418   YZ=             -1.1824

 Normal termination of Gaussian 16 at Sun Dec  3 11:57:57 2023.
