 Gaussian 16, Revision B.01,
 Gaussian 16:  ES64L-G16RevB.01 20-Dec-2017

 -------------------------
 #P B3LYP/6-311+g(d) force
 -------------------------

 -----
 DPGEN
 -----
 Symbolic Z-matrix:
 Charge =  0 Multiplicity = 2

                         Standard orientation:
 ---------------------------------------------------------------------
 Center     Atomic      Atomic             Coordinates (Angstroms)
 Number     Number       Type             X           Y           Z
 ---------------------------------------------------------------------
      1         11           0        4.997309    0.240243    0.347614
      2         11           0        2.346589   -1.322159   -0.645435
      3         11           0        1.605760    2.100256   -0.239977
      4         11           0       -0.239907   -2.792923    1.003267
      5         11           0       -3.109429   -2.354000   -1.043124
      6         11           0       -1.798130    3.112436   -0.321193
      7         11           0       -3.802193    1.016147    0.898847
 ---------------------------------------------------------------------

 SCF Done:  E(UB3LYP) =  -1136.11444749     A.U. after   21 cycles

 The electronic state is 2-A.
 Alpha  occ. eigenvalues --  -38.45102 -38.44734 -38.44412 -38.44291 -38.44128
 Alpha  occ. eigenvalues --  -38.43886 -38.43459  -2.20837  -2.20523  -2.20258
 Alpha  occ. eigenvalues --   -2.20083  -2.19960  -2.19684  -2.19269  -1.14521
 Alpha  occ. eigenvalues --   -1.14494  -1.14476  -1.14219  -1.14204  -1.14117
 Alpha  occ. eigenvalues --   -1.13950  -1.13940  -1.13894  -1.13762  -1.13747
 Alpha  occ. eigenvalues --   -1.13709  -1.13612  -1.13600  -1.13557  -1.13345
 Alpha  occ. eigenvalues --   -1.13343  -1.13312  -1.12941  -1.12933  -1.12916
 Alpha  occ. eigenvalues --   -0.16234  -0.13921  -0.12696  -0.10402
 Alpha virt. eigenvalues --   -0.07004  -0.05370  -0.04924  -0.03148  -0.02916
 Alpha virt. eigenvalues --   -0.02400  -0.02309  -0.01644  -0.00881  -0.00704
 Alpha virt. eigenvalues --   -0.00517  -0.00157   0.00256   0.00359   0.00541

  Beta  occ. eigenvalues --  -38.45103 -38.44697 -38.44397 -38.44264 -38.44047
  Beta  occ. eigenvalues --  -38.43853 -38.43457  -2.20841  -2.20457  -2.20236
  Beta  occ. eigenvalues --   -2.20032  -2.19807  -2.19624  -2.19269  -1.14526
  Beta  occ. eigenvalues --   -1.14498  -1.14467  -1.14175  -1.14161  -1.14053
  Beta  occ. eigenvalues --   -1.13936  -1.13919  -1.13845  -1.13735  -1.13709
  Beta  occ. eigenvalues --   -1.13672  -1.13507  -1.13495  -1.13462  -1.13303
  Beta  occ. eigenvalues --   -1.13294  -1.13276  -1.12946  -1.12935  -1.12892
  Beta  occ. eigenvalues --   -0.15682  -0.13469  -0.12330
  Beta virt. eigenvalues --   -0.07084  -0.06726  -0.04958  -0.04583  -0.02929
  Beta virt. eigenvalues --   -0.02629  -0.02164  -0.01944  -0.01375  -0.00791
  Beta virt. eigenvalues --   -0.00436  -0.00233   0.00107   0.00402   0.00494

 Mulliken charges and spin densities:
               1          2
     1  Na   0.843434   0.483850
     2  Na  -0.710442  -0.009271
     3  Na  -0.160935   0.363666
     4  Na   0.144702   0.085819
     5  Na   0.184156   0.083207
     6  Na  -0.093716  -0.254848
     7  Na  -0.207199   0.247576
 Sum of Mulliken charges =  -0.00000   1.00000

 Dipole moment (field-independent basis, Debye):
    X=              0.2308    Y=             -0.4639    Z=             -0.0769  Tot=              0.5238
 Quadrupole moment (field-independent basis, Debye-Ang):
   XX=            -65.7555   YY=            -69.5627   ZZ=            -66.2166
   XY=              2.7485   XZ=              2.2674   YZ=              1.3773

 Normal termination of Gaussian 16 at Sun Dec  3 22:45:56 2023.
