 Gaussian 16, Revision B.01,
 Gaussian 16:  ES64L-G16RevB.01 20-Dec-2017

 -------------------------
 #P B3LYP/6-311+g(d) force
 -------------------------

 -----
 DPGEN
 -----
 Symbolic Z-matrix:
 Charge =  0 Multiplicity = 2

                         Standard orientation:
 ---------------------------------------------------------------------
 Center     Atomic      Atomic             Coordinates (Angstroms)
 Number     Number       Type             X           Y           Z
 ---------------------------------------------------------------------
      1         11           0       -1.921371    0.980314    0.448365
      2         11           0        1.734267    0.165593    1.969660
      3         11           0        3.615761   -1.581732   -0.501548
      4         11           0        0.257133    3.148596   -0.388362
      5         11           0        1.128736    0.415604   -1.330160
      6         11           0       -4.162646   -1.138637   -0.208290
      7         11           0       -0.651880   -1.989738    0.010336
 ---------------------------------------------------------------------

 SCF Done:  E(UB3LYP) =  -1136.12324081     A.U. after   22 cycles

 The electronic state is 2-A.
 Alpha  occ. eigenvalues --  -38.44848 -38.44631 -38.44400 -38.43591 -38.43396
 Alpha  occ. eigenvalues --  -38.43151 -38.42828  -2.20689  -2.20439  -2.20208
 Alpha  occ. eigenvalues --   -2.19463  -2.19346  -2.19161  -2.18715  -1.14440
 Alpha  occ. eigenvalues --   -1.14377  -1.14254  -1.14134  -1.14092  -1.14057
 Alpha  occ. eigenvalues --   -1.13886  -1.13869  -1.13831  -1.13128  -1.13120
 Alpha  occ. eigenvalues --   -1.13068  -1.13060  -1.13014  -1.12969  -1.12880
 Alpha  occ. eigenvalues --   -1.12825  -1.12779  -1.12380  -1.12363  -1.12333
 Alpha  occ. eigenvalues --   -0.18432  -0.13753  -0.12159  -0.10281
 Alpha virt. eigenvalues --   -0.07018  -0.05021  -0.04260  -0.03281  -0.02676
 Alpha virt. eigenvalues --   -0.02356  -0.02177  -0.01455  -0.00522  -0.00300
 Alpha virt. eigenvalues --   -0.00033   0.00096   0.00557   0.00704   0.00769

  Beta  occ. eigenvalues --  -38.44838 -38.44633 -38.44383 -38.43502 -38.43389
  Beta  occ. eigenvalues --  -38.43104 -38.42821  -2.20674  -2.20442  -2.20179
  Beta  occ. eigenvalues --   -2.19337  -2.19298  -2.19077  -2.18705  -1.14434
  Beta  occ. eigenvalues --   -1.14334  -1.14249  -1.14137  -1.14092  -1.14060
  Beta  occ. eigenvalues --   -1.13866  -1.13833  -1.13813  -1.13064  -1.13018
  Beta  occ. eigenvalues --   -1.12999  -1.12984  -1.12966  -1.12946  -1.12823
  Beta  occ. eigenvalues --   -1.12752  -1.12719  -1.12369  -1.12352  -1.12314
  Beta  occ. eigenvalues --   -0.17793  -0.13562  -0.11960
  Beta virt. eigenvalues --   -0.06870  -0.06346  -0.04875  -0.04228  -0.02789
  Beta virt. eigenvalues --   -0.02584  -0.01820  -0.01392  -0.01135  -0.00353
  Beta virt. eigenvalues --   -0.00132   0.00066   0.00198   0.00719   0.00773

 Mulliken charges and spin densities:
               1          2
     1  Na  -0.524937   0.159028
     2  Na  -0.283271   0.456953
     3  Na   0.429878   0.114939
     4  Na   0.582684   0.047892
     5  Na  -0.494848   0.203288
     6  Na   0.424055  -0.093385
     7  Na  -0.133562   0.111286
 Sum of Mulliken charges =  -0.00000   1.00000

 Dipole moment (field-independent basis, Debye):
    X=             -0.4722    Y=             -0.6633    Z=              0.2013  Tot=              0.8388
 Quadrupole moment (field-independent basis, Debye-Ang):
   XX=            -49.0392   YY=            -65.6402   ZZ=            -76.2029
   XY=              0.0146   XZ=              1.3739   YZ=              1.9194

 Normal termination of Gaussian 16 at Tue Dec  5 11:05:40 2023.
