 Gaussian 16, Revision B.01,
 Gaussian 16:  ES64L-G16RevB.01 20-Dec-2017

 -------------------------
 #P B3LYP/6-311+g(d) force
 -------------------------

 -----
 DPGEN
 -----
 Symbolic Z-matrix:
 Charge =  0 Multiplicity = 2

                         Standard orientation:
 ---------------------------------------------------------------------
 Center     Atomic      Atomic             Coordinates (Angstroms)
 Number     Number       Type             X           Y           Z
 ---------------------------------------------------------------------
      1         11           0       -2.976310    0.257731    0.199310
      2         11           0        0.010736   -1.371176    1.932264
      3         11           0        0.517488   -0.084027   -1.215056
      4         11           0       -1.260733    3.071525   -0.508510
      5         11           0        3.877525   -0.575779   -0.504227
      6         11           0        1.414618    1.626007    0.889825
      7         11           0       -1.583325   -2.924280   -0.793605
 ---------------------------------------------------------------------

 SCF Done:  E(UB3LYP) =  -1136.12774890     A.U. after   21 cycles

 The electronic state is 2-A.
 Alpha  occ. eigenvalues --  -38.44596 -38.44491 -38.43659 -38.43607 -38.43576
 Alpha  occ. eigenvalues --  -38.43421 -38.43068  -2.20406  -2.20275  -2.19571
 Alpha  occ. eigenvalues --   -2.19534  -2.19478  -2.19302  -2.18909  -1.14093
 Alpha  occ. eigenvalues --   -1.14077  -1.14030  -1.13942  -1.13932  -1.13900
 Alpha  occ. eigenvalues --   -1.13519  -1.13237  -1.13187  -1.13162  -1.13150
 Alpha  occ. eigenvalues --   -1.13137  -1.13124  -1.13111  -1.13087  -1.12975
 Alpha  occ. eigenvalues --   -1.12938  -1.12896  -1.12572  -1.12567  -1.12558
 Alpha  occ. eigenvalues --   -0.18270  -0.13093  -0.12343  -0.10440
 Alpha virt. eigenvalues --   -0.06362  -0.05102  -0.04563  -0.03230  -0.02694
 Alpha virt. eigenvalues --   -0.02196  -0.02088  -0.01214  -0.00478  -0.00422
 Alpha virt. eigenvalues --    0.00058   0.00247   0.00642   0.00720   0.00796

  Beta  occ. eigenvalues --  -38.44594 -38.44473 -38.43644 -38.43582 -38.43546
  Beta  occ. eigenvalues --  -38.43335 -38.43066  -2.20404  -2.20241  -2.19524
  Beta  occ. eigenvalues --   -2.19487  -2.19453  -2.19144  -2.18906  -1.14079
  Beta  occ. eigenvalues --   -1.14070  -1.14033  -1.13915  -1.13904  -1.13880
  Beta  occ. eigenvalues --   -1.13482  -1.13189  -1.13134  -1.13126  -1.13122
  Beta  occ. eigenvalues --   -1.13111  -1.13096  -1.13092  -1.13052  -1.12870
  Beta  occ. eigenvalues --   -1.12827  -1.12782  -1.12570  -1.12557  -1.12557
  Beta  occ. eigenvalues --   -0.17600  -0.12856  -0.12170
  Beta virt. eigenvalues --   -0.06653  -0.06155  -0.04975  -0.04400  -0.02661
  Beta virt. eigenvalues --   -0.02238  -0.02003  -0.01272  -0.01126  -0.00439
  Beta virt. eigenvalues --   -0.00156   0.00166   0.00308   0.00676   0.00819

 Mulliken charges and spin densities:
               1          2
     1  Na  -0.048940   0.165258
     2  Na  -0.039522   0.214468
     3  Na  -0.616323   0.327626
     4  Na   0.217945  -0.156088
     5  Na   0.108843   0.077241
     6  Na   0.372274   0.304294
     7  Na   0.005722   0.067201
 Sum of Mulliken charges =  -0.00000   1.00000

 Dipole moment (field-independent basis, Debye):
    X=              0.1225    Y=             -0.4544    Z=              0.1536  Tot=              0.4950
 Quadrupole moment (field-independent basis, Debye-Ang):
   XX=            -54.8730   YY=            -63.2317   ZZ=            -73.6594
   XY=             -0.7663   XZ=              0.0760   YZ=              1.2519

 Normal termination of Gaussian 16 at Tue Dec  5 23:27:04 2023.
