 Gaussian 16, Revision B.01,
 Gaussian 16:  ES64L-G16RevB.01 20-Dec-2017

 -------------------------
 #P B3LYP/6-311+g(d) force
 -------------------------

 -----
 DPGEN
 -----
 Symbolic Z-matrix:
 Charge =  0 Multiplicity = 2

                         Standard orientation:
 ---------------------------------------------------------------------
 Center     Atomic      Atomic             Coordinates (Angstroms)
 Number     Number       Type             X           Y           Z
 ---------------------------------------------------------------------
      1         11           0       -3.337049    2.256292    0.459892
      2         11           0       -0.203623    3.430625   -0.076707
      3         11           0        4.970137   -1.305122   -0.012093
      4         11           0        3.471026    2.028282   -0.362219
      5         11           0        1.825708   -2.267484    0.550191
      6         11           0       -4.589513   -1.207859   -0.259864
      7         11           0       -2.136687   -2.934734   -0.299201
 ---------------------------------------------------------------------

 SCF Done:  E(UB3LYP) =  -1136.10432555     A.U. after   30 cycles

 The electronic state is 2-A.
 Alpha  occ. eigenvalues --  -38.45556 -38.44754 -38.44732 -38.44721 -38.44236
 Alpha  occ. eigenvalues --  -38.44170 -38.44162  -2.21321  -2.20558  -2.20541
 Alpha  occ. eigenvalues --   -2.20515  -2.20020  -2.19958  -2.19910  -1.14999
 Alpha  occ. eigenvalues --   -1.14986  -1.14972  -1.14362  -1.14220  -1.14210
 Alpha  occ. eigenvalues --   -1.14182  -1.14175  -1.14169  -1.14166  -1.14131
 Alpha  occ. eigenvalues --   -1.14101  -1.13680  -1.13666  -1.13630  -1.13626
 Alpha  occ. eigenvalues --   -1.13620  -1.13598  -1.13595  -1.13589  -1.13525
 Alpha  occ. eigenvalues --   -0.15592  -0.14373  -0.12910  -0.10506
 Alpha virt. eigenvalues --   -0.08133  -0.05054  -0.04561  -0.03699  -0.03323
 Alpha virt. eigenvalues --   -0.02700  -0.02525  -0.01713  -0.01048  -0.00902
 Alpha virt. eigenvalues --   -0.00711  -0.00310   0.00162   0.00394   0.00444

  Beta  occ. eigenvalues --  -38.45568 -38.44740 -38.44696 -38.44672 -38.44175
  Beta  occ. eigenvalues --  -38.44146 -38.44121  -2.21348  -2.20535  -2.20500
  Beta  occ. eigenvalues --   -2.20403  -2.19939  -2.19868  -2.19853  -1.15022
  Beta  occ. eigenvalues --   -1.14999  -1.14968  -1.14326  -1.14205  -1.14190
  Beta  occ. eigenvalues --   -1.14158  -1.14140  -1.14099  -1.14085  -1.14066
  Beta  occ. eigenvalues --   -1.14059  -1.13623  -1.13622  -1.13574  -1.13566
  Beta  occ. eigenvalues --   -1.13557  -1.13552  -1.13538  -1.13520  -1.13491
  Beta  occ. eigenvalues --   -0.15082  -0.13838  -0.12249
  Beta virt. eigenvalues --   -0.08087  -0.07310  -0.04819  -0.03994  -0.03543
  Beta virt. eigenvalues --   -0.02961  -0.02539  -0.02250  -0.01529  -0.00868
  Beta virt. eigenvalues --   -0.00753  -0.00362  -0.00054   0.00227   0.00533

 Mulliken charges and spin densities:
               1          2
     1  Na  -0.112432   0.205445
     2  Na   0.080274  -0.091072
     3  Na   0.845389  -0.042973
     4  Na  -0.268968   0.473466
     5  Na  -0.746613   0.303745
     6  Na   0.383048   0.091542
     7  Na  -0.180698   0.059847
 Sum of Mulliken charges =  -0.00000   1.00000

 Dipole moment (field-independent basis, Debye):
    X=              0.5141    Y=             -1.1740    Z=             -0.0405  Tot=              1.2823
 Quadrupole moment (field-independent basis, Debye-Ang):
   XX=            -47.9493   YY=            -75.7029   ZZ=            -74.7230
   XY=             -4.5381   XZ=             -0.9645   YZ=              0.2823

 Normal termination of Gaussian 16 at Sun Dec  3 12:19:12 2023.
