 Gaussian 16, Revision B.01,
 Gaussian 16:  ES64L-G16RevB.01 20-Dec-2017

 -------------------------
 #P B3LYP/6-311+g(d) force
 -------------------------

 -----
 DPGEN
 -----
 Symbolic Z-matrix:
 Charge =  0 Multiplicity = 2

                         Standard orientation:
 ---------------------------------------------------------------------
 Center     Atomic      Atomic             Coordinates (Angstroms)
 Number     Number       Type             X           Y           Z
 ---------------------------------------------------------------------
      1         11           0       -0.837969    2.118500   -0.458798
      2         11           0       -4.590154    1.867574    0.696809
      3         11           0       -5.004041   -1.299566   -0.603329
      4         11           0       -2.023157   -2.098490    0.216795
      5         11           0        1.077045   -0.371125   -0.360700
      6         11           0        4.309943   -0.555328    1.079373
      7         11           0        7.068332    0.338436   -0.570151
 ---------------------------------------------------------------------

 SCF Done:  E(UB3LYP) =  -1136.11088511     A.U. after   22 cycles

 The electronic state is 2-A.
 Alpha  occ. eigenvalues --  -38.45048 -38.44877 -38.44862 -38.44330 -38.44026
 Alpha  occ. eigenvalues --  -38.43962 -38.43318  -2.20873  -2.20667  -2.20660
 Alpha  occ. eigenvalues --   -2.20083  -2.19808  -2.19780  -2.19163  -1.14546
 Alpha  occ. eigenvalues --   -1.14518  -1.14485  -1.14332  -1.14326  -1.14315
 Alpha  occ. eigenvalues --   -1.14312  -1.14295  -1.14281  -1.13750  -1.13748
 Alpha  occ. eigenvalues --   -1.13727  -1.13483  -1.13478  -1.13463  -1.13439
 Alpha  occ. eigenvalues --   -1.13430  -1.13412  -1.12844  -1.12827  -1.12806
 Alpha  occ. eigenvalues --   -0.16414  -0.13758  -0.11968  -0.11677
 Alpha virt. eigenvalues --   -0.06766  -0.05676  -0.04463  -0.03706  -0.03233
 Alpha virt. eigenvalues --   -0.02314  -0.02098  -0.01710  -0.01401  -0.00611
 Alpha virt. eigenvalues --   -0.00341  -0.00154   0.00020   0.00090   0.00592

  Beta  occ. eigenvalues --  -38.44967 -38.44815 -38.44814 -38.44332 -38.44025
  Beta  occ. eigenvalues --  -38.43952 -38.43317  -2.20725  -2.20578  -2.20544
  Beta  occ. eigenvalues --   -2.20086  -2.19807  -2.19765  -2.19163  -1.14444
  Beta  occ. eigenvalues --   -1.14420  -1.14375  -1.14273  -1.14255  -1.14247
  Beta  occ. eigenvalues --   -1.14238  -1.14220  -1.14199  -1.13752  -1.13751
  Beta  occ. eigenvalues --   -1.13729  -1.13482  -1.13477  -1.13441  -1.13431
  Beta  occ. eigenvalues --   -1.13430  -1.13393  -1.12838  -1.12827  -1.12802
  Beta  occ. eigenvalues --   -0.15643  -0.13604  -0.11681
  Beta virt. eigenvalues --   -0.08011  -0.06552  -0.05064  -0.04025  -0.03389
  Beta virt. eigenvalues --   -0.02694  -0.02240  -0.01979  -0.01570  -0.00939
  Beta virt. eigenvalues --   -0.00532  -0.00067  -0.00016   0.00213   0.00265

 Mulliken charges and spin densities:
               1          2
     1  Na   0.407866   0.367732
     2  Na   0.085673   0.218009
     3  Na  -0.039797  -0.032760
     4  Na   0.190144   0.605331
     5  Na  -0.895064  -0.138214
     6  Na   0.023517  -0.010540
     7  Na   0.227661  -0.009558
 Sum of Mulliken charges =  -0.00000   1.00000

 Dipole moment (field-independent basis, Debye):
    X=             -0.7437    Y=              0.4164    Z=             -0.1696  Tot=              0.8690
 Quadrupole moment (field-independent basis, Debye-Ang):
   XX=            -62.4262   YY=            -66.8633   ZZ=            -69.1309
   XY=              1.1782   XZ=             -3.9365   YZ=             -0.8733

 Normal termination of Gaussian 16 at Sun Dec  3 20:18:49 2023.
