 Gaussian 16, Revision B.01,
 Gaussian 16:  ES64L-G16RevB.01 20-Dec-2017

 -------------------------
 #P B3LYP/6-311+g(d) force
 -------------------------

 -----
 DPGEN
 -----
 Symbolic Z-matrix:
 Charge =  0 Multiplicity = 2

                         Standard orientation:
 ---------------------------------------------------------------------
 Center     Atomic      Atomic             Coordinates (Angstroms)
 Number     Number       Type             X           Y           Z
 ---------------------------------------------------------------------
      1         11           0       -2.371527   -1.796456    0.109854
      2         11           0       -0.142799    0.173814   -1.715469
      3         11           0       -2.647257    1.471875   -0.067477
      4         11           0        0.130685   -0.297946    2.336117
      5         11           0        1.040868   -2.250680   -0.670149
      6         11           0        3.252980    0.021035    0.088999
      7         11           0        0.737049    2.678358   -0.081875
 ---------------------------------------------------------------------

 SCF Done:  E(UB3LYP) =  -1136.13311731     A.U. after   19 cycles

 The electronic state is 2-A.
 Alpha  occ. eigenvalues --  -38.44435 -38.44250 -38.43748 -38.43567 -38.43435
 Alpha  occ. eigenvalues --  -38.43106 -38.43041  -2.20274  -2.20070  -2.19606
 Alpha  occ. eigenvalues --   -2.19600  -2.19299  -2.19041  -2.18897  -1.13924
 Alpha  occ. eigenvalues --   -1.13904  -1.13892  -1.13745  -1.13733  -1.13712
 Alpha  occ. eigenvalues --   -1.13371  -1.13324  -1.13268  -1.13262  -1.13234
 Alpha  occ. eigenvalues --   -1.13186  -1.12963  -1.12960  -1.12944  -1.12740
 Alpha  occ. eigenvalues --   -1.12670  -1.12636  -1.12600  -1.12557  -1.12508
 Alpha  occ. eigenvalues --   -0.18838  -0.13134  -0.12152  -0.11422
 Alpha virt. eigenvalues --   -0.05796  -0.04884  -0.04101  -0.03482  -0.03241
 Alpha virt. eigenvalues --   -0.02956  -0.01604  -0.00851  -0.00144  -0.00078
 Alpha virt. eigenvalues --    0.00073   0.00363   0.00777   0.00871   0.00928

  Beta  occ. eigenvalues --  -38.44330 -38.44250 -38.43746 -38.43499 -38.43432
  Beta  occ. eigenvalues --  -38.43085 -38.43037  -2.20081  -2.20072  -2.19604
  Beta  occ. eigenvalues --   -2.19478  -2.19297  -2.19007  -2.18894  -1.13796
  Beta  occ. eigenvalues --   -1.13769  -1.13755  -1.13746  -1.13717  -1.13714
  Beta  occ. eigenvalues --   -1.13320  -1.13275  -1.13249  -1.13245  -1.13170
  Beta  occ. eigenvalues --   -1.13111  -1.12963  -1.12947  -1.12931  -1.12703
  Beta  occ. eigenvalues --   -1.12630  -1.12616  -1.12590  -1.12542  -1.12508
  Beta  occ. eigenvalues --   -0.18084  -0.12938  -0.11909
  Beta virt. eigenvalues --   -0.07399  -0.05711  -0.04894  -0.04064  -0.02691
  Beta virt. eigenvalues --   -0.02244  -0.02043  -0.01505  -0.00799  -0.00154
  Beta virt. eigenvalues --   -0.00003   0.00101   0.00385   0.00865   0.00915

 Mulliken charges and spin densities:
               1          2
     1  Na   0.200070   0.049059
     2  Na  -0.199996   0.175165
     3  Na   0.142963  -0.012427
     4  Na  -0.764798   0.717807
     5  Na   0.462656   0.078912
     6  Na   0.043318  -0.003970
     7  Na   0.115787  -0.004546
 Sum of Mulliken charges =  -0.00000   1.00000

 Dipole moment (field-independent basis, Debye):
    X=              0.1288    Y=              0.0573    Z=              0.5087  Tot=              0.5279
 Quadrupole moment (field-independent basis, Debye-Ang):
   XX=            -55.8183   YY=            -68.3919   ZZ=            -70.7985
   XY=              0.4377   XZ=             -0.1021   YZ=              0.6906

 Normal termination of Gaussian 16 at Thu Dec  7 07:28:02 2023.
