 Gaussian 16, Revision B.01,
 Gaussian 16:  ES64L-G16RevB.01 20-Dec-2017

 -------------------------
 #P B3LYP/6-311+g(d) force
 -------------------------

 -----
 DPGEN
 -----
 Symbolic Z-matrix:
 Charge =  0 Multiplicity = 2

                         Standard orientation:
 ---------------------------------------------------------------------
 Center     Atomic      Atomic             Coordinates (Angstroms)
 Number     Number       Type             X           Y           Z
 ---------------------------------------------------------------------
      1         11           0       -2.358067    1.395581    0.661566
      2         11           0        1.672009    0.435719    1.720445
      3         11           0        1.984998   -2.469075    0.182529
      4         11           0        3.383352    0.136597   -1.085439
      5         11           0        0.653843    2.551091   -0.722216
      6         11           0       -0.627376   -1.058283   -0.269088
      7         11           0       -4.708759   -0.991630   -0.487796
 ---------------------------------------------------------------------

 SCF Done:  E(UB3LYP) =  -1136.12092206     A.U. after   23 cycles

 The electronic state is 2-A.
 Alpha  occ. eigenvalues --  -38.45027 -38.44136 -38.43962 -38.43947 -38.43860
 Alpha  occ. eigenvalues --  -38.43306 -38.43071  -2.20943  -2.19922  -2.19897
 Alpha  occ. eigenvalues --   -2.19803  -2.19758  -2.19236  -2.18918  -1.14630
 Alpha  occ. eigenvalues --   -1.14620  -1.14560  -1.13656  -1.13585  -1.13579
 Alpha  occ. eigenvalues --   -1.13575  -1.13538  -1.13525  -1.13485  -1.13471
 Alpha  occ. eigenvalues --   -1.13423  -1.13405  -1.13388  -1.13371  -1.12912
 Alpha  occ. eigenvalues --   -1.12878  -1.12866  -1.12605  -1.12579  -1.12551
 Alpha  occ. eigenvalues --   -0.18516  -0.14078  -0.11904  -0.10546
 Alpha virt. eigenvalues --   -0.06924  -0.05355  -0.04392  -0.03316  -0.02766
 Alpha virt. eigenvalues --   -0.02395  -0.01725  -0.01460  -0.00754  -0.00599
 Alpha virt. eigenvalues --   -0.00156  -0.00014   0.00351   0.00617   0.00675

  Beta  occ. eigenvalues --  -38.45006 -38.44072 -38.43947 -38.43944 -38.43780
  Beta  occ. eigenvalues --  -38.43297 -38.43066  -2.20909  -2.19876  -2.19802
  Beta  occ. eigenvalues --   -2.19800  -2.19609  -2.19224  -2.18909  -1.14612
  Beta  occ. eigenvalues --   -1.14557  -1.14537  -1.13650  -1.13550  -1.13515
  Beta  occ. eigenvalues --   -1.13496  -1.13492  -1.13485  -1.13468  -1.13453
  Beta  occ. eigenvalues --   -1.13363  -1.13324  -1.13308  -1.13264  -1.12907
  Beta  occ. eigenvalues --   -1.12870  -1.12829  -1.12601  -1.12579  -1.12521
  Beta  occ. eigenvalues --   -0.17939  -0.13583  -0.11583
  Beta virt. eigenvalues --   -0.07004  -0.06680  -0.05145  -0.04037  -0.02943
  Beta virt. eigenvalues --   -0.02586  -0.01983  -0.01292  -0.01176  -0.00523
  Beta virt. eigenvalues --   -0.00258  -0.00018   0.00117   0.00477   0.00665

 Mulliken charges and spin densities:
               1          2
     1  Na   0.280309   0.012734
     2  Na   0.187005   0.248342
     3  Na   1.352679   0.051676
     4  Na   0.130366   0.495977
     5  Na  -0.069986  -0.001404
     6  Na  -2.051971  -0.186487
     7  Na   0.171598   0.379162
 Sum of Mulliken charges =  -0.00000   1.00000

 Dipole moment (field-independent basis, Debye):
    X=              0.1956    Y=              0.0906    Z=              0.7675  Tot=              0.7971
 Quadrupole moment (field-independent basis, Debye-Ang):
   XX=            -64.5314   YY=            -70.2839   ZZ=            -65.4606
   XY=             -2.6534   XZ=              2.9221   YZ=              2.1843

 Normal termination of Gaussian 16 at Tue Dec  5 11:34:33 2023.
