 Gaussian 16, Revision B.01,
 Gaussian 16:  ES64L-G16RevB.01 20-Dec-2017

 -------------------------
 #P B3LYP/6-311+g(d) force
 -------------------------

 -----
 DPGEN
 -----
 Symbolic Z-matrix:
 Charge =  0 Multiplicity = 2

                         Standard orientation:
 ---------------------------------------------------------------------
 Center     Atomic      Atomic             Coordinates (Angstroms)
 Number     Number       Type             X           Y           Z
 ---------------------------------------------------------------------
      1         11           0        0.500299    3.434562   -0.477009
      2         11           0       -1.978523    1.034950   -0.585512
      3         11           0        3.278500    1.763156    0.109544
      4         11           0       -4.437781    0.339491    1.244628
      5         11           0        3.940371   -1.492780    0.866058
      6         11           0        1.032935   -2.946764   -0.555793
      7         11           0       -2.335801   -2.132616   -0.601915
 ---------------------------------------------------------------------

 SCF Done:  E(UB3LYP) =  -1136.11904832     A.U. after   20 cycles

 The electronic state is 2-A.
 Alpha  occ. eigenvalues --  -38.44752 -38.44614 -38.44567 -38.44514 -38.44020
 Alpha  occ. eigenvalues --  -38.43902 -38.43204  -2.20594  -2.20458  -2.20383
 Alpha  occ. eigenvalues --   -2.20353  -2.19797  -2.19706  -2.19024  -1.14282
 Alpha  occ. eigenvalues --   -1.14229  -1.14212  -1.14191  -1.14128  -1.14078
 Alpha  occ. eigenvalues --   -1.14059  -1.14039  -1.14037  -1.14022  -1.14000
 Alpha  occ. eigenvalues --   -1.13975  -1.13480  -1.13468  -1.13435  -1.13365
 Alpha  occ. eigenvalues --   -1.13359  -1.13329  -1.12680  -1.12675  -1.12673
 Alpha  occ. eigenvalues --   -0.16619  -0.14196  -0.12803  -0.10997
 Alpha virt. eigenvalues --   -0.06609  -0.05739  -0.03989  -0.03822  -0.02933
 Alpha virt. eigenvalues --   -0.02168  -0.02142  -0.01359  -0.01311  -0.01000
 Alpha virt. eigenvalues --   -0.00228  -0.00111   0.00098   0.00582   0.00693

  Beta  occ. eigenvalues --  -38.44669 -38.44580 -38.44562 -38.44505 -38.44005
  Beta  occ. eigenvalues --  -38.43862 -38.43179  -2.20440  -2.20402  -2.20370
  Beta  occ. eigenvalues --   -2.20346  -2.19772  -2.19632  -2.18978  -1.14187
  Beta  occ. eigenvalues --   -1.14171  -1.14124  -1.14109  -1.14093  -1.14051
  Beta  occ. eigenvalues --   -1.14037  -1.14029  -1.14021  -1.13980  -1.13970
  Beta  occ. eigenvalues --   -1.13934  -1.13467  -1.13454  -1.13395  -1.13315
  Beta  occ. eigenvalues --   -1.13305  -1.13283  -1.12649  -1.12645  -1.12641
  Beta  occ. eigenvalues --   -0.16039  -0.13656  -0.12294
  Beta virt. eigenvalues --   -0.07625  -0.06576  -0.05143  -0.03803  -0.03494
  Beta virt. eigenvalues --   -0.02444  -0.01936  -0.01838  -0.01271  -0.00945
  Beta virt. eigenvalues --   -0.00837   0.00053   0.00139   0.00338   0.00649

 Mulliken charges and spin densities:
               1          2
     1  Na   0.444414   0.054168
     2  Na  -1.353749   0.066373
     3  Na  -0.540212   0.098197
     4  Na   0.872284   0.406697
     5  Na   0.385801   0.203686
     6  Na  -0.332482  -0.016747
     7  Na   0.523944   0.187626
 Sum of Mulliken charges =  -0.00000   1.00000

 Dipole moment (field-independent basis, Debye):
    X=             -1.2044    Y=             -0.3129    Z=              0.4804  Tot=              1.3339
 Quadrupole moment (field-independent basis, Debye-Ang):
   XX=            -59.0774   YY=            -67.6938   ZZ=            -70.4739
   XY=              1.5878   XZ=             -0.9872   YZ=              0.1523

 Normal termination of Gaussian 16 at Sun Dec  3 13:07:01 2023.
