 Gaussian 16, Revision B.01,
 Gaussian 16:  ES64L-G16RevB.01 20-Dec-2017

 -------------------------
 #P B3LYP/6-311+g(d) force
 -------------------------

 -----
 DPGEN
 -----
 Symbolic Z-matrix:
 Charge =  0 Multiplicity = 2

                         Standard orientation:
 ---------------------------------------------------------------------
 Center     Atomic      Atomic             Coordinates (Angstroms)
 Number     Number       Type             X           Y           Z
 ---------------------------------------------------------------------
      1         11           0        0.593459   -0.351300    2.025927
      2         11           0        2.823435    1.254536   -0.611504
      3         11           0        0.006322   -0.449166   -1.374355
      4         11           0       -3.311645    1.239817   -0.816373
      5         11           0        2.794924   -1.862853   -0.357969
      6         11           0       -2.610957   -2.604939    0.360581
      7         11           0       -0.295538    2.773906    0.773692
 ---------------------------------------------------------------------

 SCF Done:  E(UB3LYP) =  -1136.12478990     A.U. after   22 cycles

 The electronic state is 2-A.
 Alpha  occ. eigenvalues --  -38.44680 -38.44330 -38.44290 -38.44150 -38.43899
 Alpha  occ. eigenvalues --  -38.43796 -38.42776  -2.20441  -2.20204  -2.20023
 Alpha  occ. eigenvalues --   -2.20021  -2.19804  -2.19675  -2.18594  -1.14120
 Alpha  occ. eigenvalues --   -1.14083  -1.14066  -1.13909  -1.13886  -1.13832
 Alpha  occ. eigenvalues --   -1.13703  -1.13696  -1.13679  -1.13668  -1.13665
 Alpha  occ. eigenvalues --   -1.13647  -1.13524  -1.13448  -1.13418  -1.13343
 Alpha  occ. eigenvalues --   -1.13306  -1.13275  -1.12278  -1.12255  -1.12232
 Alpha  occ. eigenvalues --   -0.18106  -0.13339  -0.11599  -0.10736
 Alpha virt. eigenvalues --   -0.06258  -0.05924  -0.04359  -0.03175  -0.02738
 Alpha virt. eigenvalues --   -0.02534  -0.02085  -0.01453  -0.00674  -0.00375
 Alpha virt. eigenvalues --   -0.00023   0.00250   0.00438   0.00621   0.00678

  Beta  occ. eigenvalues --  -38.44653 -38.44310 -38.44294 -38.44142 -38.43872
  Beta  occ. eigenvalues --  -38.43695 -38.42767  -2.20390  -2.20170  -2.20031
  Beta  occ. eigenvalues --   -2.20011  -2.19756  -2.19489  -2.18581  -1.14081
  Beta  occ. eigenvalues --   -1.14051  -1.14034  -1.13890  -1.13861  -1.13789
  Beta  occ. eigenvalues --   -1.13708  -1.13688  -1.13679  -1.13671  -1.13656
  Beta  occ. eigenvalues --   -1.13620  -1.13479  -1.13415  -1.13378  -1.13221
  Beta  occ. eigenvalues --   -1.13181  -1.13136  -1.12262  -1.12247  -1.12212
  Beta  occ. eigenvalues --   -0.17418  -0.13009  -0.11421
  Beta virt. eigenvalues --   -0.07034  -0.06035  -0.05773  -0.04203  -0.02684
  Beta virt. eigenvalues --   -0.02142  -0.01923  -0.01676  -0.01260  -0.00665
  Beta virt. eigenvalues --   -0.00250   0.00084   0.00318   0.00565   0.00700

 Mulliken charges and spin densities:
               1          2
     1  Na   0.091501   0.566988
     2  Na   0.161932   0.138896
     3  Na  -0.050173   0.057739
     4  Na   0.137236   0.079604
     5  Na   0.317312   0.099734
     6  Na  -0.240085   0.007988
     7  Na  -0.417722   0.049051
 Sum of Mulliken charges =  -0.00000   1.00000

 Dipole moment (field-independent basis, Debye):
    X=              0.2145    Y=             -0.3090    Z=             -0.0363  Tot=              0.3778
 Quadrupole moment (field-independent basis, Debye-Ang):
   XX=            -53.7233   YY=            -66.2951   ZZ=            -73.5446
   XY=             -0.9015   XZ=             -0.3182   YZ=             -1.7185

 Normal termination of Gaussian 16 at Wed Dec  6 00:39:08 2023.
