 Gaussian 16, Revision B.01,
 Gaussian 16:  ES64L-G16RevB.01 20-Dec-2017

 -------------------------
 #P B3LYP/6-311+g(d) force
 -------------------------

 -----
 DPGEN
 -----
 Symbolic Z-matrix:
 Charge =  0 Multiplicity = 2

                         Standard orientation:
 ---------------------------------------------------------------------
 Center     Atomic      Atomic             Coordinates (Angstroms)
 Number     Number       Type             X           Y           Z
 ---------------------------------------------------------------------
      1         11           0       -0.173430    3.156171   -0.668437
      2         11           0        7.535314   -1.802922   -0.411923
      3         11           0        2.933502    2.030357    1.056648
      4         11           0        4.331347   -1.323177    0.505193
      5         11           0       -1.554821    0.122470   -0.652246
      6         11           0       -5.446639   -1.168959   -0.923422
      7         11           0       -7.625273   -1.013940    1.094187
 ---------------------------------------------------------------------

 SCF Done:  E(UB3LYP) =  -1136.10353525     A.U. after   19 cycles

 The electronic state is 2-A.
 Alpha  occ. eigenvalues --  -38.44911 -38.44760 -38.44756 -38.44716 -38.44316
 Alpha  occ. eigenvalues --  -38.44133 -38.43913  -2.20671  -2.20548  -2.20540
 Alpha  occ. eigenvalues --   -2.20490  -2.20130  -2.19896  -2.19716  -1.14357
 Alpha  occ. eigenvalues --   -1.14352  -1.14325  -1.14204  -1.14200  -1.14199
 Alpha  occ. eigenvalues --   -1.14186  -1.14146  -1.14141  -1.14140  -1.14139
 Alpha  occ. eigenvalues --   -1.14113  -1.13846  -1.13767  -1.13766  -1.13579
 Alpha  occ. eigenvalues --   -1.13570  -1.13544  -1.13375  -1.13372  -1.13355
 Alpha  occ. eigenvalues --   -0.15180  -0.13865  -0.12858  -0.10947
 Alpha virt. eigenvalues --   -0.07275  -0.05462  -0.04270  -0.03398  -0.03146
 Alpha virt. eigenvalues --   -0.02587  -0.02345  -0.02069  -0.01512  -0.01177
 Alpha virt. eigenvalues --   -0.00961  -0.00410  -0.00112   0.00215   0.00384

  Beta  occ. eigenvalues --  -38.44934 -38.44688 -38.44667 -38.44657 -38.44281
  Beta  occ. eigenvalues --  -38.44149 -38.43920  -2.20718  -2.20414  -2.20379
  Beta  occ. eigenvalues --   -2.20374  -2.20066  -2.19931  -2.19732  -1.14389
  Beta  occ. eigenvalues --   -1.14375  -1.14338  -1.14112  -1.14107  -1.14085
  Beta  occ. eigenvalues --   -1.14074  -1.14066  -1.14064  -1.14062  -1.14042
  Beta  occ. eigenvalues --   -1.14036  -1.13808  -1.13723  -1.13722  -1.13607
  Beta  occ. eigenvalues --   -1.13595  -1.13537  -1.13389  -1.13384  -1.13339
  Beta  occ. eigenvalues --   -0.14564  -0.13346  -0.12488
  Beta virt. eigenvalues --   -0.07799  -0.06755  -0.04993  -0.04093  -0.03239
  Beta virt. eigenvalues --   -0.02867  -0.02430  -0.02212  -0.01697  -0.01367
  Beta virt. eigenvalues --   -0.00944  -0.00587  -0.00218   0.00165   0.00334

 Mulliken charges and spin densities:
               1          2
     1  Na   0.618692  -0.088835
     2  Na   0.302668   0.265442
     3  Na  -0.036385   0.408131
     4  Na  -0.291511  -0.026950
     5  Na  -0.396882   0.389890
     6  Na  -0.581000  -0.094109
     7  Na   0.384417   0.146430
 Sum of Mulliken charges =  -0.00000   1.00000

 Dipole moment (field-independent basis, Debye):
    X=              0.3437    Y=              0.7055    Z=              0.0993  Tot=              0.7910
 Quadrupole moment (field-independent basis, Debye-Ang):
   XX=            -60.0141   YY=            -65.5369   ZZ=            -70.6503
   XY=             -1.3569   XZ=             -7.3488   YZ=             -0.3302

 Normal termination of Gaussian 16 at Mon Dec  4 01:45:06 2023.
