 Gaussian 16, Revision B.01,
 Gaussian 16:  ES64L-G16RevB.01 20-Dec-2017

 -------------------------
 #P B3LYP/6-311+g(d) force
 -------------------------

 -----
 DPGEN
 -----
 Symbolic Z-matrix:
 Charge =  0 Multiplicity = 2

                         Standard orientation:
 ---------------------------------------------------------------------
 Center     Atomic      Atomic             Coordinates (Angstroms)
 Number     Number       Type             X           Y           Z
 ---------------------------------------------------------------------
      1         11           0       -0.034559   -2.455508    1.169165
      2         11           0        2.835537   -1.491735   -0.917088
      3         11           0       -0.963620   -0.090917   -1.905497
      4         11           0       -3.568572   -0.658368   -0.340865
      5         11           0        1.895077    2.125718   -0.677401
      6         11           0       -1.219645    2.212616    0.856422
      7         11           0        1.055782    0.358194    1.815264
 ---------------------------------------------------------------------

 SCF Done:  E(UB3LYP) =  -1136.12922135     A.U. after   20 cycles

 The electronic state is 2-A.
 Alpha  occ. eigenvalues --  -38.44118 -38.44112 -38.44029 -38.43604 -38.43552
 Alpha  occ. eigenvalues --  -38.43523 -38.43488  -2.19987  -2.19905  -2.19835
 Alpha  occ. eigenvalues --   -2.19538  -2.19443  -2.19390  -2.19365  -1.13702
 Alpha  occ. eigenvalues --   -1.13646  -1.13622  -1.13577  -1.13560  -1.13537
 Alpha  occ. eigenvalues --   -1.13492  -1.13474  -1.13458  -1.13295  -1.13267
 Alpha  occ. eigenvalues --   -1.13204  -1.13093  -1.13076  -1.13060  -1.13044
 Alpha  occ. eigenvalues --   -1.13040  -1.13028  -1.13016  -1.12994  -1.12946
 Alpha  occ. eigenvalues --   -0.18313  -0.12979  -0.12012  -0.11568
 Alpha virt. eigenvalues --   -0.05710  -0.05034  -0.04201  -0.03619  -0.03238
 Alpha virt. eigenvalues --   -0.02966  -0.01606  -0.00908  -0.00422  -0.00001
 Alpha virt. eigenvalues --    0.00181   0.00328   0.00684   0.00765   0.00827

  Beta  occ. eigenvalues --  -38.44092 -38.44070 -38.44030 -38.43567 -38.43507
  Beta  occ. eigenvalues --  -38.43487 -38.43467  -2.19898  -2.19868  -2.19840
  Beta  occ. eigenvalues --   -2.19423  -2.19378  -2.19361  -2.19329  -1.13652
  Beta  occ. eigenvalues --   -1.13588  -1.13564  -1.13550  -1.13532  -1.13507
  Beta  occ. eigenvalues --   -1.13484  -1.13476  -1.13444  -1.13215  -1.13202
  Beta  occ. eigenvalues --   -1.13132  -1.13038  -1.13032  -1.13029  -1.13004
  Beta  occ. eigenvalues --   -1.13001  -1.12987  -1.12980  -1.12949  -1.12921
  Beta  occ. eigenvalues --   -0.17567  -0.12759  -0.11793
  Beta virt. eigenvalues --   -0.07674  -0.05472  -0.04889  -0.03998  -0.03111
  Beta virt. eigenvalues --   -0.02694  -0.02041  -0.01429  -0.00867  -0.00187
  Beta virt. eigenvalues --    0.00110   0.00168   0.00389   0.00782   0.00829

 Mulliken charges and spin densities:
               1          2
     1  Na  -0.285460  -0.038151
     2  Na  -0.175329   0.122778
     3  Na  -0.273463   0.344233
     4  Na   0.257654   0.017779
     5  Na  -0.046594   0.196599
     6  Na  -0.217610  -0.074985
     7  Na   0.740803   0.431746
 Sum of Mulliken charges =  -0.00000   1.00000

 Dipole moment (field-independent basis, Debye):
    X=             -0.1589    Y=             -0.0608    Z=             -0.3283  Tot=              0.3698
 Quadrupole moment (field-independent basis, Debye-Ang):
   XX=            -57.5120   YY=            -69.1972   ZZ=            -68.8136
   XY=              0.4937   XZ=             -4.7682   YZ=             -0.4494

 Normal termination of Gaussian 16 at Sun Dec  3 17:07:41 2023.
