 Gaussian 16, Revision B.01,
 Gaussian 16:  ES64L-G16RevB.01 20-Dec-2017

 -------------------------
 #P B3LYP/6-311+g(d) force
 -------------------------

 -----
 DPGEN
 -----
 Symbolic Z-matrix:
 Charge =  0 Multiplicity = 2

                         Standard orientation:
 ---------------------------------------------------------------------
 Center     Atomic      Atomic             Coordinates (Angstroms)
 Number     Number       Type             X           Y           Z
 ---------------------------------------------------------------------
      1         11           0        1.623441   -0.925328    2.131321
      2         11           0       -0.579625    0.811264    0.010371
      3         11           0       -3.798245    0.174145   -0.631385
      4         11           0       -1.666103   -1.929305    0.537302
      5         11           0        1.236635   -2.684985   -1.025395
      6         11           0        2.907886    0.563403   -1.294453
      7         11           0        0.276011    3.990805    0.272240
 ---------------------------------------------------------------------

 SCF Done:  E(UB3LYP) =  -1136.12128365     A.U. after   23 cycles

 The electronic state is 2-A.
 Alpha  occ. eigenvalues --  -38.44568 -38.44245 -38.44199 -38.44168 -38.44069
 Alpha  occ. eigenvalues --  -38.43534 -38.42738  -2.20352  -2.20022  -2.20007
 Alpha  occ. eigenvalues --   -2.19999  -2.19894  -2.19461  -2.18717  -1.14030
 Alpha  occ. eigenvalues --   -1.14001  -1.13962  -1.13703  -1.13676  -1.13674
 Alpha  occ. eigenvalues --   -1.13673  -1.13663  -1.13662  -1.13638  -1.13634
 Alpha  occ. eigenvalues --   -1.13610  -1.13557  -1.13553  -1.13541  -1.13219
 Alpha  occ. eigenvalues --   -1.13123  -1.13045  -1.12419  -1.12390  -1.12335
 Alpha  occ. eigenvalues --   -0.17840  -0.13079  -0.12144  -0.10555
 Alpha virt. eigenvalues --   -0.06651  -0.05293  -0.04613  -0.03159  -0.02620
 Alpha virt. eigenvalues --   -0.02228  -0.01735  -0.01636  -0.00839  -0.00436
 Alpha virt. eigenvalues --   -0.00184   0.00185   0.00288   0.00560   0.00823

  Beta  occ. eigenvalues --  -38.44516 -38.44248 -38.44176 -38.44088 -38.44060
  Beta  occ. eigenvalues --  -38.43526 -38.42727  -2.20255  -2.20004  -2.19982
  Beta  occ. eigenvalues --   -2.19877  -2.19860  -2.19448  -2.18699  -1.13961
  Beta  occ. eigenvalues --   -1.13939  -1.13886  -1.13679  -1.13676  -1.13663
  Beta  occ. eigenvalues --   -1.13638  -1.13636  -1.13622  -1.13568  -1.13548
  Beta  occ. eigenvalues --   -1.13541  -1.13530  -1.13528  -1.13518  -1.13212
  Beta  occ. eigenvalues --   -1.13109  -1.13018  -1.12390  -1.12369  -1.12328
  Beta  occ. eigenvalues --   -0.17229  -0.12709  -0.12067
  Beta virt. eigenvalues --   -0.06832  -0.06357  -0.05059  -0.04456  -0.02698
  Beta virt. eigenvalues --   -0.02157  -0.01812  -0.01618  -0.01098  -0.00643
  Beta virt. eigenvalues --   -0.00399   0.00048   0.00295   0.00367   0.00593

 Mulliken charges and spin densities:
               1          2
     1  Na   0.056693   0.211559
     2  Na  -3.301581   0.286537
     3  Na   0.386443  -0.032052
     4  Na   1.719164   0.251918
     5  Na   0.473816   0.190262
     6  Na   0.134116   0.244717
     7  Na   0.531349  -0.152940
 Sum of Mulliken charges =  -0.00000   1.00000

 Dipole moment (field-independent basis, Debye):
    X=              0.0607    Y=             -0.0350    Z=              0.0297  Tot=              0.0761
 Quadrupole moment (field-independent basis, Debye-Ang):
   XX=            -58.7420   YY=            -60.2152   ZZ=            -72.2667
   XY=             -0.1036   XZ=              2.4507   YZ=              0.3345

 Normal termination of Gaussian 16 at Tue Dec  5 23:20:17 2023.
