 Gaussian 16, Revision B.01,
 Gaussian 16:  ES64L-G16RevB.01 20-Dec-2017

 -------------------------
 #P B3LYP/6-311+g(d) force
 -------------------------

 -----
 DPGEN
 -----
 Symbolic Z-matrix:
 Charge =  0 Multiplicity = 2

                         Standard orientation:
 ---------------------------------------------------------------------
 Center     Atomic      Atomic             Coordinates (Angstroms)
 Number     Number       Type             X           Y           Z
 ---------------------------------------------------------------------
      1         11           0       -3.210799    1.513989   -0.408166
      2         11           0       -3.166610   -1.562530   -1.442567
      3         11           0       -0.266046    4.246553    0.576753
      4         11           0        2.060883    1.596817    0.161060
      5         11           0       -2.101798   -2.588654    1.637733
      6         11           0        4.516818   -0.314632   -0.628847
      7         11           0        2.167553   -2.891544    0.104035
 ---------------------------------------------------------------------

 SCF Done:  E(UB3LYP) =  -1136.10922971     A.U. after   23 cycles

 The electronic state is 2-A.
 Alpha  occ. eigenvalues --  -38.45939 -38.44819 -38.44562 -38.44561 -38.44197
 Alpha  occ. eigenvalues --  -38.44176 -38.43173  -2.21656  -2.20597  -2.20348
 Alpha  occ. eigenvalues --   -2.20332  -2.20017  -2.20003  -2.18949  -1.15353
 Alpha  occ. eigenvalues --   -1.15332  -1.15269  -1.14282  -1.14259  -1.14211
 Alpha  occ. eigenvalues --   -1.14050  -1.14039  -1.14001  -1.13979  -1.13973
 Alpha  occ. eigenvalues --   -1.13961  -1.13686  -1.13671  -1.13666  -1.13651
 Alpha  occ. eigenvalues --   -1.13651  -1.13615  -1.12612  -1.12600  -1.12585
 Alpha  occ. eigenvalues --   -0.15671  -0.14183  -0.12493  -0.10326
 Alpha virt. eigenvalues --   -0.07109  -0.05464  -0.04835  -0.03418  -0.02993
 Alpha virt. eigenvalues --   -0.02354  -0.02055  -0.01795  -0.01490  -0.01288
 Alpha virt. eigenvalues --   -0.00234  -0.00049  -0.00005   0.00432   0.00477

  Beta  occ. eigenvalues --  -38.45933 -38.44773 -38.44553 -38.44510 -38.44176
  Beta  occ. eigenvalues --  -38.44140 -38.43144  -2.21648  -2.20517  -2.20333
  Beta  occ. eigenvalues --   -2.20237  -2.19983  -2.19937  -2.18894  -1.15349
  Beta  occ. eigenvalues --   -1.15328  -1.15244  -1.14225  -1.14211  -1.14139
  Beta  occ. eigenvalues --   -1.14039  -1.14032  -1.13943  -1.13939  -1.13917
  Beta  occ. eigenvalues --   -1.13887  -1.13663  -1.13648  -1.13621  -1.13605
  Beta  occ. eigenvalues --   -1.13603  -1.13575  -1.12576  -1.12560  -1.12551
  Beta  occ. eigenvalues --   -0.15242  -0.13660  -0.11935
  Beta virt. eigenvalues --   -0.07168  -0.06952  -0.05089  -0.04571  -0.03215
  Beta virt. eigenvalues --   -0.02485  -0.02100  -0.01976  -0.01485  -0.01311
  Beta virt. eigenvalues --   -0.01033   0.00073   0.00172   0.00222   0.00479

 Mulliken charges and spin densities:
               1          2
     1  Na  -0.406880   0.180896
     2  Na   0.311288   0.058758
     3  Na   0.896473   0.060702
     4  Na  -1.984642   0.165972
     5  Na  -0.043209   0.316417
     6  Na   1.371939   0.148754
     7  Na  -0.144970   0.068500
 Sum of Mulliken charges =  -0.00000   1.00000

 Dipole moment (field-independent basis, Debye):
    X=              0.5633    Y=             -1.2057    Z=             -0.3598  Tot=              1.3785
 Quadrupole moment (field-independent basis, Debye-Ang):
   XX=            -61.2779   YY=            -67.7235   ZZ=            -70.3115
   XY=             -3.4069   XZ=             -2.8390   YZ=              2.6990

 Normal termination of Gaussian 16 at Sun Dec  3 11:45:45 2023.
