 Gaussian 16, Revision B.01,
 Gaussian 16:  ES64L-G16RevB.01 20-Dec-2017

 -------------------------
 #P B3LYP/6-311+g(d) force
 -------------------------

 -----
 DPGEN
 -----
 Symbolic Z-matrix:
 Charge =  0 Multiplicity = 2

                         Standard orientation:
 ---------------------------------------------------------------------
 Center     Atomic      Atomic             Coordinates (Angstroms)
 Number     Number       Type             X           Y           Z
 ---------------------------------------------------------------------
      1         11           0       -0.779572    1.637667   -0.304800
      2         11           0        0.591690    4.383086    0.473945
      3         11           0        2.787675    0.866253   -0.560209
      4         11           0        4.403600   -2.569113    0.097332
      5         11           0        1.144600   -1.726002    0.011857
      6         11           0       -2.689081   -1.657703    0.772682
      7         11           0       -5.458912   -0.934188   -0.490805
 ---------------------------------------------------------------------

 SCF Done:  E(UB3LYP) =  -1136.11970640     A.U. after   21 cycles

 The electronic state is 2-A.
 Alpha  occ. eigenvalues --  -38.45770 -38.44467 -38.44182 -38.44088 -38.43715
 Alpha  occ. eigenvalues --  -38.43694 -38.43219  -2.21566  -2.20268  -2.19982
 Alpha  occ. eigenvalues --   -2.19924  -2.19583  -2.19532  -2.19035  -1.15305
 Alpha  occ. eigenvalues --   -1.15269  -1.15127  -1.13934  -1.13924  -1.13876
 Alpha  occ. eigenvalues --   -1.13698  -1.13639  -1.13617  -1.13613  -1.13597
 Alpha  occ. eigenvalues --   -1.13496  -1.13299  -1.13260  -1.13193  -1.13167
 Alpha  occ. eigenvalues --   -1.13165  -1.13163  -1.12714  -1.12705  -1.12679
 Alpha  occ. eigenvalues --   -0.16854  -0.13569  -0.12991  -0.10329
 Alpha virt. eigenvalues --   -0.06847  -0.05204  -0.04470  -0.03863  -0.02847
 Alpha virt. eigenvalues --   -0.02354  -0.01972  -0.01642  -0.01270  -0.01070
 Alpha virt. eigenvalues --   -0.00295   0.00113   0.00260   0.00336   0.00532

  Beta  occ. eigenvalues --  -38.45773 -38.44424 -38.44159 -38.44078 -38.43653
  Beta  occ. eigenvalues --  -38.43641 -38.43219  -2.21574  -2.20186  -2.19937
  Beta  occ. eigenvalues --   -2.19908  -2.19512  -2.19393  -2.19042  -1.15294
  Beta  occ. eigenvalues --   -1.15275  -1.15133  -1.13878  -1.13868  -1.13824
  Beta  occ. eigenvalues --   -1.13672  -1.13615  -1.13600  -1.13592  -1.13569
  Beta  occ. eigenvalues --   -1.13470  -1.13256  -1.13216  -1.13106  -1.13079
  Beta  occ. eigenvalues --   -1.13072  -1.13069  -1.12727  -1.12715  -1.12628
  Beta  occ. eigenvalues --   -0.16312  -0.13126  -0.12539
  Beta virt. eigenvalues --   -0.07085  -0.06465  -0.04937  -0.04053  -0.03631
  Beta virt. eigenvalues --   -0.02703  -0.02100  -0.01788  -0.01403  -0.00856
  Beta virt. eigenvalues --   -0.00736  -0.00103   0.00362   0.00372   0.00510

 Mulliken charges and spin densities:
               1          2
     1  Na  -1.210571  -0.119622
     2  Na   0.776249   0.210316
     3  Na   0.307322   0.113695
     4  Na   1.458817   0.307726
     5  Na  -1.648223   0.205740
     6  Na   0.057192  -0.076586
     7  Na   0.259213   0.358732
 Sum of Mulliken charges =  -0.00000   1.00000

 Dipole moment (field-independent basis, Debye):
    X=              2.0091    Y=              0.5055    Z=             -0.0603  Tot=              2.0726
 Quadrupole moment (field-independent basis, Debye-Ang):
   XX=            -65.3967   YY=            -60.8961   ZZ=            -71.2808
   XY=             -4.5453   XZ=              1.8907   YZ=             -0.4977

 Normal termination of Gaussian 16 at Tue Nov 28 22:28:12 2023.
