 Gaussian 16, Revision B.01,
 Gaussian 16:  ES64L-G16RevB.01 20-Dec-2017

 -------------------------
 #P B3LYP/6-311+g(d) force
 -------------------------

 -----
 DPGEN
 -----
 Symbolic Z-matrix:
 Charge =  0 Multiplicity = 2

                         Standard orientation:
 ---------------------------------------------------------------------
 Center     Atomic      Atomic             Coordinates (Angstroms)
 Number     Number       Type             X           Y           Z
 ---------------------------------------------------------------------
      1         11           0       -4.516529   -0.123641   -1.764734
      2         11           0        4.821583   -0.413648   -0.561771
      3         11           0        2.425603    2.314417   -0.126576
      4         11           0        0.530249   -0.253353    1.861725
      5         11           0       -3.583193   -0.414268    1.518256
      6         11           0       -1.321472    1.249194   -0.344595
      7         11           0        1.643759   -2.358701   -0.582305
 ---------------------------------------------------------------------

 SCF Done:  E(UB3LYP) =  -1136.11158155     A.U. after   29 cycles

 The electronic state is 2-A.
 Alpha  occ. eigenvalues --  -38.45685 -38.44844 -38.44495 -38.44346 -38.43433
 Alpha  occ. eigenvalues --  -38.43277 -38.43157  -2.21477  -2.20643  -2.20301
 Alpha  occ. eigenvalues --   -2.20210  -2.19222  -2.19039  -2.19022  -1.15167
 Alpha  occ. eigenvalues --   -1.15143  -1.15081  -1.14311  -1.14289  -1.14239
 Alpha  occ. eigenvalues --   -1.13980  -1.13935  -1.13912  -1.13900  -1.13895
 Alpha  occ. eigenvalues --   -1.13800  -1.12898  -1.12891  -1.12854  -1.12719
 Alpha  occ. eigenvalues --   -1.12709  -1.12703  -1.12683  -1.12674  -1.12660
 Alpha  occ. eigenvalues --   -0.17006  -0.14125  -0.11451  -0.10585
 Alpha virt. eigenvalues --   -0.07094  -0.05320  -0.04737  -0.03723  -0.02964
 Alpha virt. eigenvalues --   -0.02365  -0.02020  -0.01642  -0.01066  -0.00674
 Alpha virt. eigenvalues --   -0.00220  -0.00065   0.00259   0.00420   0.00478

  Beta  occ. eigenvalues --  -38.45682 -38.44762 -38.44408 -38.44333 -38.43437
  Beta  occ. eigenvalues --  -38.43278 -38.43142  -2.21473  -2.20491  -2.20186
  Beta  occ. eigenvalues --   -2.20139  -2.19230  -2.19044  -2.18997  -1.15163
  Beta  occ. eigenvalues --   -1.15140  -1.15079  -1.14203  -1.14187  -1.14132
  Beta  occ. eigenvalues --   -1.13900  -1.13875  -1.13871  -1.13831  -1.13785
  Beta  occ. eigenvalues --   -1.13770  -1.12903  -1.12896  -1.12859  -1.12724
  Beta  occ. eigenvalues --   -1.12698  -1.12690  -1.12683  -1.12652  -1.12627
  Beta  occ. eigenvalues --   -0.16430  -0.13767  -0.10512
  Beta virt. eigenvalues --   -0.07632  -0.06763  -0.05149  -0.04242  -0.03297
  Beta virt. eigenvalues --   -0.02563  -0.02109  -0.01697  -0.01258  -0.00889
  Beta virt. eigenvalues --   -0.00470  -0.00197   0.00182   0.00275   0.00462

 Mulliken charges and spin densities:
               1          2
     1  Na   0.735993  -0.054684
     2  Na   0.014420   0.001272
     3  Na  -0.073996   0.440391
     4  Na  -0.318010   0.349237
     5  Na   0.592664  -0.031367
     6  Na  -1.103344   0.044318
     7  Na   0.152275   0.250833
 Sum of Mulliken charges =  -0.00000   1.00000

 Dipole moment (field-independent basis, Debye):
    X=             -1.4048    Y=             -0.2012    Z=              0.7902  Tot=              1.6243
 Quadrupole moment (field-independent basis, Debye-Ang):
   XX=            -73.5258   YY=            -69.4079   ZZ=            -63.5260
   XY=              3.5553   XZ=             -1.9652   YZ=             -1.8714

 Normal termination of Gaussian 16 at Sun Dec  3 13:30:40 2023.
