 Gaussian 16, Revision B.01,
 Gaussian 16:  ES64L-G16RevB.01 20-Dec-2017

 -------------------------
 #P B3LYP/6-311+g(d) force
 -------------------------

 -----
 DPGEN
 -----
 Symbolic Z-matrix:
 Charge =  0 Multiplicity = 2

                         Standard orientation:
 ---------------------------------------------------------------------
 Center     Atomic      Atomic             Coordinates (Angstroms)
 Number     Number       Type             X           Y           Z
 ---------------------------------------------------------------------
      1         11           0        0.291244   -0.178205    1.869742
      2         11           0       -3.099622    1.077336   -0.176873
      3         11           0       -0.353902    0.110796   -1.778614
      4         11           0        3.170187    0.339154   -0.225215
      5         11           0       -2.000286   -1.829542    0.384299
      6         11           0        1.308903   -2.610583   -0.302892
      7         11           0        0.683477    3.091043    0.229554
 ---------------------------------------------------------------------

 SCF Done:  E(UB3LYP) =  -1136.13612444     A.U. after   20 cycles

 The electronic state is 2-A.
 Alpha  occ. eigenvalues --  -38.44316 -38.44124 -38.43653 -38.43443 -38.43407
 Alpha  occ. eigenvalues --  -38.43321 -38.43156  -2.20125  -2.19961  -2.19436
 Alpha  occ. eigenvalues --   -2.19375  -2.19341  -2.19260  -2.19030  -1.13804
 Alpha  occ. eigenvalues --   -1.13787  -1.13758  -1.13651  -1.13630  -1.13593
 Alpha  occ. eigenvalues --   -1.13115  -1.13102  -1.13091  -1.13073  -1.13048
 Alpha  occ. eigenvalues --   -1.13008  -1.13000  -1.12984  -1.12961  -1.12905
 Alpha  occ. eigenvalues --   -1.12901  -1.12878  -1.12697  -1.12689  -1.12668
 Alpha  occ. eigenvalues --   -0.18657  -0.13181  -0.12258  -0.10734
 Alpha virt. eigenvalues --   -0.05935  -0.04897  -0.04770  -0.03285  -0.02850
 Alpha virt. eigenvalues --   -0.02462  -0.01654  -0.01083  -0.00529  -0.00221
 Alpha virt. eigenvalues --   -0.00006   0.00357   0.00801   0.00838   0.00903

  Beta  occ. eigenvalues --  -38.44312 -38.44121 -38.43650 -38.43373 -38.43324
  Beta  occ. eigenvalues --  -38.43305 -38.43147  -2.20120  -2.19959  -2.19433
  Beta  occ. eigenvalues --   -2.19247  -2.19237  -2.19188  -2.19017  -1.13791
  Beta  occ. eigenvalues --   -1.13779  -1.13754  -1.13652  -1.13612  -1.13589
  Beta  occ. eigenvalues --   -1.13101  -1.13097  -1.13073  -1.13023  -1.12962
  Beta  occ. eigenvalues --   -1.12924  -1.12906  -1.12889  -1.12878  -1.12862
  Beta  occ. eigenvalues --   -1.12853  -1.12810  -1.12688  -1.12671  -1.12644
  Beta  occ. eigenvalues --   -0.17919  -0.12946  -0.12018
  Beta virt. eigenvalues --   -0.06838  -0.05890  -0.04850  -0.04736  -0.02514
  Beta virt. eigenvalues --   -0.02103  -0.01567  -0.01446  -0.01001  -0.00566
  Beta virt. eigenvalues --   -0.00251   0.00126   0.00383   0.00822   0.00875

 Mulliken charges and spin densities:
               1          2
     1  Na  -0.181161   0.586012
     2  Na   0.077207  -0.096171
     3  Na  -0.261954   0.612780
     4  Na  -0.011174  -0.079261
     5  Na   0.423754   0.105022
     6  Na   0.099347   0.000865
     7  Na  -0.146020  -0.129249
 Sum of Mulliken charges =  -0.00000   1.00000

 Dipole moment (field-independent basis, Debye):
    X=              0.1261    Y=              0.2882    Z=             -0.0435  Tot=              0.3176
 Quadrupole moment (field-independent basis, Debye-Ang):
   XX=            -55.7616   YY=            -63.2397   ZZ=            -74.3523
   XY=             -1.2985   XZ=             -1.3186   YZ=              0.5774

 Normal termination of Gaussian 16 at Thu Dec  7 02:12:36 2023.
