 Gaussian 16, Revision B.01,
 Gaussian 16:  ES64L-G16RevB.01 20-Dec-2017

 -------------------------
 #P B3LYP/6-311+g(d) force
 -------------------------

 -----
 DPGEN
 -----
 Symbolic Z-matrix:
 Charge =  0 Multiplicity = 2

                         Standard orientation:
 ---------------------------------------------------------------------
 Center     Atomic      Atomic             Coordinates (Angstroms)
 Number     Number       Type             X           Y           Z
 ---------------------------------------------------------------------
      1         11           0       -0.947689   -2.540438    0.123069
      2         11           0       -3.279899    0.054966   -0.246310
      3         11           0       -1.000838    2.567266   -0.117266
      4         11           0        2.632489   -1.503384   -0.679013
      5         11           0        2.400676    1.819847    0.254518
      6         11           0        0.018184   -0.009179   -1.574152
      7         11           0        0.177076   -0.389078    2.239154
 ---------------------------------------------------------------------

 SCF Done:  E(UB3LYP) =  -1136.13596999     A.U. after   19 cycles

 The electronic state is 2-A.
 Alpha  occ. eigenvalues --  -38.44119 -38.44031 -38.43839 -38.43604 -38.43276
 Alpha  occ. eigenvalues --  -38.43134 -38.43061  -2.19944  -2.19906  -2.19695
 Alpha  occ. eigenvalues --   -2.19450  -2.19306  -2.19026  -2.18936  -1.13615
 Alpha  occ. eigenvalues --   -1.13602  -1.13588  -1.13570  -1.13533  -1.13521
 Alpha  occ. eigenvalues --   -1.13415  -1.13341  -1.13317  -1.13121  -1.13117
 Alpha  occ. eigenvalues --   -1.13091  -1.12997  -1.12989  -1.12919  -1.12714
 Alpha  occ. eigenvalues --   -1.12697  -1.12631  -1.12627  -1.12593  -1.12551
 Alpha  occ. eigenvalues --   -0.18780  -0.13104  -0.12311  -0.11171
 Alpha virt. eigenvalues --   -0.05676  -0.05056  -0.04282  -0.03276  -0.03032
 Alpha virt. eigenvalues --   -0.02836  -0.01649  -0.00981  -0.00207  -0.00104
 Alpha virt. eigenvalues --    0.00004   0.00334   0.00779   0.00915   0.00923

  Beta  occ. eigenvalues --  -38.44117 -38.43926 -38.43819 -38.43599 -38.43220
  Beta  occ. eigenvalues --  -38.43126 -38.43058  -2.19942  -2.19712  -2.19661
  Beta  occ. eigenvalues --   -2.19444  -2.19205  -2.19016  -2.18934  -1.13607
  Beta  occ. eigenvalues --   -1.13601  -1.13585  -1.13441  -1.13393  -1.13389
  Beta  occ. eigenvalues --   -1.13378  -1.13313  -1.13294  -1.13117  -1.13097
  Beta  occ. eigenvalues --   -1.13082  -1.12931  -1.12922  -1.12846  -1.12703
  Beta  occ. eigenvalues --   -1.12657  -1.12629  -1.12617  -1.12582  -1.12546
  Beta  occ. eigenvalues --   -0.18063  -0.12864  -0.12053
  Beta virt. eigenvalues --   -0.07194  -0.05631  -0.05022  -0.04233  -0.02541
  Beta virt. eigenvalues --   -0.02210  -0.01786  -0.01551  -0.00904  -0.00200
  Beta virt. eigenvalues --   -0.00123   0.00112   0.00370   0.00861   0.00908

 Mulliken charges and spin densities:
               1          2
     1  Na   0.375388   0.045498
     2  Na   0.086987  -0.039200
     3  Na   0.161896   0.015424
     4  Na   0.295690   0.038370
     5  Na   0.103809   0.071574
     6  Na  -0.428626   0.239640
     7  Na  -0.595144   0.628694
 Sum of Mulliken charges =  -0.00000   1.00000

 Dipole moment (field-independent basis, Debye):
    X=             -0.0148    Y=             -0.0977    Z=              0.2603  Tot=              0.2785
 Quadrupole moment (field-independent basis, Debye-Ang):
   XX=            -55.2621   YY=            -66.5297   ZZ=            -72.2861
   XY=              0.1572   XZ=             -0.0939   YZ=              1.2771

 Normal termination of Gaussian 16 at Tue Dec  5 14:30:42 2023.
