 Gaussian 16, Revision B.01,
 Gaussian 16:  ES64L-G16RevB.01 20-Dec-2017

 -------------------------
 #P B3LYP/6-311+g(d) force
 -------------------------

 -----
 DPGEN
 -----
 Symbolic Z-matrix:
 Charge =  0 Multiplicity = 2

                         Standard orientation:
 ---------------------------------------------------------------------
 Center     Atomic      Atomic             Coordinates (Angstroms)
 Number     Number       Type             X           Y           Z
 ---------------------------------------------------------------------
      1         11           0        1.644957    0.303435   -1.662417
      2         11           0       -0.888451   -1.553758   -1.560315
      3         11           0        2.101048   -2.541328    0.687012
      4         11           0        1.890107    2.483344    0.723626
      5         11           0       -1.130701    1.811097   -0.710457
      6         11           0       -3.286182   -0.219121    0.484450
      7         11           0       -0.330778   -0.283669    2.038102
 ---------------------------------------------------------------------

 SCF Done:  E(UB3LYP) =  -1136.13339543     A.U. after   21 cycles

 The electronic state is 2-A.
 Alpha  occ. eigenvalues --  -38.44310 -38.43807 -38.43581 -38.43542 -38.43512
 Alpha  occ. eigenvalues --  -38.43327 -38.43235  -2.20194  -2.19712  -2.19517
 Alpha  occ. eigenvalues --   -2.19419  -2.19300  -2.19184  -2.19171  -1.13862
 Alpha  occ. eigenvalues --   -1.13835  -1.13817  -1.13468  -1.13357  -1.13312
 Alpha  occ. eigenvalues --   -1.13220  -1.13174  -1.13112  -1.13100  -1.13080
 Alpha  occ. eigenvalues --   -1.13058  -1.12973  -1.12960  -1.12929  -1.12885
 Alpha  occ. eigenvalues --   -1.12865  -1.12831  -1.12823  -1.12818  -1.12755
 Alpha  occ. eigenvalues --   -0.18788  -0.12886  -0.12002  -0.11956
 Alpha virt. eigenvalues --   -0.05236  -0.04916  -0.04450  -0.03436  -0.03290
 Alpha virt. eigenvalues --   -0.03167  -0.01307  -0.00907  -0.00547   0.00313
 Alpha virt. eigenvalues --    0.00357   0.00389   0.00702   0.00832   0.00861

  Beta  occ. eigenvalues --  -38.44228 -38.43756 -38.43539 -38.43538 -38.43502
  Beta  occ. eigenvalues --  -38.43320 -38.43217  -2.20044  -2.19623  -2.19443
  Beta  occ. eigenvalues --   -2.19415  -2.19282  -2.19158  -2.19157  -1.13765
  Beta  occ. eigenvalues --   -1.13726  -1.13706  -1.13391  -1.13293  -1.13248
  Beta  occ. eigenvalues --   -1.13161  -1.13111  -1.13101  -1.13067  -1.13065
  Beta  occ. eigenvalues --   -1.13049  -1.12951  -1.12947  -1.12919  -1.12868
  Beta  occ. eigenvalues --   -1.12827  -1.12820  -1.12801  -1.12798  -1.12743
  Beta  occ. eigenvalues --   -0.17946  -0.12726  -0.11762
  Beta virt. eigenvalues --   -0.07936  -0.05045  -0.04789  -0.04085  -0.02959
  Beta virt. eigenvalues --   -0.02688  -0.02272  -0.01235  -0.00831  -0.00221
  Beta virt. eigenvalues --    0.00305   0.00392   0.00492   0.00828   0.00891

 Mulliken charges and spin densities:
               1          2
     1  Na   0.432093   0.123904
     2  Na  -0.193331   0.217965
     3  Na  -0.199863  -0.072082
     4  Na   0.150111  -0.067358
     5  Na  -0.410139   0.248778
     6  Na   0.741843  -0.092263
     7  Na  -0.520713   0.641056
 Sum of Mulliken charges =  -0.00000   1.00000

 Dipole moment (field-independent basis, Debye):
    X=             -0.1754    Y=             -0.1224    Z=              0.3176  Tot=              0.3829
 Quadrupole moment (field-independent basis, Debye-Ang):
   XX=            -59.9826   YY=            -69.3747   ZZ=            -66.1661
   XY=              0.9834   XZ=              1.2690   YZ=              0.6104

 Normal termination of Gaussian 16 at Wed Nov 29 16:13:28 2023.
