 Gaussian 16, Revision B.01,
 Gaussian 16:  ES64L-G16RevB.01 20-Dec-2017

 -------------------------
 #P B3LYP/6-311+g(d) force
 -------------------------

 -----
 DPGEN
 -----
 Symbolic Z-matrix:
 Charge =  0 Multiplicity = 2

                         Standard orientation:
 ---------------------------------------------------------------------
 Center     Atomic      Atomic             Coordinates (Angstroms)
 Number     Number       Type             X           Y           Z
 ---------------------------------------------------------------------
      1         11           0        2.479596    1.711876   -0.384362
      2         11           0       -0.087676    0.032427    2.057548
      3         11           0       -0.204797    0.198401   -1.686478
      4         11           0       -0.482768   -2.437794    0.174041
      5         11           0       -3.410468   -0.541798   -0.424981
      6         11           0       -0.966768    2.746815    0.352656
      7         11           0        2.672881   -1.709926   -0.088425
 ---------------------------------------------------------------------

 SCF Done:  E(UB3LYP) =  -1136.13557961     A.U. after   21 cycles

 The electronic state is 2-A.
 Alpha  occ. eigenvalues --  -38.44324 -38.43754 -38.43746 -38.43595 -38.43467
 Alpha  occ. eigenvalues --  -38.43435 -38.42990  -2.20116  -2.19673  -2.19586
 Alpha  occ. eigenvalues --   -2.19439  -2.19429  -2.19281  -2.18927  -1.13788
 Alpha  occ. eigenvalues --   -1.13768  -1.13754  -1.13360  -1.13317  -1.13285
 Alpha  occ. eigenvalues --   -1.13279  -1.13250  -1.13216  -1.13131  -1.13113
 Alpha  occ. eigenvalues --   -1.13095  -1.13091  -1.13080  -1.13034  -1.12960
 Alpha  occ. eigenvalues --   -1.12939  -1.12896  -1.12627  -1.12601  -1.12519
 Alpha  occ. eigenvalues --   -0.18717  -0.12897  -0.12438  -0.11008
 Alpha virt. eigenvalues --   -0.05828  -0.05080  -0.04311  -0.03120  -0.03031
 Alpha virt. eigenvalues --   -0.02699  -0.01829  -0.01074  -0.00299  -0.00058
 Alpha virt. eigenvalues --   -0.00003   0.00311   0.00776   0.00858   0.00934

  Beta  occ. eigenvalues --  -38.44314 -38.43738 -38.43653 -38.43595 -38.43425
  Beta  occ. eigenvalues --  -38.43408 -38.42979  -2.20101  -2.19573  -2.19490
  Beta  occ. eigenvalues --   -2.19441  -2.19322  -2.19265  -2.18910  -1.13764
  Beta  occ. eigenvalues --   -1.13759  -1.13746  -1.13267  -1.13241  -1.13235
  Beta  occ. eigenvalues --   -1.13206  -1.13182  -1.13153  -1.13122  -1.13091
  Beta  occ. eigenvalues --   -1.13072  -1.13053  -1.13026  -1.12953  -1.12933
  Beta  occ. eigenvalues --   -1.12907  -1.12890  -1.12616  -1.12558  -1.12508
  Beta  occ. eigenvalues --   -0.17989  -0.12628  -0.12182
  Beta virt. eigenvalues --   -0.07109  -0.05736  -0.05049  -0.04285  -0.02440
  Beta virt. eigenvalues --   -0.02221  -0.01694  -0.01650  -0.01017  -0.00314
  Beta virt. eigenvalues --   -0.00045   0.00087   0.00345   0.00828   0.00862

 Mulliken charges and spin densities:
               1          2
     1  Na   0.226694  -0.009264
     2  Na  -0.341751   0.552155
     3  Na  -0.449707   0.555329
     4  Na   0.374800   0.060956
     5  Na   0.155258  -0.034794
     6  Na   0.092992  -0.052867
     7  Na  -0.058286  -0.071515
 Sum of Mulliken charges =  -0.00000   1.00000

 Dipole moment (field-independent basis, Debye):
    X=             -0.2520    Y=              0.2287    Z=              0.0412  Tot=              0.3428
 Quadrupole moment (field-independent basis, Debye-Ang):
   XX=            -54.5105   YY=            -65.8076   ZZ=            -73.0618
   XY=             -0.5058   XZ=             -0.0055   YZ=              0.3458

 Normal termination of Gaussian 16 at Fri Dec  8 05:37:26 2023.
