 Gaussian 16, Revision B.01,
 Gaussian 16:  ES64L-G16RevB.01 20-Dec-2017

 -------------------------
 #P B3LYP/6-311+g(d) force
 -------------------------

 -----
 DPGEN
 -----
 Symbolic Z-matrix:
 Charge =  0 Multiplicity = 2

                         Standard orientation:
 ---------------------------------------------------------------------
 Center     Atomic      Atomic             Coordinates (Angstroms)
 Number     Number       Type             X           Y           Z
 ---------------------------------------------------------------------
      1         11           0        1.967365    1.797088   -0.295033
      2         11           0       -1.862204   -0.099306    1.904090
      3         11           0        1.487908   -0.418231    1.637388
      4         11           0        3.919903   -0.811378   -0.637303
      5         11           0       -1.403304    1.776305   -0.769412
      6         11           0       -3.957217   -0.586865   -0.743262
      7         11           0       -0.152450   -1.657613   -1.096467
 ---------------------------------------------------------------------

 SCF Done:  E(UB3LYP) =  -1136.11446788     A.U. after   34 cycles

 The electronic state is 2-A.
 Alpha  occ. eigenvalues --  -38.45273 -38.44587 -38.44425 -38.44374 -38.44001
 Alpha  occ. eigenvalues --  -38.43242 -38.43105  -2.21054  -2.20400  -2.20324
 Alpha  occ. eigenvalues --   -2.20201  -2.19972  -2.19166  -2.19002  -1.14767
 Alpha  occ. eigenvalues --   -1.14754  -1.14634  -1.14086  -1.14062  -1.14029
 Alpha  occ. eigenvalues --   -1.14007  -1.13972  -1.13927  -1.13881  -1.13877
 Alpha  occ. eigenvalues --   -1.13828  -1.13681  -1.13658  -1.13548  -1.12858
 Alpha  occ. eigenvalues --   -1.12834  -1.12767  -1.12699  -1.12668  -1.12592
 Alpha  occ. eigenvalues --   -0.18677  -0.14614  -0.11473  -0.10544
 Alpha virt. eigenvalues --   -0.07508  -0.05061  -0.04837  -0.03199  -0.03038
 Alpha virt. eigenvalues --   -0.02250  -0.02114  -0.01518  -0.00957  -0.00169
 Alpha virt. eigenvalues --   -0.00040   0.00256   0.00299   0.00616   0.00737

  Beta  occ. eigenvalues --  -38.45260 -38.44575 -38.44368 -38.44366 -38.43944
  Beta  occ. eigenvalues --  -38.43222 -38.43075  -2.21032  -2.20378  -2.20218
  Beta  occ. eigenvalues --   -2.20192  -2.19872  -2.19129  -2.18947  -1.14748
  Beta  occ. eigenvalues --   -1.14720  -1.14623  -1.14068  -1.14040  -1.14014
  Beta  occ. eigenvalues --   -1.13926  -1.13891  -1.13874  -1.13863  -1.13853
  Beta  occ. eigenvalues --   -1.13821  -1.13616  -1.13577  -1.13465  -1.12829
  Beta  occ. eigenvalues --   -1.12807  -1.12738  -1.12661  -1.12629  -1.12549
  Beta  occ. eigenvalues --   -0.17986  -0.14412  -0.10336
  Beta virt. eigenvalues --   -0.07483  -0.07293  -0.04976  -0.04243  -0.02948
  Beta virt. eigenvalues --   -0.02783  -0.01689  -0.01485  -0.01345  -0.00521
  Beta virt. eigenvalues --   -0.00078  -0.00007   0.00275   0.00419   0.00693

 Mulliken charges and spin densities:
               1          2
     1  Na  -0.490753   0.141587
     2  Na  -0.106048   0.100262
     3  Na  -0.143031   0.218006
     4  Na   0.951578   0.018045
     5  Na  -0.422460   0.325429
     6  Na   0.904715   0.082903
     7  Na  -0.694002   0.113768
 Sum of Mulliken charges =  -0.00000   1.00000

 Dipole moment (field-independent basis, Debye):
    X=             -0.3416    Y=             -0.1129    Z=              0.0960  Tot=              0.3724
 Quadrupole moment (field-independent basis, Debye-Ang):
   XX=            -48.6040   YY=            -79.9312   ZZ=            -68.0413
   XY=              0.0284   XZ=             -1.6146   YZ=             -1.6783

 Normal termination of Gaussian 16 at Fri Dec  8 06:03:07 2023.
