 Gaussian 16, Revision B.01,
 Gaussian 16:  ES64L-G16RevB.01 20-Dec-2017

 -------------------------
 #P B3LYP/6-311+g(d) force
 -------------------------

 -----
 DPGEN
 -----
 Symbolic Z-matrix:
 Charge =  0 Multiplicity = 2

                         Standard orientation:
 ---------------------------------------------------------------------
 Center     Atomic      Atomic             Coordinates (Angstroms)
 Number     Number       Type             X           Y           Z
 ---------------------------------------------------------------------
      1         11           0        0.065809    2.780471    0.073481
      2         11           0        0.090578   -0.507828   -1.653326
      3         11           0        3.398411    0.780018   -0.329104
      4         11           0       -3.201941    0.920096   -0.288789
      5         11           0        1.637021   -2.335150    0.090852
      6         11           0       -2.372868   -1.672135    0.223879
      7         11           0        0.382991    0.034527    1.883006
 ---------------------------------------------------------------------

 SCF Done:  E(UB3LYP) =  -1136.12458996     A.U. after   21 cycles

 The electronic state is 2-A.
 Alpha  occ. eigenvalues --  -38.45159 -38.44575 -38.43984 -38.43691 -38.43334
 Alpha  occ. eigenvalues --  -38.43232 -38.43021  -2.20939  -2.20443  -2.19900
 Alpha  occ. eigenvalues --   -2.19653  -2.19243  -2.19177  -2.18843  -1.14617
 Alpha  occ. eigenvalues --   -1.14585  -1.14574  -1.14294  -1.14075  -1.14044
 Alpha  occ. eigenvalues --   -1.13559  -1.13535  -1.13514  -1.13398  -1.13308
 Alpha  occ. eigenvalues --   -1.13254  -1.12953  -1.12913  -1.12848  -1.12841
 Alpha  occ. eigenvalues --   -1.12790  -1.12785  -1.12531  -1.12517  -1.12460
 Alpha  occ. eigenvalues --   -0.18768  -0.13730  -0.11908  -0.10617
 Alpha virt. eigenvalues --   -0.06655  -0.05126  -0.04064  -0.03488  -0.02621
 Alpha virt. eigenvalues --   -0.02362  -0.02263  -0.01108  -0.00347  -0.00186
 Alpha virt. eigenvalues --   -0.00054   0.00292   0.00719   0.00755   0.00856

  Beta  occ. eigenvalues --  -38.45149 -38.44571 -38.43978 -38.43636 -38.43323
  Beta  occ. eigenvalues --  -38.43138 -38.43017  -2.20922  -2.20439  -2.19893
  Beta  occ. eigenvalues --   -2.19552  -2.19230  -2.19005  -2.18839  -1.14592
  Beta  occ. eigenvalues --   -1.14573  -1.14563  -1.14295  -1.14059  -1.14040
  Beta  occ. eigenvalues --   -1.13553  -1.13527  -1.13487  -1.13335  -1.13235
  Beta  occ. eigenvalues --   -1.13180  -1.12923  -1.12875  -1.12827  -1.12737
  Beta  occ. eigenvalues --   -1.12680  -1.12665  -1.12522  -1.12492  -1.12461
  Beta  occ. eigenvalues --   -0.18052  -0.13481  -0.11668
  Beta virt. eigenvalues --   -0.06791  -0.06513  -0.05103  -0.04048  -0.02746
  Beta virt. eigenvalues --   -0.02201  -0.01834  -0.01316  -0.01063  -0.00373
  Beta virt. eigenvalues --   -0.00203   0.00100   0.00332   0.00801   0.00852

 Mulliken charges and spin densities:
               1          2
     1  Na  -0.001684  -0.083150
     2  Na  -0.441685   0.460173
     3  Na  -0.032074  -0.035285
     4  Na  -0.218818  -0.036891
     5  Na   0.486121   0.015540
     6  Na   0.593234   0.074815
     7  Na  -0.385094   0.604797
 Sum of Mulliken charges =  -0.00000   1.00000

 Dipole moment (field-independent basis, Debye):
    X=              0.5028    Y=              0.1071    Z=             -0.0506  Tot=              0.5165
 Quadrupole moment (field-independent basis, Debye-Ang):
   XX=            -50.1257   YY=            -68.3239   ZZ=            -74.8801
   XY=             -0.1837   XZ=             -0.4316   YZ=             -1.8245

 Normal termination of Gaussian 16 at Tue Dec  5 15:33:20 2023.
