 Gaussian 16, Revision B.01,
 Gaussian 16:  ES64L-G16RevB.01 20-Dec-2017

 -------------------------
 #P B3LYP/6-311+g(d) force
 -------------------------

 -----
 DPGEN
 -----
 Symbolic Z-matrix:
 Charge =  0 Multiplicity = 2

                         Standard orientation:
 ---------------------------------------------------------------------
 Center     Atomic      Atomic             Coordinates (Angstroms)
 Number     Number       Type             X           Y           Z
 ---------------------------------------------------------------------
      1         11           0        4.631262    0.605883    0.544049
      2         11           0       -0.284516   -3.520844   -0.152381
      3         11           0       -3.838933    0.928145   -0.468776
      4         11           0       -1.360830    3.797058   -0.227860
      5         11           0        1.723141    2.920678    0.138019
      6         11           0        3.074151   -2.674432   -0.605834
      7         11           0       -3.944276   -2.056489    0.772783
 ---------------------------------------------------------------------

 SCF Done:  E(UB3LYP) =  -1136.10827376     A.U. after   21 cycles

 The electronic state is 2-A.
 Alpha  occ. eigenvalues --  -38.45282 -38.44927 -38.44920 -38.44834 -38.44440
 Alpha  occ. eigenvalues --  -38.44336 -38.43701  -2.21052  -2.20687  -2.20684
 Alpha  occ. eigenvalues --   -2.20583  -2.20230  -2.20120  -2.19510  -1.14731
 Alpha  occ. eigenvalues --   -1.14719  -1.14691  -1.14371  -1.14364  -1.14358
 Alpha  occ. eigenvalues --   -1.14352  -1.14328  -1.14308  -1.14269  -1.14251
 Alpha  occ. eigenvalues --   -1.14210  -1.13889  -1.13885  -1.13868  -1.13774
 Alpha  occ. eigenvalues --   -1.13756  -1.13745  -1.13166  -1.13161  -1.13147
 Alpha  occ. eigenvalues --   -0.15333  -0.13858  -0.13487  -0.11109
 Alpha virt. eigenvalues --   -0.07623  -0.04863  -0.04616  -0.03552  -0.03470
 Alpha virt. eigenvalues --   -0.02383  -0.02229  -0.01861  -0.01567  -0.01020
 Alpha virt. eigenvalues --   -0.00698  -0.00206  -0.00045   0.00431   0.00520

  Beta  occ. eigenvalues --  -38.45264 -38.44913 -38.44873 -38.44827 -38.44414
  Beta  occ. eigenvalues --  -38.44260 -38.43661  -2.21024  -2.20679  -2.20591
  Beta  occ. eigenvalues --   -2.20577  -2.20183  -2.19979  -2.19435  -1.14713
  Beta  occ. eigenvalues --   -1.14704  -1.14649  -1.14373  -1.14365  -1.14294
  Beta  occ. eigenvalues --   -1.14291  -1.14285  -1.14269  -1.14257  -1.14226
  Beta  occ. eigenvalues --   -1.14168  -1.13859  -1.13850  -1.13833  -1.13677
  Beta  occ. eigenvalues --   -1.13659  -1.13653  -1.13116  -1.13110  -1.13098
  Beta  occ. eigenvalues --   -0.14801  -0.13087  -0.12718
  Beta virt. eigenvalues --   -0.07978  -0.07814  -0.04404  -0.04130  -0.03386
  Beta virt. eigenvalues --   -0.03120  -0.02152  -0.02048  -0.01686  -0.01399
  Beta virt. eigenvalues --   -0.00649  -0.00413  -0.00018   0.00184   0.00430

 Mulliken charges and spin densities:
               1          2
     1  Na   0.274237   0.283487
     2  Na  -0.081743   0.234043
     3  Na  -0.320037   0.112628
     4  Na   0.276987   0.199761
     5  Na  -0.383793   0.110727
     6  Na   0.090980  -0.053779
     7  Na   0.143369   0.113132
 Sum of Mulliken charges =  -0.00000   1.00000

 Dipole moment (field-independent basis, Debye):
    X=             -0.4847    Y=             -0.4561    Z=              0.0191  Tot=              0.6658
 Quadrupole moment (field-independent basis, Debye-Ang):
   XX=            -59.8398   YY=            -66.7118   ZZ=            -72.8329
   XY=             -0.8944   XZ=             -0.0212   YZ=             -1.4644

 Normal termination of Gaussian 16 at Mon Dec  4 03:54:30 2023.
