 Gaussian 16, Revision B.01,
 Gaussian 16:  ES64L-G16RevB.01 20-Dec-2017

 -------------------------
 #P B3LYP/6-311+g(d) force
 -------------------------

 -----
 DPGEN
 -----
 Symbolic Z-matrix:
 Charge =  0 Multiplicity = 2

                         Standard orientation:
 ---------------------------------------------------------------------
 Center     Atomic      Atomic             Coordinates (Angstroms)
 Number     Number       Type             X           Y           Z
 ---------------------------------------------------------------------
      1         11           0        0.546579    2.860912    0.422579
      2         11           0        3.334576    0.563596   -0.264120
      3         11           0       -0.165716   -0.458484    2.011179
      4         11           0        2.165704   -2.304766   -0.376311
      5         11           0       -2.938651    0.975882   -0.442725
      6         11           0       -0.545409    0.224559   -1.480011
      7         11           0       -2.397083   -1.861699    0.129410
 ---------------------------------------------------------------------

 SCF Done:  E(UB3LYP) =  -1136.12042722     A.U. after   21 cycles

 The electronic state is 2-A.
 Alpha  occ. eigenvalues --  -38.44673 -38.44605 -38.44017 -38.43918 -38.43734
 Alpha  occ. eigenvalues --  -38.43563 -38.42809  -2.20640  -2.20424  -2.20037
 Alpha  occ. eigenvalues --   -2.19852  -2.19630  -2.19389  -2.18631  -1.14540
 Alpha  occ. eigenvalues --   -1.14302  -1.14219  -1.14110  -1.14092  -1.14052
 Alpha  occ. eigenvalues --   -1.13704  -1.13654  -1.13640  -1.13529  -1.13497
 Alpha  occ. eigenvalues --   -1.13483  -1.13292  -1.13249  -1.13238  -1.13064
 Alpha  occ. eigenvalues --   -1.13051  -1.13024  -1.12303  -1.12297  -1.12269
 Alpha  occ. eigenvalues --   -0.18732  -0.13948  -0.11829  -0.10865
 Alpha virt. eigenvalues --   -0.06210  -0.05370  -0.04179  -0.03608  -0.02848
 Alpha virt. eigenvalues --   -0.02295  -0.01964  -0.01054  -0.00436  -0.00324
 Alpha virt. eigenvalues --   -0.00019   0.00296   0.00691   0.00827   0.00848

  Beta  occ. eigenvalues --  -38.44650 -38.44599 -38.43973 -38.43906 -38.43634
  Beta  occ. eigenvalues --  -38.43556 -38.42801  -2.20602  -2.20413  -2.19958
  Beta  occ. eigenvalues --   -2.19836  -2.19445  -2.19379  -2.18618  -1.14502
  Beta  occ. eigenvalues --   -1.14278  -1.14171  -1.14103  -1.14078  -1.14043
  Beta  occ. eigenvalues --   -1.13655  -1.13602  -1.13573  -1.13515  -1.13477
  Beta  occ. eigenvalues --   -1.13438  -1.13174  -1.13123  -1.13102  -1.13058
  Beta  occ. eigenvalues --   -1.13038  -1.13009  -1.12296  -1.12272  -1.12263
  Beta  occ. eigenvalues --   -0.18039  -0.13620  -0.11586
  Beta virt. eigenvalues --   -0.07014  -0.06087  -0.05294  -0.04147  -0.02855
  Beta virt. eigenvalues --   -0.02063  -0.01843  -0.01419  -0.01000  -0.00452
  Beta virt. eigenvalues --   -0.00284   0.00124   0.00362   0.00774   0.00850

 Mulliken charges and spin densities:
               1          2
     1  Na  -0.143619   0.028073
     2  Na  -0.071875  -0.010519
     3  Na  -0.362121   0.586285
     4  Na   0.006578   0.027984
     5  Na   0.662398   0.222263
     6  Na  -0.370462   0.095008
     7  Na   0.279100   0.050905
 Sum of Mulliken charges =  -0.00000   1.00000

 Dipole moment (field-independent basis, Debye):
    X=             -0.0854    Y=             -0.0617    Z=              0.2077  Tot=              0.2329
 Quadrupole moment (field-independent basis, Debye-Ang):
   XX=            -54.7595   YY=            -67.2005   ZZ=            -73.7601
   XY=              1.5548   XZ=             -0.5803   YZ=              1.2840

 Normal termination of Gaussian 16 at Tue Dec  5 21:28:45 2023.
