 Gaussian 16, Revision B.01,
 Gaussian 16:  ES64L-G16RevB.01 20-Dec-2017

 -------------------------
 #P B3LYP/6-311+g(d) force
 -------------------------

 -----
 DPGEN
 -----
 Symbolic Z-matrix:
 Charge =  0 Multiplicity = 2

                         Standard orientation:
 ---------------------------------------------------------------------
 Center     Atomic      Atomic             Coordinates (Angstroms)
 Number     Number       Type             X           Y           Z
 ---------------------------------------------------------------------
      1         11           0        1.277049    0.415475   -0.529155
      2         11           0        6.876304   -1.796741    1.364665
      3         11           0        5.208152    0.006131   -0.671062
      4         11           0        2.630779    3.227255   -0.024014
      5         11           0       -2.311807   -1.716454   -0.914234
      6         11           0       -5.713367   -0.775046   -0.487422
      7         11           0       -7.967110    0.639379    1.261221
 ---------------------------------------------------------------------

 SCF Done:  E(UB3LYP) =  -1136.10507804     A.U. after   18 cycles

 The electronic state is 2-A.
 Alpha  occ. eigenvalues --  -38.45346 -38.45222 -38.45215 -38.44790 -38.44194
 Alpha  occ. eigenvalues --  -38.43474 -38.43223  -2.21145  -2.21026  -2.21000
 Alpha  occ. eigenvalues --   -2.20569  -2.19982  -2.19268  -2.19008  -1.14805
 Alpha  occ. eigenvalues --   -1.14792  -1.14774  -1.14666  -1.14658  -1.14658
 Alpha  occ. eigenvalues --   -1.14644  -1.14637  -1.14613  -1.14254  -1.14244
 Alpha  occ. eigenvalues --   -1.14202  -1.13660  -1.13659  -1.13644  -1.12959
 Alpha  occ. eigenvalues --   -1.12953  -1.12903  -1.12663  -1.12663  -1.12636
 Alpha  occ. eigenvalues --   -0.15361  -0.14500  -0.12487  -0.11536
 Alpha virt. eigenvalues --   -0.06886  -0.05502  -0.04476  -0.03470  -0.03086
 Alpha virt. eigenvalues --   -0.02792  -0.02152  -0.01973  -0.01832  -0.01317
 Alpha virt. eigenvalues --   -0.00941  -0.00564  -0.00313   0.00217   0.00333

  Beta  occ. eigenvalues --  -38.45302 -38.45140 -38.45115 -38.44803 -38.44205
  Beta  occ. eigenvalues --  -38.43476 -38.43209  -2.21062  -2.20875  -2.20811
  Beta  occ. eigenvalues --   -2.20596  -2.20009  -2.19274  -2.18982  -1.14753
  Beta  occ. eigenvalues --   -1.14735  -1.14717  -1.14565  -1.14556  -1.14555
  Beta  occ. eigenvalues --   -1.14516  -1.14510  -1.14491  -1.14275  -1.14264
  Beta  occ. eigenvalues --   -1.14196  -1.13685  -1.13683  -1.13610  -1.12964
  Beta  occ. eigenvalues --   -1.12957  -1.12899  -1.12645  -1.12645  -1.12619
  Beta  occ. eigenvalues --   -0.14930  -0.13698  -0.11490
  Beta virt. eigenvalues --   -0.08804  -0.06396  -0.05356  -0.03966  -0.03308
  Beta virt. eigenvalues --   -0.02846  -0.02601  -0.01864  -0.01795  -0.01486
  Beta virt. eigenvalues --   -0.00883  -0.00573  -0.00358  -0.00217   0.00224

 Mulliken charges and spin densities:
               1          2
     1  Na  -0.589989  -0.006309
     2  Na   0.410456   0.085939
     3  Na  -0.510157  -0.017641
     4  Na   1.315493   0.171329
     5  Na  -0.254587   0.497510
     6  Na  -0.582971  -0.086414
     7  Na   0.211754   0.355586
 Sum of Mulliken charges =  -0.00000   1.00000

 Dipole moment (field-independent basis, Debye):
    X=             -1.9852    Y=              1.6197    Z=              0.5165  Tot=              2.6137
 Quadrupole moment (field-independent basis, Debye-Ang):
   XX=            -68.4944   YY=            -61.3212   ZZ=            -69.4221
   XY=              2.4264   XZ=             -3.4526   YZ=              1.4923

 Normal termination of Gaussian 16 at Mon Dec  4 02:47:50 2023.
