 Gaussian 16, Revision B.01,
 Gaussian 16:  ES64L-G16RevB.01 20-Dec-2017

 -------------------------
 #P B3LYP/6-311+g(d) force
 -------------------------

 -----
 DPGEN
 -----
 Symbolic Z-matrix:
 Charge =  0 Multiplicity = 2

                         Standard orientation:
 ---------------------------------------------------------------------
 Center     Atomic      Atomic             Coordinates (Angstroms)
 Number     Number       Type             X           Y           Z
 ---------------------------------------------------------------------
      1         11           0       -1.907403    2.102042   -0.353035
      2         11           0       -2.882681   -0.829271    0.195210
      3         11           0        2.892800   -0.908351    0.054058
      4         11           0        0.067868   -2.704034   -0.268829
      5         11           0        1.830171    2.394354    0.273562
      6         11           0        0.205100    0.089469   -1.774077
      7         11           0       -0.205854   -0.144210    1.873110
 ---------------------------------------------------------------------

 SCF Done:  E(UB3LYP) =  -1136.13871993     A.U. after   18 cycles

 The electronic state is 2-A.
 Alpha  occ. eigenvalues --  -38.43903 -38.43741 -38.43457 -38.43454 -38.43447
 Alpha  occ. eigenvalues --  -38.43262 -38.42980  -2.19767  -2.19637  -2.19404
 Alpha  occ. eigenvalues --   -2.19347  -2.19290  -2.19256  -2.18894  -1.13446
 Alpha  occ. eigenvalues --   -1.13433  -1.13406  -1.13350  -1.13310  -1.13276
 Alpha  occ. eigenvalues --   -1.13085  -1.13059  -1.13037  -1.13024  -1.12989
 Alpha  occ. eigenvalues --   -1.12976  -1.12963  -1.12953  -1.12939  -1.12924
 Alpha  occ. eigenvalues --   -1.12878  -1.12863  -1.12576  -1.12554  -1.12511
 Alpha  occ. eigenvalues --   -0.19133  -0.13284  -0.12430  -0.10964
 Alpha virt. eigenvalues --   -0.05492  -0.05112  -0.04438  -0.03342  -0.02920
 Alpha virt. eigenvalues --   -0.02574  -0.01450  -0.01006  -0.00183  -0.00083
 Alpha virt. eigenvalues --    0.00024   0.00374   0.00829   0.00924   0.00942

  Beta  occ. eigenvalues --  -38.43900 -38.43734 -38.43449 -38.43447 -38.43366
  Beta  occ. eigenvalues --  -38.43184 -38.42970  -2.19763  -2.19629  -2.19332
  Beta  occ. eigenvalues --   -2.19283  -2.19254  -2.19113  -2.18880  -1.13442
  Beta  occ. eigenvalues --   -1.13419  -1.13399  -1.13344  -1.13291  -1.13259
  Beta  occ. eigenvalues --   -1.13037  -1.12988  -1.12972  -1.12968  -1.12956
  Beta  occ. eigenvalues --   -1.12943  -1.12920  -1.12918  -1.12902  -1.12846
  Beta  occ. eigenvalues --   -1.12783  -1.12765  -1.12563  -1.12520  -1.12498
  Beta  occ. eigenvalues --   -0.18386  -0.13024  -0.12159
  Beta virt. eigenvalues --   -0.07029  -0.05458  -0.05097  -0.04424  -0.02520
  Beta virt. eigenvalues --   -0.02127  -0.01516  -0.01360  -0.00940  -0.00209
  Beta virt. eigenvalues --   -0.00128   0.00128   0.00392   0.00889   0.00917

 Mulliken charges and spin densities:
               1          2
     1  Na   0.133777  -0.058716
     2  Na   0.290404  -0.000643
     3  Na   0.072884  -0.083773
     4  Na   0.237246  -0.063767
     5  Na  -0.029800  -0.072475
     6  Na  -0.265785   0.574430
     7  Na  -0.438726   0.704944
 Sum of Mulliken charges =  -0.00000   1.00000

 Dipole moment (field-independent basis, Debye):
    X=              0.1370    Y=              0.0463    Z=              0.1133  Tot=              0.1837
 Quadrupole moment (field-independent basis, Debye-Ang):
   XX=            -56.6309   YY=            -63.9964   ZZ=            -73.2691
   XY=              0.1760   XZ=              0.8098   YZ=              0.4162

 Normal termination of Gaussian 16 at Thu Dec  7 11:30:01 2023.
