 Gaussian 16, Revision B.01,
 Gaussian 16:  ES64L-G16RevB.01 20-Dec-2017

 -------------------------
 #P B3LYP/6-311+g(d) force
 -------------------------

 -----
 DPGEN
 -----
 Symbolic Z-matrix:
 Charge =  0 Multiplicity = 2

                         Standard orientation:
 ---------------------------------------------------------------------
 Center     Atomic      Atomic             Coordinates (Angstroms)
 Number     Number       Type             X           Y           Z
 ---------------------------------------------------------------------
      1         11           0        3.068307    2.052055    0.128388
      2         11           0       -0.669196   -2.236868   -0.454124
      3         11           0       -3.455557   -0.620996    0.429552
      4         11           0        0.215111    0.125436    2.244957
      5         11           0        0.557391    0.119781   -1.728919
      6         11           0        2.881175   -1.565579   -0.062541
      7         11           0       -2.597231    2.126172   -0.557313
 ---------------------------------------------------------------------

 SCF Done:  E(UB3LYP) =  -1136.11807261     A.U. after   24 cycles

 The electronic state is 2-A.
 Alpha  occ. eigenvalues --  -38.44956 -38.44862 -38.44679 -38.44060 -38.44024
 Alpha  occ. eigenvalues --  -38.43874 -38.42474  -2.20778  -2.20703  -2.20486
 Alpha  occ. eigenvalues --   -2.19991  -2.19835  -2.19647  -2.18393  -1.14469
 Alpha  occ. eigenvalues --   -1.14442  -1.14399  -1.14393  -1.14360  -1.14346
 Alpha  occ. eigenvalues --   -1.14147  -1.14122  -1.14092  -1.13707  -1.13622
 Alpha  occ. eigenvalues --   -1.13607  -1.13505  -1.13484  -1.13474  -1.13318
 Alpha  occ. eigenvalues --   -1.13314  -1.13294  -1.12123  -1.12035  -1.12005
 Alpha  occ. eigenvalues --   -0.18148  -0.13855  -0.11203  -0.11006
 Alpha virt. eigenvalues --   -0.06645  -0.06048  -0.04023  -0.03283  -0.02978
 Alpha virt. eigenvalues --   -0.02514  -0.02287  -0.01421  -0.00718  -0.00246
 Alpha virt. eigenvalues --   -0.00021   0.00220   0.00451   0.00536   0.00671

  Beta  occ. eigenvalues --  -38.44953 -38.44863 -38.44578 -38.44013 -38.43996
  Beta  occ. eigenvalues --  -38.43882 -38.42464  -2.20775  -2.20705  -2.20299
  Beta  occ. eigenvalues --   -2.19873  -2.19815  -2.19663  -2.18379  -1.14453
  Beta  occ. eigenvalues --   -1.14434  -1.14401  -1.14397  -1.14360  -1.14337
  Beta  occ. eigenvalues --   -1.14022  -1.13993  -1.13957  -1.13630  -1.13534
  Beta  occ. eigenvalues --   -1.13520  -1.13495  -1.13461  -1.13460  -1.13329
  Beta  occ. eigenvalues --   -1.13315  -1.13304  -1.12107  -1.12002  -1.11997
  Beta  occ. eigenvalues --   -0.17421  -0.13746  -0.10988
  Beta virt. eigenvalues --   -0.07123  -0.06389  -0.06007  -0.03627  -0.02987
  Beta virt. eigenvalues --   -0.02216  -0.01944  -0.01857  -0.01205  -0.00740
  Beta virt. eigenvalues --   -0.00098   0.00010   0.00261   0.00627   0.00657

 Mulliken charges and spin densities:
               1          2
     1  Na  -0.122038  -0.073909
     2  Na   0.114909   0.144429
     3  Na   0.130358   0.012264
     4  Na  -0.463130   0.616822
     5  Na  -0.077541   0.201354
     6  Na   0.340680   0.025427
     7  Na   0.076762   0.073612
 Sum of Mulliken charges =  -0.00000   1.00000

 Dipole moment (field-independent basis, Debye):
    X=              0.3154    Y=             -0.3424    Z=              0.3723  Tot=              0.5961
 Quadrupole moment (field-independent basis, Debye-Ang):
   XX=            -52.6119   YY=            -70.3353   ZZ=            -73.2500
   XY=             -0.6755   XZ=             -0.6862   YZ=             -1.6725

 Normal termination of Gaussian 16 at Thu Dec  7 01:46:16 2023.
