 Gaussian 16, Revision B.01,
 Gaussian 16:  ES64L-G16RevB.01 20-Dec-2017

 -------------------------
 #P B3LYP/6-311+g(d) force
 -------------------------

 -----
 DPGEN
 -----
 Symbolic Z-matrix:
 Charge =  0 Multiplicity = 2

                         Standard orientation:
 ---------------------------------------------------------------------
 Center     Atomic      Atomic             Coordinates (Angstroms)
 Number     Number       Type             X           Y           Z
 ---------------------------------------------------------------------
      1         11           0       -1.908145   -2.532277   -0.853519
      2         11           0        4.006219   -1.172015    0.821086
      3         11           0       -0.466214    2.562038    0.969610
      4         11           0        2.172713    1.145952   -1.251407
      5         11           0       -2.325732   -0.241269    2.041245
      6         11           0        0.265237   -0.785719   -0.005849
      7         11           0       -1.744077    1.023291   -1.721167
 ---------------------------------------------------------------------

 SCF Done:  E(UB3LYP) =  -1136.12335633     A.U. after   22 cycles

 The electronic state is 2-A.
 Alpha  occ. eigenvalues --  -38.44376 -38.44247 -38.44245 -38.43988 -38.43210
 Alpha  occ. eigenvalues --  -38.43020 -38.42969  -2.20229  -2.20135  -2.20008
 Alpha  occ. eigenvalues --   -2.19846  -2.19086  -2.19043  -2.18881  -1.13915
 Alpha  occ. eigenvalues --   -1.13863  -1.13837  -1.13824  -1.13780  -1.13733
 Alpha  occ. eigenvalues --   -1.13676  -1.13671  -1.13630  -1.13613  -1.13506
 Alpha  occ. eigenvalues --   -1.13411  -1.12940  -1.12769  -1.12715  -1.12697
 Alpha  occ. eigenvalues --   -1.12669  -1.12583  -1.12557  -1.12543  -1.12512
 Alpha  occ. eigenvalues --   -0.18437  -0.13134  -0.11750  -0.11299
 Alpha virt. eigenvalues --   -0.06035  -0.04808  -0.04516  -0.03177  -0.02903
 Alpha virt. eigenvalues --   -0.02443  -0.01790  -0.01148  -0.00762   0.00016
 Alpha virt. eigenvalues --    0.00195   0.00248   0.00392   0.00672   0.00792

  Beta  occ. eigenvalues --  -38.44298 -38.44230 -38.44191 -38.43978 -38.43200
  Beta  occ. eigenvalues --  -38.43008 -38.42954  -2.20085  -2.20037  -2.19977
  Beta  occ. eigenvalues --   -2.19830  -2.19068  -2.19021  -2.18861  -1.13814
  Beta  occ. eigenvalues --   -1.13775  -1.13765  -1.13718  -1.13704  -1.13662
  Beta  occ. eigenvalues --   -1.13654  -1.13650  -1.13615  -1.13598  -1.13493
  Beta  occ. eigenvalues --   -1.13390  -1.12929  -1.12709  -1.12704  -1.12666
  Beta  occ. eigenvalues --   -1.12659  -1.12571  -1.12542  -1.12535  -1.12473
  Beta  occ. eigenvalues --   -0.17686  -0.12870  -0.11465
  Beta virt. eigenvalues --   -0.07542  -0.05700  -0.04584  -0.04255  -0.02814
  Beta virt. eigenvalues --   -0.02373  -0.01875  -0.01507  -0.00998  -0.00405
  Beta virt. eigenvalues --    0.00071   0.00306   0.00361   0.00478   0.00751

 Mulliken charges and spin densities:
               1          2
     1  Na   1.148861  -0.113104
     2  Na   0.095318  -0.081085
     3  Na  -0.041271   0.027941
     4  Na   0.424166  -0.165626
     5  Na  -0.018749   0.255872
     6  Na  -2.205575   0.761064
     7  Na   0.597250   0.314939
 Sum of Mulliken charges =  -0.00000   1.00000

 Dipole moment (field-independent basis, Debye):
    X=             -0.2129    Y=              0.3167    Z=              0.0413  Tot=              0.3838
 Quadrupole moment (field-independent basis, Debye-Ang):
   XX=            -57.4118   YY=            -69.1072   ZZ=            -65.0818
   XY=              0.4721   XZ=              2.0247   YZ=             -1.6476

 Normal termination of Gaussian 16 at Tue Dec  5 22:46:54 2023.
