 Gaussian 16, Revision B.01,
 Gaussian 16:  ES64L-G16RevB.01 20-Dec-2017

 -------------------------
 #P B3LYP/6-311+g(d) force
 -------------------------

 -----
 DPGEN
 -----
 Symbolic Z-matrix:
 Charge =  0 Multiplicity = 2

                         Standard orientation:
 ---------------------------------------------------------------------
 Center     Atomic      Atomic             Coordinates (Angstroms)
 Number     Number       Type             X           Y           Z
 ---------------------------------------------------------------------
      1         11           0        0.081872    0.293527    2.199065
      2         11           0       -2.426984    1.492657   -0.189824
      3         11           0        1.738825   -2.481758    0.156858
      4         11           0       -0.165379   -0.611527   -1.730272
      5         11           0        2.879259    0.312149   -0.282633
      6         11           0        0.531943    3.008151   -0.249167
      7         11           0       -2.639535   -2.013199    0.095973
 ---------------------------------------------------------------------

 SCF Done:  E(UB3LYP) =  -1136.13661047     A.U. after   19 cycles

 The electronic state is 2-A.
 Alpha  occ. eigenvalues --  -38.43909 -38.43883 -38.43803 -38.43732 -38.43731
 Alpha  occ. eigenvalues --  -38.43438 -38.43233  -2.19761  -2.19684  -2.19673
 Alpha  occ. eigenvalues --   -2.19612  -2.19592  -2.19370  -2.19069  -1.13449
 Alpha  occ. eigenvalues --   -1.13419  -1.13392  -1.13382  -1.13361  -1.13344
 Alpha  occ. eigenvalues --   -1.13344  -1.13335  -1.13313  -1.13284  -1.13277
 Alpha  occ. eigenvalues --   -1.13259  -1.13254  -1.13213  -1.13202  -1.13045
 Alpha  occ. eigenvalues --   -1.13009  -1.12986  -1.12732  -1.12725  -1.12722
 Alpha  occ. eigenvalues --   -0.18475  -0.13107  -0.12357  -0.10902
 Alpha virt. eigenvalues --   -0.05516  -0.05199  -0.04793  -0.03355  -0.03055
 Alpha virt. eigenvalues --   -0.02699  -0.01376  -0.01148  -0.00393  -0.00260
 Alpha virt. eigenvalues --   -0.00049   0.00370   0.00799   0.00856   0.00873

  Beta  occ. eigenvalues --  -38.43884 -38.43809 -38.43799 -38.43726 -38.43724
  Beta  occ. eigenvalues --  -38.43380 -38.43229  -2.19687  -2.19669  -2.19603
  Beta  occ. eigenvalues --   -2.19585  -2.19575  -2.19265  -2.19063  -1.13446
  Beta  occ. eigenvalues --   -1.13358  -1.13345  -1.13336  -1.13331  -1.13304
  Beta  occ. eigenvalues --   -1.13292  -1.13275  -1.13266  -1.13257  -1.13249
  Beta  occ. eigenvalues --   -1.13229  -1.13226  -1.13213  -1.13200  -1.12976
  Beta  occ. eigenvalues --   -1.12933  -1.12909  -1.12728  -1.12721  -1.12702
  Beta  occ. eigenvalues --   -0.17733  -0.12895  -0.12178
  Beta virt. eigenvalues --   -0.06970  -0.05512  -0.05103  -0.04732  -0.02543
  Beta virt. eigenvalues --   -0.02310  -0.01679  -0.01288  -0.01066  -0.00441
  Beta virt. eigenvalues --   -0.00297   0.00118   0.00401   0.00853   0.00878

 Mulliken charges and spin densities:
               1          2
     1  Na  -0.530085   0.716378
     2  Na   0.117903  -0.015732
     3  Na   0.216997  -0.036996
     4  Na  -0.080180   0.396605
     5  Na   0.153683   0.032519
     6  Na   0.000897  -0.010114
     7  Na   0.120785  -0.082659
 Sum of Mulliken charges =  -0.00000   1.00000

 Dipole moment (field-independent basis, Debye):
    X=             -0.1120    Y=             -0.2928    Z=              0.1526  Tot=              0.3487
 Quadrupole moment (field-independent basis, Debye-Ang):
   XX=            -60.0024   YY=            -61.9462   ZZ=            -73.1196
   XY=              0.7073   XZ=             -0.7420   YZ=             -2.0506

 Normal termination of Gaussian 16 at Thu Dec  7 23:56:17 2023.
