 Gaussian 16, Revision B.01,
 Gaussian 16:  ES64L-G16RevB.01 20-Dec-2017

 -------------------------
 #P B3LYP/6-311+g(d) force
 -------------------------

 -----
 DPGEN
 -----
 Symbolic Z-matrix:
 Charge =  0 Multiplicity = 2

                         Standard orientation:
 ---------------------------------------------------------------------
 Center     Atomic      Atomic             Coordinates (Angstroms)
 Number     Number       Type             X           Y           Z
 ---------------------------------------------------------------------
      1         11           0        0.037594   -1.008976    2.112829
      2         11           0       -1.149224   -1.511344   -1.581460
      3         11           0        2.587523   -2.449510   -0.377366
      4         11           0       -3.875847   -0.796401    0.327702
      5         11           0        3.317753    1.335471    0.638105
      6         11           0        0.708760    1.853547   -1.536761
      7         11           0       -1.626557    2.577213    0.416951
 ---------------------------------------------------------------------

 SCF Done:  E(UB3LYP) =  -1136.11604006     A.U. after   22 cycles

 The electronic state is 2-A.
 Alpha  occ. eigenvalues --  -38.45322 -38.44982 -38.44704 -38.44347 -38.44235
 Alpha  occ. eigenvalues --  -38.43715 -38.43130  -2.21069  -2.20736  -2.20470
 Alpha  occ. eigenvalues --   -2.20087  -2.20021  -2.19531  -2.18981  -1.14750
 Alpha  occ. eigenvalues --   -1.14726  -1.14698  -1.14415  -1.14396  -1.14375
 Alpha  occ. eigenvalues --   -1.14143  -1.14123  -1.14078  -1.13762  -1.13747
 Alpha  occ. eigenvalues --   -1.13734  -1.13723  -1.13687  -1.13642  -1.13202
 Alpha  occ. eigenvalues --   -1.13180  -1.13154  -1.12660  -1.12626  -1.12619
 Alpha  occ. eigenvalues --   -0.17060  -0.12910  -0.11798  -0.10605
 Alpha virt. eigenvalues --   -0.07004  -0.05914  -0.04018  -0.03480  -0.03274
 Alpha virt. eigenvalues --   -0.02622  -0.02247  -0.01483  -0.00798  -0.00492
 Alpha virt. eigenvalues --   -0.00052   0.00112   0.00259   0.00540   0.00572

  Beta  occ. eigenvalues --  -38.45313 -38.44986 -38.44637 -38.44348 -38.44230
  Beta  occ. eigenvalues --  -38.43656 -38.43102  -2.21054  -2.20744  -2.20346
  Beta  occ. eigenvalues --   -2.20092  -2.20012  -2.19422  -2.18929  -1.14732
  Beta  occ. eigenvalues --   -1.14716  -1.14689  -1.14412  -1.14403  -1.14379
  Beta  occ. eigenvalues --   -1.14059  -1.14032  -1.13989  -1.13761  -1.13745
  Beta  occ. eigenvalues --   -1.13734  -1.13714  -1.13673  -1.13638  -1.13129
  Beta  occ. eigenvalues --   -1.13097  -1.13078  -1.12628  -1.12592  -1.12569
  Beta  occ. eigenvalues --   -0.16382  -0.12823  -0.11634
  Beta virt. eigenvalues --   -0.07000  -0.06795  -0.05694  -0.03504  -0.03309
  Beta virt. eigenvalues --   -0.02681  -0.02125  -0.01726  -0.01315  -0.00791
  Beta virt. eigenvalues --   -0.00283  -0.00017   0.00207   0.00335   0.00641

 Mulliken charges and spin densities:
               1          2
     1  Na  -0.146177   0.578547
     2  Na  -0.359220   0.263515
     3  Na  -0.014812  -0.020355
     4  Na   0.242307   0.033738
     5  Na   0.097937  -0.066381
     6  Na   0.287295   0.291988
     7  Na  -0.107329  -0.081051
 Sum of Mulliken charges =  -0.00000   1.00000

 Dipole moment (field-independent basis, Debye):
    X=              0.0513    Y=             -0.0465    Z=              0.6018  Tot=              0.6057
 Quadrupole moment (field-independent basis, Debye-Ang):
   XX=            -50.1668   YY=            -71.4541   ZZ=            -72.7108
   XY=              0.1714   XZ=             -1.1309   YZ=              2.9017

 Normal termination of Gaussian 16 at Mon Dec  4 02:50:41 2023.
