 Gaussian 16, Revision B.01,
 Gaussian 16:  ES64L-G16RevB.01 20-Dec-2017

 -------------------------
 #P B3LYP/6-311+g(d) force
 -------------------------

 -----
 DPGEN
 -----
 Symbolic Z-matrix:
 Charge =  0 Multiplicity = 2

                         Standard orientation:
 ---------------------------------------------------------------------
 Center     Atomic      Atomic             Coordinates (Angstroms)
 Number     Number       Type             X           Y           Z
 ---------------------------------------------------------------------
      1         11           0        1.341315    2.123596   -0.123948
      2         11           0        0.714688    0.052947   -1.882062
      3         11           0        0.891697   -0.077176    1.914951
      4         11           0        2.702597   -0.827682    0.072153
      5         11           0       -0.097402   -2.049789   -0.201498
      6         11           0       -1.384188    0.884708    0.182424
      7         11           0       -4.168706   -0.106605    0.037981
 ---------------------------------------------------------------------

 SCF Done:  E(UB3LYP) =  -1136.08422782     A.U. after   25 cycles

 The electronic state is 2-A.
 Alpha  occ. eigenvalues --  -38.45745 -38.44707 -38.44610 -38.44538 -38.42971
 Alpha  occ. eigenvalues --  -38.42938 -38.42485  -2.21522  -2.20826  -2.20741
 Alpha  occ. eigenvalues --   -2.20719  -2.19086  -2.18992  -2.18570  -1.15233
 Alpha  occ. eigenvalues --   -1.15171  -1.15150  -1.14861  -1.14627  -1.14440
 Alpha  occ. eigenvalues --   -1.14423  -1.14399  -1.14365  -1.14280  -1.14240
 Alpha  occ. eigenvalues --   -1.14192  -1.12844  -1.12761  -1.12744  -1.12686
 Alpha  occ. eigenvalues --   -1.12650  -1.12535  -1.12273  -1.12210  -1.12167
 Alpha  occ. eigenvalues --   -0.20872  -0.13667  -0.12165  -0.11857
 Alpha virt. eigenvalues --   -0.07375  -0.03669  -0.03570  -0.03477  -0.02755
 Alpha virt. eigenvalues --   -0.02734  -0.02454  -0.00596  -0.00417  -0.00004
 Alpha virt. eigenvalues --    0.00293   0.00330   0.00443   0.00840   0.01112

  Beta  occ. eigenvalues --  -38.45765 -38.44682 -38.44509 -38.44434 -38.42953
  Beta  occ. eigenvalues --  -38.42920 -38.42470  -2.21560  -2.20774  -2.20568
  Beta  occ. eigenvalues --   -2.20535  -2.19057  -2.18966  -2.18551  -1.15260
  Beta  occ. eigenvalues --   -1.15195  -1.15176  -1.14780  -1.14542  -1.14357
  Beta  occ. eigenvalues --   -1.14307  -1.14292  -1.14247  -1.14167  -1.14129
  Beta  occ. eigenvalues --   -1.14094  -1.12839  -1.12734  -1.12687  -1.12662
  Beta  occ. eigenvalues --   -1.12591  -1.12521  -1.12261  -1.12158  -1.12147
  Beta  occ. eigenvalues --   -0.19980  -0.13559  -0.11477
  Beta virt. eigenvalues --   -0.07894  -0.07168  -0.03572  -0.03407  -0.02796
  Beta virt. eigenvalues --   -0.02430  -0.01858  -0.01804  -0.00592  -0.00142
  Beta virt. eigenvalues --    0.00049   0.00297   0.00426   0.00590   0.00891

 Mulliken charges and spin densities:
               1          2
     1  Na  -0.013544  -0.014203
     2  Na  -0.350017   0.438716
     3  Na  -0.313801   0.434695
     4  Na   0.544528   0.083677
     5  Na  -0.079374   0.000942
     6  Na  -0.241350   0.180217
     7  Na   0.453559  -0.124044
 Sum of Mulliken charges =  -0.00000   1.00000

 Dipole moment (field-independent basis, Debye):
    X=             -0.9217    Y=             -0.3054    Z=              0.0111  Tot=              0.9711
 Quadrupole moment (field-independent basis, Debye-Ang):
   XX=            -47.6024   YY=            -76.3585   ZZ=            -68.4227
   XY=              1.9717   XZ=              0.2300   YZ=              0.3012

 Normal termination of Gaussian 16 at Tue Dec  5 15:58:12 2023.
