 Gaussian 16, Revision B.01,
 Gaussian 16:  ES64L-G16RevB.01 20-Dec-2017

 -------------------------
 #P B3LYP/6-311+g(d) force
 -------------------------

 -----
 DPGEN
 -----
 Symbolic Z-matrix:
 Charge =  0 Multiplicity = 2

                         Standard orientation:
 ---------------------------------------------------------------------
 Center     Atomic      Atomic             Coordinates (Angstroms)
 Number     Number       Type             X           Y           Z
 ---------------------------------------------------------------------
      1         11           0        0.201173   -0.022453   -1.464262
      2         11           0        0.015947    0.011574    2.196608
      3         11           0        2.631574    0.747261    0.101094
      4         11           0       -2.341991   -2.084524   -0.443238
      5         11           0        1.898029   -2.640837   -0.115548
      6         11           0        0.247167    3.017067   -0.535895
      7         11           0       -2.651899    0.971911    0.261242
 ---------------------------------------------------------------------

 SCF Done:  E(UB3LYP) =  -1136.13460257     A.U. after   20 cycles

 The electronic state is 2-A.
 Alpha  occ. eigenvalues --  -38.43913 -38.43823 -38.43742 -38.43626 -38.43515
 Alpha  occ. eigenvalues --  -38.43257 -38.43059  -2.19794  -2.19657  -2.19555
 Alpha  occ. eigenvalues --   -2.19552  -2.19402  -2.19129  -2.19106  -1.13460
 Alpha  occ. eigenvalues --   -1.13431  -1.13406  -1.13357  -1.13325  -1.13319
 Alpha  occ. eigenvalues --   -1.13294  -1.13232  -1.13218  -1.13209  -1.13201
 Alpha  occ. eigenvalues --   -1.13139  -1.13075  -1.13065  -1.13026  -1.12864
 Alpha  occ. eigenvalues --   -1.12784  -1.12769  -1.12759  -1.12738  -1.12686
 Alpha  occ. eigenvalues --   -0.18821  -0.13087  -0.12415  -0.10999
 Alpha virt. eigenvalues --   -0.05412  -0.05032  -0.04754  -0.03291  -0.02822
 Alpha virt. eigenvalues --   -0.02723  -0.01338  -0.01232  -0.00293  -0.00167
 Alpha virt. eigenvalues --    0.00018   0.00356   0.00856   0.00880   0.00901

  Beta  occ. eigenvalues --  -38.43817 -38.43806 -38.43743 -38.43617 -38.43508
  Beta  occ. eigenvalues --  -38.43247 -38.43006  -2.19647  -2.19596  -2.19555
  Beta  occ. eigenvalues --   -2.19543  -2.19393  -2.19112  -2.19011  -1.13354
  Beta  occ. eigenvalues --   -1.13341  -1.13306  -1.13301  -1.13289  -1.13282
  Beta  occ. eigenvalues --   -1.13268  -1.13228  -1.13206  -1.13202  -1.13175
  Beta  occ. eigenvalues --   -1.13135  -1.13069  -1.13028  -1.13026  -1.12833
  Beta  occ. eigenvalues --   -1.12761  -1.12742  -1.12711  -1.12672  -1.12624
  Beta  occ. eigenvalues --   -0.18088  -0.12856  -0.12177
  Beta virt. eigenvalues --   -0.07021  -0.05388  -0.04957  -0.04714  -0.02466
  Beta virt. eigenvalues --   -0.02130  -0.01645  -0.01266  -0.01152  -0.00308
  Beta virt. eigenvalues --   -0.00164   0.00137   0.00383   0.00860   0.00904

 Mulliken charges and spin densities:
               1          2
     1  Na  -0.453329   0.165468
     2  Na  -0.458468   0.614261
     3  Na   0.447108   0.131588
     4  Na  -0.003748  -0.034089
     5  Na  -0.025297  -0.049809
     6  Na   0.216618   0.058224
     7  Na   0.277116   0.114357
 Sum of Mulliken charges =  -0.00000   1.00000

 Dipole moment (field-independent basis, Debye):
    X=             -0.0088    Y=             -0.2733    Z=              0.2634  Tot=              0.3797
 Quadrupole moment (field-independent basis, Debye-Ang):
   XX=            -60.9946   YY=            -59.3835   ZZ=            -73.4266
   XY=             -0.3526   XZ=              0.5663   YZ=              0.0700

 Normal termination of Gaussian 16 at Fri Dec  8 01:58:19 2023.
