 Gaussian 16, Revision B.01,
 Gaussian 16:  ES64L-G16RevB.01 20-Dec-2017

 -------------------------
 #P B3LYP/6-311+g(d) force
 -------------------------

 -----
 DPGEN
 -----
 Symbolic Z-matrix:
 Charge =  0 Multiplicity = 2

                         Standard orientation:
 ---------------------------------------------------------------------
 Center     Atomic      Atomic             Coordinates (Angstroms)
 Number     Number       Type             X           Y           Z
 ---------------------------------------------------------------------
      1         11           0       -1.318095   -1.656907   -1.351455
      2         11           0        1.527409    1.693973   -1.309403
      3         11           0       -1.672092    2.133704   -0.463196
      4         11           0       -3.645962   -0.423134    0.930933
      5         11           0        1.891767   -1.946471   -0.591987
      6         11           0        3.144781    0.299937    1.222789
      7         11           0        0.072191   -0.101102    1.562319
 ---------------------------------------------------------------------

 SCF Done:  E(UB3LYP) =  -1136.12799988     A.U. after   24 cycles

 The electronic state is 2-A.
 Alpha  occ. eigenvalues --  -38.44851 -38.44432 -38.44277 -38.43395 -38.43217
 Alpha  occ. eigenvalues --  -38.43189 -38.43153  -2.20663  -2.20354  -2.20217
 Alpha  occ. eigenvalues --   -2.19256  -2.19100  -2.19093  -2.19003  -1.14330
 Alpha  occ. eigenvalues --   -1.14309  -1.14292  -1.14079  -1.14009  -1.13972
 Alpha  occ. eigenvalues --   -1.13912  -1.13849  -1.13825  -1.12954  -1.12905
 Alpha  occ. eigenvalues --   -1.12891  -1.12784  -1.12771  -1.12755  -1.12746
 Alpha  occ. eigenvalues --   -1.12740  -1.12725  -1.12681  -1.12672  -1.12618
 Alpha  occ. eigenvalues --   -0.18688  -0.14205  -0.11423  -0.11153
 Alpha virt. eigenvalues --   -0.06521  -0.04980  -0.04787  -0.03343  -0.02729
 Alpha virt. eigenvalues --   -0.02379  -0.02199  -0.00828  -0.00739  -0.00122
 Alpha virt. eigenvalues --    0.00194   0.00361   0.00377   0.00702   0.00790

  Beta  occ. eigenvalues --  -38.44827 -38.44394 -38.44236 -38.43360 -38.43183
  Beta  occ. eigenvalues --  -38.43173 -38.43146  -2.20617  -2.20284  -2.20144
  Beta  occ. eigenvalues --   -2.19193  -2.19074  -2.19032  -2.18994  -1.14294
  Beta  occ. eigenvalues --   -1.14279  -1.14262  -1.14021  -1.13961  -1.13924
  Beta  occ. eigenvalues --   -1.13847  -1.13808  -1.13767  -1.12909  -1.12857
  Beta  occ. eigenvalues --   -1.12837  -1.12758  -1.12743  -1.12731  -1.12701
  Beta  occ. eigenvalues --   -1.12695  -1.12685  -1.12672  -1.12656  -1.12597
  Beta  occ. eigenvalues --   -0.18031  -0.13932  -0.11055
  Beta virt. eigenvalues --   -0.07456  -0.06308  -0.05024  -0.04077  -0.03112
  Beta virt. eigenvalues --   -0.02235  -0.02059  -0.01426  -0.00717  -0.00409
  Beta virt. eigenvalues --   -0.00057   0.00247   0.00377   0.00489   0.00803

 Mulliken charges and spin densities:
               1          2
     1  Na  -0.377400   0.150463
     2  Na  -0.560720   0.211650
     3  Na  -0.139237   0.113296
     4  Na   1.053776   0.096566
     5  Na  -0.215365   0.192620
     6  Na   1.671284   0.070711
     7  Na  -1.432339   0.164693
 Sum of Mulliken charges =  -0.00000   1.00000

 Dipole moment (field-independent basis, Debye):
    X=             -0.3779    Y=             -0.0621    Z=              0.3546  Tot=              0.5219
 Quadrupole moment (field-independent basis, Debye-Ang):
   XX=            -48.0119   YY=            -77.4493   ZZ=            -68.7748
   XY=              0.6912   XZ=             -1.0798   YZ=              0.3113

 Normal termination of Gaussian 16 at Wed Nov 29 16:37:59 2023.
