 Gaussian 16, Revision B.01,
 Gaussian 16:  ES64L-G16RevB.01 20-Dec-2017

 -------------------------
 #P B3LYP/6-311+g(d) force
 -------------------------

 -----
 DPGEN
 -----
 Symbolic Z-matrix:
 Charge =  0 Multiplicity = 2

                         Standard orientation:
 ---------------------------------------------------------------------
 Center     Atomic      Atomic             Coordinates (Angstroms)
 Number     Number       Type             X           Y           Z
 ---------------------------------------------------------------------
      1         11           0       -2.217465    1.807192   -0.307490
      2         11           0       -2.665142   -1.724437   -0.652581
      3         11           0        0.948488   -2.379341    0.373488
      4         11           0        3.355783   -0.294554   -0.261522
      5         11           0        1.002980    2.682722    0.027482
      6         11           0       -0.688957    0.010237    2.247185
      7         11           0        0.264312   -0.101819   -1.426562
 ---------------------------------------------------------------------

 SCF Done:  E(UB3LYP) =  -1136.13493890     A.U. after   19 cycles

 The electronic state is 2-A.
 Alpha  occ. eigenvalues --  -38.44051 -38.43861 -38.43751 -38.43578 -38.43305
 Alpha  occ. eigenvalues --  -38.43224 -38.43133  -2.19890  -2.19736  -2.19575
 Alpha  occ. eigenvalues --   -2.19460  -2.19224  -2.19184  -2.19079  -1.13569
 Alpha  occ. eigenvalues --   -1.13555  -1.13527  -1.13397  -1.13371  -1.13345
 Alpha  occ. eigenvalues --   -1.13254  -1.13229  -1.13212  -1.13158  -1.13126
 Alpha  occ. eigenvalues --   -1.13082  -1.13058  -1.12894  -1.12867  -1.12824
 Alpha  occ. eigenvalues --   -1.12800  -1.12777  -1.12738  -1.12727  -1.12698
 Alpha  occ. eigenvalues --   -0.18776  -0.13152  -0.12321  -0.11019
 Alpha virt. eigenvalues --   -0.05624  -0.05112  -0.04389  -0.03248  -0.02920
 Alpha virt. eigenvalues --   -0.02671  -0.01666  -0.01044  -0.00266  -0.00090
 Alpha virt. eigenvalues --    0.00016   0.00325   0.00762   0.00874   0.00919

  Beta  occ. eigenvalues --  -38.44051 -38.43755 -38.43734 -38.43570 -38.43293
  Beta  occ. eigenvalues --  -38.43222 -38.43087  -2.19891  -2.19547  -2.19539
  Beta  occ. eigenvalues --   -2.19448  -2.19205  -2.19104  -2.19077  -1.13569
  Beta  occ. eigenvalues --   -1.13546  -1.13529  -1.13267  -1.13240  -1.13221
  Beta  occ. eigenvalues --   -1.13212  -1.13207  -1.13186  -1.13145  -1.13096
  Beta  occ. eigenvalues --   -1.13070  -1.13029  -1.12852  -1.12827  -1.12812
  Beta  occ. eigenvalues --   -1.12764  -1.12727  -1.12719  -1.12707  -1.12688
  Beta  occ. eigenvalues --   -0.18067  -0.12920  -0.12094
  Beta virt. eigenvalues --   -0.07023  -0.05535  -0.05094  -0.04331  -0.02544
  Beta virt. eigenvalues --   -0.02136  -0.01663  -0.01520  -0.01001  -0.00228
  Beta virt. eigenvalues --   -0.00069   0.00119   0.00371   0.00850   0.00882

 Mulliken charges and spin densities:
               1          2
     1  Na   0.224820   0.053274
     2  Na   0.186882   0.066752
     3  Na   0.336068   0.146402
     4  Na   0.173680  -0.023544
     5  Na   0.056657   0.023348
     6  Na  -0.547583   0.583336
     7  Na  -0.430524   0.150432
 Sum of Mulliken charges =  -0.00000   1.00000

 Dipole moment (field-independent basis, Debye):
    X=              0.0612    Y=              0.0220    Z=              0.2282  Tot=              0.2373
 Quadrupole moment (field-independent basis, Debye-Ang):
   XX=            -54.8014   YY=            -65.7516   ZZ=            -72.8099
   XY=              0.8867   XZ=              1.3314   YZ=              0.2489

 Normal termination of Gaussian 16 at Thu Dec  7 06:40:44 2023.
