 Gaussian 16, Revision B.01,
 Gaussian 16:  ES64L-G16RevB.01 20-Dec-2017

 -------------------------
 #P B3LYP/6-311+g(d) force
 -------------------------

 -----
 DPGEN
 -----
 Symbolic Z-matrix:
 Charge =  0 Multiplicity = 2

                         Standard orientation:
 ---------------------------------------------------------------------
 Center     Atomic      Atomic             Coordinates (Angstroms)
 Number     Number       Type             X           Y           Z
 ---------------------------------------------------------------------
      1         11           0        2.652625    2.497087   -0.678712
      2         11           0        2.031546   -2.636175    0.914224
      3         11           0        4.629968   -0.765828   -0.291830
      4         11           0       -0.455076    3.282152    0.462287
      5         11           0       -4.759676   -1.057707   -0.616448
      6         11           0       -1.015385   -2.577912   -0.377235
      7         11           0       -3.084003    1.258382    0.587714
 ---------------------------------------------------------------------

 SCF Done:  E(UB3LYP) =  -1136.11232628     A.U. after   21 cycles

 The electronic state is 2-A.
 Alpha  occ. eigenvalues --  -38.45169 -38.45038 -38.44773 -38.44436 -38.44237
 Alpha  occ. eigenvalues --  -38.44051 -38.43340  -2.20909  -2.20819  -2.20599
 Alpha  occ. eigenvalues --   -2.20225  -2.20066  -2.19852  -2.19156  -1.14603
 Alpha  occ. eigenvalues --   -1.14588  -1.14539  -1.14493  -1.14489  -1.14423
 Alpha  occ. eigenvalues --   -1.14294  -1.14270  -1.14252  -1.13885  -1.13870
 Alpha  occ. eigenvalues --   -1.13857  -1.13723  -1.13705  -1.13679  -1.13525
 Alpha  occ. eigenvalues --   -1.13521  -1.13493  -1.12818  -1.12808  -1.12797
 Alpha  occ. eigenvalues --   -0.15914  -0.14090  -0.13099  -0.10958
 Alpha virt. eigenvalues --   -0.07419  -0.04990  -0.04251  -0.03695  -0.03430
 Alpha virt. eigenvalues --   -0.02432  -0.02170  -0.01522  -0.01000  -0.00957
 Alpha virt. eigenvalues --   -0.00712  -0.00245   0.00102   0.00535   0.00646

  Beta  occ. eigenvalues --  -38.45180 -38.44981 -38.44754 -38.44384 -38.44179
  Beta  occ. eigenvalues --  -38.44038 -38.43306  -2.20931  -2.20717  -2.20573
  Beta  occ. eigenvalues --   -2.20127  -2.19959  -2.19834  -2.19094  -1.14620
  Beta  occ. eigenvalues --   -1.14605  -1.14534  -1.14424  -1.14422  -1.14335
  Beta  occ. eigenvalues --   -1.14263  -1.14244  -1.14219  -1.13820  -1.13811
  Beta  occ. eigenvalues --   -1.13786  -1.13647  -1.13632  -1.13611  -1.13515
  Beta  occ. eigenvalues --   -1.13508  -1.13452  -1.12774  -1.12766  -1.12761
  Beta  occ. eigenvalues --   -0.15345  -0.13450  -0.12545
  Beta virt. eigenvalues --   -0.07649  -0.07425  -0.04506  -0.03877  -0.03448
  Beta virt. eigenvalues --   -0.03067  -0.02288  -0.01929  -0.01286  -0.00841
  Beta virt. eigenvalues --   -0.00578  -0.00458  -0.00042   0.00245   0.00647

 Mulliken charges and spin densities:
               1          2
     1  Na  -0.262723  -0.025468
     2  Na  -0.217011  -0.030535
     3  Na   0.263735   0.226777
     4  Na  -0.069713   0.079404
     5  Na   1.138005   0.306074
     6  Na  -0.428626   0.249741
     7  Na  -0.423667   0.194007
 Sum of Mulliken charges =  -0.00000   1.00000

 Dipole moment (field-independent basis, Debye):
    X=             -0.2211    Y=             -0.5169    Z=             -0.3305  Tot=              0.6522
 Quadrupole moment (field-independent basis, Debye-Ang):
   XX=            -59.8934   YY=            -69.1723   ZZ=            -70.3591
   XY=              1.9102   XZ=              0.4138   YZ=              0.7242

 Normal termination of Gaussian 16 at Mon Dec  4 01:40:27 2023.
