 Gaussian 16, Revision B.01,
 Gaussian 16:  ES64L-G16RevB.01 20-Dec-2017

 -------------------------
 #P B3LYP/6-311+g(d) force
 -------------------------

 -----
 DPGEN
 -----
 Symbolic Z-matrix:
 Charge =  0 Multiplicity = 2

                         Standard orientation:
 ---------------------------------------------------------------------
 Center     Atomic      Atomic             Coordinates (Angstroms)
 Number     Number       Type             X           Y           Z
 ---------------------------------------------------------------------
      1         11           0        3.778641    0.086135    0.892644
      2         11           0        1.463027    1.662771   -0.826260
      3         11           0       -3.695806   -1.056925    0.581115
      4         11           0        1.564475   -2.132337   -1.112831
      5         11           0       -0.094366   -0.643943    1.875677
      6         11           0       -1.619806    2.142254    0.301948
      7         11           0       -1.396164   -0.057956   -1.712293
 ---------------------------------------------------------------------

 SCF Done:  E(UB3LYP) =  -1136.12242680     A.U. after   25 cycles

 The electronic state is 2-A.
 Alpha  occ. eigenvalues --  -38.45051 -38.44837 -38.44425 -38.44010 -38.43672
 Alpha  occ. eigenvalues --  -38.43086 -38.42583  -2.20848  -2.20651  -2.20204
 Alpha  occ. eigenvalues --   -2.19830  -2.19627  -2.19002  -2.18487  -1.14528
 Alpha  occ. eigenvalues --   -1.14504  -1.14465  -1.14340  -1.14323  -1.14245
 Alpha  occ. eigenvalues --   -1.13893  -1.13866  -1.13843  -1.13505  -1.13484
 Alpha  occ. eigenvalues --   -1.13443  -1.13340  -1.13297  -1.13226  -1.12687
 Alpha  occ. eigenvalues --   -1.12679  -1.12595  -1.12175  -1.12164  -1.12106
 Alpha  occ. eigenvalues --   -0.18425  -0.13844  -0.11333  -0.10963
 Alpha virt. eigenvalues --   -0.07097  -0.04890  -0.04624  -0.03121  -0.02828
 Alpha virt. eigenvalues --   -0.02625  -0.02275  -0.01119  -0.00802  -0.00181
 Alpha virt. eigenvalues --    0.00079   0.00196   0.00262   0.00698   0.00781

  Beta  occ. eigenvalues --  -38.45031 -38.44786 -38.44442 -38.43953 -38.43617
  Beta  occ. eigenvalues --  -38.43081 -38.42571  -2.20812  -2.20558  -2.20236
  Beta  occ. eigenvalues --   -2.19726  -2.19528  -2.18994  -2.18468  -1.14502
  Beta  occ. eigenvalues --   -1.14472  -1.14444  -1.14278  -1.14247  -1.14177
  Beta  occ. eigenvalues --   -1.13913  -1.13887  -1.13860  -1.13431  -1.13405
  Beta  occ. eigenvalues --   -1.13364  -1.13275  -1.13211  -1.13161  -1.12682
  Beta  occ. eigenvalues --   -1.12661  -1.12586  -1.12165  -1.12118  -1.12102
  Beta  occ. eigenvalues --   -0.17686  -0.13704  -0.10791
  Beta virt. eigenvalues --   -0.07416  -0.06847  -0.04780  -0.04123  -0.02880
  Beta virt. eigenvalues --   -0.02476  -0.02018  -0.01610  -0.00978  -0.00481
  Beta virt. eigenvalues --   -0.00135   0.00135   0.00210   0.00357   0.00782

 Mulliken charges and spin densities:
               1          2
     1  Na   0.424749   0.015182
     2  Na  -0.380499   0.174136
     3  Na   0.050860  -0.037045
     4  Na  -0.215859   0.166485
     5  Na  -0.354668   0.405733
     6  Na   0.187099   0.146738
     7  Na   0.288318   0.128770
 Sum of Mulliken charges =  -0.00000   1.00000

 Dipole moment (field-independent basis, Debye):
    X=              0.3356    Y=             -0.2027    Z=              0.5008  Tot=              0.6360
 Quadrupole moment (field-independent basis, Debye-Ang):
   XX=            -49.1108   YY=            -75.7569   ZZ=            -69.3268
   XY=             -0.2858   XZ=              1.2439   YZ=              3.5217

 Normal termination of Gaussian 16 at Tue Dec  5 10:29:59 2023.
