 Gaussian 16, Revision B.01,
 Gaussian 16:  ES64L-G16RevB.01 20-Dec-2017

 -------------------------
 #P B3LYP/6-311+g(d) force
 -------------------------

 -----
 DPGEN
 -----
 Symbolic Z-matrix:
 Charge =  0 Multiplicity = 2

                         Standard orientation:
 ---------------------------------------------------------------------
 Center     Atomic      Atomic             Coordinates (Angstroms)
 Number     Number       Type             X           Y           Z
 ---------------------------------------------------------------------
      1         11           0        3.019122   -0.777154   -0.769773
      2         11           0       -0.277193   -0.425907    2.464090
      3         11           0        0.020250    0.011431   -1.474006
      4         11           0        2.450250    2.179141    0.351800
      5         11           0       -2.085044    2.366877   -0.112393
      6         11           0        0.049096   -2.737965    0.148898
      7         11           0       -3.176481   -0.616423   -0.608618
 ---------------------------------------------------------------------

 SCF Done:  E(UB3LYP) =  -1136.12921031     A.U. after   20 cycles

 The electronic state is 2-A.
 Alpha  occ. eigenvalues --  -38.44457 -38.44299 -38.44053 -38.43808 -38.43687
 Alpha  occ. eigenvalues --  -38.43482 -38.42675  -2.20296  -2.20135  -2.19921
 Alpha  occ. eigenvalues --   -2.19608  -2.19508  -2.19464  -2.18552  -1.13978
 Alpha  occ. eigenvalues --   -1.13960  -1.13920  -1.13780  -1.13758  -1.13755
 Alpha  occ. eigenvalues --   -1.13630  -1.13586  -1.13543  -1.13272  -1.13258
 Alpha  occ. eigenvalues --   -1.13254  -1.13197  -1.13171  -1.13154  -1.13149
 Alpha  occ. eigenvalues --   -1.13102  -1.13094  -1.12243  -1.12223  -1.12176
 Alpha  occ. eigenvalues --   -0.18220  -0.13416  -0.11817  -0.11193
 Alpha virt. eigenvalues --   -0.05805  -0.05365  -0.04272  -0.03348  -0.03128
 Alpha virt. eigenvalues --   -0.02844  -0.01807  -0.01014  -0.00446  -0.00289
 Alpha virt. eigenvalues --   -0.00015   0.00317   0.00675   0.00833   0.00907

  Beta  occ. eigenvalues --  -38.44444 -38.44185 -38.44038 -38.43804 -38.43688
  Beta  occ. eigenvalues --  -38.43441 -38.42670  -2.20273  -2.19924  -2.19894
  Beta  occ. eigenvalues --   -2.19602  -2.19512  -2.19391  -2.18549  -1.13954
  Beta  occ. eigenvalues --   -1.13942  -1.13905  -1.13640  -1.13614  -1.13604
  Beta  occ. eigenvalues --   -1.13603  -1.13561  -1.13528  -1.13267  -1.13254
  Beta  occ. eigenvalues --   -1.13243  -1.13192  -1.13172  -1.13141  -1.13107
  Beta  occ. eigenvalues --   -1.13046  -1.13039  -1.12246  -1.12190  -1.12172
  Beta  occ. eigenvalues --   -0.17539  -0.13207  -0.11592
  Beta virt. eigenvalues --   -0.07240  -0.05730  -0.05252  -0.04108  -0.02768
  Beta virt. eigenvalues --   -0.02278  -0.01934  -0.01703  -0.00909  -0.00450
  Beta virt. eigenvalues --   -0.00234   0.00116   0.00367   0.00791   0.00848

 Mulliken charges and spin densities:
               1          2
     1  Na   0.481751   0.021610
     2  Na  -0.597316   0.694229
     3  Na  -0.028986   0.064531
     4  Na  -0.193171   0.110468
     5  Na  -0.112398   0.054561
     6  Na   0.111348   0.042660
     7  Na   0.338772   0.011941
 Sum of Mulliken charges =  -0.00000   1.00000

 Dipole moment (field-independent basis, Debye):
    X=             -0.2705    Y=              0.0059    Z=              0.1611  Tot=              0.3149
 Quadrupole moment (field-independent basis, Debye-Ang):
   XX=            -56.5292   YY=            -66.7925   ZZ=            -72.0527
   XY=              0.3527   XZ=              0.1968   YZ=              2.6777

 Normal termination of Gaussian 16 at Tue Dec  5 18:27:03 2023.
