 Gaussian 16, Revision B.01,
 Gaussian 16:  ES64L-G16RevB.01 20-Dec-2017

 -------------------------
 #P B3LYP/6-311+g(d) force
 -------------------------

 -----
 DPGEN
 -----
 Symbolic Z-matrix:
 Charge =  0 Multiplicity = 2

                         Standard orientation:
 ---------------------------------------------------------------------
 Center     Atomic      Atomic             Coordinates (Angstroms)
 Number     Number       Type             X           Y           Z
 ---------------------------------------------------------------------
      1         11           0       -1.889561   -2.613347   -0.826369
      2         11           0        3.595282   -1.642580    1.082892
      3         11           0        1.759787    3.053581   -1.156692
      4         11           0       -2.038466    2.336416   -0.175999
      5         11           0       -3.793380   -0.259518    1.068418
      6         11           0        1.064574   -2.152384   -1.116483
      7         11           0        1.301763    1.277832    1.124232
 ---------------------------------------------------------------------

 SCF Done:  E(UB3LYP) =  -1136.11752282     A.U. after   20 cycles

 The electronic state is 2-A.
 Alpha  occ. eigenvalues --  -38.44777 -38.44588 -38.44446 -38.43870 -38.43823
 Alpha  occ. eigenvalues --  -38.43731 -38.43661  -2.20558  -2.20442  -2.20284
 Alpha  occ. eigenvalues --   -2.19673  -2.19667  -2.19546  -2.19515  -1.14262
 Alpha  occ. eigenvalues --   -1.14255  -1.14239  -1.14167  -1.14112  -1.14047
 Alpha  occ. eigenvalues --   -1.13918  -1.13907  -1.13864  -1.13443  -1.13335
 Alpha  occ. eigenvalues --   -1.13327  -1.13323  -1.13312  -1.13268  -1.13208
 Alpha  occ. eigenvalues --   -1.13195  -1.13178  -1.13169  -1.13160  -1.13101
 Alpha  occ. eigenvalues --   -0.16683  -0.13475  -0.13270  -0.10515
 Alpha virt. eigenvalues --   -0.06221  -0.05642  -0.04369  -0.03679  -0.03172
 Alpha virt. eigenvalues --   -0.02038  -0.01836  -0.01418  -0.00955  -0.00604
 Alpha virt. eigenvalues --   -0.00408   0.00084   0.00265   0.00544   0.00610

  Beta  occ. eigenvalues --  -38.44761 -38.44585 -38.44407 -38.43843 -38.43771
  Beta  occ. eigenvalues --  -38.43667 -38.43636  -2.20534  -2.20440  -2.20211
  Beta  occ. eigenvalues --   -2.19625  -2.19576  -2.19477  -2.19428  -1.14239
  Beta  occ. eigenvalues --   -1.14238  -1.14227  -1.14129  -1.14113  -1.14042
  Beta  occ. eigenvalues --   -1.13868  -1.13861  -1.13821  -1.13369  -1.13303
  Beta  occ. eigenvalues --   -1.13292  -1.13281  -1.13253  -1.13210  -1.13157
  Beta  occ. eigenvalues --   -1.13147  -1.13120  -1.13110  -1.13094  -1.13029
  Beta  occ. eigenvalues --   -0.16301  -0.12908  -0.12560
  Beta virt. eigenvalues --   -0.07257  -0.06235  -0.05301  -0.03986  -0.03383
  Beta virt. eigenvalues --   -0.02777  -0.01766  -0.01623  -0.01074  -0.00722
  Beta virt. eigenvalues --   -0.00445  -0.00139   0.00247   0.00367   0.00605

 Mulliken charges and spin densities:
               1          2
     1  Na  -0.140621   0.102904
     2  Na   0.348147   0.307348
     3  Na   0.055854   0.215848
     4  Na  -0.096394   0.185025
     5  Na   0.085874   0.156193
     6  Na  -0.236326   0.133431
     7  Na  -0.016533  -0.100747
 Sum of Mulliken charges =  -0.00000   1.00000

 Dipole moment (field-independent basis, Debye):
    X=              0.1910    Y=              1.0209    Z=             -0.1792  Tot=              1.0539
 Quadrupole moment (field-independent basis, Debye-Ang):
   XX=            -63.7140   YY=            -68.4325   ZZ=            -67.5342
   XY=              2.4545   XZ=             -2.2462   YZ=             -4.1623

 Normal termination of Gaussian 16 at Sun Dec  3 19:30:53 2023.
