 Gaussian 16, Revision B.01,
 Gaussian 16:  ES64L-G16RevB.01 20-Dec-2017

 -------------------------
 #P B3LYP/6-311+g(d) force
 -------------------------

 -----
 DPGEN
 -----
 Symbolic Z-matrix:
 Charge =  0 Multiplicity = 2

                         Standard orientation:
 ---------------------------------------------------------------------
 Center     Atomic      Atomic             Coordinates (Angstroms)
 Number     Number       Type             X           Y           Z
 ---------------------------------------------------------------------
      1         11           0       -2.714454    1.007936    1.153780
      2         11           0        0.507329   -1.089083   -1.111708
      3         11           0        3.706085   -1.630808    0.117913
      4         11           0        2.350507    1.779198    0.123598
      5         11           0       -0.440381    2.080256   -1.309093
      6         11           0       -3.575275   -1.716818   -0.593737
      7         11           0        0.166189   -0.430681    1.619247
 ---------------------------------------------------------------------

 SCF Done:  E(UB3LYP) =  -1136.11507951     A.U. after   26 cycles

 The electronic state is 2-A.
 Alpha  occ. eigenvalues --  -38.44598 -38.44500 -38.44303 -38.44294 -38.44268
 Alpha  occ. eigenvalues --  -38.44258 -38.42548  -2.20445  -2.20367  -2.20212
 Alpha  occ. eigenvalues --   -2.20163  -2.20121  -2.20090  -2.18454  -1.14351
 Alpha  occ. eigenvalues --   -1.14058  -1.14047  -1.14044  -1.14027  -1.13999
 Alpha  occ. eigenvalues --   -1.13879  -1.13852  -1.13842  -1.13828  -1.13802
 Alpha  occ. eigenvalues --   -1.13792  -1.13782  -1.13767  -1.13757  -1.13750
 Alpha  occ. eigenvalues --   -1.13734  -1.13703  -1.12140  -1.12099  -1.12082
 Alpha  occ. eigenvalues --   -0.18571  -0.13838  -0.11378  -0.10613
 Alpha virt. eigenvalues --   -0.07003  -0.05939  -0.03823  -0.03205  -0.02739
 Alpha virt. eigenvalues --   -0.02406  -0.02080  -0.01824  -0.00510  -0.00402
 Alpha virt. eigenvalues --    0.00063   0.00231   0.00481   0.00584   0.00628

  Beta  occ. eigenvalues --  -38.44584 -38.44435 -38.44307 -38.44293 -38.44224
  Beta  occ. eigenvalues --  -38.44223 -38.42519  -2.20340  -2.20330  -2.20165
  Beta  occ. eigenvalues --   -2.20132  -2.20099  -2.20063  -2.18403  -1.14267
  Beta  occ. eigenvalues --   -1.14027  -1.14002  -1.13983  -1.13980  -1.13960
  Beta  occ. eigenvalues --   -1.13844  -1.13821  -1.13810  -1.13800  -1.13775
  Beta  occ. eigenvalues --   -1.13763  -1.13761  -1.13738  -1.13729  -1.13728
  Beta  occ. eigenvalues --   -1.13693  -1.13684  -1.12100  -1.12068  -1.12034
  Beta  occ. eigenvalues --   -0.17879  -0.13635  -0.11194
  Beta virt. eigenvalues --   -0.06884  -0.06761  -0.05746  -0.03391  -0.02958
  Beta virt. eigenvalues --   -0.02612  -0.01848  -0.01708  -0.01170  -0.00411
  Beta virt. eigenvalues --   -0.00197   0.00094   0.00276   0.00574   0.00646

 Mulliken charges and spin densities:
               1          2
     1  Na   0.472550   0.111456
     2  Na  -0.691123   0.575972
     3  Na   0.549386  -0.042791
     4  Na  -0.012402  -0.055830
     5  Na   0.042589   0.042077
     6  Na  -0.230346   0.022364
     7  Na  -0.130654   0.346752
 Sum of Mulliken charges =  -0.00000   1.00000

 Dipole moment (field-independent basis, Debye):
    X=              0.4241    Y=              0.1298    Z=              0.0638  Tot=              0.4481
 Quadrupole moment (field-independent basis, Debye-Ang):
   XX=            -47.8679   YY=            -70.8172   ZZ=            -74.1486
   XY=              0.1556   XZ=              1.6429   YZ=              1.9592

 Normal termination of Gaussian 16 at Tue Dec  5 19:50:47 2023.
