 Gaussian 16, Revision B.01,
 Gaussian 16:  ES64L-G16RevB.01 20-Dec-2017

 -------------------------
 #P B3LYP/6-311+g(d) force
 -------------------------

 -----
 DPGEN
 -----
 Symbolic Z-matrix:
 Charge =  0 Multiplicity = 2

                         Standard orientation:
 ---------------------------------------------------------------------
 Center     Atomic      Atomic             Coordinates (Angstroms)
 Number     Number       Type             X           Y           Z
 ---------------------------------------------------------------------
      1         11           0        1.542074    1.492900   -0.365849
      2         11           0       -0.991598    0.076673    1.019498
      3         11           0       -1.830882   -2.781954   -0.450641
      4         11           0        2.236847   -1.708365    0.436124
      5         11           0        4.775466    0.044269   -0.327731
      6         11           0       -4.416176   -0.024207   -0.299904
      7         11           0       -1.315731    2.900683   -0.011496
 ---------------------------------------------------------------------

 SCF Done:  E(UB3LYP) =  -1136.12594562     A.U. after   21 cycles

 The electronic state is 2-A.
 Alpha  occ. eigenvalues --  -38.44288 -38.44102 -38.43931 -38.43925 -38.43668
 Alpha  occ. eigenvalues --  -38.43416 -38.43263  -2.20086  -2.19954  -2.19782
 Alpha  occ. eigenvalues --   -2.19707  -2.19586  -2.19400  -2.19138  -1.13745
 Alpha  occ. eigenvalues --   -1.13720  -1.13694  -1.13651  -1.13641  -1.13608
 Alpha  occ. eigenvalues --   -1.13428  -1.13420  -1.13394  -1.13389  -1.13384
 Alpha  occ. eigenvalues --   -1.13332  -1.13325  -1.13269  -1.13198  -1.13110
 Alpha  occ. eigenvalues --   -1.13083  -1.13027  -1.12792  -1.12780  -1.12757
 Alpha  occ. eigenvalues --   -0.17588  -0.14285  -0.12138  -0.10775
 Alpha virt. eigenvalues --   -0.05916  -0.05094  -0.04876  -0.03839  -0.02659
 Alpha virt. eigenvalues --   -0.02153  -0.01678  -0.01563  -0.00766  -0.00468
 Alpha virt. eigenvalues --   -0.00405   0.00074   0.00560   0.00632   0.00703

  Beta  occ. eigenvalues --  -38.44200 -38.44089 -38.43928 -38.43868 -38.43659
  Beta  occ. eigenvalues --  -38.43388 -38.43265  -2.19936  -2.19922  -2.19714
  Beta  occ. eigenvalues --   -2.19663  -2.19573  -2.19355  -2.19143  -1.13643
  Beta  occ. eigenvalues --   -1.13633  -1.13632  -1.13607  -1.13588  -1.13550
  Beta  occ. eigenvalues --   -1.13400  -1.13396  -1.13346  -1.13338  -1.13316
  Beta  occ. eigenvalues --   -1.13314  -1.13292  -1.13263  -1.13190  -1.13080
  Beta  occ. eigenvalues --   -1.13036  -1.12988  -1.12796  -1.12778  -1.12747
  Beta  occ. eigenvalues --   -0.17004  -0.13644  -0.11926
  Beta virt. eigenvalues --   -0.07280  -0.05755  -0.04848  -0.04249  -0.03558
  Beta virt. eigenvalues --   -0.02335  -0.01768  -0.01507  -0.01131  -0.00564
  Beta virt. eigenvalues --   -0.00364  -0.00089   0.00260   0.00683   0.00726

 Mulliken charges and spin densities:
               1          2
     1  Na  -1.114309  -0.087005
     2  Na  -0.401100   0.027534
     3  Na   0.032855   0.011852
     4  Na  -0.151027   0.076231
     5  Na   0.804195   0.294973
     6  Na   0.103433   0.478964
     7  Na   0.725954   0.197451
 Sum of Mulliken charges =  -0.00000   1.00000

 Dipole moment (field-independent basis, Debye):
    X=              0.3477    Y=             -0.0315    Z=             -0.3562  Tot=              0.4988
 Quadrupole moment (field-independent basis, Debye-Ang):
   XX=            -62.0672   YY=            -65.3748   ZZ=            -69.6929
   XY=             -1.6166   XZ=              0.6073   YZ=             -0.2896

 Normal termination of Gaussian 16 at Tue Nov 28 23:41:17 2023.
