 Gaussian 16, Revision B.01,
 Gaussian 16:  ES64L-G16RevB.01 20-Dec-2017

 -------------------------
 #P B3LYP/6-311+g(d) force
 -------------------------

 -----
 DPGEN
 -----
 Symbolic Z-matrix:
 Charge =  0 Multiplicity = 2

                         Standard orientation:
 ---------------------------------------------------------------------
 Center     Atomic      Atomic             Coordinates (Angstroms)
 Number     Number       Type             X           Y           Z
 ---------------------------------------------------------------------
      1         11           0        3.693823    2.399148   -0.123502
      2         11           0        4.819466   -0.506278   -1.262642
      3         11           0       -4.582935   -1.191576   -0.370904
      4         11           0        0.940589    2.169996    1.077035
      5         11           0       -0.994077   -1.552356    1.202904
      6         11           0        2.815160   -2.555281    0.160422
      7         11           0       -6.692027    1.236347   -0.683313
 ---------------------------------------------------------------------

 SCF Done:  E(UB3LYP) =  -1136.10089185     A.U. after   24 cycles

 The electronic state is 2-A.
 Alpha  occ. eigenvalues --  -38.45165 -38.45121 -38.45049 -38.44777 -38.44489
 Alpha  occ. eigenvalues --  -38.44074 -38.43418  -2.21004  -2.20940  -2.20834
 Alpha  occ. eigenvalues --   -2.20537  -2.20254  -2.19833  -2.19257  -1.14654
 Alpha  occ. eigenvalues --   -1.14648  -1.14631  -1.14607  -1.14583  -1.14558
 Alpha  occ. eigenvalues --   -1.14479  -1.14478  -1.14474  -1.14199  -1.14198
 Alpha  occ. eigenvalues --   -1.14143  -1.13933  -1.13925  -1.13899  -1.13521
 Alpha  occ. eigenvalues --   -1.13513  -1.13481  -1.12956  -1.12911  -1.12907
 Alpha  occ. eigenvalues --   -0.16009  -0.14124  -0.12426  -0.11750
 Alpha virt. eigenvalues --   -0.07085  -0.04948  -0.04880  -0.03756  -0.03287
 Alpha virt. eigenvalues --   -0.02611  -0.02473  -0.01760  -0.01088  -0.01036
 Alpha virt. eigenvalues --   -0.00554  -0.00374  -0.00083   0.00206   0.00559

  Beta  occ. eigenvalues --  -38.45095 -38.45047 -38.44994 -38.44707 -38.44500
  Beta  occ. eigenvalues --  -38.44095 -38.43429  -2.20873  -2.20804  -2.20733
  Beta  occ. eigenvalues --   -2.20406  -2.20279  -2.19875  -2.19282  -1.14568
  Beta  occ. eigenvalues --   -1.14559  -1.14548  -1.14517  -1.14491  -1.14458
  Beta  occ. eigenvalues --   -1.14411  -1.14410  -1.14408  -1.14110  -1.14102
  Beta  occ. eigenvalues --   -1.14065  -1.13953  -1.13946  -1.13887  -1.13548
  Beta  occ. eigenvalues --   -1.13544  -1.13491  -1.12953  -1.12930  -1.12917
  Beta  occ. eigenvalues --   -0.15268  -0.13529  -0.11422
  Beta virt. eigenvalues --   -0.09048  -0.06713  -0.04438  -0.04308  -0.03523
  Beta virt. eigenvalues --   -0.03076  -0.02474  -0.02217  -0.01510  -0.00938
  Beta virt. eigenvalues --   -0.00606  -0.00317  -0.00214   0.00097   0.00285

 Mulliken charges and spin densities:
               1          2
     1  Na   0.021340  -0.126623
     2  Na   0.345937   0.288944
     3  Na   0.146413   0.024326
     4  Na  -0.006250   0.419641
     5  Na  -0.534706   0.236396
     6  Na  -0.097247  -0.038096
     7  Na   0.124512   0.195412
 Sum of Mulliken charges =  -0.00000   1.00000

 Dipole moment (field-independent basis, Debye):
    X=             -0.5546    Y=              0.6642    Z=             -0.3151  Tot=              0.9209
 Quadrupole moment (field-independent basis, Debye-Ang):
   XX=            -52.7794   YY=            -71.8247   ZZ=            -71.2117
   XY=             -6.4050   XZ=             -3.5234   YZ=             -0.5913

 Normal termination of Gaussian 16 at Mon Dec  4 01:21:12 2023.
