 Gaussian 16, Revision B.01,
 Gaussian 16:  ES64L-G16RevB.01 20-Dec-2017

 -------------------------
 #P B3LYP/6-311+g(d) force
 -------------------------

 -----
 DPGEN
 -----
 Symbolic Z-matrix:
 Charge =  0 Multiplicity = 2

                         Standard orientation:
 ---------------------------------------------------------------------
 Center     Atomic      Atomic             Coordinates (Angstroms)
 Number     Number       Type             X           Y           Z
 ---------------------------------------------------------------------
      1         11           0       -0.183437   -1.846114    0.992982
      2         11           0        5.494537    0.005618    0.086683
      3         11           0        2.583154   -1.243126   -0.652388
      4         11           0        1.764465    2.073170    0.127551
      5         11           0       -1.305357    1.827884    0.022074
      6         11           0       -2.650729   -1.013088   -0.686464
      7         11           0       -5.702632    0.195655    0.109562
 ---------------------------------------------------------------------

 SCF Done:  E(UB3LYP) =  -1136.11165598     A.U. after   29 cycles

 The electronic state is 2-A.
 Alpha  occ. eigenvalues --  -38.45210 -38.44796 -38.44492 -38.44264 -38.43999
 Alpha  occ. eigenvalues --  -38.43571 -38.43485  -2.21094  -2.20652  -2.20375
 Alpha  occ. eigenvalues --   -2.20129  -2.19892  -2.19337  -2.19272  -1.14785
 Alpha  occ. eigenvalues --   -1.14744  -1.14671  -1.14335  -1.14314  -1.14284
 Alpha  occ. eigenvalues --   -1.14054  -1.14021  -1.13975  -1.13820  -1.13792
 Alpha  occ. eigenvalues --   -1.13752  -1.13591  -1.13565  -1.13496  -1.13004
 Alpha  occ. eigenvalues --   -1.13004  -1.12970  -1.12939  -1.12936  -1.12909
 Alpha  occ. eigenvalues --   -0.17709  -0.13983  -0.12587  -0.11049
 Alpha virt. eigenvalues --   -0.06083  -0.05550  -0.05080  -0.03864  -0.02771
 Alpha virt. eigenvalues --   -0.02388  -0.02096  -0.01577  -0.00864  -0.00556
 Alpha virt. eigenvalues --   -0.00278   0.00008   0.00051   0.00503   0.00729

  Beta  occ. eigenvalues --  -38.45120 -38.44734 -38.44443 -38.44244 -38.43990
  Beta  occ. eigenvalues --  -38.43570 -38.43484  -2.20928  -2.20540  -2.20288
  Beta  occ. eigenvalues --   -2.20096  -2.19878  -2.19334  -2.19270  -1.14669
  Beta  occ. eigenvalues --   -1.14621  -1.14565  -1.14260  -1.14240  -1.14190
  Beta  occ. eigenvalues --   -1.13996  -1.13959  -1.13907  -1.13792  -1.13775
  Beta  occ. eigenvalues --   -1.13711  -1.13567  -1.13563  -1.13472  -1.13002
  Beta  occ. eigenvalues --   -1.13002  -1.12966  -1.12937  -1.12935  -1.12907
  Beta  occ. eigenvalues --   -0.16929  -0.13807  -0.10826
  Beta virt. eigenvalues --   -0.08515  -0.05867  -0.05227  -0.04573  -0.03034
  Beta virt. eigenvalues --   -0.02687  -0.02300  -0.01747  -0.01038  -0.00793
  Beta virt. eigenvalues --   -0.00382  -0.00150   0.00206   0.00251   0.00507

 Mulliken charges and spin densities:
               1          2
     1  Na  -0.000324   0.522049
     2  Na   0.313509  -0.029588
     3  Na  -0.292085   0.006465
     4  Na  -0.097990   0.269831
     5  Na  -0.272457   0.203504
     6  Na   0.059331   0.095497
     7  Na   0.290016  -0.067757
 Sum of Mulliken charges =  -0.00000   1.00000

 Dipole moment (field-independent basis, Debye):
    X=              0.4570    Y=              0.2786    Z=              0.6666  Tot=              0.8549
 Quadrupole moment (field-independent basis, Debye-Ang):
   XX=            -71.6528   YY=            -66.4979   ZZ=            -69.1439
   XY=              0.6612   XZ=             -0.2583   YZ=              0.3559

 Normal termination of Gaussian 16 at Wed Nov 29 02:46:32 2023.
