 Gaussian 16, Revision B.01,
 Gaussian 16:  ES64L-G16RevB.01 20-Dec-2017

 -------------------------
 #P B3LYP/6-311+g(d) force
 -------------------------

 -----
 DPGEN
 -----
 Symbolic Z-matrix:
 Charge =  0 Multiplicity = 2

                         Standard orientation:
 ---------------------------------------------------------------------
 Center     Atomic      Atomic             Coordinates (Angstroms)
 Number     Number       Type             X           Y           Z
 ---------------------------------------------------------------------
      1         11           0       -0.526536   -0.438144    1.818682
      2         11           0       -2.863811   -1.632761   -0.017807
      3         11           0        0.466090   -2.781674   -0.180217
      4         11           0       -2.731417    1.321205   -1.506607
      5         11           0        3.721089   -0.828270   -0.259712
      6         11           0        0.096939    2.832617    1.393591
      7         11           0        1.837645    1.527026   -1.247931
 ---------------------------------------------------------------------

 SCF Done:  E(UB3LYP) =  -1136.12432104     A.U. after   20 cycles

 The electronic state is 2-A.
 Alpha  occ. eigenvalues --  -38.44502 -38.44088 -38.44046 -38.43982 -38.43944
 Alpha  occ. eigenvalues --  -38.43930 -38.43613  -2.20298  -2.19906  -2.19845
 Alpha  occ. eigenvalues --   -2.19843  -2.19840  -2.19760  -2.19437  -1.13958
 Alpha  occ. eigenvalues --   -1.13953  -1.13906  -1.13627  -1.13590  -1.13580
 Alpha  occ. eigenvalues --   -1.13561  -1.13547  -1.13510  -1.13502  -1.13486
 Alpha  occ. eigenvalues --   -1.13477  -1.13473  -1.13460  -1.13441  -1.13430
 Alpha  occ. eigenvalues --   -1.13410  -1.13352  -1.13106  -1.13081  -1.13063
 Alpha  occ. eigenvalues --   -0.17460  -0.13415  -0.12361  -0.11090
 Alpha virt. eigenvalues --   -0.05861  -0.05591  -0.04655  -0.03438  -0.03266
 Alpha virt. eigenvalues --   -0.02425  -0.01740  -0.01126  -0.00720  -0.00579
 Alpha virt. eigenvalues --   -0.00107   0.00303   0.00557   0.00657   0.00760

  Beta  occ. eigenvalues --  -38.44426 -38.44077 -38.44035 -38.43973 -38.43941
  Beta  occ. eigenvalues --  -38.43864 -38.43575  -2.20158  -2.19887  -2.19831
  Beta  occ. eigenvalues --   -2.19826  -2.19756  -2.19719  -2.19368  -1.13862
  Beta  occ. eigenvalues --   -1.13859  -1.13808  -1.13612  -1.13566  -1.13559
  Beta  occ. eigenvalues --   -1.13542  -1.13512  -1.13490  -1.13486  -1.13463
  Beta  occ. eigenvalues --   -1.13447  -1.13445  -1.13429  -1.13405  -1.13390
  Beta  occ. eigenvalues --   -1.13357  -1.13330  -1.13048  -1.13035  -1.13018
  Beta  occ. eigenvalues --   -0.16898  -0.12950  -0.12068
  Beta virt. eigenvalues --   -0.07470  -0.05613  -0.05398  -0.04422  -0.02945
  Beta virt. eigenvalues --   -0.02786  -0.01829  -0.01528  -0.00980  -0.00568
  Beta virt. eigenvalues --   -0.00445   0.00072   0.00405   0.00642   0.00753

 Mulliken charges and spin densities:
               1          2
     1  Na   0.119378   0.074719
     2  Na   0.416440   0.336277
     3  Na  -0.212148  -0.038173
     4  Na  -0.359391   0.249515
     5  Na  -0.020082   0.005302
     6  Na   0.134931   0.097857
     7  Na  -0.079128   0.274502
 Sum of Mulliken charges =  -0.00000   1.00000

 Dipole moment (field-independent basis, Debye):
    X=              0.0315    Y=             -0.1909    Z=             -0.0666  Tot=              0.2046
 Quadrupole moment (field-independent basis, Debye-Ang):
   XX=            -63.4769   YY=            -65.1231   ZZ=            -69.8775
   XY=              0.1500   XZ=              1.0761   YZ=              0.0750

 Normal termination of Gaussian 16 at Sun Dec  3 11:42:30 2023.
