 Gaussian 16, Revision B.01,
 Gaussian 16:  ES64L-G16RevB.01 20-Dec-2017

 -------------------------
 #P B3LYP/6-311+g(d) force
 -------------------------

 -----
 DPGEN
 -----
 Symbolic Z-matrix:
 Charge =  0 Multiplicity = 2

                         Standard orientation:
 ---------------------------------------------------------------------
 Center     Atomic      Atomic             Coordinates (Angstroms)
 Number     Number       Type             X           Y           Z
 ---------------------------------------------------------------------
      1         11           0       -1.268317   -2.488462    0.696360
      2         11           0       -0.698812    2.911285   -0.049360
      3         11           0        2.107476   -2.161574   -0.488365
      4         11           0       -0.451921   -0.468741   -1.821080
      5         11           0        3.157256    1.585332   -0.021749
      6         11           0        0.317121    0.052986    1.853600
      7         11           0       -3.162802    0.569174   -0.169405
 ---------------------------------------------------------------------

 SCF Done:  E(UB3LYP) =  -1136.13554975     A.U. after   19 cycles

 The electronic state is 2-A.
 Alpha  occ. eigenvalues --  -38.44231 -38.43883 -38.43840 -38.43729 -38.43538
 Alpha  occ. eigenvalues --  -38.43502 -38.43364  -2.19981  -2.19722  -2.19671
 Alpha  occ. eigenvalues --   -2.19536  -2.19462  -2.19409  -2.19255  -1.13662
 Alpha  occ. eigenvalues --   -1.13632  -1.13627  -1.13410  -1.13381  -1.13368
 Alpha  occ. eigenvalues --   -1.13367  -1.13330  -1.13294  -1.13221  -1.13209
 Alpha  occ. eigenvalues --   -1.13156  -1.13144  -1.13103  -1.13102  -1.13075
 Alpha  occ. eigenvalues --   -1.13053  -1.13030  -1.12915  -1.12901  -1.12871
 Alpha  occ. eigenvalues --   -0.18353  -0.12839  -0.12368  -0.10800
 Alpha virt. eigenvalues --   -0.05801  -0.05271  -0.04703  -0.03156  -0.02989
 Alpha virt. eigenvalues --   -0.02540  -0.01565  -0.01252  -0.00481  -0.00452
 Alpha virt. eigenvalues --   -0.00015   0.00342   0.00771   0.00824   0.00873

  Beta  occ. eigenvalues --  -38.44235 -38.43879 -38.43824 -38.43728 -38.43469
  Beta  occ. eigenvalues --  -38.43423 -38.43339  -2.19990  -2.19716  -2.19645
  Beta  occ. eigenvalues --   -2.19535  -2.19335  -2.19266  -2.19213  -1.13662
  Beta  occ. eigenvalues --   -1.13637  -1.13632  -1.13397  -1.13377  -1.13353
  Beta  occ. eigenvalues --   -1.13340  -1.13299  -1.13281  -1.13213  -1.13202
  Beta  occ. eigenvalues --   -1.13155  -1.13066  -1.13017  -1.13013  -1.12980
  Beta  occ. eigenvalues --   -1.12952  -1.12931  -1.12871  -1.12848  -1.12834
  Beta  occ. eigenvalues --   -0.17624  -0.12598  -0.12174
  Beta virt. eigenvalues --   -0.06873  -0.05782  -0.05195  -0.04623  -0.02440
  Beta virt. eigenvalues --   -0.02295  -0.01571  -0.01457  -0.01132  -0.00511
  Beta virt. eigenvalues --   -0.00439   0.00116   0.00385   0.00821   0.00857

 Mulliken charges and spin densities:
               1          2
     1  Na   0.209911   0.067968
     2  Na  -0.196688  -0.142566
     3  Na   0.009449  -0.006005
     4  Na  -0.015552   0.635024
     5  Na  -0.174120  -0.122090
     6  Na  -0.025570   0.591325
     7  Na   0.192570  -0.023657
 Sum of Mulliken charges =  -0.00000   1.00000

 Dipole moment (field-independent basis, Debye):
    X=              0.0847    Y=              0.0628    Z=             -0.0887  Tot=              0.1378
 Quadrupole moment (field-independent basis, Debye-Ang):
   XX=            -56.5794   YY=            -62.8227   ZZ=            -74.2219
   XY=              0.1168   XZ=             -1.5934   YZ=             -0.9538

 Normal termination of Gaussian 16 at Thu Dec  7 10:21:18 2023.
