 Gaussian 16, Revision B.01,
 Gaussian 16:  ES64L-G16RevB.01 20-Dec-2017

 -------------------------
 #P B3LYP/6-311+g(d) force
 -------------------------

 -----
 DPGEN
 -----
 Symbolic Z-matrix:
 Charge =  0 Multiplicity = 2

                         Standard orientation:
 ---------------------------------------------------------------------
 Center     Atomic      Atomic             Coordinates (Angstroms)
 Number     Number       Type             X           Y           Z
 ---------------------------------------------------------------------
      1         11           0        3.507866    0.865912    0.865790
      2         11           0        0.415473   -0.962714   -0.537183
      3         11           0        1.175514    2.805025   -0.061100
      4         11           0       -2.522204   -2.564572   -0.070332
      5         11           0        4.409214   -2.005454   -0.181529
      6         11           0       -2.090225    1.979726   -0.782652
      7         11           0       -4.895639   -0.117923    0.767005
 ---------------------------------------------------------------------

 SCF Done:  E(UB3LYP) =  -1136.11786748     A.U. after   21 cycles

 The electronic state is 2-A.
 Alpha  occ. eigenvalues --  -38.45031 -38.44488 -38.44372 -38.44235 -38.44200
 Alpha  occ. eigenvalues --  -38.44111 -38.43411  -2.20797  -2.20346  -2.20162
 Alpha  occ. eigenvalues --   -2.20068  -2.19997  -2.19914  -2.19246  -1.14496
 Alpha  occ. eigenvalues --   -1.14473  -1.14412  -1.14031  -1.14014  -1.14001
 Alpha  occ. eigenvalues --   -1.13821  -1.13813  -1.13786  -1.13765  -1.13722
 Alpha  occ. eigenvalues --   -1.13699  -1.13672  -1.13638  -1.13633  -1.13565
 Alpha  occ. eigenvalues --   -1.13554  -1.13525  -1.12926  -1.12905  -1.12883
 Alpha  occ. eigenvalues --   -0.16806  -0.14314  -0.12046  -0.10911
 Alpha virt. eigenvalues --   -0.07320  -0.05015  -0.04345  -0.03984  -0.03088
 Alpha virt. eigenvalues --   -0.02416  -0.02067  -0.01571  -0.01034  -0.00604
 Alpha virt. eigenvalues --   -0.00391  -0.00106   0.00345   0.00421   0.00557

  Beta  occ. eigenvalues --  -38.45023 -38.44472 -38.44360 -38.44179 -38.44161
  Beta  occ. eigenvalues --  -38.44032 -38.43410  -2.20787  -2.20317  -2.20142
  Beta  occ. eigenvalues --   -2.19966  -2.19934  -2.19765  -2.19245  -1.14488
  Beta  occ. eigenvalues --   -1.14461  -1.14393  -1.14006  -1.13994  -1.13982
  Beta  occ. eigenvalues --   -1.13808  -1.13792  -1.13774  -1.13680  -1.13656
  Beta  occ. eigenvalues --   -1.13648  -1.13609  -1.13604  -1.13549  -1.13463
  Beta  occ. eigenvalues --   -1.13449  -1.13434  -1.12927  -1.12905  -1.12879
  Beta  occ. eigenvalues --   -0.16307  -0.13735  -0.11790
  Beta virt. eigenvalues --   -0.07277  -0.07207  -0.04692  -0.03936  -0.03811
  Beta virt. eigenvalues --   -0.02553  -0.02196  -0.01848  -0.01185  -0.00920
  Beta virt. eigenvalues --   -0.00468  -0.00134   0.00144   0.00457   0.00510

 Mulliken charges and spin densities:
               1          2
     1  Na   0.402253   0.135025
     2  Na  -1.651625   0.208385
     3  Na  -0.155837  -0.050633
     4  Na   0.443598   0.075809
     5  Na   0.269026   0.093348
     6  Na   0.702602   0.187752
     7  Na  -0.010018   0.350314
 Sum of Mulliken charges =  -0.00000   1.00000

 Dipole moment (field-independent basis, Debye):
    X=              0.5262    Y=             -0.2058    Z=             -0.0500  Tot=              0.5673
 Quadrupole moment (field-independent basis, Debye-Ang):
   XX=            -63.5029   YY=            -64.5181   ZZ=            -70.7570
   XY=              0.3309   XZ=             -0.0087   YZ=              0.9487

 Normal termination of Gaussian 16 at Wed Nov 29 15:46:12 2023.
