 Gaussian 16, Revision B.01,
 Gaussian 16:  ES64L-G16RevB.01 20-Dec-2017

 -------------------------
 #P B3LYP/6-311+g(d) force
 -------------------------

 -----
 DPGEN
 -----
 Symbolic Z-matrix:
 Charge =  0 Multiplicity = 2

                         Standard orientation:
 ---------------------------------------------------------------------
 Center     Atomic      Atomic             Coordinates (Angstroms)
 Number     Number       Type             X           Y           Z
 ---------------------------------------------------------------------
      1         11           0       -1.845543   -1.604291   -1.497347
      2         11           0        1.258521    2.063862   -1.225376
      3         11           0       -2.043958    1.929048   -0.242217
      4         11           0       -3.670407   -0.293210    1.378090
      5         11           0        1.796075   -1.909468   -0.679045
      6         11           0        0.361585   -0.398854    1.276478
      7         11           0        4.143726    0.212914    0.989417
 ---------------------------------------------------------------------

 SCF Done:  E(UB3LYP) =  -1136.11997265     A.U. after   24 cycles

 The electronic state is 2-A.
 Alpha  occ. eigenvalues --  -38.45171 -38.44970 -38.44317 -38.44159 -38.43604
 Alpha  occ. eigenvalues --  -38.43056 -38.42977  -2.21067  -2.20761  -2.20163
 Alpha  occ. eigenvalues --   -2.19967  -2.19489  -2.18926  -2.18795  -1.14851
 Alpha  occ. eigenvalues --   -1.14719  -1.14659  -1.14430  -1.14400  -1.14370
 Alpha  occ. eigenvalues --   -1.13825  -1.13813  -1.13777  -1.13642  -1.13617
 Alpha  occ. eigenvalues --   -1.13598  -1.13236  -1.13138  -1.13068  -1.12613
 Alpha  occ. eigenvalues --   -1.12604  -1.12568  -1.12465  -1.12456  -1.12416
 Alpha  occ. eigenvalues --   -0.17988  -0.14301  -0.11154  -0.10855
 Alpha virt. eigenvalues --   -0.06818  -0.05179  -0.04913  -0.03164  -0.02984
 Alpha virt. eigenvalues --   -0.02493  -0.01937  -0.01267  -0.00992  -0.00312
 Alpha virt. eigenvalues --   -0.00025   0.00281   0.00320   0.00435   0.00751

  Beta  occ. eigenvalues --  -38.45172 -38.44912 -38.44254 -38.44132 -38.43595
  Beta  occ. eigenvalues --  -38.43049 -38.42949  -2.21071  -2.20652  -2.20045
  Beta  occ. eigenvalues --   -2.19921  -2.19478  -2.18918  -2.18745  -1.14844
  Beta  occ. eigenvalues --   -1.14720  -1.14664  -1.14354  -1.14324  -1.14300
  Beta  occ. eigenvalues --   -1.13746  -1.13730  -1.13701  -1.13605  -1.13589
  Beta  occ. eigenvalues --   -1.13552  -1.13235  -1.13126  -1.13032  -1.12610
  Beta  occ. eigenvalues --   -1.12593  -1.12534  -1.12427  -1.12423  -1.12375
  Beta  occ. eigenvalues --   -0.17454  -0.13759  -0.10778
  Beta virt. eigenvalues --   -0.07477  -0.06550  -0.04966  -0.04406  -0.02998
  Beta virt. eigenvalues --   -0.02654  -0.02073  -0.01347  -0.00946  -0.00768
  Beta virt. eigenvalues --   -0.00171   0.00100   0.00328   0.00412   0.00588

 Mulliken charges and spin densities:
               1          2
     1  Na  -0.108626   0.205830
     2  Na  -0.336964   0.156164
     3  Na  -0.115111   0.127373
     4  Na   0.659643   0.318406
     5  Na   0.416121   0.236023
     6  Na  -1.114341  -0.354266
     7  Na   0.599278   0.310468
 Sum of Mulliken charges =  -0.00000   1.00000

 Dipole moment (field-independent basis, Debye):
    X=              0.4231    Y=             -0.4626    Z=              0.0725  Tot=              0.6311
 Quadrupole moment (field-independent basis, Debye-Ang):
   XX=            -52.2725   YY=            -79.5133   ZZ=            -64.8761
   XY=              2.0781   XZ=              0.4070   YZ=              1.2035

 Normal termination of Gaussian 16 at Tue Dec  5 22:01:59 2023.
