 Gaussian 16, Revision B.01,
 Gaussian 16:  ES64L-G16RevB.01 20-Dec-2017

 -------------------------
 #P B3LYP/6-311+g(d) force
 -------------------------

 -----
 DPGEN
 -----
 Symbolic Z-matrix:
 Charge =  0 Multiplicity = 2

                         Standard orientation:
 ---------------------------------------------------------------------
 Center     Atomic      Atomic             Coordinates (Angstroms)
 Number     Number       Type             X           Y           Z
 ---------------------------------------------------------------------
      1         11           0       -2.232207   -1.878410   -0.276928
      2         11           0       -0.383600    0.382402   -1.523914
      3         11           0       -2.776832    1.457873    0.362138
      4         11           0        0.166274   -0.497179    2.144190
      5         11           0        3.202201    0.352221    0.099703
      6         11           0        1.248188   -2.510164   -0.525447
      7         11           0        0.775976    2.693257   -0.279742
 ---------------------------------------------------------------------

 SCF Done:  E(UB3LYP) =  -1136.13463577     A.U. after   18 cycles

 The electronic state is 2-A.
 Alpha  occ. eigenvalues --  -38.44125 -38.43993 -38.43807 -38.43608 -38.43361
 Alpha  occ. eigenvalues --  -38.43306 -38.43157  -2.19943  -2.19834  -2.19670
 Alpha  occ. eigenvalues --   -2.19486  -2.19253  -2.19197  -2.19164  -1.13616
 Alpha  occ. eigenvalues --   -1.13600  -1.13594  -1.13523  -1.13492  -1.13472
 Alpha  occ. eigenvalues --   -1.13333  -1.13302  -1.13286  -1.13216  -1.13140
 Alpha  occ. eigenvalues --   -1.13138  -1.13109  -1.12898  -1.12867  -1.12852
 Alpha  occ. eigenvalues --   -1.12831  -1.12822  -1.12793  -1.12782  -1.12752
 Alpha  occ. eigenvalues --   -0.18744  -0.13118  -0.12436  -0.10845
 Alpha virt. eigenvalues --   -0.05709  -0.05202  -0.04432  -0.03314  -0.02951
 Alpha virt. eigenvalues --   -0.02569  -0.01569  -0.01049  -0.00317  -0.00175
 Alpha virt. eigenvalues --   -0.00010   0.00356   0.00786   0.00891   0.00905

  Beta  occ. eigenvalues --  -38.44124 -38.43986 -38.43713 -38.43599 -38.43354
  Beta  occ. eigenvalues --  -38.43293 -38.43101  -2.19945  -2.19824  -2.19497
  Beta  occ. eigenvalues --   -2.19474  -2.19241  -2.19145  -2.19098  -1.13610
  Beta  occ. eigenvalues --   -1.13601  -1.13588  -1.13515  -1.13472  -1.13462
  Beta  occ. eigenvalues --   -1.13222  -1.13195  -1.13181  -1.13161  -1.13115
  Beta  occ. eigenvalues --   -1.13107  -1.13096  -1.12870  -1.12848  -1.12836
  Beta  occ. eigenvalues --   -1.12797  -1.12778  -1.12771  -1.12721  -1.12695
  Beta  occ. eigenvalues --   -0.18024  -0.12920  -0.12182
  Beta virt. eigenvalues --   -0.06916  -0.05628  -0.05206  -0.04365  -0.02553
  Beta virt. eigenvalues --   -0.02192  -0.01536  -0.01448  -0.00974  -0.00341
  Beta virt. eigenvalues --   -0.00215   0.00137   0.00387   0.00852   0.00890

 Mulliken charges and spin densities:
               1          2
     1  Na   0.289425  -0.001987
     2  Na  -0.201874   0.201442
     3  Na   0.079611   0.077274
     4  Na  -0.663157   0.728205
     5  Na   0.064083  -0.007181
     6  Na   0.149781   0.012594
     7  Na   0.282131  -0.010346
 Sum of Mulliken charges =  -0.00000   1.00000

 Dipole moment (field-independent basis, Debye):
    X=             -0.0279    Y=             -0.0357    Z=              0.3457  Tot=              0.3487
 Quadrupole moment (field-independent basis, Debye-Ang):
   XX=            -55.1770   YY=            -64.8363   ZZ=            -73.6360
   XY=             -0.4437   XZ=             -1.0585   YZ=              2.0180

 Normal termination of Gaussian 16 at Thu Dec  7 17:55:22 2023.
