 Gaussian 16, Revision B.01,
 Gaussian 16:  ES64L-G16RevB.01 20-Dec-2017

 -------------------------
 #P B3LYP/6-311+g(d) force
 -------------------------

 -----
 DPGEN
 -----
 Symbolic Z-matrix:
 Charge =  0 Multiplicity = 2

                         Standard orientation:
 ---------------------------------------------------------------------
 Center     Atomic      Atomic             Coordinates (Angstroms)
 Number     Number       Type             X           Y           Z
 ---------------------------------------------------------------------
      1         11           0       -1.052332   -3.091476   -0.308903
      2         11           0       -5.959754    3.614848    0.009737
      3         11           0       -5.366171    0.196332   -0.686474
      4         11           0       -4.127315   -1.621628    1.594389
      5         11           0        8.883366    1.432443    0.717911
      6         11           0        1.902612   -0.775576   -1.006099
      7         11           0        5.719593    0.245057   -0.320562
 ---------------------------------------------------------------------

 SCF Done:  E(UB3LYP) =  -1136.09855261     A.U. after   20 cycles

 The electronic state is 2-A.
 Alpha  occ. eigenvalues --  -38.45275 -38.45189 -38.45006 -38.44724 -38.44665
 Alpha  occ. eigenvalues --  -38.44597 -38.44109  -2.21050  -2.20993  -2.20709
 Alpha  occ. eigenvalues --   -2.20487  -2.20423  -2.20383  -2.19835  -1.14693
 Alpha  occ. eigenvalues --   -1.14692  -1.14669  -1.14658  -1.14641  -1.14602
 Alpha  occ. eigenvalues --   -1.14412  -1.14394  -1.14357  -1.14139  -1.14139
 Alpha  occ. eigenvalues --   -1.14098  -1.14086  -1.14083  -1.14074  -1.14060
 Alpha  occ. eigenvalues --   -1.14022  -1.14018  -1.13530  -1.13530  -1.13466
 Alpha  occ. eigenvalues --   -0.15170  -0.13680  -0.12603  -0.11547
 Alpha virt. eigenvalues --   -0.07412  -0.05664  -0.04581  -0.03384  -0.03007
 Alpha virt. eigenvalues --   -0.02648  -0.02248  -0.02197  -0.01701  -0.01485
 Alpha virt. eigenvalues --   -0.01080  -0.00830  -0.00381   0.00123   0.00284

  Beta  occ. eigenvalues --  -38.45181 -38.45129 -38.45053 -38.44662 -38.44614
  Beta  occ. eigenvalues --  -38.44592 -38.44132  -2.20880  -2.20875  -2.20799
  Beta  occ. eigenvalues --   -2.20421  -2.20370  -2.20285  -2.19882  -1.14599
  Beta  occ. eigenvalues --   -1.14574  -1.14572  -1.14562  -1.14544  -1.14530
  Beta  occ. eigenvalues --   -1.14476  -1.14456  -1.14398  -1.14097  -1.14091
  Beta  occ. eigenvalues --   -1.14059  -1.14059  -1.14022  -1.14012  -1.13991
  Beta  occ. eigenvalues --   -1.13988  -1.13937  -1.13566  -1.13566  -1.13468
  Beta  occ. eigenvalues --   -0.14715  -0.13086  -0.11999
  Beta virt. eigenvalues --   -0.08449  -0.06996  -0.05219  -0.04367  -0.03254
  Beta virt. eigenvalues --   -0.02696  -0.02474  -0.02065  -0.01946  -0.01484
  Beta virt. eigenvalues --   -0.01124  -0.00678  -0.00476  -0.00202   0.00227

 Mulliken charges and spin densities:
               1          2
     1  Na  -0.034284  -0.259437
     2  Na   0.264958   0.472752
     3  Na  -0.416086  -0.062570
     4  Na   0.234026   0.251369
     5  Na   0.621266   0.259475
     6  Na  -0.550321   0.319158
     7  Na  -0.119560   0.019252
 Sum of Mulliken charges =  -0.00000   1.00000

 Dipole moment (field-independent basis, Debye):
    X=             -1.6581    Y=              0.4449    Z=              0.5714  Tot=              1.8094
 Quadrupole moment (field-independent basis, Debye-Ang):
   XX=            -59.4909   YY=            -63.3366   ZZ=            -69.6143
   XY=              2.4885   XZ=              1.2877   YZ=              1.0486

 Normal termination of Gaussian 16 at Sun Dec  3 13:18:53 2023.
