 Gaussian 16, Revision B.01,
 Gaussian 16:  ES64L-G16RevB.01 20-Dec-2017

 -------------------------
 #P B3LYP/6-311+g(d) force
 -------------------------

 -----
 DPGEN
 -----
 Symbolic Z-matrix:
 Charge =  0 Multiplicity = 2

                         Standard orientation:
 ---------------------------------------------------------------------
 Center     Atomic      Atomic             Coordinates (Angstroms)
 Number     Number       Type             X           Y           Z
 ---------------------------------------------------------------------
      1         11           0       -0.530519    2.902104   -0.056632
      2         11           0        2.285414   -2.068673    0.015038
      3         11           0        3.194490    0.962342   -0.404069
      4         11           0       -1.937665   -2.545499   -0.303556
      5         11           0        0.467417    0.022182    2.112495
      6         11           0       -3.328651    0.516023    0.174433
      7         11           0       -0.150486    0.211522   -1.537707
 ---------------------------------------------------------------------

 SCF Done:  E(UB3LYP) =  -1136.13183454     A.U. after   20 cycles

 The electronic state is 2-A.
 Alpha  occ. eigenvalues --  -38.44770 -38.44607 -38.43871 -38.43644 -38.43410
 Alpha  occ. eigenvalues --  -38.43377 -38.43032  -2.20569  -2.20431  -2.19714
 Alpha  occ. eigenvalues --   -2.19504  -2.19326  -2.19213  -2.18877  -1.14247
 Alpha  occ. eigenvalues --   -1.14229  -1.14204  -1.14109  -1.14091  -1.14067
 Alpha  occ. eigenvalues --   -1.13387  -1.13378  -1.13356  -1.13168  -1.13128
 Alpha  occ. eigenvalues --   -1.13119  -1.13036  -1.12998  -1.12944  -1.12883
 Alpha  occ. eigenvalues --   -1.12872  -1.12854  -1.12568  -1.12530  -1.12498
 Alpha  occ. eigenvalues --   -0.18224  -0.13477  -0.11878  -0.10504
 Alpha virt. eigenvalues --   -0.06295  -0.05416  -0.04416  -0.03373  -0.02561
 Alpha virt. eigenvalues --   -0.02453  -0.02053  -0.01175  -0.00580  -0.00525
 Alpha virt. eigenvalues --   -0.00053   0.00308   0.00694   0.00817   0.00824

  Beta  occ. eigenvalues --  -38.44771 -38.44595 -38.43866 -38.43541 -38.43408
  Beta  occ. eigenvalues --  -38.43327 -38.43029  -2.20572  -2.20411  -2.19707
  Beta  occ. eigenvalues --   -2.19315  -2.19235  -2.19212  -2.18875  -1.14237
  Beta  occ. eigenvalues --   -1.14232  -1.14209  -1.14098  -1.14057  -1.14055
  Beta  occ. eigenvalues --   -1.13383  -1.13356  -1.13344  -1.13043  -1.12997
  Beta  occ. eigenvalues --   -1.12984  -1.12969  -1.12937  -1.12891  -1.12872
  Beta  occ. eigenvalues --   -1.12852  -1.12851  -1.12560  -1.12510  -1.12497
  Beta  occ. eigenvalues --   -0.17527  -0.13283  -0.11668
  Beta virt. eigenvalues --   -0.06610  -0.06197  -0.05388  -0.04391  -0.02642
  Beta virt. eigenvalues --   -0.01942  -0.01840  -0.01431  -0.01091  -0.00608
  Beta virt. eigenvalues --   -0.00555   0.00122   0.00355   0.00778   0.00821

 Mulliken charges and spin densities:
               1          2
     1  Na   0.042106  -0.074135
     2  Na   0.146377   0.021284
     3  Na   0.210109   0.013274
     4  Na  -0.012640  -0.051343
     5  Na  -0.425087   0.725986
     6  Na   0.093598  -0.010179
     7  Na  -0.054463   0.375113
 Sum of Mulliken charges =  -0.00000   1.00000

 Dipole moment (field-independent basis, Debye):
    X=              0.0649    Y=              0.1540    Z=              0.1323  Tot=              0.2132
 Quadrupole moment (field-independent basis, Debye-Ang):
   XX=            -52.1287   YY=            -65.1650   ZZ=            -75.9041
   XY=             -0.4434   XZ=             -1.8963   YZ=              0.5631

 Normal termination of Gaussian 16 at Thu Dec  7 07:10:50 2023.
