 Gaussian 16, Revision B.01,
 Gaussian 16:  ES64L-G16RevB.01 20-Dec-2017

 -------------------------
 #P B3LYP/6-311+g(d) force
 -------------------------

 -----
 DPGEN
 -----
 Symbolic Z-matrix:
 Charge =  0 Multiplicity = 2

                         Standard orientation:
 ---------------------------------------------------------------------
 Center     Atomic      Atomic             Coordinates (Angstroms)
 Number     Number       Type             X           Y           Z
 ---------------------------------------------------------------------
      1         11           0        3.049540   -0.687906   -0.241701
      2         11           0       -2.166328    2.000121   -0.017822
      3         11           0       -0.012728    0.001701    1.879609
      4         11           0       -2.736133   -1.425676   -0.173432
      5         11           0        0.038426    0.210252   -1.790952
      6         11           0        0.441120   -2.813109    0.169900
      7         11           0        1.386102    2.714616    0.174398
 ---------------------------------------------------------------------

 SCF Done:  E(UB3LYP) =  -1136.14192118     A.U. after   19 cycles

 The electronic state is 2-A.
 Alpha  occ. eigenvalues --  -38.43804 -38.43643 -38.43639 -38.43591 -38.43322
 Alpha  occ. eigenvalues --  -38.43315 -38.43263  -2.19633  -2.19501  -2.19476
 Alpha  occ. eigenvalues --   -2.19432  -2.19257  -2.19210  -2.19188  -1.13311
 Alpha  occ. eigenvalues --   -1.13295  -1.13276  -1.13199  -1.13178  -1.13157
 Alpha  occ. eigenvalues --   -1.13153  -1.13134  -1.13103  -1.13100  -1.13092
 Alpha  occ. eigenvalues --   -1.13067  -1.12954  -1.12910  -1.12884  -1.12872
 Alpha  occ. eigenvalues --   -1.12859  -1.12835  -1.12828  -1.12824  -1.12813
 Alpha  occ. eigenvalues --   -0.18758  -0.12856  -0.12660  -0.10721
 Alpha virt. eigenvalues --   -0.05396  -0.05190  -0.04841  -0.03073  -0.02989
 Alpha virt. eigenvalues --   -0.02502  -0.01386  -0.01214  -0.00350  -0.00294
 Alpha virt. eigenvalues --    0.00002   0.00372   0.00836   0.00881   0.00914

  Beta  occ. eigenvalues --  -38.43800 -38.43638 -38.43633 -38.43588 -38.43308
  Beta  occ. eigenvalues --  -38.43237 -38.43188  -2.19628  -2.19494  -2.19470
  Beta  occ. eigenvalues --   -2.19428  -2.19180  -2.19101  -2.19073  -1.13302
  Beta  occ. eigenvalues --   -1.13277  -1.13275  -1.13194  -1.13158  -1.13146
  Beta  occ. eigenvalues --   -1.13131  -1.13123  -1.13099  -1.13098  -1.13075
  Beta  occ. eigenvalues --   -1.13064  -1.12894  -1.12830  -1.12822  -1.12814
  Beta  occ. eigenvalues --   -1.12787  -1.12764  -1.12751  -1.12738  -1.12725
  Beta  occ. eigenvalues --   -0.18019  -0.12607  -0.12415
  Beta virt. eigenvalues --   -0.06818  -0.05400  -0.05164  -0.04797  -0.02280
  Beta virt. eigenvalues --   -0.02199  -0.01452  -0.01297  -0.01142  -0.00413
  Beta virt. eigenvalues --   -0.00346   0.00128   0.00386   0.00862   0.00886

 Mulliken charges and spin densities:
               1          2
     1  Na   0.066614  -0.085918
     2  Na   0.184934  -0.097212
     3  Na  -0.275423   0.729464
     4  Na   0.056998  -0.076875
     5  Na  -0.278881   0.706112
     6  Na   0.156107  -0.055876
     7  Na   0.089651  -0.119695
 Sum of Mulliken charges =  -0.00000   1.00000

 Dipole moment (field-independent basis, Debye):
    X=              0.0711    Y=              0.1601    Z=              0.0035  Tot=              0.1752
 Quadrupole moment (field-independent basis, Debye-Ang):
   XX=            -57.6733   YY=            -61.0015   ZZ=            -74.4734
   XY=              0.4175   XZ=              0.0769   YZ=              0.5357

 Normal termination of Gaussian 16 at Thu Dec  7 07:18:17 2023.
