 Gaussian 16, Revision B.01,
 Gaussian 16:  ES64L-G16RevB.01 20-Dec-2017

 -------------------------
 #P B3LYP/6-311+g(d) force
 -------------------------

 -----
 DPGEN
 -----
 Symbolic Z-matrix:
 Charge =  0 Multiplicity = 2

                         Standard orientation:
 ---------------------------------------------------------------------
 Center     Atomic      Atomic             Coordinates (Angstroms)
 Number     Number       Type             X           Y           Z
 ---------------------------------------------------------------------
      1         11           0       -2.688888   -1.629163   -1.154412
      2         11           0       -0.080020   -1.176652    1.412759
      3         11           0       -0.904122    1.979983   -0.584058
      4         11           0       -3.830444    0.924365    1.145939
      5         11           0        3.854310   -0.867348    0.872069
      6         11           0        2.630246    2.119835   -0.475727
      7         11           0        1.018918   -1.351021   -1.216570
 ---------------------------------------------------------------------

 SCF Done:  E(UB3LYP) =  -1136.11947574     A.U. after   23 cycles

 The electronic state is 2-A.
 Alpha  occ. eigenvalues --  -38.45343 -38.45088 -38.44304 -38.43846 -38.43645
 Alpha  occ. eigenvalues --  -38.43545 -38.43075  -2.21190  -2.20882  -2.20125
 Alpha  occ. eigenvalues --   -2.19661  -2.19570  -2.19346  -2.18900  -1.14974
 Alpha  occ. eigenvalues --   -1.14839  -1.14776  -1.14568  -1.14525  -1.14514
 Alpha  occ. eigenvalues --   -1.13791  -1.13762  -1.13744  -1.13321  -1.13320
 Alpha  occ. eigenvalues --   -1.13303  -1.13284  -1.13200  -1.13151  -1.13027
 Alpha  occ. eigenvalues --   -1.13004  -1.12992  -1.12606  -1.12574  -1.12508
 Alpha  occ. eigenvalues --   -0.17898  -0.14150  -0.11401  -0.10566
 Alpha virt. eigenvalues --   -0.07049  -0.05475  -0.04698  -0.03293  -0.02933
 Alpha virt. eigenvalues --   -0.02427  -0.01815  -0.01494  -0.01106  -0.00346
 Alpha virt. eigenvalues --   -0.00024   0.00124   0.00309   0.00391   0.00593

  Beta  occ. eigenvalues --  -38.45351 -38.45072 -38.44245 -38.43784 -38.43617
  Beta  occ. eigenvalues --  -38.43540 -38.43054  -2.21205  -2.20857  -2.20013
  Beta  occ. eigenvalues --   -2.19545  -2.19523  -2.19340  -2.18865  -1.14971
  Beta  occ. eigenvalues --   -1.14854  -1.14783  -1.14546  -1.14513  -1.14476
  Beta  occ. eigenvalues --   -1.13713  -1.13689  -1.13671  -1.13296  -1.13240
  Beta  occ. eigenvalues --   -1.13222  -1.13210  -1.13148  -1.13107  -1.13025
  Beta  occ. eigenvalues --   -1.12998  -1.12968  -1.12587  -1.12540  -1.12468
  Beta  occ. eigenvalues --   -0.17368  -0.13632  -0.11045
  Beta virt. eigenvalues --   -0.07166  -0.06862  -0.05371  -0.04014  -0.03131
  Beta virt. eigenvalues --   -0.02669  -0.01954  -0.01398  -0.01257  -0.00705
  Beta virt. eigenvalues --   -0.00255   0.00070   0.00180   0.00430   0.00541

 Mulliken charges and spin densities:
               1          2
     1  Na   0.336237   0.038225
     2  Na  -0.371171  -0.110440
     3  Na  -0.735474  -0.002015
     4  Na   0.416251   0.418621
     5  Na   0.443802   0.401087
     6  Na  -0.074193  -0.064513
     7  Na  -0.015453   0.319035
 Sum of Mulliken charges =  -0.00000   1.00000

 Dipole moment (field-independent basis, Debye):
    X=             -0.2322    Y=             -1.0819    Z=             -0.2016  Tot=              1.1247
 Quadrupole moment (field-independent basis, Debye-Ang):
   XX=            -56.4297   YY=            -76.9903   ZZ=            -65.6659
   XY=              3.7933   XZ=              2.2021   YZ=              2.3605

 Normal termination of Gaussian 16 at Tue Dec  5 18:58:51 2023.
