 Gaussian 16, Revision B.01,
 Gaussian 16:  ES64L-G16RevB.01 20-Dec-2017

 -------------------------
 #P B3LYP/6-311+g(d) force
 -------------------------

 -----
 DPGEN
 -----
 Symbolic Z-matrix:
 Charge =  0 Multiplicity = 2

                         Standard orientation:
 ---------------------------------------------------------------------
 Center     Atomic      Atomic             Coordinates (Angstroms)
 Number     Number       Type             X           Y           Z
 ---------------------------------------------------------------------
      1         11           0       -2.654076    1.538619   -0.898625
      2         11           0       -0.409651   -0.388602    1.902094
      3         11           0       -3.528879   -1.634562    0.544712
      4         11           0        0.436361    2.870203    0.212978
      5         11           0       -0.149992   -1.152872   -1.735496
      6         11           0        3.341369    1.025038    0.104216
      7         11           0        2.964868   -2.257825   -0.129879
 ---------------------------------------------------------------------

 SCF Done:  E(UB3LYP) =  -1136.12318803     A.U. after   22 cycles

 The electronic state is 2-A.
 Alpha  occ. eigenvalues --  -38.44832 -38.44760 -38.44654 -38.44504 -38.44297
 Alpha  occ. eigenvalues --  -38.43886 -38.42522  -2.20626  -2.20540  -2.20463
 Alpha  occ. eigenvalues --   -2.20299  -2.20113  -2.19680  -2.18335  -1.14308
 Alpha  occ. eigenvalues --   -1.14283  -1.14269  -1.14212  -1.14201  -1.14175
 Alpha  occ. eigenvalues --   -1.14144  -1.14108  -1.14065  -1.13987  -1.13958
 Alpha  occ. eigenvalues --   -1.13900  -1.13783  -1.13765  -1.13739  -1.13350
 Alpha  occ. eigenvalues --   -1.13342  -1.13325  -1.12010  -1.12008  -1.11986
 Alpha  occ. eigenvalues --   -0.17492  -0.13644  -0.11686  -0.10577
 Alpha virt. eigenvalues --   -0.06914  -0.05961  -0.04322  -0.03356  -0.02673
 Alpha virt. eigenvalues --   -0.02543  -0.02371  -0.01650  -0.00890  -0.00334
 Alpha virt. eigenvalues --   -0.00203   0.00167   0.00405   0.00516   0.00645

  Beta  occ. eigenvalues --  -38.44832 -38.44744 -38.44580 -38.44447 -38.44261
  Beta  occ. eigenvalues --  -38.43889 -38.42525  -2.20626  -2.20512  -2.20328
  Beta  occ. eigenvalues --   -2.20193  -2.20047  -2.19688  -2.18342  -1.14305
  Beta  occ. eigenvalues --   -1.14282  -1.14270  -1.14196  -1.14162  -1.14157
  Beta  occ. eigenvalues --   -1.14052  -1.14018  -1.13963  -1.13914  -1.13881
  Beta  occ. eigenvalues --   -1.13822  -1.13727  -1.13716  -1.13698  -1.13358
  Beta  occ. eigenvalues --   -1.13341  -1.13327  -1.12017  -1.12013  -1.11975
  Beta  occ. eigenvalues --   -0.16855  -0.13476  -0.11442
  Beta virt. eigenvalues --   -0.06945  -0.06671  -0.05767  -0.04097  -0.02930
  Beta virt. eigenvalues --   -0.02324  -0.01983  -0.01818  -0.01312  -0.00887
  Beta virt. eigenvalues --   -0.00192  -0.00092   0.00221   0.00584   0.00641

 Mulliken charges and spin densities:
               1          2
     1  Na   0.128416   0.228229
     2  Na  -0.332335   0.534881
     3  Na   0.266510   0.014929
     4  Na   0.055914  -0.081475
     5  Na  -0.287531   0.343612
     6  Na  -0.201297   0.012598
     7  Na   0.370323  -0.052774
 Sum of Mulliken charges =  -0.00000   1.00000

 Dipole moment (field-independent basis, Debye):
    X=             -0.3128    Y=             -0.6469    Z=             -0.0196  Tot=              0.7189
 Quadrupole moment (field-independent basis, Debye-Ang):
   XX=            -50.0467   YY=            -70.5743   ZZ=            -74.8288
   XY=              0.8408   XZ=              1.4630   YZ=             -1.4241

 Normal termination of Gaussian 16 at Thu Dec  7 19:37:37 2023.
