 Gaussian 16, Revision B.01,
 Gaussian 16:  ES64L-G16RevB.01 20-Dec-2017

 -------------------------
 #P B3LYP/6-311+g(d) force
 -------------------------

 -----
 DPGEN
 -----
 Symbolic Z-matrix:
 Charge =  0 Multiplicity = 2

                         Standard orientation:
 ---------------------------------------------------------------------
 Center     Atomic      Atomic             Coordinates (Angstroms)
 Number     Number       Type             X           Y           Z
 ---------------------------------------------------------------------
      1         11           0        2.119295    2.318329    0.011105
      2         11           0       -0.981173    1.836918   -1.147587
      3         11           0       -2.063016   -1.974204   -0.794865
      4         11           0        3.417203   -1.256611    0.684286
      5         11           0        0.133830   -0.377668    1.877293
      6         11           0        1.091151   -1.013124   -1.605858
      7         11           0       -3.717290    0.466360    0.975626
 ---------------------------------------------------------------------

 SCF Done:  E(UB3LYP) =  -1136.12759371     A.U. after   23 cycles

 The electronic state is 2-A.
 Alpha  occ. eigenvalues --  -38.45033 -38.44880 -38.44247 -38.43835 -38.43577
 Alpha  occ. eigenvalues --  -38.43218 -38.42782  -2.20849  -2.20674  -2.20062
 Alpha  occ. eigenvalues --   -2.19669  -2.19490  -2.19035  -2.18636  -1.14541
 Alpha  occ. eigenvalues --   -1.14500  -1.14459  -1.14337  -1.14324  -1.14302
 Alpha  occ. eigenvalues --   -1.13747  -1.13709  -1.13702  -1.13359  -1.13330
 Alpha  occ. eigenvalues --   -1.13301  -1.13174  -1.13126  -1.13105  -1.12714
 Alpha  occ. eigenvalues --   -1.12702  -1.12675  -1.12328  -1.12302  -1.12249
 Alpha  occ. eigenvalues --   -0.18168  -0.13733  -0.11321  -0.11121
 Alpha virt. eigenvalues --   -0.06718  -0.05301  -0.04496  -0.03188  -0.02813
 Alpha virt. eigenvalues --   -0.02535  -0.02363  -0.01094  -0.00840  -0.00245
 Alpha virt. eigenvalues --    0.00158   0.00191   0.00290   0.00639   0.00726

  Beta  occ. eigenvalues --  -38.44985 -38.44849 -38.44242 -38.43808 -38.43514
  Beta  occ. eigenvalues --  -38.43220 -38.42762  -2.20760  -2.20616  -2.20053
  Beta  occ. eigenvalues --   -2.19625  -2.19377  -2.19041  -2.18602  -1.14477
  Beta  occ. eigenvalues --   -1.14440  -1.14390  -1.14293  -1.14284  -1.14264
  Beta  occ. eigenvalues --   -1.13739  -1.13703  -1.13690  -1.13320  -1.13294
  Beta  occ. eigenvalues --   -1.13257  -1.13100  -1.13035  -1.13021  -1.12716
  Beta  occ. eigenvalues --   -1.12701  -1.12675  -1.12303  -1.12260  -1.12231
  Beta  occ. eigenvalues --   -0.17439  -0.13493  -0.10961
  Beta virt. eigenvalues --   -0.07474  -0.06446  -0.05247  -0.03943  -0.03015
  Beta virt. eigenvalues --   -0.02310  -0.01988  -0.01740  -0.01016  -0.00519
  Beta virt. eigenvalues --   -0.00191   0.00180   0.00247   0.00403   0.00715

 Mulliken charges and spin densities:
               1          2
     1  Na  -0.011070  -0.031843
     2  Na  -0.409660   0.060004
     3  Na  -0.066835   0.083874
     4  Na   0.355405   0.061323
     5  Na  -0.424412   0.373734
     6  Na   0.109774   0.268360
     7  Na   0.446798   0.184548
 Sum of Mulliken charges =  -0.00000   1.00000

 Dipole moment (field-independent basis, Debye):
    X=             -0.2477    Y=             -0.2023    Z=              0.6487  Tot=              0.7233
 Quadrupole moment (field-independent basis, Debye-Ang):
   XX=            -49.3904   YY=            -76.0097   ZZ=            -69.1217
   XY=             -0.4601   XZ=             -0.2276   YZ=              2.1169

 Normal termination of Gaussian 16 at Tue Dec  5 13:19:47 2023.
