 Gaussian 16, Revision B.01,
 Gaussian 16:  ES64L-G16RevB.01 20-Dec-2017

 -------------------------
 #P B3LYP/6-311+g(d) force
 -------------------------

 -----
 DPGEN
 -----
 Symbolic Z-matrix:
 Charge =  0 Multiplicity = 2

                         Standard orientation:
 ---------------------------------------------------------------------
 Center     Atomic      Atomic             Coordinates (Angstroms)
 Number     Number       Type             X           Y           Z
 ---------------------------------------------------------------------
      1         11           0       -0.414983   -2.836476    0.173126
      2         11           0        2.782400   -1.474393   -0.042872
      3         11           0        0.100359   -0.370627   -1.775158
      4         11           0        2.616699    2.098285    0.178038
      5         11           0       -1.326558    2.807057   -0.334003
      6         11           0       -3.313571   -0.382032   -0.090808
      7         11           0       -0.444347    0.158186    1.891678
 ---------------------------------------------------------------------

 SCF Done:  E(UB3LYP) =  -1136.13588872     A.U. after   20 cycles

 The electronic state is 2-A.
 Alpha  occ. eigenvalues --  -38.44452 -38.44027 -38.43912 -38.43893 -38.43416
 Alpha  occ. eigenvalues --  -38.43353 -38.43310  -2.20247  -2.19794  -2.19741
 Alpha  occ. eigenvalues --   -2.19683  -2.19305  -2.19274  -2.19186  -1.13924
 Alpha  occ. eigenvalues --   -1.13901  -1.13889  -1.13471  -1.13460  -1.13439
 Alpha  occ. eigenvalues --   -1.13425  -1.13403  -1.13371  -1.13362  -1.13352
 Alpha  occ. eigenvalues --   -1.13311  -1.13011  -1.12975  -1.12942  -1.12924
 Alpha  occ. eigenvalues --   -1.12921  -1.12889  -1.12847  -1.12827  -1.12800
 Alpha  occ. eigenvalues --   -0.18231  -0.12931  -0.12323  -0.10416
 Alpha virt. eigenvalues --   -0.05928  -0.05417  -0.04821  -0.03122  -0.02822
 Alpha virt. eigenvalues --   -0.02349  -0.01731  -0.01222  -0.00712  -0.00521
 Alpha virt. eigenvalues --   -0.00019   0.00349   0.00754   0.00804   0.00846

  Beta  occ. eigenvalues --  -38.44449 -38.44027 -38.43910 -38.43885 -38.43335
  Beta  occ. eigenvalues --  -38.43300 -38.43281  -2.20245  -2.19796  -2.19740
  Beta  occ. eigenvalues --   -2.19672  -2.19175  -2.19157  -2.19141  -1.13905
  Beta  occ. eigenvalues --   -1.13900  -1.13887  -1.13463  -1.13459  -1.13442
  Beta  occ. eigenvalues --   -1.13415  -1.13392  -1.13372  -1.13347  -1.13335
  Beta  occ. eigenvalues --   -1.13306  -1.12947  -1.12884  -1.12847  -1.12835
  Beta  occ. eigenvalues --   -1.12818  -1.12811  -1.12794  -1.12788  -1.12765
  Beta  occ. eigenvalues --   -0.17510  -0.12726  -0.12106
  Beta virt. eigenvalues --   -0.06568  -0.05895  -0.05393  -0.04733  -0.02377
  Beta virt. eigenvalues --   -0.02097  -0.01647  -0.01342  -0.01143  -0.00748
  Beta virt. eigenvalues --   -0.00571   0.00126   0.00378   0.00802   0.00818

 Mulliken charges and spin densities:
               1          2
     1  Na   0.226622  -0.101857
     2  Na   0.109696  -0.067314
     3  Na  -0.093837   0.678992
     4  Na  -0.095252  -0.101758
     5  Na  -0.117299  -0.095585
     6  Na   0.185762  -0.087710
     7  Na  -0.215692   0.775232
 Sum of Mulliken charges =  -0.00000   1.00000

 Dipole moment (field-independent basis, Debye):
    X=             -0.2507    Y=              0.0676    Z=             -0.0041  Tot=              0.2597
 Quadrupole moment (field-independent basis, Debye-Ang):
   XX=            -54.6259   YY=            -62.0261   ZZ=            -75.9624
   XY=              0.1348   XZ=              1.1902   YZ=             -1.0362

 Normal termination of Gaussian 16 at Tue Dec  5 15:04:34 2023.
