 Gaussian 16, Revision B.01,
 Gaussian 16:  ES64L-G16RevB.01 20-Dec-2017

 -------------------------
 #P B3LYP/6-311+g(d) force
 -------------------------

 -----
 DPGEN
 -----
 Symbolic Z-matrix:
 Charge =  0 Multiplicity = 2

                         Standard orientation:
 ---------------------------------------------------------------------
 Center     Atomic      Atomic             Coordinates (Angstroms)
 Number     Number       Type             X           Y           Z
 ---------------------------------------------------------------------
      1         11           0       -2.447235    1.697800   -0.012611
      2         11           0       -0.047431   -0.043935   -1.678280
      3         11           0        2.919746    0.307956   -0.187465
      4         11           0        1.250629   -2.474252    0.195698
      5         11           0       -2.177694   -2.081351   -0.193729
      6         11           0        0.667915    2.693416    0.097867
      7         11           0       -0.165929   -0.099634    1.778520
 ---------------------------------------------------------------------

 SCF Done:  E(UB3LYP) =  -1136.13943281     A.U. after   20 cycles

 The electronic state is 2-A.
 Alpha  occ. eigenvalues --  -38.43631 -38.43622 -38.43421 -38.43363 -38.43326
 Alpha  occ. eigenvalues --  -38.43100 -38.42976  -2.19497  -2.19493  -2.19344
 Alpha  occ. eigenvalues --   -2.19260  -2.19243  -2.19104  -2.19008  -1.13192
 Alpha  occ. eigenvalues --   -1.13182  -1.13166  -1.13162  -1.13141  -1.13118
 Alpha  occ. eigenvalues --   -1.13072  -1.13021  -1.12986  -1.12979  -1.12926
 Alpha  occ. eigenvalues --   -1.12910  -1.12906  -1.12885  -1.12840  -1.12782
 Alpha  occ. eigenvalues --   -1.12721  -1.12710  -1.12679  -1.12628  -1.12621
 Alpha  occ. eigenvalues --   -0.19378  -0.13029  -0.12910  -0.10764
 Alpha virt. eigenvalues --   -0.05271  -0.05018  -0.04798  -0.03061  -0.02967
 Alpha virt. eigenvalues --   -0.02341  -0.01280  -0.01186  -0.00133  -0.00091
 Alpha virt. eigenvalues --    0.00046   0.00369   0.00888   0.00922   0.00963

  Beta  occ. eigenvalues --  -38.43625 -38.43617 -38.43412 -38.43357 -38.43318
  Beta  occ. eigenvalues --  -38.43017 -38.42901  -2.19491  -2.19485  -2.19331
  Beta  occ. eigenvalues --   -2.19253  -2.19235  -2.18952  -2.18870  -1.13189
  Beta  occ. eigenvalues --   -1.13177  -1.13145  -1.13132  -1.13132  -1.13116
  Beta  occ. eigenvalues --   -1.13061  -1.12989  -1.12978  -1.12966  -1.12907
  Beta  occ. eigenvalues --   -1.12898  -1.12877  -1.12866  -1.12838  -1.12687
  Beta  occ. eigenvalues --   -1.12611  -1.12605  -1.12585  -1.12531  -1.12519
  Beta  occ. eigenvalues --   -0.18637  -0.12747  -0.12638
  Beta virt. eigenvalues --   -0.06814  -0.05275  -0.04996  -0.04796  -0.02215
  Beta virt. eigenvalues --   -0.02169  -0.01285  -0.01203  -0.01119  -0.00186
  Beta virt. eigenvalues --   -0.00133   0.00153   0.00387   0.00910   0.00919

 Mulliken charges and spin densities:
               1          2
     1  Na   0.108913  -0.118829
     2  Na  -0.467125   0.670731
     3  Na   0.149057  -0.032365
     4  Na   0.311155  -0.022794
     5  Na   0.111331  -0.121766
     6  Na   0.192507  -0.034558
     7  Na  -0.405837   0.659582
 Sum of Mulliken charges =  -0.00000   1.00000

 Dipole moment (field-independent basis, Debye):
    X=             -0.2467    Y=             -0.0637    Z=              0.0279  Tot=              0.2563
 Quadrupole moment (field-independent basis, Debye-Ang):
   XX=            -58.2075   YY=            -60.2935   ZZ=            -74.5133
   XY=              0.2041   XZ=              0.2429   YZ=              0.1362

 Normal termination of Gaussian 16 at Thu Dec  7 11:31:27 2023.
