 Gaussian 16, Revision B.01,
 Gaussian 16:  ES64L-G16RevB.01 20-Dec-2017

 -------------------------
 #P B3LYP/6-311+g(d) force
 -------------------------

 -----
 DPGEN
 -----
 Symbolic Z-matrix:
 Charge =  0 Multiplicity = 2

                         Standard orientation:
 ---------------------------------------------------------------------
 Center     Atomic      Atomic             Coordinates (Angstroms)
 Number     Number       Type             X           Y           Z
 ---------------------------------------------------------------------
      1         11           0        1.037136    2.935394   -0.096383
      2         11           0        0.195203    0.199224   -1.830344
      3         11           0       -2.244236   -1.975649   -0.225142
      4         11           0       -2.790558    1.640759    0.146603
      5         11           0        1.073615   -2.666155   -0.058881
      6         11           0        2.858503   -0.031249    0.231560
      7         11           0       -0.129663   -0.102325    1.832586
 ---------------------------------------------------------------------

 SCF Done:  E(UB3LYP) =  -1136.13969644     A.U. after   19 cycles

 The electronic state is 2-A.
 Alpha  occ. eigenvalues --  -38.44036 -38.43758 -38.43673 -38.43471 -38.43310
 Alpha  occ. eigenvalues --  -38.43298 -38.43235  -2.19823  -2.19582  -2.19517
 Alpha  occ. eigenvalues --   -2.19378  -2.19250  -2.19239  -2.19140  -1.13502
 Alpha  occ. eigenvalues --   -1.13480  -1.13463  -1.13271  -1.13246  -1.13217
 Alpha  occ. eigenvalues --   -1.13197  -1.13188  -1.13150  -1.13093  -1.13048
 Alpha  occ. eigenvalues --   -1.13017  -1.12938  -1.12907  -1.12882  -1.12869
 Alpha  occ. eigenvalues --   -1.12867  -1.12857  -1.12792  -1.12787  -1.12775
 Alpha  occ. eigenvalues --   -0.18796  -0.12859  -0.12645  -0.10722
 Alpha virt. eigenvalues --   -0.05608  -0.05058  -0.04828  -0.03093  -0.02974
 Alpha virt. eigenvalues --   -0.02479  -0.01347  -0.01269  -0.00425  -0.00249
 Alpha virt. eigenvalues --    0.00002   0.00368   0.00829   0.00876   0.00911

  Beta  occ. eigenvalues --  -38.44035 -38.43755 -38.43667 -38.43462 -38.43231
  Beta  occ. eigenvalues --  -38.43228 -38.43219  -2.19823  -2.19579  -2.19509
  Beta  occ. eigenvalues --   -2.19364  -2.19132  -2.19105  -2.19094  -1.13486
  Beta  occ. eigenvalues --   -1.13480  -1.13466  -1.13261  -1.13232  -1.13217
  Beta  occ. eigenvalues --   -1.13193  -1.13162  -1.13146  -1.13083  -1.13018
  Beta  occ. eigenvalues --   -1.12995  -1.12856  -1.12813  -1.12807  -1.12783
  Beta  occ. eigenvalues --   -1.12769  -1.12764  -1.12756  -1.12744  -1.12731
  Beta  occ. eigenvalues --   -0.18046  -0.12619  -0.12398
  Beta virt. eigenvalues --   -0.06810  -0.05614  -0.04968  -0.04840  -0.02303
  Beta virt. eigenvalues --   -0.02194  -0.01458  -0.01252  -0.01179  -0.00471
  Beta virt. eigenvalues --   -0.00312   0.00131   0.00387   0.00833   0.00893

 Mulliken charges and spin densities:
               1          2
     1  Na   0.064729  -0.137705
     2  Na  -0.323227   0.686370
     3  Na   0.073033  -0.073828
     4  Na  -0.061744  -0.147560
     5  Na   0.223217  -0.009249
     6  Na   0.333993   0.009160
     7  Na  -0.310000   0.672813
 Sum of Mulliken charges =  -0.00000   1.00000

 Dipole moment (field-independent basis, Debye):
    X=             -0.2617    Y=              0.2817    Z=              0.0009  Tot=              0.3845
 Quadrupole moment (field-independent basis, Debye-Ang):
   XX=            -59.1241   YY=            -59.6743   ZZ=            -74.4500
   XY=             -0.1225   XZ=              0.7748   YZ=              0.7613

 Normal termination of Gaussian 16 at Thu Dec  7 12:34:48 2023.
