 Gaussian 16, Revision B.01,
 Gaussian 16:  ES64L-G16RevB.01 20-Dec-2017

 -------------------------
 #P B3LYP/6-311+g(d) force
 -------------------------

 -----
 DPGEN
 -----
 Symbolic Z-matrix:
 Charge =  0 Multiplicity = 2

                         Standard orientation:
 ---------------------------------------------------------------------
 Center     Atomic      Atomic             Coordinates (Angstroms)
 Number     Number       Type             X           Y           Z
 ---------------------------------------------------------------------
      1         11           0       -3.220601    1.571647   -0.281947
      2         11           0        1.145383   -2.371414   -0.363572
      3         11           0       -2.281289   -2.175346    0.191697
      4         11           0        0.075999    0.431677   -1.824902
      5         11           0        1.014736    2.745827    0.419029
      6         11           0       -0.134053   -0.193621    1.885590
      7         11           0        3.399825   -0.008771   -0.025894
 ---------------------------------------------------------------------

 SCF Done:  E(UB3LYP) =  -1136.13260068     A.U. after   19 cycles

 The electronic state is 2-A.
 Alpha  occ. eigenvalues --  -38.44671 -38.44536 -38.43789 -38.43658 -38.43535
 Alpha  occ. eigenvalues --  -38.43500 -38.42896  -2.20414  -2.20347  -2.19608
 Alpha  occ. eigenvalues --   -2.19552  -2.19407  -2.19362  -2.18801  -1.14092
 Alpha  occ. eigenvalues --   -1.14067  -1.14053  -1.14023  -1.14012  -1.13983
 Alpha  occ. eigenvalues --   -1.13298  -1.13272  -1.13244  -1.13240  -1.13215
 Alpha  occ. eigenvalues --   -1.13155  -1.13090  -1.13061  -1.13031  -1.13029
 Alpha  occ. eigenvalues --   -1.13003  -1.12979  -1.12492  -1.12469  -1.12423
 Alpha  occ. eigenvalues --   -0.18319  -0.12968  -0.12137  -0.10655
 Alpha virt. eigenvalues --   -0.06338  -0.05343  -0.04261  -0.03167  -0.02861
 Alpha virt. eigenvalues --   -0.02484  -0.02043  -0.01274  -0.00542  -0.00227
 Alpha virt. eigenvalues --   -0.00064   0.00294   0.00691   0.00754   0.00801

  Beta  occ. eigenvalues --  -38.44667 -38.44535 -38.43785 -38.43589 -38.43522
  Beta  occ. eigenvalues --  -38.43418 -38.42883  -2.20407  -2.20348  -2.19604
  Beta  occ. eigenvalues --   -2.19426  -2.19342  -2.19256  -2.18783  -1.14076
  Beta  occ. eigenvalues --   -1.14064  -1.14050  -1.14027  -1.13995  -1.13982
  Beta  occ. eigenvalues --   -1.13283  -1.13263  -1.13237  -1.13162  -1.13130
  Beta  occ. eigenvalues --   -1.13060  -1.13028  -1.12997  -1.12983  -1.12967
  Beta  occ. eigenvalues --   -1.12931  -1.12904  -1.12481  -1.12441  -1.12397
  Beta  occ. eigenvalues --   -0.17593  -0.12757  -0.11876
  Beta virt. eigenvalues --   -0.06830  -0.06249  -0.05292  -0.04214  -0.02475
  Beta virt. eigenvalues --   -0.02118  -0.01954  -0.01452  -0.01206  -0.00572
  Beta virt. eigenvalues --   -0.00240   0.00076   0.00321   0.00743   0.00820

 Mulliken charges and spin densities:
               1          2
     1  Na  -0.060264  -0.090574
     2  Na   0.138634   0.020816
     3  Na   0.144473  -0.035452
     4  Na  -0.223354   0.639506
     5  Na   0.043787  -0.083795
     6  Na  -0.159472   0.600553
     7  Na   0.116196  -0.051053
 Sum of Mulliken charges =  -0.00000   1.00000

 Dipole moment (field-independent basis, Debye):
    X=             -0.1136    Y=              0.2662    Z=              0.0347  Tot=              0.2915
 Quadrupole moment (field-independent basis, Debye-Ang):
   XX=            -51.9035   YY=            -65.9066   ZZ=            -74.7284
   XY=              0.3785   XZ=              0.3811   YZ=              0.9977

 Normal termination of Gaussian 16 at Fri Dec  8 02:09:43 2023.
