 Gaussian 16, Revision B.01,
 Gaussian 16:  ES64L-G16RevB.01 20-Dec-2017

 -------------------------
 #P B3LYP/6-311+g(d) force
 -------------------------

 -----
 DPGEN
 -----
 Symbolic Z-matrix:
 Charge =  0 Multiplicity = 2

                         Standard orientation:
 ---------------------------------------------------------------------
 Center     Atomic      Atomic             Coordinates (Angstroms)
 Number     Number       Type             X           Y           Z
 ---------------------------------------------------------------------
      1         11           0        0.024752    1.842165   -0.081083
      2         11           0        5.744660   -2.036019    0.146501
      3         11           0        2.867250   -1.231611   -0.127628
      4         11           0        3.663215    2.473314    0.230938
      5         11           0       -3.355362    1.723512   -0.912089
      6         11           0       -4.138650   -2.119370   -1.210280
      7         11           0       -4.805865   -0.651991    1.953642
 ---------------------------------------------------------------------

 SCF Done:  E(UB3LYP) =  -1136.10342487     A.U. after   23 cycles

 The electronic state is 2-A.
 Alpha  occ. eigenvalues --  -38.46063 -38.45979 -38.44484 -38.43928 -38.43724
 Alpha  occ. eigenvalues --  -38.43092 -38.42756  -2.21804  -2.21729  -2.20268
 Alpha  occ. eigenvalues --   -2.19743  -2.19549  -2.18912  -2.18530  -1.15483
 Alpha  occ. eigenvalues --   -1.15466  -1.15431  -1.15401  -1.15386  -1.15334
 Alpha  occ. eigenvalues --   -1.13925  -1.13891  -1.13880  -1.13415  -1.13386
 Alpha  occ. eigenvalues --   -1.13346  -1.13253  -1.13223  -1.13182  -1.12564
 Alpha  occ. eigenvalues --   -1.12552  -1.12546  -1.12231  -1.12230  -1.12160
 Alpha  occ. eigenvalues --   -0.15546  -0.14365  -0.11676  -0.10275
 Alpha virt. eigenvalues --   -0.07320  -0.05965  -0.04281  -0.03250  -0.02902
 Alpha virt. eigenvalues --   -0.02370  -0.02182  -0.01902  -0.01871  -0.00628
 Alpha virt. eigenvalues --   -0.00533  -0.00470  -0.00045   0.00027   0.00223

  Beta  occ. eigenvalues --  -38.46059 -38.45952 -38.44398 -38.43853 -38.43722
  Beta  occ. eigenvalues --  -38.43063 -38.42770  -2.21797  -2.21679  -2.20106
  Beta  occ. eigenvalues --   -2.19605  -2.19548  -2.18860  -2.18563  -1.15479
  Beta  occ. eigenvalues --   -1.15450  -1.15425  -1.15368  -1.15342  -1.15304
  Beta  occ. eigenvalues --   -1.13814  -1.13782  -1.13773  -1.13320  -1.13294
  Beta  occ. eigenvalues --   -1.13256  -1.13253  -1.13225  -1.13162  -1.12529
  Beta  occ. eigenvalues --   -1.12517  -1.12510  -1.12260  -1.12258  -1.12135
  Beta  occ. eigenvalues --   -0.15108  -0.13892  -0.10922
  Beta virt. eigenvalues --   -0.07211  -0.07158  -0.05538  -0.04096  -0.03055
  Beta virt. eigenvalues --   -0.02727  -0.02094  -0.01810  -0.01592  -0.01537
  Beta virt. eigenvalues --   -0.00510  -0.00317  -0.00197   0.00029   0.00157

 Mulliken charges and spin densities:
               1          2
     1  Na  -1.351446   0.310707
     2  Na   1.321524  -0.060921
     3  Na  -1.109294   0.087007
     4  Na   0.632877   0.292807
     5  Na   0.407013   0.137667
     6  Na  -0.095994   0.112575
     7  Na   0.195319   0.120158
 Sum of Mulliken charges =  -0.00000   1.00000

 Dipole moment (field-independent basis, Debye):
    X=             -2.5824    Y=             -0.6255    Z=              0.3333  Tot=              2.6779
 Quadrupole moment (field-independent basis, Debye-Ang):
   XX=            -57.5171   YY=            -75.0562   ZZ=            -64.4367
   XY=              6.1577   XZ=             -0.3166   YZ=              6.1341

 Normal termination of Gaussian 16 at Sun Dec  3 23:53:15 2023.
