 Gaussian 16, Revision B.01,
 Gaussian 16:  ES64L-G16RevB.01 20-Dec-2017

 -------------------------
 #P B3LYP/6-311+g(d) force
 -------------------------

 -----
 DPGEN
 -----
 Symbolic Z-matrix:
 Charge =  0 Multiplicity = 2

                         Standard orientation:
 ---------------------------------------------------------------------
 Center     Atomic      Atomic             Coordinates (Angstroms)
 Number     Number       Type             X           Y           Z
 ---------------------------------------------------------------------
      1         11           0        2.419344    1.835655    0.108661
      2         11           0       -3.208272   -0.480478    0.312503
      3         11           0        0.257588    0.045234    1.984169
      4         11           0        0.093862    0.188721   -1.941036
      5         11           0       -0.718852   -2.482002   -0.271059
      6         11           0        2.525166   -1.688225   -0.012472
      7         11           0       -1.368836    2.581096   -0.180766
 ---------------------------------------------------------------------

 SCF Done:  E(UB3LYP) =  -1136.13879334     A.U. after   18 cycles

 The electronic state is 2-A.
 Alpha  occ. eigenvalues --  -38.44033 -38.43788 -38.43783 -38.43625 -38.43595
 Alpha  occ. eigenvalues --  -38.43453 -38.42881  -2.19853  -2.19690  -2.19630
 Alpha  occ. eigenvalues --   -2.19532  -2.19486  -2.19284  -2.18794  -1.13529
 Alpha  occ. eigenvalues --   -1.13516  -1.13493  -1.13379  -1.13344  -1.13317
 Alpha  occ. eigenvalues --   -1.13308  -1.13273  -1.13259  -1.13209  -1.13182
 Alpha  occ. eigenvalues --   -1.13159  -1.13153  -1.13134  -1.13123  -1.12965
 Alpha  occ. eigenvalues --   -1.12946  -1.12905  -1.12485  -1.12454  -1.12423
 Alpha  occ. eigenvalues --   -0.18762  -0.13026  -0.12336  -0.11093
 Alpha virt. eigenvalues --   -0.05622  -0.05235  -0.04275  -0.03324  -0.03011
 Alpha virt. eigenvalues --   -0.02855  -0.01513  -0.01069  -0.00280  -0.00073
 Alpha virt. eigenvalues --   -0.00007   0.00370   0.00787   0.00886   0.00949

  Beta  occ. eigenvalues --  -38.44030 -38.43783 -38.43701 -38.43621 -38.43508
  Beta  occ. eigenvalues --  -38.43448 -38.42871  -2.19850  -2.19624  -2.19539
  Beta  occ. eigenvalues --   -2.19483  -2.19374  -2.19278  -2.18781  -1.13530
  Beta  occ. eigenvalues --   -1.13499  -1.13493  -1.13326  -1.13286  -1.13258
  Beta  occ. eigenvalues --   -1.13256  -1.13215  -1.13192  -1.13153  -1.13134
  Beta  occ. eigenvalues --   -1.13113  -1.13102  -1.13065  -1.13040  -1.12944
  Beta  occ. eigenvalues --   -1.12928  -1.12905  -1.12475  -1.12424  -1.12410
  Beta  occ. eigenvalues --   -0.17996  -0.12803  -0.12075
  Beta virt. eigenvalues --   -0.07172  -0.05565  -0.05221  -0.04248  -0.02543
  Beta virt. eigenvalues --   -0.02196  -0.01800  -0.01416  -0.01012  -0.00331
  Beta virt. eigenvalues --   -0.00078   0.00087   0.00383   0.00849   0.00885

 Mulliken charges and spin densities:
               1          2
     1  Na   0.196367  -0.129804
     2  Na  -0.031160  -0.033900
     3  Na  -0.447640   0.725039
     4  Na  -0.252414   0.627821
     5  Na   0.218303   0.000777
     6  Na   0.225132  -0.074176
     7  Na   0.091412  -0.115757
 Sum of Mulliken charges =  -0.00000   1.00000

 Dipole moment (field-independent basis, Debye):
    X=              0.0965    Y=              0.2375    Z=              0.1335  Tot=              0.2891
 Quadrupole moment (field-independent basis, Debye-Ang):
   XX=            -56.1957   YY=            -65.9103   ZZ=            -72.2276
   XY=             -0.2842   XZ=             -0.7575   YZ=              0.2154

 Normal termination of Gaussian 16 at Wed Dec  6 00:51:34 2023.
