 Gaussian 16, Revision B.01,
 Gaussian 16:  ES64L-G16RevB.01 20-Dec-2017

 -------------------------
 #P B3LYP/6-311+g(d) force
 -------------------------

 -----
 DPGEN
 -----
 Symbolic Z-matrix:
 Charge =  0 Multiplicity = 2

                         Standard orientation:
 ---------------------------------------------------------------------
 Center     Atomic      Atomic             Coordinates (Angstroms)
 Number     Number       Type             X           Y           Z
 ---------------------------------------------------------------------
      1         11           0       -3.920602   -0.032495   -1.213411
      2         11           0        0.639991   -0.766802   -1.585969
      3         11           0       -2.108986    1.369144    0.862197
      4         11           0        3.143529   -1.506031   -0.482783
      5         11           0       -1.260153   -1.900646    1.205262
      6         11           0        2.100723    2.305501   -0.855467
      7         11           0        1.405498    0.531329    2.070171
 ---------------------------------------------------------------------

 SCF Done:  E(UB3LYP) =  -1136.11571248     A.U. after   26 cycles

 The electronic state is 2-A.
 Alpha  occ. eigenvalues --  -38.44945 -38.44583 -38.44260 -38.43787 -38.43776
 Alpha  occ. eigenvalues --  -38.43723 -38.43661  -2.20758  -2.20415  -2.20116
 Alpha  occ. eigenvalues --   -2.19643  -2.19639  -2.19590  -2.19506  -1.14445
 Alpha  occ. eigenvalues --   -1.14403  -1.14368  -1.14102  -1.14060  -1.14026
 Alpha  occ. eigenvalues --   -1.13927  -1.13762  -1.13721  -1.13330  -1.13320
 Alpha  occ. eigenvalues --   -1.13300  -1.13295  -1.13270  -1.13265  -1.13252
 Alpha  occ. eigenvalues --   -1.13226  -1.13211  -1.13176  -1.13157  -1.13126
 Alpha  occ. eigenvalues --   -0.18064  -0.14122  -0.11543  -0.10674
 Alpha virt. eigenvalues --   -0.06637  -0.05247  -0.04841  -0.03100  -0.02900
 Alpha virt. eigenvalues --   -0.02651  -0.02051  -0.01206  -0.00871  -0.00335
 Alpha virt. eigenvalues --    0.00051   0.00223   0.00246   0.00533   0.00745

  Beta  occ. eigenvalues --  -38.44901 -38.44526 -38.44263 -38.43780 -38.43741
  Beta  occ. eigenvalues --  -38.43705 -38.43622  -2.20677  -2.20313  -2.20122
  Beta  occ. eigenvalues --   -2.19633  -2.19609  -2.19526  -2.19437  -1.14388
  Beta  occ. eigenvalues --   -1.14345  -1.14316  -1.14034  -1.13982  -1.13947
  Beta  occ. eigenvalues --   -1.13927  -1.13763  -1.13720  -1.13320  -1.13295
  Beta  occ. eigenvalues --   -1.13272  -1.13258  -1.13254  -1.13246  -1.13210
  Beta  occ. eigenvalues --   -1.13190  -1.13163  -1.13126  -1.13114  -1.13063
  Beta  occ. eigenvalues --   -0.17353  -0.13734  -0.10565
  Beta virt. eigenvalues --   -0.07794  -0.06273  -0.05068  -0.04375  -0.02862
  Beta virt. eigenvalues --   -0.02370  -0.02178  -0.01698  -0.00992  -0.00551
  Beta virt. eigenvalues --   -0.00106   0.00131   0.00272   0.00291   0.00599

 Mulliken charges and spin densities:
               1          2
     1  Na   0.176160   0.058204
     2  Na  -0.217396   0.350191
     3  Na  -0.272670   0.202174
     4  Na   0.440470  -0.054340
     5  Na  -0.113185   0.178587
     6  Na  -0.288699   0.023574
     7  Na   0.275320   0.241610
 Sum of Mulliken charges =  -0.00000   1.00000

 Dipole moment (field-independent basis, Debye):
    X=             -0.5465    Y=             -0.2921    Z=             -0.0769  Tot=              0.6244
 Quadrupole moment (field-independent basis, Debye-Ang):
   XX=            -52.6844   YY=            -75.5099   ZZ=            -67.8851
   XY=              0.6070   XZ=              4.0785   YZ=             -6.9579

 Normal termination of Gaussian 16 at Tue Dec  5 10:48:32 2023.
