 Gaussian 16, Revision B.01,
 Gaussian 16:  ES64L-G16RevB.01 20-Dec-2017

 -------------------------
 #P B3LYP/6-311+g(d) force
 -------------------------

 -----
 DPGEN
 -----
 Symbolic Z-matrix:
 Charge =  0 Multiplicity = 2

                         Standard orientation:
 ---------------------------------------------------------------------
 Center     Atomic      Atomic             Coordinates (Angstroms)
 Number     Number       Type             X           Y           Z
 ---------------------------------------------------------------------
      1         11           0        1.078725   -2.013666   -0.459420
      2         11           0        4.574146   -0.665888   -0.665923
      3         11           0        2.321739    1.837858   -0.557832
      4         11           0       -0.716241    2.507782    0.307346
      5         11           0       -2.364156   -0.810482   -0.371290
      6         11           0        0.380475   -0.651076    2.368563
      7         11           0       -5.274688   -0.204528   -0.621444
 ---------------------------------------------------------------------

 SCF Done:  E(UB3LYP) =  -1136.11330120     A.U. after   28 cycles

 The electronic state is 2-A.
 Alpha  occ. eigenvalues --  -38.46328 -38.44553 -38.44337 -38.44208 -38.43758
 Alpha  occ. eigenvalues --  -38.43538 -38.42578  -2.22139  -2.20379  -2.20161
 Alpha  occ. eigenvalues --   -2.20012  -2.19608  -2.19391  -2.18404  -1.15810
 Alpha  occ. eigenvalues --   -1.15782  -1.15734  -1.14068  -1.14005  -1.14000
 Alpha  occ. eigenvalues --   -1.13865  -1.13837  -1.13767  -1.13681  -1.13667
 Alpha  occ. eigenvalues --   -1.13623  -1.13298  -1.13263  -1.13227  -1.13089
 Alpha  occ. eigenvalues --   -1.13058  -1.13032  -1.12086  -1.12051  -1.12046
 Alpha  occ. eigenvalues --   -0.17429  -0.13871  -0.12058  -0.11285
 Alpha virt. eigenvalues --   -0.06822  -0.05057  -0.04610  -0.03378  -0.02827
 Alpha virt. eigenvalues --   -0.02454  -0.02207  -0.01672  -0.01335  -0.00502
 Alpha virt. eigenvalues --   -0.00360   0.00051   0.00430   0.00542   0.00679

  Beta  occ. eigenvalues --  -38.46253 -38.44489 -38.44323 -38.44161 -38.43720
  Beta  occ. eigenvalues --  -38.43541 -38.42573  -2.22002  -2.20260  -2.20141
  Beta  occ. eigenvalues --   -2.19925  -2.19540  -2.19403  -2.18395  -1.15714
  Beta  occ. eigenvalues --   -1.15687  -1.15636  -1.13989  -1.13924  -1.13919
  Beta  occ. eigenvalues --   -1.13839  -1.13828  -1.13742  -1.13613  -1.13606
  Beta  occ. eigenvalues --   -1.13572  -1.13252  -1.13222  -1.13166  -1.13095
  Beta  occ. eigenvalues --   -1.13054  -1.13015  -1.12077  -1.12048  -1.12039
  Beta  occ. eigenvalues --   -0.16778  -0.13019  -0.11071
  Beta virt. eigenvalues --   -0.08613  -0.06463  -0.04684  -0.04243  -0.03158
  Beta virt. eigenvalues --   -0.02563  -0.02040  -0.01896  -0.01286  -0.01073
  Beta virt. eigenvalues --   -0.00311  -0.00252   0.00140   0.00525   0.00671

 Mulliken charges and spin densities:
               1          2
     1  Na   0.974051  -0.106218
     2  Na   0.062275   0.209324
     3  Na  -0.081620   0.231191
     4  Na   0.103581   0.030730
     5  Na  -0.949010   0.395687
     6  Na   0.333973   0.204218
     7  Na  -0.443249   0.035068
 Sum of Mulliken charges =  -0.00000   1.00000

 Dipole moment (field-independent basis, Debye):
    X=              0.1921    Y=             -0.3641    Z=              1.2600  Tot=              1.3255
 Quadrupole moment (field-independent basis, Debye-Ang):
   XX=            -56.5891   YY=            -77.3163   ZZ=            -63.8120
   XY=             -3.3624   XZ=              0.7402   YZ=             -1.7814

 Normal termination of Gaussian 16 at Tue Nov 28 23:26:55 2023.
