 Gaussian 16, Revision B.01,
 Gaussian 16:  ES64L-G16RevB.01 20-Dec-2017

 -------------------------
 #P B3LYP/6-311+g(d) force
 -------------------------

 -----
 DPGEN
 -----
 Symbolic Z-matrix:
 Charge =  0 Multiplicity = 2

                         Standard orientation:
 ---------------------------------------------------------------------
 Center     Atomic      Atomic             Coordinates (Angstroms)
 Number     Number       Type             X           Y           Z
 ---------------------------------------------------------------------
      1         11           0       -0.658766    1.328371    0.048002
      2         11           0        2.399810    3.558843    0.449843
      3         11           0        3.175894    0.561328   -0.456927
      4         11           0        3.819561   -2.579838   -0.258632
      5         11           0        0.734889   -2.042305    0.062450
      6         11           0       -3.682917   -1.366413    1.065727
      7         11           0       -5.788471    0.540014   -0.910462
 ---------------------------------------------------------------------

 SCF Done:  E(UB3LYP) =  -1136.12060908     A.U. after   20 cycles

 The electronic state is 2-A.
 Alpha  occ. eigenvalues --  -38.44750 -38.44715 -38.44563 -38.44027 -38.43814
 Alpha  occ. eigenvalues --  -38.43507 -38.43501  -2.20525  -2.20454  -2.20347
 Alpha  occ. eigenvalues --   -2.19878  -2.19703  -2.19374  -2.19308  -1.14226
 Alpha  occ. eigenvalues --   -1.14215  -1.14148  -1.14123  -1.14106  -1.14092
 Alpha  occ. eigenvalues --   -1.13993  -1.13991  -1.13949  -1.13564  -1.13556
 Alpha  occ. eigenvalues --   -1.13506  -1.13397  -1.13377  -1.13345  -1.13031
 Alpha  occ. eigenvalues --   -1.13014  -1.13004  -1.12976  -1.12966  -1.12926
 Alpha  occ. eigenvalues --   -0.16677  -0.13850  -0.12345  -0.10955
 Alpha virt. eigenvalues --   -0.06142  -0.05153  -0.04970  -0.03837  -0.03035
 Alpha virt. eigenvalues --   -0.02282  -0.01830  -0.01567  -0.01167  -0.00870
 Alpha virt. eigenvalues --   -0.00281  -0.00018   0.00110   0.00270   0.00658

  Beta  occ. eigenvalues --  -38.44732 -38.44711 -38.44478 -38.43992 -38.43786
  Beta  occ. eigenvalues --  -38.43490 -38.43487  -2.20491  -2.20454  -2.20187
  Beta  occ. eigenvalues --   -2.19816  -2.19654  -2.19337  -2.19287  -1.14180
  Beta  occ. eigenvalues --   -1.14177  -1.14156  -1.14149  -1.14093  -1.14046
  Beta  occ. eigenvalues --   -1.13883  -1.13880  -1.13849  -1.13523  -1.13518
  Beta  occ. eigenvalues --   -1.13444  -1.13365  -1.13337  -1.13304  -1.12996
  Beta  occ. eigenvalues --   -1.12990  -1.12984  -1.12956  -1.12950  -1.12915
  Beta  occ. eigenvalues --   -0.16072  -0.13192  -0.12222
  Beta virt. eigenvalues --   -0.07497  -0.05784  -0.04969  -0.04439  -0.03641
  Beta virt. eigenvalues --   -0.02664  -0.02108  -0.01656  -0.01272  -0.01024
  Beta virt. eigenvalues --   -0.00457  -0.00041   0.00148   0.00313   0.00428

 Mulliken charges and spin densities:
               1          2
     1  Na  -0.721605  -0.030592
     2  Na   0.714638   0.133114
     3  Na  -0.934762   0.274872
     4  Na   1.571841   0.146153
     5  Na  -0.821039   0.121896
     6  Na  -0.002987  -0.084159
     7  Na   0.193914   0.438718
 Sum of Mulliken charges =  -0.00000   1.00000

 Dipole moment (field-independent basis, Debye):
    X=             -0.0610    Y=             -0.1230    Z=              0.1286  Tot=              0.1881
 Quadrupole moment (field-independent basis, Debye-Ang):
   XX=            -65.6652   YY=            -62.0854   ZZ=            -70.2344
   XY=             -2.5222   XZ=              1.2390   YZ=             -2.1916

 Normal termination of Gaussian 16 at Wed Nov 29 03:26:58 2023.
