 Gaussian 16, Revision B.01,
 Gaussian 16:  ES64L-G16RevB.01 20-Dec-2017

 -------------------------
 #P B3LYP/6-311+g(d) force
 -------------------------

 -----
 DPGEN
 -----
 Symbolic Z-matrix:
 Charge =  0 Multiplicity = 2

                         Standard orientation:
 ---------------------------------------------------------------------
 Center     Atomic      Atomic             Coordinates (Angstroms)
 Number     Number       Type             X           Y           Z
 ---------------------------------------------------------------------
      1         11           0       -1.956680   -1.574613    0.692852
      2         11           0       -4.898130   -1.068277   -0.643298
      3         11           0       -5.424016    1.811142    0.473628
      4         11           0       -1.003427    1.140819   -0.776372
      5         11           0        1.667974   -1.064235   -0.263136
      6         11           0        4.658617    0.358170    1.374732
      7         11           0        6.955662    0.396995   -0.858406
 ---------------------------------------------------------------------

 SCF Done:  E(UB3LYP) =  -1136.11016052     A.U. after   21 cycles

 The electronic state is 2-A.
 Alpha  occ. eigenvalues --  -38.45115 -38.44964 -38.44640 -38.44410 -38.43667
 Alpha  occ. eigenvalues --  -38.43599 -38.43540  -2.20916  -2.20733  -2.20431
 Alpha  occ. eigenvalues --   -2.20198  -2.19551  -2.19414  -2.19394  -1.14612
 Alpha  occ. eigenvalues --   -1.14594  -1.14506  -1.14398  -1.14393  -1.14386
 Alpha  occ. eigenvalues --   -1.14100  -1.14090  -1.14061  -1.13889  -1.13875
 Alpha  occ. eigenvalues --   -1.13803  -1.13243  -1.13216  -1.13162  -1.13148
 Alpha  occ. eigenvalues --   -1.13066  -1.13054  -1.13042  -1.13029  -1.12970
 Alpha  occ. eigenvalues --   -0.16344  -0.14276  -0.12181  -0.09980
 Alpha virt. eigenvalues --   -0.07144  -0.05378  -0.05045  -0.03399  -0.02982
 Alpha virt. eigenvalues --   -0.02505  -0.02086  -0.01911  -0.01010  -0.00851
 Alpha virt. eigenvalues --   -0.00525  -0.00145   0.00146   0.00306   0.00493

  Beta  occ. eigenvalues --  -38.45088 -38.44956 -38.44642 -38.44409 -38.43595
  Beta  occ. eigenvalues --  -38.43542 -38.43519  -2.20868  -2.20719  -2.20434
  Beta  occ. eigenvalues --   -2.20197  -2.19421  -2.19363  -2.19305  -1.14577
  Beta  occ. eigenvalues --   -1.14553  -1.14472  -1.14388  -1.14383  -1.14377
  Beta  occ. eigenvalues --   -1.14104  -1.14091  -1.14060  -1.13889  -1.13865
  Beta  occ. eigenvalues --   -1.13806  -1.13162  -1.13120  -1.13099  -1.13072
  Beta  occ. eigenvalues --   -1.13037  -1.12991  -1.12976  -1.12965  -1.12909
  Beta  occ. eigenvalues --   -0.15817  -0.14051  -0.11931
  Beta virt. eigenvalues --   -0.07029  -0.06288  -0.05176  -0.04660  -0.03185
  Beta virt. eigenvalues --   -0.02822  -0.02238  -0.01759  -0.01529  -0.00967
  Beta virt. eigenvalues --   -0.00512  -0.00260   0.00092   0.00251   0.00483

 Mulliken charges and spin densities:
               1          2
     1  Na  -0.164703   0.577218
     2  Na   0.376698  -0.001780
     3  Na  -0.043020   0.291033
     4  Na  -0.020730   0.137174
     5  Na  -0.327141  -0.035226
     6  Na  -0.025800  -0.004246
     7  Na   0.204696   0.035827
 Sum of Mulliken charges =  -0.00000   1.00000

 Dipole moment (field-independent basis, Debye):
    X=              2.4454    Y=              0.0553    Z=             -0.3877  Tot=              2.4765
 Quadrupole moment (field-independent basis, Debye-Ang):
   XX=            -63.7912   YY=            -72.6430   ZZ=            -64.8987
   XY=              0.2013   XZ=             -4.2764   YZ=              1.2893

 Normal termination of Gaussian 16 at Tue Nov 28 21:52:20 2023.
