 Gaussian 16, Revision B.01,
 Gaussian 16:  ES64L-G16RevB.01 20-Dec-2017

 -------------------------
 #P B3LYP/6-311+g(d) force
 -------------------------

 -----
 DPGEN
 -----
 Symbolic Z-matrix:
 Charge =  0 Multiplicity = 2

                         Standard orientation:
 ---------------------------------------------------------------------
 Center     Atomic      Atomic             Coordinates (Angstroms)
 Number     Number       Type             X           Y           Z
 ---------------------------------------------------------------------
      1         11           0       -0.143122   -0.391808   -1.690293
      2         11           0       -0.073913    3.068767   -0.132789
      3         11           0        2.770344    1.230848   -0.308247
      4         11           0        2.093121   -2.462675    0.048786
      5         11           0       -2.154863   -2.340664   -0.109879
      6         11           0        0.495303   -0.130212    1.956194
      7         11           0       -2.986871    1.025744    0.236227
 ---------------------------------------------------------------------

 SCF Done:  E(UB3LYP) =  -1136.13769967     A.U. after   19 cycles

 The electronic state is 2-A.
 Alpha  occ. eigenvalues --  -38.44001 -38.43996 -38.43930 -38.43907 -38.43472
 Alpha  occ. eigenvalues --  -38.43405 -38.43234  -2.19823  -2.19809  -2.19749
 Alpha  occ. eigenvalues --   -2.19738  -2.19356  -2.19227  -2.19163  -1.13523
 Alpha  occ. eigenvalues --   -1.13487  -1.13483  -1.13476  -1.13457  -1.13447
 Alpha  occ. eigenvalues --   -1.13425  -1.13421  -1.13411  -1.13399  -1.13377
 Alpha  occ. eigenvalues --   -1.13371  -1.13026  -1.12986  -1.12974  -1.12896
 Alpha  occ. eigenvalues --   -1.12888  -1.12876  -1.12844  -1.12798  -1.12784
 Alpha  occ. eigenvalues --   -0.18297  -0.12959  -0.12486  -0.10453
 Alpha virt. eigenvalues --   -0.05753  -0.05327  -0.04953  -0.03138  -0.02850
 Alpha virt. eigenvalues --   -0.02384  -0.01489  -0.01359  -0.00638  -0.00505
 Alpha virt. eigenvalues --   -0.00007   0.00357   0.00795   0.00817   0.00852

  Beta  occ. eigenvalues --  -38.43997 -38.43991 -38.43927 -38.43897 -38.43403
  Beta  occ. eigenvalues --  -38.43386 -38.43167  -2.19819  -2.19804  -2.19735
  Beta  occ. eigenvalues --   -2.19733  -2.19226  -2.19197  -2.19043  -1.13514
  Beta  occ. eigenvalues --   -1.13477  -1.13469  -1.13457  -1.13455  -1.13445
  Beta  occ. eigenvalues --   -1.13418  -1.13400  -1.13389  -1.13387  -1.13370
  Beta  occ. eigenvalues --   -1.13369  -1.12921  -1.12892  -1.12885  -1.12874
  Beta  occ. eigenvalues --   -1.12868  -1.12855  -1.12760  -1.12708  -1.12700
  Beta  occ. eigenvalues --   -0.17593  -0.12741  -0.12258
  Beta virt. eigenvalues --   -0.06615  -0.05742  -0.05243  -0.04897  -0.02381
  Beta virt. eigenvalues --   -0.02124  -0.01401  -0.01385  -0.01251  -0.00685
  Beta virt. eigenvalues --   -0.00551   0.00140   0.00391   0.00795   0.00851

 Mulliken charges and spin densities:
               1          2
     1  Na  -0.077018   0.568909
     2  Na  -0.088835  -0.053117
     3  Na   0.205172  -0.024481
     4  Na   0.184188  -0.146777
     5  Na   0.179131  -0.119406
     6  Na  -0.353142   0.787898
     7  Na  -0.049497  -0.013026
 Sum of Mulliken charges =  -0.00000   1.00000

 Dipole moment (field-independent basis, Debye):
    X=              0.0418    Y=             -0.3351    Z=              0.0537  Tot=              0.3420
 Quadrupole moment (field-independent basis, Debye-Ang):
   XX=            -57.3326   YY=            -59.9832   ZZ=            -75.8301
   XY=             -0.4733   XZ=             -1.5944   YZ=             -0.4285

 Normal termination of Gaussian 16 at Tue Dec  5 17:44:33 2023.
