 Gaussian 16, Revision B.01,
 Gaussian 16:  ES64L-G16RevB.01 20-Dec-2017

 -------------------------
 #P B3LYP/6-311+g(d) force
 -------------------------

 -----
 DPGEN
 -----
 Symbolic Z-matrix:
 Charge =  0 Multiplicity = 2

                         Standard orientation:
 ---------------------------------------------------------------------
 Center     Atomic      Atomic             Coordinates (Angstroms)
 Number     Number       Type             X           Y           Z
 ---------------------------------------------------------------------
      1         11           0        0.438279   -0.237648   -1.137885
      2         11           0        2.828509    1.379816    0.034235
      3         11           0       -0.170550   -0.916802    2.123369
      4         11           0       -2.885896    0.962907    0.243672
      5         11           0        2.402866   -2.095799   -0.180328
      6         11           0       -2.207755   -2.345724   -0.810856
      7         11           0       -0.405452    3.253251   -0.272206
 ---------------------------------------------------------------------

 SCF Done:  E(UB3LYP) =  -1136.12883564     A.U. after   19 cycles

 The electronic state is 2-A.
 Alpha  occ. eigenvalues --  -38.44376 -38.44324 -38.44057 -38.43902 -38.43456
 Alpha  occ. eigenvalues --  -38.43449 -38.43058  -2.20251  -2.20158  -2.19874
 Alpha  occ. eigenvalues --   -2.19720  -2.19320  -2.19246  -2.19114  -1.14026
 Alpha  occ. eigenvalues --   -1.13889  -1.13877  -1.13852  -1.13818  -1.13764
 Alpha  occ. eigenvalues --   -1.13549  -1.13546  -1.13516  -1.13394  -1.13361
 Alpha  occ. eigenvalues --   -1.13353  -1.12998  -1.12945  -1.12926  -1.12921
 Alpha  occ. eigenvalues --   -1.12907  -1.12890  -1.12798  -1.12766  -1.12730
 Alpha  occ. eigenvalues --   -0.18291  -0.13261  -0.12400  -0.10308
 Alpha virt. eigenvalues --   -0.05924  -0.05519  -0.04911  -0.03151  -0.02585
 Alpha virt. eigenvalues --   -0.02187  -0.01659  -0.01413  -0.00692  -0.00610
 Alpha virt. eigenvalues --   -0.00019   0.00317   0.00738   0.00764   0.00809

  Beta  occ. eigenvalues --  -38.44370 -38.44323 -38.44054 -38.43874 -38.43451
  Beta  occ. eigenvalues --  -38.43355 -38.43022  -2.20244  -2.20157  -2.19871
  Beta  occ. eigenvalues --   -2.19669  -2.19251  -2.19132  -2.19051  -1.14018
  Beta  occ. eigenvalues --   -1.13880  -1.13853  -1.13850  -1.13804  -1.13766
  Beta  occ. eigenvalues --   -1.13546  -1.13526  -1.13518  -1.13351  -1.13327
  Beta  occ. eigenvalues --   -1.13316  -1.12921  -1.12907  -1.12894  -1.12875
  Beta  occ. eigenvalues --   -1.12815  -1.12793  -1.12743  -1.12708  -1.12684
  Beta  occ. eigenvalues --   -0.17646  -0.13049  -0.12191
  Beta virt. eigenvalues --   -0.06431  -0.05852  -0.05454  -0.04772  -0.02432
  Beta virt. eigenvalues --   -0.02006  -0.01574  -0.01353  -0.01173  -0.00719
  Beta virt. eigenvalues --   -0.00559   0.00184   0.00386   0.00750   0.00828

 Mulliken charges and spin densities:
               1          2
     1  Na  -0.238731   0.105864
     2  Na   0.183270   0.081657
     3  Na  -0.446055   0.614566
     4  Na   0.158054   0.088402
     5  Na   0.381009   0.041904
     6  Na   0.104509   0.099665
     7  Na  -0.142056  -0.032058
 Sum of Mulliken charges =  -0.00000   1.00000

 Dipole moment (field-independent basis, Debye):
    X=              0.3652    Y=             -0.2465    Z=              0.2139  Tot=              0.4898
 Quadrupole moment (field-independent basis, Debye-Ang):
   XX=            -55.2200   YY=            -60.7502   ZZ=            -76.6674
   XY=             -0.3088   XZ=              0.8517   YZ=              1.3984

 Normal termination of Gaussian 16 at Thu Dec  7 14:01:49 2023.
