 Gaussian 16, Revision B.01,
 Gaussian 16:  ES64L-G16RevB.01 20-Dec-2017

 -------------------------
 #P B3LYP/6-311+g(d) force
 -------------------------

 -----
 DPGEN
 -----
 Symbolic Z-matrix:
 Charge =  0 Multiplicity = 2

                         Standard orientation:
 ---------------------------------------------------------------------
 Center     Atomic      Atomic             Coordinates (Angstroms)
 Number     Number       Type             X           Y           Z
 ---------------------------------------------------------------------
      1         11           0       -0.135336    0.056283   -1.616568
      2         11           0        0.195900    0.242728    2.430568
      3         11           0       -1.950323    2.155526    0.494518
      4         11           0       -0.449440   -2.476722    0.802554
      5         11           0        3.223990   -1.301405   -0.472139
      6         11           0       -2.944322   -0.903433   -1.104718
      7         11           0        2.059530    2.227022   -0.534215
 ---------------------------------------------------------------------

 SCF Done:  E(UB3LYP) =  -1136.12853696     A.U. after   21 cycles

 The electronic state is 2-A.
 Alpha  occ. eigenvalues --  -38.44761 -38.44376 -38.43874 -38.43681 -38.43627
 Alpha  occ. eigenvalues --  -38.43515 -38.43041  -2.20625  -2.20133  -2.19749
 Alpha  occ. eigenvalues --   -2.19603  -2.19489  -2.19342  -2.18897  -1.14292
 Alpha  occ. eigenvalues --   -1.14243  -1.14236  -1.13818  -1.13777  -1.13776
 Alpha  occ. eigenvalues --   -1.13532  -1.13383  -1.13361  -1.13291  -1.13252
 Alpha  occ. eigenvalues --   -1.13209  -1.13164  -1.13139  -1.13099  -1.13027
 Alpha  occ. eigenvalues --   -1.12998  -1.12969  -1.12604  -1.12552  -1.12509
 Alpha  occ. eigenvalues --   -0.18271  -0.12917  -0.11930  -0.11695
 Alpha virt. eigenvalues --   -0.05719  -0.05011  -0.04200  -0.03411  -0.03261
 Alpha virt. eigenvalues --   -0.03243  -0.01636  -0.01016  -0.00415   0.00002
 Alpha virt. eigenvalues --    0.00162   0.00335   0.00638   0.00752   0.00832

  Beta  occ. eigenvalues --  -38.44647 -38.44374 -38.43847 -38.43676 -38.43580
  Beta  occ. eigenvalues --  -38.43505 -38.43023  -2.20418  -2.20131  -2.19700
  Beta  occ. eigenvalues --   -2.19518  -2.19481  -2.19325  -2.18867  -1.14152
  Beta  occ. eigenvalues --   -1.14098  -1.14085  -1.13812  -1.13777  -1.13772
  Beta  occ. eigenvalues --   -1.13480  -1.13349  -1.13330  -1.13241  -1.13207
  Beta  occ. eigenvalues --   -1.13156  -1.13145  -1.13117  -1.13091  -1.13007
  Beta  occ. eigenvalues --   -1.12978  -1.12957  -1.12575  -1.12516  -1.12493
  Beta  occ. eigenvalues --   -0.17520  -0.12625  -0.11482
  Beta virt. eigenvalues --   -0.07912  -0.05657  -0.04928  -0.03834  -0.02928
  Beta virt. eigenvalues --   -0.02493  -0.02344  -0.01530  -0.00957  -0.00260
  Beta virt. eigenvalues --    0.00059   0.00159   0.00372   0.00815   0.00826

 Mulliken charges and spin densities:
               1          2
     1  Na  -0.041051   0.325357
     2  Na   0.161008   0.476983
     3  Na  -0.318783   0.090283
     4  Na  -0.342860   0.132664
     5  Na  -0.052790  -0.043180
     6  Na   0.581006   0.062717
     7  Na   0.013470  -0.044825
 Sum of Mulliken charges =  -0.00000   1.00000

 Dipole moment (field-independent basis, Debye):
    X=              0.2572    Y=              0.0927    Z=              0.1751  Tot=              0.3246
 Quadrupole moment (field-independent basis, Debye-Ang):
   XX=            -56.9386   YY=            -69.3037   ZZ=            -68.5533
   XY=             -0.3556   XZ=              0.5367   YZ=              1.1716

 Normal termination of Gaussian 16 at Mon Dec  4 05:39:01 2023.
