 Gaussian 16, Revision B.01,
 Gaussian 16:  ES64L-G16RevB.01 20-Dec-2017

 -------------------------
 #P B3LYP/6-311+g(d) force
 -------------------------

 -----
 DPGEN
 -----
 Symbolic Z-matrix:
 Charge =  0 Multiplicity = 2

                         Standard orientation:
 ---------------------------------------------------------------------
 Center     Atomic      Atomic             Coordinates (Angstroms)
 Number     Number       Type             X           Y           Z
 ---------------------------------------------------------------------
      1         11           0        3.992418    0.963724   -0.199769
      2         11           0        0.790976    2.903962   -0.875588
      3         11           0        2.701171   -1.714337    0.436659
      4         11           0       -2.626316    2.601931    0.784260
      5         11           0       -0.565788   -1.578724    2.302824
      6         11           0       -0.885684   -2.536749   -1.851516
      7         11           0       -3.406778   -0.639806   -0.596870
 ---------------------------------------------------------------------

 SCF Done:  E(UB3LYP) =  -1136.10974764     A.U. after   21 cycles

 The electronic state is 2-A.
 Alpha  occ. eigenvalues --  -38.45039 -38.44771 -38.44706 -38.44434 -38.44379
 Alpha  occ. eigenvalues --  -38.44367 -38.44200  -2.20752  -2.20553  -2.20475
 Alpha  occ. eigenvalues --   -2.20236  -2.20185  -2.20153  -2.19959  -1.14447
 Alpha  occ. eigenvalues --   -1.14432  -1.14371  -1.14236  -1.14213  -1.14194
 Alpha  occ. eigenvalues --   -1.14134  -1.14104  -1.14096  -1.14015  -1.13904
 Alpha  occ. eigenvalues --   -1.13888  -1.13836  -1.13815  -1.13810  -1.13792
 Alpha  occ. eigenvalues --   -1.13778  -1.13774  -1.13630  -1.13612  -1.13599
 Alpha  occ. eigenvalues --   -0.16203  -0.13552  -0.12345  -0.10783
 Alpha virt. eigenvalues --   -0.07051  -0.06281  -0.04087  -0.03625  -0.03222
 Alpha virt. eigenvalues --   -0.02501  -0.02140  -0.01807  -0.01136  -0.00700
 Alpha virt. eigenvalues --   -0.00228  -0.00179   0.00038   0.00349   0.00606

  Beta  occ. eigenvalues --  -38.45046 -38.44754 -38.44619 -38.44433 -38.44370
  Beta  occ. eigenvalues --  -38.44302 -38.44183  -2.20766  -2.20525  -2.20311
  Beta  occ. eigenvalues --   -2.20235  -2.20168  -2.20034  -2.19928  -1.14457
  Beta  occ. eigenvalues --   -1.14443  -1.14376  -1.14213  -1.14200  -1.14149
  Beta  occ. eigenvalues --   -1.14023  -1.14012  -1.13992  -1.13982  -1.13898
  Beta  occ. eigenvalues --   -1.13881  -1.13823  -1.13798  -1.13769  -1.13735
  Beta  occ. eigenvalues --   -1.13711  -1.13687  -1.13607  -1.13591  -1.13580
  Beta  occ. eigenvalues --   -0.15686  -0.13281  -0.12002
  Beta virt. eigenvalues --   -0.07249  -0.06924  -0.05940  -0.03656  -0.03291
  Beta virt. eigenvalues --   -0.02905  -0.02086  -0.01870  -0.01585  -0.01029
  Beta virt. eigenvalues --   -0.00570  -0.00065   0.00098   0.00213   0.00410

 Mulliken charges and spin densities:
               1          2
     1  Na   0.444079  -0.004373
     2  Na  -0.343788  -0.033650
     3  Na  -0.389050   0.120717
     4  Na   0.072677   0.098422
     5  Na   0.086543   0.410234
     6  Na   0.146904   0.314944
     7  Na  -0.017365   0.093708
 Sum of Mulliken charges =  -0.00000   1.00000

 Dipole moment (field-independent basis, Debye):
    X=              0.0987    Y=              0.1319    Z=             -0.0820  Tot=              0.1840
 Quadrupole moment (field-independent basis, Debye-Ang):
   XX=            -58.8402   YY=            -70.2352   ZZ=            -72.2491
   XY=             -1.4826   XZ=             -3.2497   YZ=              0.6818

 Normal termination of Gaussian 16 at Sun Dec  3 15:36:23 2023.
