 Gaussian 16, Revision B.01,
 Gaussian 16:  ES64L-G16RevB.01 20-Dec-2017

 -------------------------
 #P B3LYP/6-311+g(d) force
 -------------------------

 -----
 DPGEN
 -----
 Symbolic Z-matrix:
 Charge =  0 Multiplicity = 2

                         Standard orientation:
 ---------------------------------------------------------------------
 Center     Atomic      Atomic             Coordinates (Angstroms)
 Number     Number       Type             X           Y           Z
 ---------------------------------------------------------------------
      1         11           0       -2.183271    2.169746    0.107728
      2         11           0       -2.789355   -1.356943    0.089769
      3         11           0        1.244476    2.558114   -0.441550
      4         11           0        0.379750    0.187204    1.923734
      5         11           0        0.422830   -2.899910   -0.066708
      6         11           0        2.974761   -0.366628    0.083805
      7         11           0       -0.049190   -0.291583   -1.696779
 ---------------------------------------------------------------------

 SCF Done:  E(UB3LYP) =  -1136.14031200     A.U. after   18 cycles

 The electronic state is 2-A.
 Alpha  occ. eigenvalues --  -38.43812 -38.43650 -38.43621 -38.43516 -38.43416
 Alpha  occ. eigenvalues --  -38.43410 -38.43134  -2.19634  -2.19530  -2.19444
 Alpha  occ. eigenvalues --   -2.19387  -2.19343  -2.19290  -2.19120  -1.13315
 Alpha  occ. eigenvalues --   -1.13299  -1.13274  -1.13240  -1.13196  -1.13169
 Alpha  occ. eigenvalues --   -1.13118  -1.13115  -1.13111  -1.13089  -1.13048
 Alpha  occ. eigenvalues --   -1.13015  -1.13000  -1.12978  -1.12975  -1.12957
 Alpha  occ. eigenvalues --   -1.12928  -1.12912  -1.12790  -1.12743  -1.12732
 Alpha  occ. eigenvalues --   -0.18841  -0.12893  -0.12721  -0.10726
 Alpha virt. eigenvalues --   -0.05365  -0.05174  -0.04875  -0.03107  -0.02988
 Alpha virt. eigenvalues --   -0.02466  -0.01335  -0.01160  -0.00353  -0.00299
 Alpha virt. eigenvalues --    0.00010   0.00370   0.00862   0.00893   0.00911

  Beta  occ. eigenvalues --  -38.43810 -38.43643 -38.43619 -38.43510 -38.43396
  Beta  occ. eigenvalues --  -38.43330 -38.43063  -2.19634  -2.19521  -2.19443
  Beta  occ. eigenvalues --   -2.19380  -2.19269  -2.19186  -2.18991  -1.13310
  Beta  occ. eigenvalues --   -1.13291  -1.13274  -1.13225  -1.13167  -1.13160
  Beta  occ. eigenvalues --   -1.13112  -1.13101  -1.13097  -1.13089  -1.13022
  Beta  occ. eigenvalues --   -1.12998  -1.12967  -1.12922  -1.12903  -1.12898
  Beta  occ. eigenvalues --   -1.12848  -1.12841  -1.12705  -1.12652  -1.12639
  Beta  occ. eigenvalues --   -0.18106  -0.12655  -0.12472
  Beta virt. eigenvalues --   -0.06807  -0.05358  -0.05162  -0.04812  -0.02323
  Beta virt. eigenvalues --   -0.02207  -0.01419  -0.01251  -0.01088  -0.00400
  Beta virt. eigenvalues --   -0.00347   0.00140   0.00393   0.00875   0.00906

 Mulliken charges and spin densities:
               1          2
     1  Na  -0.040457  -0.084028
     2  Na  -0.043926  -0.098820
     3  Na   0.135296  -0.020650
     4  Na  -0.443256   0.777090
     5  Na   0.176792  -0.111307
     6  Na   0.381138  -0.024857
     7  Na  -0.165586   0.562573
 Sum of Mulliken charges =  -0.00000   1.00000

 Dipole moment (field-independent basis, Debye):
    X=             -0.0663    Y=             -0.0796    Z=              0.1128  Tot=              0.1531
 Quadrupole moment (field-independent basis, Debye-Ang):
   XX=            -58.0637   YY=            -60.9037   ZZ=            -74.4026
   XY=             -0.1466   XZ=             -1.0367   YZ=             -1.0408

 Normal termination of Gaussian 16 at Fri Dec  8 06:11:58 2023.
