 Gaussian 16, Revision B.01,
 Gaussian 16:  ES64L-G16RevB.01 20-Dec-2017

 -------------------------
 #P B3LYP/6-311+g(d) force
 -------------------------

 -----
 DPGEN
 -----
 Symbolic Z-matrix:
 Charge =  0 Multiplicity = 2

                         Standard orientation:
 ---------------------------------------------------------------------
 Center     Atomic      Atomic             Coordinates (Angstroms)
 Number     Number       Type             X           Y           Z
 ---------------------------------------------------------------------
      1         11           0       -3.342964   -0.748497    0.344000
      2         11           0       -2.560806    2.271732    0.428837
      3         11           0       -1.353599   -3.297359   -0.932743
      4         11           0        0.949308    3.466110   -0.293862
      5         11           0        0.137158   -0.181996    0.001917
      6         11           0        3.004488   -2.271228    1.027997
      7         11           0        3.166416    0.761239   -0.576145
 ---------------------------------------------------------------------

 SCF Done:  E(UB3LYP) =  -1136.12809417     A.U. after   21 cycles

 The electronic state is 2-A.
 Alpha  occ. eigenvalues --  -38.44332 -38.44046 -38.43934 -38.43891 -38.43741
 Alpha  occ. eigenvalues --  -38.43650 -38.43503  -2.20180  -2.19909  -2.19783
 Alpha  occ. eigenvalues --   -2.19746  -2.19558  -2.19458  -2.19357  -1.13894
 Alpha  occ. eigenvalues --   -1.13855  -1.13797  -1.13611  -1.13582  -1.13550
 Alpha  occ. eigenvalues --   -1.13523  -1.13424  -1.13418  -1.13400  -1.13387
 Alpha  occ. eigenvalues --   -1.13358  -1.13211  -1.13195  -1.13179  -1.13128
 Alpha  occ. eigenvalues --   -1.13103  -1.13098  -1.13019  -1.13013  -1.12975
 Alpha  occ. eigenvalues --   -0.17133  -0.14027  -0.12906  -0.10172
 Alpha virt. eigenvalues --   -0.06079  -0.05716  -0.04481  -0.03329  -0.02786
 Alpha virt. eigenvalues --   -0.02054  -0.01895  -0.01590  -0.01254  -0.00482
 Alpha virt. eigenvalues --   -0.00145   0.00168   0.00536   0.00625   0.00660

  Beta  occ. eigenvalues --  -38.44324 -38.44030 -38.43903 -38.43871 -38.43676
  Beta  occ. eigenvalues --  -38.43620 -38.43460  -2.20172  -2.19887  -2.19803
  Beta  occ. eigenvalues --   -2.19629  -2.19437  -2.19405  -2.19280  -1.13897
  Beta  occ. eigenvalues --   -1.13855  -1.13745  -1.13590  -1.13575  -1.13527
  Beta  occ. eigenvalues --   -1.13493  -1.13446  -1.13433  -1.13321  -1.13304
  Beta  occ. eigenvalues --   -1.13286  -1.13128  -1.13112  -1.13101  -1.13093
  Beta  occ. eigenvalues --   -1.13068  -1.13057  -1.12966  -1.12961  -1.12916
  Beta  occ. eigenvalues --   -0.16852  -0.13265  -0.12274
  Beta virt. eigenvalues --   -0.06983  -0.06053  -0.05346  -0.04271  -0.02821
  Beta virt. eigenvalues --   -0.02369  -0.01945  -0.01664  -0.01267  -0.01049
  Beta virt. eigenvalues --   -0.00238   0.00114   0.00362   0.00619   0.00696

 Mulliken charges and spin densities:
               1          2
     1  Na   0.567091   0.118925
     2  Na   0.015522   0.206443
     3  Na   0.625250   0.290982
     4  Na  -0.013064   0.147098
     5  Na  -3.742291  -0.168909
     6  Na   0.719300   0.300297
     7  Na   1.828191   0.105165
 Sum of Mulliken charges =  -0.00000   1.00000

 Dipole moment (field-independent basis, Debye):
    X=              0.3462    Y=             -0.1151    Z=             -0.0559  Tot=              0.3691
 Quadrupole moment (field-independent basis, Debye-Ang):
   XX=            -62.9963   YY=            -61.4028   ZZ=            -71.4963
   XY=              1.0228   XZ=             -1.6923   YZ=             -0.9191

 Normal termination of Gaussian 16 at Tue Dec  5 18:11:24 2023.
