 Gaussian 16, Revision B.01,
 Gaussian 16:  ES64L-G16RevB.01 20-Dec-2017

 -------------------------
 #P B3LYP/6-311+g(d) force
 -------------------------

 -----
 DPGEN
 -----
 Symbolic Z-matrix:
 Charge =  0 Multiplicity = 2

                         Standard orientation:
 ---------------------------------------------------------------------
 Center     Atomic      Atomic             Coordinates (Angstroms)
 Number     Number       Type             X           Y           Z
 ---------------------------------------------------------------------
      1         11           0        0.409775    3.127916    0.508950
      2         11           0        3.716711    1.102686    0.670366
      3         11           0       -2.411750   -1.264878    2.238700
      4         11           0        0.565426   -1.738842   -0.761261
      5         11           0       -4.088478   -0.683127   -0.541688
      6         11           0       -1.887513    1.474174   -1.563895
      7         11           0        3.695830   -2.017928   -0.551172
 ---------------------------------------------------------------------

 SCF Done:  E(UB3LYP) =  -1136.10951282     A.U. after   23 cycles

 The electronic state is 2-A.
 Alpha  occ. eigenvalues --  -38.45313 -38.45306 -38.44964 -38.44501 -38.44052
 Alpha  occ. eigenvalues --  -38.43734 -38.43330  -2.21111  -2.21100  -2.20742
 Alpha  occ. eigenvalues --   -2.20313  -2.19886  -2.19569  -2.19079  -1.14797
 Alpha  occ. eigenvalues --   -1.14783  -1.14779  -1.14760  -1.14758  -1.14725
 Alpha  occ. eigenvalues --   -1.14418  -1.14387  -1.14367  -1.13956  -1.13948
 Alpha  occ. eigenvalues --   -1.13928  -1.13559  -1.13538  -1.13533  -1.13240
 Alpha  occ. eigenvalues --   -1.13219  -1.13191  -1.12770  -1.12754  -1.12726
 Alpha  occ. eigenvalues --   -0.16623  -0.14344  -0.11857  -0.10734
 Alpha virt. eigenvalues --   -0.07542  -0.05531  -0.04490  -0.03585  -0.03176
 Alpha virt. eigenvalues --   -0.02688  -0.02180  -0.01538  -0.01006  -0.00792
 Alpha virt. eigenvalues --   -0.00290  -0.00063   0.00022   0.00437   0.00540

  Beta  occ. eigenvalues --  -38.45314 -38.45270 -38.44919 -38.44409 -38.44050
  Beta  occ. eigenvalues --  -38.43686 -38.43357  -2.21134  -2.21021  -2.20656
  Beta  occ. eigenvalues --   -2.20140  -2.19885  -2.19478  -2.19131  -1.14812
  Beta  occ. eigenvalues --   -1.14784  -1.14753  -1.14717  -1.14705  -1.14668
  Beta  occ. eigenvalues --   -1.14358  -1.14330  -1.14311  -1.13836  -1.13829
  Beta  occ. eigenvalues --   -1.13817  -1.13544  -1.13539  -1.13530  -1.13178
  Beta  occ. eigenvalues --   -1.13159  -1.13140  -1.12806  -1.12791  -1.12750
  Beta  occ. eigenvalues --   -0.16113  -0.13950  -0.11587
  Beta virt. eigenvalues --   -0.07402  -0.07122  -0.05148  -0.04178  -0.03232
  Beta virt. eigenvalues --   -0.02892  -0.02431  -0.01818  -0.01236  -0.00768
  Beta virt. eigenvalues --   -0.00568  -0.00222   0.00036   0.00279   0.00586

 Mulliken charges and spin densities:
               1          2
     1  Na   0.036587  -0.038800
     2  Na  -0.220812   0.193194
     3  Na  -0.018843   0.372263
     4  Na  -1.062497   0.458213
     5  Na   0.611331   0.016750
     6  Na  -0.104201   0.167686
     7  Na   0.758435  -0.169307
 Sum of Mulliken charges =  -0.00000   1.00000

 Dipole moment (field-independent basis, Debye):
    X=             -0.0421    Y=             -0.9315    Z=             -0.1008  Tot=              0.9379
 Quadrupole moment (field-independent basis, Debye-Ang):
   XX=            -52.2080   YY=            -76.0181   ZZ=            -71.5915
   XY=             -2.3840   XZ=              4.5266   YZ=              2.2863

 Normal termination of Gaussian 16 at Mon Dec  4 01:32:20 2023.
