 Gaussian 16, Revision B.01,
 Gaussian 16:  ES64L-G16RevB.01 20-Dec-2017

 -------------------------
 #P B3LYP/6-311+g(d) force
 -------------------------

 -----
 DPGEN
 -----
 Symbolic Z-matrix:
 Charge =  0 Multiplicity = 2

                         Standard orientation:
 ---------------------------------------------------------------------
 Center     Atomic      Atomic             Coordinates (Angstroms)
 Number     Number       Type             X           Y           Z
 ---------------------------------------------------------------------
      1         11           0        3.129930   -0.124068   -0.021366
      2         11           0        1.170037   -2.779187   -0.235240
      3         11           0       -2.681864   -1.879646   -0.208484
      4         11           0       -2.748678    1.657981    0.119445
      5         11           0        0.014417    0.164807   -1.748828
      6         11           0        0.120979   -0.238115    2.228159
      7         11           0        0.995179    3.198228   -0.133688
 ---------------------------------------------------------------------

 SCF Done:  E(UB3LYP) =  -1136.13544440     A.U. after   19 cycles

 The electronic state is 2-A.
 Alpha  occ. eigenvalues --  -38.44244 -38.44074 -38.43977 -38.43902 -38.43741
 Alpha  occ. eigenvalues --  -38.43535 -38.43532  -2.20025  -2.19898  -2.19805
 Alpha  occ. eigenvalues --   -2.19689  -2.19509  -2.19425  -2.19375  -1.13705
 Alpha  occ. eigenvalues --   -1.13690  -1.13658  -1.13576  -1.13567  -1.13536
 Alpha  occ. eigenvalues --   -1.13459  -1.13433  -1.13424  -1.13364  -1.13345
 Alpha  occ. eigenvalues --   -1.13334  -1.13189  -1.13168  -1.13154  -1.13116
 Alpha  occ. eigenvalues --   -1.13075  -1.13049  -1.13036  -1.13027  -1.13011
 Alpha  occ. eigenvalues --   -0.17935  -0.12839  -0.12150  -0.10708
 Alpha virt. eigenvalues --   -0.05709  -0.05390  -0.05037  -0.03210  -0.02837
 Alpha virt. eigenvalues --   -0.02729  -0.01489  -0.01324  -0.00729  -0.00625
 Alpha virt. eigenvalues --   -0.00055   0.00357   0.00747   0.00791   0.00826

  Beta  occ. eigenvalues --  -38.44242 -38.44070 -38.43901 -38.43874 -38.43742
  Beta  occ. eigenvalues --  -38.43529 -38.43471  -2.20024  -2.19895  -2.19688
  Beta  occ. eigenvalues --   -2.19614  -2.19512  -2.19367  -2.19313  -1.13693
  Beta  occ. eigenvalues --   -1.13687  -1.13661  -1.13574  -1.13543  -1.13537
  Beta  occ. eigenvalues --   -1.13349  -1.13346  -1.13335  -1.13330  -1.13299
  Beta  occ. eigenvalues --   -1.13287  -1.13179  -1.13168  -1.13158  -1.13061
  Beta  occ. eigenvalues --   -1.13026  -1.13012  -1.13008  -1.12973  -1.12959
  Beta  occ. eigenvalues --   -0.17204  -0.12668  -0.11970
  Beta virt. eigenvalues --   -0.06779  -0.05700  -0.05363  -0.04911  -0.02443
  Beta virt. eigenvalues --   -0.02130  -0.01689  -0.01389  -0.01239  -0.00777
  Beta virt. eigenvalues --   -0.00687   0.00109   0.00389   0.00791   0.00825

 Mulliken charges and spin densities:
               1          2
     1  Na   0.192527  -0.032566
     2  Na   0.172066  -0.030872
     3  Na   0.058857  -0.066861
     4  Na   0.003194  -0.073219
     5  Na   0.056899   0.522042
     6  Na  -0.453452   0.786424
     7  Na  -0.030092  -0.104947
 Sum of Mulliken charges =  -0.00000   1.00000

 Dipole moment (field-independent basis, Debye):
    X=             -0.0825    Y=              0.0458    Z=              0.0785  Tot=              0.1227
 Quadrupole moment (field-independent basis, Debye-Ang):
   XX=            -57.9665   YY=            -61.2880   ZZ=            -74.8325
   XY=              0.0289   XZ=             -0.2124   YZ=              1.1439

 Normal termination of Gaussian 16 at Thu Dec  7 19:02:10 2023.
