 Gaussian 16, Revision B.01,
 Gaussian 16:  ES64L-G16RevB.01 20-Dec-2017

 -------------------------
 #P B3LYP/6-311+g(d) force
 -------------------------

 -----
 DPGEN
 -----
 Symbolic Z-matrix:
 Charge =  0 Multiplicity = 2

                         Standard orientation:
 ---------------------------------------------------------------------
 Center     Atomic      Atomic             Coordinates (Angstroms)
 Number     Number       Type             X           Y           Z
 ---------------------------------------------------------------------
      1         11           0       -3.574201   -1.005991   -1.099105
      2         11           0        3.814842   -1.501271   -0.613372
      3         11           0       -1.709142    2.188653   -0.192000
      4         11           0        1.204339   -0.278142    2.071809
      5         11           0       -2.067785   -0.553822    1.545287
      6         11           0       -0.171918   -0.815140   -1.147951
      7         11           0        2.503864    1.965712   -0.564668
 ---------------------------------------------------------------------

 SCF Done:  E(UB3LYP) =  -1136.11651341     A.U. after   34 cycles

 The electronic state is 2-A.
 Alpha  occ. eigenvalues --  -38.44867 -38.44681 -38.44110 -38.44097 -38.43970
 Alpha  occ. eigenvalues --  -38.43740 -38.43646  -2.20650  -2.20554  -2.20074
 Alpha  occ. eigenvalues --   -2.19974  -2.19735  -2.19577  -2.19513  -1.14340
 Alpha  occ. eigenvalues --   -1.14301  -1.14296  -1.14256  -1.14223  -1.14155
 Alpha  occ. eigenvalues --   -1.13784  -1.13746  -1.13704  -1.13659  -1.13601
 Alpha  occ. eigenvalues --   -1.13570  -1.13412  -1.13404  -1.13365  -1.13262
 Alpha  occ. eigenvalues --   -1.13243  -1.13190  -1.13183  -1.13153  -1.13143
 Alpha  occ. eigenvalues --   -0.18431  -0.14211  -0.11544  -0.10542
 Alpha virt. eigenvalues --   -0.06637  -0.05892  -0.04871  -0.03251  -0.02588
 Alpha virt. eigenvalues --   -0.02465  -0.02088  -0.01323  -0.00948  -0.00479
 Alpha virt. eigenvalues --    0.00080   0.00199   0.00281   0.00385   0.00548

  Beta  occ. eigenvalues --  -38.44833 -38.44668 -38.44052 -38.44038 -38.43969
  Beta  occ. eigenvalues --  -38.43715 -38.43641  -2.20587  -2.20532  -2.19994
  Beta  occ. eigenvalues --   -2.19844  -2.19735  -2.19532  -2.19504  -1.14292
  Beta  occ. eigenvalues --   -1.14263  -1.14257  -1.14208  -1.14202  -1.14144
  Beta  occ. eigenvalues --   -1.13713  -1.13673  -1.13655  -1.13571  -1.13506
  Beta  occ. eigenvalues --   -1.13476  -1.13407  -1.13402  -1.13366  -1.13226
  Beta  occ. eigenvalues --   -1.13212  -1.13181  -1.13152  -1.13148  -1.13129
  Beta  occ. eigenvalues --   -0.17735  -0.14026  -0.10337
  Beta virt. eigenvalues --   -0.07546  -0.06477  -0.05713  -0.04333  -0.02790
  Beta virt. eigenvalues --   -0.02523  -0.01888  -0.01674  -0.01127  -0.00454
  Beta virt. eigenvalues --   -0.00367   0.00114   0.00238   0.00358   0.00508

 Mulliken charges and spin densities:
               1          2
     1  Na   0.834478   0.020381
     2  Na   0.498786   0.011049
     3  Na  -0.410116   0.126035
     4  Na  -0.165023   0.212986
     5  Na   0.392800   0.079431
     6  Na  -1.324934   0.347210
     7  Na   0.174009   0.202908
 Sum of Mulliken charges =  -0.00000   1.00000

 Dipole moment (field-independent basis, Debye):
    X=              0.1629    Y=              0.6680    Z=              0.1699  Tot=              0.7082
 Quadrupole moment (field-independent basis, Debye-Ang):
   XX=            -53.1576   YY=            -73.9120   ZZ=            -70.2013
   XY=              0.3928   XZ=              0.2398   YZ=             -3.8751

 Normal termination of Gaussian 16 at Tue Dec  5 21:37:22 2023.
