 Gaussian 16, Revision B.01,
 Gaussian 16:  ES64L-G16RevB.01 20-Dec-2017

 -------------------------
 #P B3LYP/6-311+g(d) force
 -------------------------

 -----
 DPGEN
 -----
 Symbolic Z-matrix:
 Charge =  0 Multiplicity = 2

                         Standard orientation:
 ---------------------------------------------------------------------
 Center     Atomic      Atomic             Coordinates (Angstroms)
 Number     Number       Type             X           Y           Z
 ---------------------------------------------------------------------
      1         11           0       -2.206405    1.970022   -0.464683
      2         11           0        3.087551   -1.024474   -0.440769
      3         11           0       -2.973433   -1.094931    0.131496
      4         11           0        0.222270    0.019847   -1.797077
      5         11           0        0.011128   -2.641308    0.225805
      6         11           0        1.598637    2.658382    0.383435
      7         11           0        0.260252    0.112463    1.961793
 ---------------------------------------------------------------------

 SCF Done:  E(UB3LYP) =  -1136.13676717     A.U. after   20 cycles

 The electronic state is 2-A.
 Alpha  occ. eigenvalues --  -38.44231 -38.43747 -38.43663 -38.43644 -38.43586
 Alpha  occ. eigenvalues --  -38.43565 -38.43012  -2.20052  -2.19594  -2.19578
 Alpha  occ. eigenvalues --   -2.19524  -2.19488  -2.19381  -2.18914  -1.13737
 Alpha  occ. eigenvalues --   -1.13699  -1.13685  -1.13301  -1.13264  -1.13256
 Alpha  occ. eigenvalues --   -1.13247  -1.13236  -1.13207  -1.13196  -1.13194
 Alpha  occ. eigenvalues --   -1.13153  -1.13139  -1.13118  -1.13100  -1.13055
 Alpha  occ. eigenvalues --   -1.13029  -1.13011  -1.12606  -1.12587  -1.12525
 Alpha  occ. eigenvalues --   -0.18623  -0.13052  -0.12323  -0.11020
 Alpha virt. eigenvalues --   -0.05707  -0.05209  -0.04368  -0.03262  -0.02992
 Alpha virt. eigenvalues --   -0.02711  -0.01668  -0.01124  -0.00320  -0.00132
 Alpha virt. eigenvalues --   -0.00023   0.00338   0.00783   0.00860   0.00926

  Beta  occ. eigenvalues --  -38.44219 -38.43747 -38.43633 -38.43575 -38.43555
  Beta  occ. eigenvalues --  -38.43517 -38.43002  -2.20031  -2.19597  -2.19472
  Beta  occ. eigenvalues --   -2.19418  -2.19397  -2.19366  -2.18900  -1.13708
  Beta  occ. eigenvalues --   -1.13685  -1.13671  -1.13302  -1.13260  -1.13234
  Beta  occ. eigenvalues --   -1.13168  -1.13152  -1.13129  -1.13123  -1.13112
  Beta  occ. eigenvalues --   -1.13094  -1.13086  -1.13071  -1.13038  -1.13014
  Beta  occ. eigenvalues --   -1.13009  -1.13004  -1.12598  -1.12555  -1.12509
  Beta  occ. eigenvalues --   -0.17904  -0.12790  -0.12040
  Beta virt. eigenvalues --   -0.07147  -0.05632  -0.05157  -0.04337  -0.02541
  Beta virt. eigenvalues --   -0.02224  -0.01689  -0.01547  -0.01034  -0.00329
  Beta virt. eigenvalues --   -0.00170   0.00095   0.00370   0.00848   0.00863

 Mulliken charges and spin densities:
               1          2
     1  Na   0.209704  -0.004503
     2  Na   0.246991  -0.028251
     3  Na  -0.090203  -0.059996
     4  Na  -0.301223   0.550018
     5  Na   0.248067   0.017046
     6  Na  -0.021699  -0.081904
     7  Na  -0.291636   0.607589
 Sum of Mulliken charges =  -0.00000   1.00000

 Dipole moment (field-independent basis, Debye):
    X=              0.3241    Y=              0.0785    Z=             -0.0097  Tot=              0.3337
 Quadrupole moment (field-independent basis, Debye-Ang):
   XX=            -55.8934   YY=            -65.0261   ZZ=            -73.0967
   XY=              0.0349   XZ=             -0.5136   YZ=             -0.3786

 Normal termination of Gaussian 16 at Fri Dec  8 06:56:12 2023.
