 Gaussian 16, Revision B.01,
 Gaussian 16:  ES64L-G16RevB.01 20-Dec-2017

 -------------------------
 #P B3LYP/6-311+g(d) force
 -------------------------

 -----
 DPGEN
 -----
 Symbolic Z-matrix:
 Charge =  0 Multiplicity = 2

                         Standard orientation:
 ---------------------------------------------------------------------
 Center     Atomic      Atomic             Coordinates (Angstroms)
 Number     Number       Type             X           Y           Z
 ---------------------------------------------------------------------
      1         11           0       -2.355229   -1.598567    0.142347
      2         11           0        0.213336   -0.301279    2.367656
      3         11           0       -2.193860    2.020153    0.291186
      4         11           0        1.288832    2.378523   -0.327305
      5         11           0        0.330052   -2.353130   -0.690961
      6         11           0       -0.604656    0.273472   -1.793318
      7         11           0        3.321524   -0.419172    0.010396
 ---------------------------------------------------------------------

 SCF Done:  E(UB3LYP) =  -1136.13037649     A.U. after   19 cycles

 The electronic state is 2-A.
 Alpha  occ. eigenvalues --  -38.44603 -38.43906 -38.43667 -38.43543 -38.43449
 Alpha  occ. eigenvalues --  -38.43385 -38.43171  -2.20439  -2.19699  -2.19695
 Alpha  occ. eigenvalues --   -2.19478  -2.19307  -2.19243  -2.19131  -1.14091
 Alpha  occ. eigenvalues --   -1.14071  -1.14054  -1.13429  -1.13369  -1.13367
 Alpha  occ. eigenvalues --   -1.13362  -1.13352  -1.13344  -1.13234  -1.13115
 Alpha  occ. eigenvalues --   -1.13106  -1.12981  -1.12965  -1.12944  -1.12938
 Alpha  occ. eigenvalues --   -1.12902  -1.12844  -1.12815  -1.12756  -1.12713
 Alpha  occ. eigenvalues --   -0.18905  -0.12850  -0.12392  -0.11640
 Alpha virt. eigenvalues --   -0.05492  -0.04893  -0.04211  -0.03573  -0.03310
 Alpha virt. eigenvalues --   -0.03157  -0.01352  -0.00849  -0.00178   0.00050
 Alpha virt. eigenvalues --    0.00155   0.00368   0.00798   0.00866   0.00933

  Beta  occ. eigenvalues --  -38.44501 -38.43910 -38.43602 -38.43536 -38.43444
  Beta  occ. eigenvalues --  -38.43379 -38.43151  -2.20250  -2.19707  -2.19578
  Beta  occ. eigenvalues --   -2.19471  -2.19300  -2.19234  -2.19099  -1.13966
  Beta  occ. eigenvalues --   -1.13939  -1.13916  -1.13371  -1.13361  -1.13359
  Beta  occ. eigenvalues --   -1.13354  -1.13288  -1.13272  -1.13216  -1.13101
  Beta  occ. eigenvalues --   -1.13073  -1.12970  -1.12952  -1.12930  -1.12922
  Beta  occ. eigenvalues --   -1.12886  -1.12842  -1.12783  -1.12721  -1.12688
  Beta  occ. eigenvalues --   -0.18118  -0.12666  -0.12173
  Beta virt. eigenvalues --   -0.07587  -0.05379  -0.04878  -0.04163  -0.02757
  Beta virt. eigenvalues --   -0.02488  -0.02162  -0.01268  -0.00798  -0.00037
  Beta virt. eigenvalues --    0.00067   0.00128   0.00395   0.00901   0.00930

 Mulliken charges and spin densities:
               1          2
     1  Na   0.296153   0.129284
     2  Na  -0.750116   0.675813
     3  Na   0.085283   0.063585
     4  Na   0.088885  -0.043579
     5  Na   0.331494   0.058582
     6  Na  -0.035601   0.187730
     7  Na  -0.016098  -0.071415
 Sum of Mulliken charges =  -0.00000   1.00000

 Dipole moment (field-independent basis, Debye):
    X=              0.1009    Y=              0.1143    Z=              0.5247  Tot=              0.5464
 Quadrupole moment (field-independent basis, Debye-Ang):
   XX=            -58.9357   YY=            -68.2251   ZZ=            -68.9675
   XY=             -0.4478   XZ=             -1.5191   YZ=              0.7240

 Normal termination of Gaussian 16 at Thu Dec  7 12:17:51 2023.
