 Gaussian 16, Revision B.01,
 Gaussian 16:  ES64L-G16RevB.01 20-Dec-2017

 -------------------------
 #P B3LYP/6-311+g(d) force
 -------------------------

 -----
 DPGEN
 -----
 Symbolic Z-matrix:
 Charge =  0 Multiplicity = 2

                         Standard orientation:
 ---------------------------------------------------------------------
 Center     Atomic      Atomic             Coordinates (Angstroms)
 Number     Number       Type             X           Y           Z
 ---------------------------------------------------------------------
      1         11           0       -2.791867    1.554157   -0.149367
      2         11           0        1.024726    2.733279    0.263013
      3         11           0        1.409170   -2.446777    0.966887
      4         11           0       -0.156660   -0.195786   -1.725311
      5         11           0       -2.470152   -1.968075   -0.451735
      6         11           0        0.052385    0.296461    2.309222
      7         11           0        2.932398    0.026740   -1.212710
 ---------------------------------------------------------------------

 SCF Done:  E(UB3LYP) =  -1136.13182597     A.U. after   20 cycles

 The electronic state is 2-A.
 Alpha  occ. eigenvalues --  -38.44497 -38.44010 -38.43972 -38.43697 -38.43691
 Alpha  occ. eigenvalues --  -38.43582 -38.43151  -2.20363  -2.19822  -2.19806
 Alpha  occ. eigenvalues --   -2.19646  -2.19510  -2.19403  -2.18975  -1.14019
 Alpha  occ. eigenvalues --   -1.13999  -1.13982  -1.13561  -1.13499  -1.13473
 Alpha  occ. eigenvalues --   -1.13452  -1.13439  -1.13429  -1.13344  -1.13301
 Alpha  occ. eigenvalues --   -1.13263  -1.13179  -1.13154  -1.13128  -1.13096
 Alpha  occ. eigenvalues --   -1.13037  -1.13036  -1.12669  -1.12638  -1.12603
 Alpha  occ. eigenvalues --   -0.18195  -0.12873  -0.11955  -0.11803
 Alpha virt. eigenvalues --   -0.05400  -0.05014  -0.04436  -0.03462  -0.03308
 Alpha virt. eigenvalues --   -0.03278  -0.01416  -0.01000  -0.00444   0.00028
 Alpha virt. eigenvalues --    0.00083   0.00367   0.00732   0.00775   0.00860

  Beta  occ. eigenvalues --  -38.44398 -38.44011 -38.43936 -38.43689 -38.43643
  Beta  occ. eigenvalues --  -38.43554 -38.43149  -2.20181  -2.19809  -2.19758
  Beta  occ. eigenvalues --   -2.19549  -2.19509  -2.19354  -2.18975  -1.13902
  Beta  occ. eigenvalues --   -1.13873  -1.13843  -1.13502  -1.13492  -1.13475
  Beta  occ. eigenvalues --   -1.13429  -1.13409  -1.13397  -1.13290  -1.13241
  Beta  occ. eigenvalues --   -1.13200  -1.13163  -1.13137  -1.13123  -1.13048
  Beta  occ. eigenvalues --   -1.13008  -1.12996  -1.12661  -1.12631  -1.12599
  Beta  occ. eigenvalues --   -0.17453  -0.12594  -0.11664
  Beta virt. eigenvalues --   -0.07867  -0.05406  -0.04898  -0.04136  -0.02897
  Beta virt. eigenvalues --   -0.02599  -0.02334  -0.01293  -0.00941  -0.00294
  Beta virt. eigenvalues --    0.00053   0.00110   0.00410   0.00847   0.00873

 Mulliken charges and spin densities:
               1          2
     1  Na  -0.072019  -0.065481
     2  Na  -0.237637   0.055081
     3  Na  -0.253552   0.201381
     4  Na   0.019555   0.310243
     5  Na   0.092817  -0.026997
     6  Na   0.055848   0.454507
     7  Na   0.394988   0.071266
 Sum of Mulliken charges =  -0.00000   1.00000

 Dipole moment (field-independent basis, Debye):
    X=             -0.2119    Y=              0.0024    Z=              0.1531  Tot=              0.2614
 Quadrupole moment (field-independent basis, Debye-Ang):
   XX=            -59.5310   YY=            -66.7351   ZZ=            -69.2552
   XY=             -0.3572   XZ=             -1.6703   YZ=             -1.5185

 Normal termination of Gaussian 16 at Sun Dec  3 13:57:03 2023.
