 Gaussian 16, Revision B.01,
 Gaussian 16:  ES64L-G16RevB.01 20-Dec-2017

 -------------------------
 #P B3LYP/6-311+g(d) force
 -------------------------

 -----
 DPGEN
 -----
 Symbolic Z-matrix:
 Charge =  0 Multiplicity = 2

                         Standard orientation:
 ---------------------------------------------------------------------
 Center     Atomic      Atomic             Coordinates (Angstroms)
 Number     Number       Type             X           Y           Z
 ---------------------------------------------------------------------
      1         11           0       -1.071930    2.130352    0.754484
      2         11           0        2.938176   -1.559024   -1.232020
      3         11           0       -0.245500   -1.192175   -0.128295
      4         11           0       -2.785076   -1.655893    0.958478
      5         11           0       -3.465517    0.463365   -1.118391
      6         11           0        2.759319    0.195366    1.978454
      7         11           0        1.870527    1.618010   -1.212710
 ---------------------------------------------------------------------

 SCF Done:  E(UB3LYP) =  -1136.11381795     A.U. after   25 cycles

 The electronic state is 2-A.
 Alpha  occ. eigenvalues --  -38.45612 -38.44666 -38.44192 -38.43919 -38.43868
 Alpha  occ. eigenvalues --  -38.43734 -38.42876  -2.21457  -2.20476  -2.20116
 Alpha  occ. eigenvalues --   -2.19827  -2.19770  -2.19587  -2.18702  -1.15143
 Alpha  occ. eigenvalues --   -1.15112  -1.15081  -1.14137  -1.14105  -1.14097
 Alpha  occ. eigenvalues --   -1.13986  -1.13748  -1.13714  -1.13505  -1.13475
 Alpha  occ. eigenvalues --   -1.13452  -1.13431  -1.13406  -1.13400  -1.13247
 Alpha  occ. eigenvalues --   -1.13230  -1.13213  -1.12402  -1.12367  -1.12333
 Alpha  occ. eigenvalues --   -0.18147  -0.14773  -0.11010  -0.10476
 Alpha virt. eigenvalues --   -0.06971  -0.05678  -0.04971  -0.03112  -0.02669
 Alpha virt. eigenvalues --   -0.02301  -0.02159  -0.01158  -0.00921  -0.00357
 Alpha virt. eigenvalues --    0.00022   0.00145   0.00280   0.00365   0.00628

  Beta  occ. eigenvalues --  -38.45601 -38.44587 -38.44181 -38.43895 -38.43848
  Beta  occ. eigenvalues --  -38.43702 -38.42880  -2.21435  -2.20329  -2.20096
  Beta  occ. eigenvalues --   -2.19795  -2.19729  -2.19531  -2.18711  -1.15128
  Beta  occ. eigenvalues --   -1.15096  -1.15067  -1.14030  -1.14004  -1.13999
  Beta  occ. eigenvalues --   -1.13963  -1.13731  -1.13701  -1.13458  -1.13444
  Beta  occ. eigenvalues --   -1.13423  -1.13402  -1.13388  -1.13357  -1.13207
  Beta  occ. eigenvalues --   -1.13185  -1.13171  -1.12410  -1.12362  -1.12334
  Beta  occ. eigenvalues --   -0.17660  -0.14439  -0.10853
  Beta virt. eigenvalues --   -0.06955  -0.06483  -0.05478  -0.04541  -0.03012
  Beta virt. eigenvalues --   -0.02477  -0.01830  -0.01361  -0.00868  -0.00598
  Beta virt. eigenvalues --   -0.00287   0.00151   0.00228   0.00433   0.00462

 Mulliken charges and spin densities:
               1          2
     1  Na  -0.109431   0.104720
     2  Na   0.617793   0.030814
     3  Na  -0.950910   0.415605
     4  Na   0.007045  -0.017637
     5  Na   0.428094  -0.029840
     6  Na  -0.127735   0.298567
     7  Na   0.135144   0.197771
 Sum of Mulliken charges =  -0.00000   1.00000

 Dipole moment (field-independent basis, Debye):
    X=             -0.7991    Y=              0.1408    Z=             -0.3306  Tot=              0.8762
 Quadrupole moment (field-independent basis, Debye-Ang):
   XX=            -47.9142   YY=            -77.8382   ZZ=            -68.6399
   XY=             -0.7802   XZ=              1.9419   YZ=             -1.1914

 Normal termination of Gaussian 16 at Tue Dec  5 21:24:22 2023.
