 Gaussian 16, Revision B.01,
 Gaussian 16:  ES64L-G16RevB.01 20-Dec-2017

 -------------------------
 #P B3LYP/6-311+g(d) force
 -------------------------

 -----
 DPGEN
 -----
 Symbolic Z-matrix:
 Charge =  0 Multiplicity = 2

                         Standard orientation:
 ---------------------------------------------------------------------
 Center     Atomic      Atomic             Coordinates (Angstroms)
 Number     Number       Type             X           Y           Z
 ---------------------------------------------------------------------
      1         11           0       -2.801349   -2.410407    0.302754
      2         11           0        3.893074   -0.552728    0.300970
      3         11           0       -1.359168    3.299706    0.505789
      4         11           0        0.404409   -2.066394   -0.828383
      5         11           0        1.666009    1.243886   -1.156742
      6         11           0       -2.015334    0.653399   -1.095337
      7         11           0        0.212359   -0.167462    1.970949
 ---------------------------------------------------------------------

 SCF Done:  E(UB3LYP) =  -1136.13153237     A.U. after   19 cycles

 The electronic state is 2-A.
 Alpha  occ. eigenvalues --  -38.44627 -38.44017 -38.43880 -38.43841 -38.43697
 Alpha  occ. eigenvalues --  -38.43382 -38.43280  -2.20419  -2.19820  -2.19749
 Alpha  occ. eigenvalues --   -2.19689  -2.19567  -2.19189  -2.19176  -1.14109
 Alpha  occ. eigenvalues --   -1.14076  -1.14050  -1.13500  -1.13487  -1.13478
 Alpha  occ. eigenvalues --   -1.13460  -1.13438  -1.13362  -1.13324  -1.13311
 Alpha  occ. eigenvalues --   -1.13294  -1.13261  -1.13236  -1.13165  -1.12930
 Alpha  occ. eigenvalues --   -1.12869  -1.12846  -1.12835  -1.12822  -1.12744
 Alpha  occ. eigenvalues --   -0.18086  -0.13167  -0.12202  -0.10399
 Alpha virt. eigenvalues --   -0.06363  -0.05083  -0.04702  -0.03199  -0.02800
 Alpha virt. eigenvalues --   -0.02360  -0.02141  -0.01398  -0.00630  -0.00243
 Alpha virt. eigenvalues --    0.00138   0.00254   0.00665   0.00689   0.00786

  Beta  occ. eigenvalues --  -38.44629 -38.44019 -38.43858 -38.43746 -38.43665
  Beta  occ. eigenvalues --  -38.43382 -38.43257  -2.20426  -2.19826  -2.19714
  Beta  occ. eigenvalues --   -2.19514  -2.19509  -2.19188  -2.19135  -1.14113
  Beta  occ. eigenvalues --   -1.14069  -1.14053  -1.13506  -1.13477  -1.13466
  Beta  occ. eigenvalues --   -1.13448  -1.13379  -1.13305  -1.13251  -1.13221
  Beta  occ. eigenvalues --   -1.13189  -1.13177  -1.13168  -1.13128  -1.12921
  Beta  occ. eigenvalues --   -1.12845  -1.12830  -1.12822  -1.12795  -1.12724
  Beta  occ. eigenvalues --   -0.17341  -0.13028  -0.12059
  Beta virt. eigenvalues --   -0.06512  -0.06224  -0.05002  -0.04596  -0.02643
  Beta virt. eigenvalues --   -0.02217  -0.02029  -0.01393  -0.01279  -0.00511
  Beta virt. eigenvalues --   -0.00113   0.00199   0.00313   0.00719   0.00730

 Mulliken charges and spin densities:
               1          2
     1  Na   0.356979  -0.091890
     2  Na   0.412215  -0.040840
     3  Na   0.043189  -0.179827
     4  Na  -0.033595   0.139804
     5  Na  -0.261318   0.125717
     6  Na  -0.011914   0.249820
     7  Na  -0.505556   0.797216
 Sum of Mulliken charges =  -0.00000   1.00000

 Dipole moment (field-independent basis, Debye):
    X=              0.5337    Y=             -0.4680    Z=              0.2596  Tot=              0.7558
 Quadrupole moment (field-independent basis, Debye-Ang):
   XX=            -52.7414   YY=            -64.2284   ZZ=            -74.5867
   XY=              0.6474   XZ=             -0.1809   YZ=              0.4997

 Normal termination of Gaussian 16 at Wed Nov 29 16:27:23 2023.
