 Gaussian 16, Revision B.01,
 Gaussian 16:  ES64L-G16RevB.01 20-Dec-2017

 -------------------------
 #P B3LYP/6-311+g(d) force
 -------------------------

 -----
 DPGEN
 -----
 Symbolic Z-matrix:
 Charge =  0 Multiplicity = 2

                         Standard orientation:
 ---------------------------------------------------------------------
 Center     Atomic      Atomic             Coordinates (Angstroms)
 Number     Number       Type             X           Y           Z
 ---------------------------------------------------------------------
      1         11           0        1.196478   -2.426581    0.355726
      2         11           0        4.483129   -1.329706    0.543984
      3         11           0        5.327410    2.503037   -0.130859
      4         11           0        2.477989    0.867040   -0.187468
      5         11           0       -1.196998   -0.677765   -0.736722
      6         11           0       -5.446231   -0.107796   -1.090431
      7         11           0       -6.841776    1.171770    1.245770
 ---------------------------------------------------------------------

 SCF Done:  E(UB3LYP) =  -1136.11523837     A.U. after   22 cycles

 The electronic state is 2-A.
 Alpha  occ. eigenvalues --  -38.44484 -38.44382 -38.44374 -38.44087 -38.44023
 Alpha  occ. eigenvalues --  -38.43757 -38.43591  -2.20353  -2.20268  -2.20176
 Alpha  occ. eigenvalues --   -2.19884  -2.19828  -2.19621  -2.19413  -1.14134
 Alpha  occ. eigenvalues --   -1.14013  -1.13958  -1.13953  -1.13910  -1.13892
 Alpha  occ. eigenvalues --   -1.13846  -1.13821  -1.13819  -1.13541  -1.13532
 Alpha  occ. eigenvalues --   -1.13515  -1.13488  -1.13483  -1.13437  -1.13302
 Alpha  occ. eigenvalues --   -1.13294  -1.13284  -1.13069  -1.13067  -1.13015
 Alpha  occ. eigenvalues --   -0.16738  -0.13788  -0.12502  -0.10898
 Alpha virt. eigenvalues --   -0.06365  -0.05420  -0.04153  -0.03928  -0.02874
 Alpha virt. eigenvalues --   -0.02457  -0.02032  -0.01837  -0.01360  -0.00959
 Alpha virt. eigenvalues --   -0.00231  -0.00195   0.00166   0.00486   0.00639

  Beta  occ. eigenvalues --  -38.44414 -38.44371 -38.44356 -38.44092 -38.43982
  Beta  occ. eigenvalues --  -38.43740 -38.43545  -2.20252  -2.20226  -2.20142
  Beta  occ. eigenvalues --   -2.19895  -2.19751  -2.19596  -2.19325  -1.14073
  Beta  occ. eigenvalues --   -1.13958  -1.13922  -1.13873  -1.13869  -1.13849
  Beta  occ. eigenvalues --   -1.13809  -1.13798  -1.13795  -1.13550  -1.13540
  Beta  occ. eigenvalues --   -1.13509  -1.13431  -1.13428  -1.13393  -1.13283
  Beta  occ. eigenvalues --   -1.13279  -1.13231  -1.13008  -1.13007  -1.12963
  Beta  occ. eigenvalues --   -0.16054  -0.13516  -0.12159
  Beta virt. eigenvalues --   -0.07404  -0.05903  -0.05191  -0.03794  -0.03726
  Beta virt. eigenvalues --   -0.02575  -0.02202  -0.01734  -0.01601  -0.01106
  Beta virt. eigenvalues --   -0.00722  -0.00034   0.00098   0.00374   0.00541

 Mulliken charges and spin densities:
               1          2
     1  Na   0.194188   0.306981
     2  Na   0.459004   0.166820
     3  Na   1.367595   0.251572
     4  Na  -1.897480   0.336656
     5  Na   0.044311  -0.083002
     6  Na  -0.347167  -0.058284
     7  Na   0.179550   0.079256
 Sum of Mulliken charges =  -0.00000   1.00000

 Dipole moment (field-independent basis, Debye):
    X=              0.7810    Y=              0.1202    Z=              0.4753  Tot=              0.9222
 Quadrupole moment (field-independent basis, Debye-Ang):
   XX=            -57.3634   YY=            -66.6608   ZZ=            -68.0474
   XY=             -0.6956   XZ=             -2.9528   YZ=              2.0491

 Normal termination of Gaussian 16 at Tue Nov 28 23:47:43 2023.
