 Gaussian 16, Revision B.01,
 Gaussian 16:  ES64L-G16RevB.01 20-Dec-2017

 -------------------------
 #P B3LYP/6-311+g(d) force
 -------------------------

 -----
 DPGEN
 -----
 Symbolic Z-matrix:
 Charge =  0 Multiplicity = 2

                         Standard orientation:
 ---------------------------------------------------------------------
 Center     Atomic      Atomic             Coordinates (Angstroms)
 Number     Number       Type             X           Y           Z
 ---------------------------------------------------------------------
      1         11           0       -1.516322   -3.408609    0.683392
      2         11           0        2.199694   -1.757423   -0.333935
      3         11           0       -3.963276   -1.588372   -0.392515
      4         11           0       -3.847755    1.705433   -0.194046
      5         11           0        2.463970    2.123143    0.216811
      6         11           0        5.086473   -0.913044   -0.191882
      7         11           0       -0.422783    3.838872    0.212174
 ---------------------------------------------------------------------

 SCF Done:  E(UB3LYP) =  -1136.11200855     A.U. after   21 cycles

 The electronic state is 2-A.
 Alpha  occ. eigenvalues --  -38.45271 -38.44865 -38.44798 -38.44613 -38.44213
 Alpha  occ. eigenvalues --  -38.43910 -38.43573  -2.21073  -2.20647  -2.20633
 Alpha  occ. eigenvalues --   -2.20404  -2.20021  -2.19714  -2.19340  -1.14778
 Alpha  occ. eigenvalues --   -1.14748  -1.14724  -1.14332  -1.14331  -1.14286
 Alpha  occ. eigenvalues --   -1.14271  -1.14248  -1.14235  -1.14063  -1.14059
 Alpha  occ. eigenvalues --   -1.14020  -1.13699  -1.13691  -1.13687  -1.13362
 Alpha  occ. eigenvalues --   -1.13351  -1.13346  -1.13015  -1.13008  -1.12986
 Alpha  occ. eigenvalues --   -0.15830  -0.14358  -0.12862  -0.11055
 Alpha virt. eigenvalues --   -0.06909  -0.05685  -0.04202  -0.03499  -0.03098
 Alpha virt. eigenvalues --   -0.02731  -0.02373  -0.01812  -0.01380  -0.00650
 Alpha virt. eigenvalues --   -0.00501  -0.00139   0.00012   0.00500   0.00554

  Beta  occ. eigenvalues --  -38.45266 -38.44828 -38.44756 -38.44537 -38.44214
  Beta  occ. eigenvalues --  -38.43851 -38.43572  -2.21068  -2.20583  -2.20554
  Beta  occ. eigenvalues --   -2.20265  -2.20029  -2.19602  -2.19343  -1.14756
  Beta  occ. eigenvalues --   -1.14743  -1.14713  -1.14290  -1.14289  -1.14231
  Beta  occ. eigenvalues --   -1.14217  -1.14195  -1.14179  -1.13970  -1.13966
  Beta  occ. eigenvalues --   -1.13924  -1.13708  -1.13701  -1.13646  -1.13285
  Beta  occ. eigenvalues --   -1.13281  -1.13270  -1.13020  -1.13009  -1.12972
  Beta  occ. eigenvalues --   -0.15381  -0.13673  -0.12241
  Beta virt. eigenvalues --   -0.07813  -0.06832  -0.05253  -0.03910  -0.03213
  Beta virt. eigenvalues --   -0.02648  -0.02523  -0.02159  -0.01633  -0.01216
  Beta virt. eigenvalues --   -0.00377  -0.00086   0.00085   0.00200   0.00535

 Mulliken charges and spin densities:
               1          2
     1  Na  -0.111409   0.214669
     2  Na  -1.298524   0.115368
     3  Na  -0.127215  -0.078748
     4  Na   0.124262   0.386810
     5  Na   0.050925   0.351861
     6  Na   1.622441   0.269229
     7  Na  -0.260479  -0.259189
 Sum of Mulliken charges =  -0.00000   1.00000

 Dipole moment (field-independent basis, Debye):
    X=              1.7879    Y=             -0.3182    Z=             -0.0665  Tot=              1.8172
 Quadrupole moment (field-independent basis, Debye-Ang):
   XX=            -53.6526   YY=            -70.0817   ZZ=            -73.6577
   XY=             -1.2667   XZ=              0.7310   YZ=              0.0943

 Normal termination of Gaussian 16 at Sun Dec  3 20:17:25 2023.
