 Gaussian 16, Revision B.01,
 Gaussian 16:  ES64L-G16RevB.01 20-Dec-2017

 -------------------------
 #P B3LYP/6-311+g(d) force
 -------------------------

 -----
 DPGEN
 -----
 Symbolic Z-matrix:
 Charge =  0 Multiplicity = 2

                         Standard orientation:
 ---------------------------------------------------------------------
 Center     Atomic      Atomic             Coordinates (Angstroms)
 Number     Number       Type             X           Y           Z
 ---------------------------------------------------------------------
      1         11           0       -0.134233    0.148961    2.096244
      2         11           0        2.324667   -2.239927   -0.106603
      3         11           0        0.243034    0.096817   -1.668553
      4         11           0        2.626545    1.341312    0.034288
      5         11           0       -2.806756    0.224925   -0.306087
      6         11           0       -1.650606   -2.452135    0.042138
      7         11           0       -0.602652    2.880047   -0.091427
 ---------------------------------------------------------------------

 SCF Done:  E(UB3LYP) =  -1136.13694459     A.U. after   19 cycles

 The electronic state is 2-A.
 Alpha  occ. eigenvalues --  -38.43892 -38.43816 -38.43697 -38.43603 -38.43511
 Alpha  occ. eigenvalues --  -38.43260 -38.43212  -2.19752  -2.19612  -2.19587
 Alpha  occ. eigenvalues --   -2.19481  -2.19437  -2.19204  -2.19134  -1.13464
 Alpha  occ. eigenvalues --   -1.13421  -1.13368  -1.13326  -1.13290  -1.13267
 Alpha  occ. eigenvalues --   -1.13252  -1.13251  -1.13213  -1.13210  -1.13133
 Alpha  occ. eigenvalues --   -1.13122  -1.13091  -1.13069  -1.12999  -1.12896
 Alpha  occ. eigenvalues --   -1.12850  -1.12839  -1.12792  -1.12773  -1.12764
 Alpha  occ. eigenvalues --   -0.18867  -0.13118  -0.12451  -0.10923
 Alpha virt. eigenvalues --   -0.05478  -0.05098  -0.04724  -0.03282  -0.02881
 Alpha virt. eigenvalues --   -0.02713  -0.01295  -0.01199  -0.00302  -0.00190
 Alpha virt. eigenvalues --   -0.00020   0.00368   0.00859   0.00860   0.00934

  Beta  occ. eigenvalues --  -38.43887 -38.43816 -38.43600 -38.43598 -38.43502
  Beta  occ. eigenvalues --  -38.43254 -38.43147  -2.19746  -2.19614  -2.19477
  Beta  occ. eigenvalues --   -2.19424  -2.19405  -2.19127  -2.19086  -1.13455
  Beta  occ. eigenvalues --   -1.13395  -1.13369  -1.13324  -1.13280  -1.13266
  Beta  occ. eigenvalues --   -1.13256  -1.13145  -1.13115  -1.13108  -1.13091
  Beta  occ. eigenvalues --   -1.13074  -1.13069  -1.13034  -1.12997  -1.12843
  Beta  occ. eigenvalues --   -1.12784  -1.12774  -1.12760  -1.12754  -1.12710
  Beta  occ. eigenvalues --   -0.18112  -0.12877  -0.12226
  Beta virt. eigenvalues --   -0.06959  -0.05488  -0.05032  -0.04713  -0.02450
  Beta virt. eigenvalues --   -0.02126  -0.01622  -0.01216  -0.01126  -0.00347
  Beta virt. eigenvalues --   -0.00248   0.00125   0.00391   0.00862   0.00919

 Mulliken charges and spin densities:
               1          2
     1  Na  -0.582228   0.757618
     2  Na  -0.015430  -0.099464
     3  Na  -0.249169   0.442964
     4  Na   0.188353  -0.066662
     5  Na   0.299194   0.033377
     6  Na   0.043691  -0.051975
     7  Na   0.315588  -0.015859
 Sum of Mulliken charges =  -0.00000   1.00000

 Dipole moment (field-independent basis, Debye):
    X=              0.3369    Y=             -0.0254    Z=              0.1882  Tot=              0.3867
 Quadrupole moment (field-independent basis, Debye-Ang):
   XX=            -59.9131   YY=            -60.8224   ZZ=            -73.5566
   XY=             -0.3302   XZ=              0.8586   YZ=             -0.2269

 Normal termination of Gaussian 16 at Wed Dec  6 01:17:51 2023.
