 Gaussian 16, Revision B.01,
 Gaussian 16:  ES64L-G16RevB.01 20-Dec-2017

 -------------------------
 #P B3LYP/6-311+g(d) force
 -------------------------

 -----
 DPGEN
 -----
 Symbolic Z-matrix:
 Charge =  0 Multiplicity = 2

                         Standard orientation:
 ---------------------------------------------------------------------
 Center     Atomic      Atomic             Coordinates (Angstroms)
 Number     Number       Type             X           Y           Z
 ---------------------------------------------------------------------
      1         11           0        0.421896   -0.063373    1.895897
      2         11           0       -0.370930   -2.573243    0.492503
      3         11           0        2.618656   -1.503245   -0.454503
      4         11           0        1.971959    2.237622   -0.229843
      5         11           0       -0.151453    0.075671   -1.781624
      6         11           0       -1.253811    2.279459    0.508170
      7         11           0       -3.236317   -0.452891   -0.430600
 ---------------------------------------------------------------------

 SCF Done:  E(UB3LYP) =  -1136.13728336     A.U. after   18 cycles

 The electronic state is 2-A.
 Alpha  occ. eigenvalues --  -38.43689 -38.43662 -38.43598 -38.43440 -38.43386
 Alpha  occ. eigenvalues --  -38.43289 -38.43276  -2.19589  -2.19549  -2.19485
 Alpha  occ. eigenvalues --   -2.19410  -2.19254  -2.19204  -2.19194  -1.13322
 Alpha  occ. eigenvalues --   -1.13257  -1.13237  -1.13226  -1.13189  -1.13176
 Alpha  occ. eigenvalues --   -1.13171  -1.13144  -1.13131  -1.13095  -1.13057
 Alpha  occ. eigenvalues --   -1.13022  -1.12936  -1.12920  -1.12896  -1.12890
 Alpha  occ. eigenvalues --   -1.12876  -1.12855  -1.12840  -1.12791  -1.12783
 Alpha  occ. eigenvalues --   -0.19080  -0.12865  -0.12637  -0.11234
 Alpha virt. eigenvalues --   -0.05292  -0.04957  -0.04458  -0.03287  -0.03122
 Alpha virt. eigenvalues --   -0.02772  -0.01434  -0.01013  -0.00185   0.00100
 Alpha virt. eigenvalues --    0.00120   0.00354   0.00854   0.00920   0.00936

  Beta  occ. eigenvalues --  -38.43679 -38.43658 -38.43510 -38.43382 -38.43369
  Beta  occ. eigenvalues --  -38.43274 -38.43260  -2.19535  -2.19479  -2.19429
  Beta  occ. eigenvalues --   -2.19281  -2.19249  -2.19182  -2.19170  -1.13239
  Beta  occ. eigenvalues --   -1.13204  -1.13190  -1.13171  -1.13152  -1.13144
  Beta  occ. eigenvalues --   -1.13139  -1.13123  -1.13082  -1.13018  -1.12978
  Beta  occ. eigenvalues --   -1.12938  -1.12917  -1.12902  -1.12876  -1.12861
  Beta  occ. eigenvalues --   -1.12843  -1.12820  -1.12801  -1.12780  -1.12771
  Beta  occ. eigenvalues --   -0.18331  -0.12606  -0.12367
  Beta virt. eigenvalues --   -0.07275  -0.05219  -0.04937  -0.04430  -0.02522
  Beta virt. eigenvalues --   -0.02356  -0.01710  -0.01316  -0.00966  -0.00081
  Beta virt. eigenvalues --    0.00062   0.00155   0.00377   0.00916   0.00928

 Mulliken charges and spin densities:
               1          2
     1  Na  -0.103879   0.431963
     2  Na   0.284188   0.018417
     3  Na  -0.020123  -0.041578
     4  Na  -0.004596  -0.086239
     5  Na  -0.393699   0.698891
     6  Na   0.242365   0.027547
     7  Na  -0.004255  -0.049000
 Sum of Mulliken charges =  -0.00000   1.00000

 Dipole moment (field-independent basis, Debye):
    X=              0.1377    Y=             -0.0106    Z=             -0.1245  Tot=              0.1859
 Quadrupole moment (field-independent basis, Debye-Ang):
   XX=            -57.3758   YY=            -64.7295   ZZ=            -71.8951
   XY=              0.4103   XZ=             -1.2457   YZ=              0.4888

 Normal termination of Gaussian 16 at Thu Dec  7 15:16:16 2023.
