 Gaussian 16, Revision B.01,
 Gaussian 16:  ES64L-G16RevB.01 20-Dec-2017

 -------------------------
 #P B3LYP/6-311+g(d) force
 -------------------------

 -----
 DPGEN
 -----
 Symbolic Z-matrix:
 Charge =  0 Multiplicity = 2

                         Standard orientation:
 ---------------------------------------------------------------------
 Center     Atomic      Atomic             Coordinates (Angstroms)
 Number     Number       Type             X           Y           Z
 ---------------------------------------------------------------------
      1         11           0       -0.245876   -0.789738   -1.709104
      2         11           0       -0.007202    2.694413   -0.364948
      3         11           0        5.463638   -0.520447   -0.252691
      4         11           0        2.530438   -0.376396    0.825074
      5         11           0       -1.200980   -0.098619    1.835190
      6         11           0       -3.436952   -2.040885   -0.116953
      7         11           0       -3.103066    1.131673   -0.216568
 ---------------------------------------------------------------------

 SCF Done:  E(UB3LYP) =  -1136.11222155     A.U. after   30 cycles

 The electronic state is 2-A.
 Alpha  occ. eigenvalues --  -38.45287 -38.44997 -38.44649 -38.44050 -38.43714
 Alpha  occ. eigenvalues --  -38.43145 -38.43034  -2.21175  -2.20921  -2.20426
 Alpha  occ. eigenvalues --   -2.19910  -2.19531  -2.18963  -2.18883  -1.14924
 Alpha  occ. eigenvalues --   -1.14843  -1.14752  -1.14599  -1.14578  -1.14521
 Alpha  occ. eigenvalues --   -1.14097  -1.14079  -1.14078  -1.13583  -1.13543
 Alpha  occ. eigenvalues --   -1.13502  -1.13222  -1.13205  -1.13151  -1.12644
 Alpha  occ. eigenvalues --   -1.12621  -1.12603  -1.12571  -1.12536  -1.12525
 Alpha  occ. eigenvalues --   -0.18253  -0.13636  -0.11439  -0.10755
 Alpha virt. eigenvalues --   -0.08068  -0.04766  -0.04210  -0.03388  -0.03099
 Alpha virt. eigenvalues --   -0.02532  -0.02182  -0.01487  -0.01157  -0.00677
 Alpha virt. eigenvalues --   -0.00584   0.00117   0.00200   0.00614   0.00702

  Beta  occ. eigenvalues --  -38.45239 -38.44975 -38.44645 -38.43941 -38.43712
  Beta  occ. eigenvalues --  -38.43141 -38.43034  -2.21089  -2.20886  -2.20419
  Beta  occ. eigenvalues --   -2.19708  -2.19529  -2.18959  -2.18885  -1.14863
  Beta  occ. eigenvalues --   -1.14767  -1.14693  -1.14563  -1.14531  -1.14502
  Beta  occ. eigenvalues --   -1.14093  -1.14074  -1.14072  -1.13446  -1.13409
  Beta  occ. eigenvalues --   -1.13355  -1.13223  -1.13193  -1.13148  -1.12643
  Beta  occ. eigenvalues --   -1.12604  -1.12597  -1.12577  -1.12539  -1.12501
  Beta  occ. eigenvalues --   -0.17502  -0.13471  -0.11205
  Beta virt. eigenvalues --   -0.07876  -0.06862  -0.04666  -0.04132  -0.02907
  Beta virt. eigenvalues --   -0.02782  -0.01802  -0.01701  -0.01226  -0.00896
  Beta virt. eigenvalues --   -0.00643  -0.00399   0.00187   0.00344   0.00671

 Mulliken charges and spin densities:
               1          2
     1  Na  -0.509006   0.611010
     2  Na  -0.121778  -0.010679
     3  Na   0.402488  -0.107750
     4  Na  -0.738224  -0.175035
     5  Na   0.005961   0.486877
     6  Na   0.283919  -0.016375
     7  Na   0.676639   0.211952
 Sum of Mulliken charges =  -0.00000   1.00000

 Dipole moment (field-independent basis, Debye):
    X=             -0.0551    Y=              0.5415    Z=             -0.4214  Tot=              0.6883
 Quadrupole moment (field-independent basis, Debye-Ang):
   XX=            -59.0505   YY=            -69.8597   ZZ=            -70.1336
   XY=             -0.8018   XZ=             -0.6433   YZ=             -3.3532

 Normal termination of Gaussian 16 at Thu Dec  7 18:26:20 2023.
