 Gaussian 16, Revision B.01,
 Gaussian 16:  ES64L-G16RevB.01 20-Dec-2017

 -------------------------
 #P B3LYP/6-311+g(d) force
 -------------------------

 -----
 DPGEN
 -----
 Symbolic Z-matrix:
 Charge =  0 Multiplicity = 2

                         Standard orientation:
 ---------------------------------------------------------------------
 Center     Atomic      Atomic             Coordinates (Angstroms)
 Number     Number       Type             X           Y           Z
 ---------------------------------------------------------------------
      1         11           0       -0.956924   -1.201869    1.868235
      2         11           0       -2.855643    0.581786   -0.750067
      3         11           0       -1.252305   -2.484964   -1.046585
      4         11           0        2.295122   -1.953753    0.267517
      5         11           0        3.382600    1.376592   -0.466985
      6         11           0        0.426228    0.718681   -0.386462
      7         11           0       -1.039079    2.963527    0.514346
 ---------------------------------------------------------------------

 SCF Done:  E(UB3LYP) =  -1136.12522504     A.U. after   20 cycles

 The electronic state is 2-A.
 Alpha  occ. eigenvalues --  -38.44280 -38.44052 -38.43981 -38.43784 -38.43442
 Alpha  occ. eigenvalues --  -38.43422 -38.42758  -2.20104  -2.19878  -2.19864
 Alpha  occ. eigenvalues --   -2.19680  -2.19355  -2.19299  -2.18879  -1.13797
 Alpha  occ. eigenvalues --   -1.13783  -1.13715  -1.13655  -1.13586  -1.13524
 Alpha  occ. eigenvalues --   -1.13503  -1.13493  -1.13476  -1.13367  -1.13332
 Alpha  occ. eigenvalues --   -1.13292  -1.13064  -1.13035  -1.12965  -1.12961
 Alpha  occ. eigenvalues --   -1.12930  -1.12897  -1.12562  -1.12538  -1.12507
 Alpha  occ. eigenvalues --   -0.18560  -0.13332  -0.12734  -0.10155
 Alpha virt. eigenvalues --   -0.05846  -0.05413  -0.04853  -0.02950  -0.02843
 Alpha virt. eigenvalues --   -0.01831  -0.01561  -0.01289  -0.00734  -0.00397
 Alpha virt. eigenvalues --   -0.00030   0.00325   0.00693   0.00754   0.00816

  Beta  occ. eigenvalues --  -38.44275 -38.44041 -38.43972 -38.43755 -38.43389
  Beta  occ. eigenvalues --  -38.43372 -38.42742  -2.20096  -2.19858  -2.19848
  Beta  occ. eigenvalues --   -2.19630  -2.19240  -2.19225  -2.18856  -1.13794
  Beta  occ. eigenvalues --   -1.13766  -1.13703  -1.13644  -1.13573  -1.13507
  Beta  occ. eigenvalues --   -1.13491  -1.13480  -1.13453  -1.13333  -1.13297
  Beta  occ. eigenvalues --   -1.13239  -1.12999  -1.12948  -1.12919  -1.12876
  Beta  occ. eigenvalues --   -1.12870  -1.12825  -1.12534  -1.12505  -1.12485
  Beta  occ. eigenvalues --   -0.17932  -0.13075  -0.12495
  Beta virt. eigenvalues --   -0.06404  -0.05653  -0.05310  -0.04686  -0.02327
  Beta virt. eigenvalues --   -0.02288  -0.01582  -0.01323  -0.00822  -0.00588
  Beta virt. eigenvalues --   -0.00370   0.00174   0.00416   0.00760   0.00831

 Mulliken charges and spin densities:
               1          2
     1  Na  -0.256513   0.354850
     2  Na   0.800907   0.156871
     3  Na   0.210504   0.248209
     4  Na   0.600373   0.039233
     5  Na   0.611054   0.004027
     6  Na  -2.607477   0.163445
     7  Na   0.641152   0.033366
 Sum of Mulliken charges =  -0.00000   1.00000

 Dipole moment (field-independent basis, Debye):
    X=              0.3372    Y=             -0.0186    Z=              0.3832  Tot=              0.5108
 Quadrupole moment (field-independent basis, Debye-Ang):
   XX=            -57.3601   YY=            -59.8844   ZZ=            -74.3592
   XY=             -2.1345   XZ=             -0.5361   YZ=              1.4953

 Normal termination of Gaussian 16 at Fri Dec  8 04:45:18 2023.
