 Gaussian 16, Revision B.01,
 Gaussian 16:  ES64L-G16RevB.01 20-Dec-2017

 -------------------------
 #P B3LYP/6-311+g(d) force
 -------------------------

 -----
 DPGEN
 -----
 Symbolic Z-matrix:
 Charge =  0 Multiplicity = 2

                         Standard orientation:
 ---------------------------------------------------------------------
 Center     Atomic      Atomic             Coordinates (Angstroms)
 Number     Number       Type             X           Y           Z
 ---------------------------------------------------------------------
      1         11           0       -0.494313    2.220088   -0.273051
      2         11           0       -0.438010   -2.173862    1.221536
      3         11           0       -4.615923   -0.217853    0.189808
      4         11           0       -1.974191   -0.226478   -0.989187
      5         11           0        2.395019    2.526076    0.779691
      6         11           0        1.433273   -0.222734   -0.392372
      7         11           0        3.694146   -1.905237   -0.536425
 ---------------------------------------------------------------------

 SCF Done:  E(UB3LYP) =  -1136.10344646     A.U. after   22 cycles

 The electronic state is 2-A.
 Alpha  occ. eigenvalues --  -38.44721 -38.44502 -38.44203 -38.44058 -38.43845
 Alpha  occ. eigenvalues --  -38.43784 -38.42762  -2.20557  -2.20355  -2.20066
 Alpha  occ. eigenvalues --   -2.19908  -2.19803  -2.19781  -2.18888  -1.14243
 Alpha  occ. eigenvalues --   -1.14212  -1.14161  -1.14054  -1.14003  -1.13999
 Alpha  occ. eigenvalues --   -1.13850  -1.13683  -1.13678  -1.13673  -1.13635
 Alpha  occ. eigenvalues --   -1.13526  -1.13495  -1.13452  -1.13440  -1.13401
 Alpha  occ. eigenvalues --   -1.13390  -1.13321  -1.12593  -1.12560  -1.12492
 Alpha  occ. eigenvalues --   -0.18392  -0.14144  -0.12375  -0.10493
 Alpha virt. eigenvalues --   -0.07119  -0.04876  -0.04171  -0.03510  -0.03043
 Alpha virt. eigenvalues --   -0.02410  -0.01691  -0.01003  -0.00720  -0.00359
 Alpha virt. eigenvalues --   -0.00312   0.00057   0.00544   0.00620   0.00644

  Beta  occ. eigenvalues --  -38.44684 -38.44499 -38.44107 -38.44000 -38.43841
  Beta  occ. eigenvalues --  -38.43771 -38.42738  -2.20490  -2.20348  -2.19889
  Beta  occ. eigenvalues --   -2.19801  -2.19793  -2.19770  -2.18856  -1.14188
  Beta  occ. eigenvalues --   -1.14164  -1.14124  -1.14052  -1.14000  -1.13989
  Beta  occ. eigenvalues --   -1.13751  -1.13633  -1.13607  -1.13554  -1.13548
  Beta  occ. eigenvalues --   -1.13453  -1.13443  -1.13435  -1.13417  -1.13390
  Beta  occ. eigenvalues --   -1.13333  -1.13297  -1.12553  -1.12509  -1.12456
  Beta  occ. eigenvalues --   -0.17836  -0.13318  -0.12170
  Beta virt. eigenvalues --   -0.07010  -0.06853  -0.04697  -0.03934  -0.03091
  Beta virt. eigenvalues --   -0.02663  -0.02195  -0.01368  -0.00753  -0.00443
  Beta virt. eigenvalues --   -0.00140  -0.00009   0.00236   0.00644   0.00727

 Mulliken charges and spin densities:
               1          2
     1  Na  -0.026293  -0.037811
     2  Na   0.154049   0.026299
     3  Na   0.080220   0.425369
     4  Na   0.954303   0.095283
     5  Na   0.763294   0.093585
     6  Na  -2.163093   0.108314
     7  Na   0.237520   0.288961
 Sum of Mulliken charges =  -0.00000   1.00000

 Dipole moment (field-independent basis, Debye):
    X=              0.2862    Y=             -0.0570    Z=              1.3132  Tot=              1.3452
 Quadrupole moment (field-independent basis, Debye-Ang):
   XX=            -69.5720   YY=            -66.8669   ZZ=            -65.1029
   XY=              2.7872   XZ=             -1.0569   YZ=             -0.3064

 Normal termination of Gaussian 16 at Thu Dec  7 22:59:00 2023.
