 Gaussian 16, Revision B.01,
 Gaussian 16:  ES64L-G16RevB.01 20-Dec-2017

 -------------------------
 #P B3LYP/6-311+g(d) force
 -------------------------

 -----
 DPGEN
 -----
 Symbolic Z-matrix:
 Charge =  0 Multiplicity = 2

                         Standard orientation:
 ---------------------------------------------------------------------
 Center     Atomic      Atomic             Coordinates (Angstroms)
 Number     Number       Type             X           Y           Z
 ---------------------------------------------------------------------
      1         11           0       -0.409778    0.699365    1.692993
      2         11           0        0.293336   -2.697248    0.700599
      3         11           0        0.013124   -0.254587   -1.352345
      4         11           0        1.685038    2.614015   -0.039696
      5         11           0       -2.203639    2.025445   -0.235779
      6         11           0        3.399087   -0.888777   -0.335700
      7         11           0       -2.777168   -1.498213   -0.430072
 ---------------------------------------------------------------------

 SCF Done:  E(UB3LYP) =  -1136.13135904     A.U. after   21 cycles

 The electronic state is 2-A.
 Alpha  occ. eigenvalues --  -38.44312 -38.44040 -38.43930 -38.43804 -38.43279
 Alpha  occ. eigenvalues --  -38.43010 -38.42964  -2.20085  -2.19852  -2.19826
 Alpha  occ. eigenvalues --   -2.19668  -2.19148  -2.19009  -2.18997  -1.13762
 Alpha  occ. eigenvalues --   -1.13733  -1.13727  -1.13581  -1.13543  -1.13525
 Alpha  occ. eigenvalues --   -1.13489  -1.13470  -1.13426  -1.13365  -1.13313
 Alpha  occ. eigenvalues --   -1.13301  -1.12874  -1.12809  -1.12763  -1.12761
 Alpha  occ. eigenvalues --   -1.12655  -1.12640  -1.12621  -1.12604  -1.12589
 Alpha  occ. eigenvalues --   -0.18757  -0.12986  -0.12664  -0.10206
 Alpha virt. eigenvalues --   -0.05891  -0.05453  -0.04614  -0.02923  -0.02832
 Alpha virt. eigenvalues --   -0.01883  -0.01734  -0.01400  -0.00502  -0.00353
 Alpha virt. eigenvalues --    0.00037   0.00310   0.00747   0.00762   0.00880

  Beta  occ. eigenvalues --  -38.44307 -38.44036 -38.43919 -38.43790 -38.43256
  Beta  occ. eigenvalues --  -38.42934 -38.42919  -2.20077  -2.19849  -2.19810
  Beta  occ. eigenvalues --   -2.19646  -2.19108  -2.18918  -2.18868  -1.13749
  Beta  occ. eigenvalues --   -1.13727  -1.13723  -1.13564  -1.13533  -1.13516
  Beta  occ. eigenvalues --   -1.13467  -1.13458  -1.13412  -1.13346  -1.13294
  Beta  occ. eigenvalues --   -1.13273  -1.12843  -1.12759  -1.12739  -1.12690
  Beta  occ. eigenvalues --   -1.12574  -1.12561  -1.12548  -1.12533  -1.12484
  Beta  occ. eigenvalues --   -0.18080  -0.12689  -0.12433
  Beta virt. eigenvalues --   -0.06427  -0.05822  -0.05367  -0.04517  -0.02233
  Beta virt. eigenvalues --   -0.02156  -0.01655  -0.01378  -0.00926  -0.00522
  Beta virt. eigenvalues --   -0.00286   0.00170   0.00372   0.00761   0.00817

 Mulliken charges and spin densities:
               1          2
     1  Na   0.186876   0.503854
     2  Na  -0.048723   0.130085
     3  Na  -0.318350   0.383262
     4  Na  -0.153402  -0.083367
     5  Na   0.126445  -0.015988
     6  Na  -0.056957  -0.010263
     7  Na   0.264111   0.092417
 Sum of Mulliken charges =  -0.00000   1.00000

 Dipole moment (field-independent basis, Debye):
    X=              0.1835    Y=              0.2046    Z=              0.0434  Tot=              0.2782
 Quadrupole moment (field-independent basis, Debye-Ang):
   XX=            -53.6467   YY=            -60.7754   ZZ=            -76.4566
   XY=              0.4372   XZ=              0.7188   YZ=             -1.7503

 Normal termination of Gaussian 16 at Thu Dec  7 09:59:13 2023.
