 Gaussian 16, Revision B.01,
 Gaussian 16:  ES64L-G16RevB.01 20-Dec-2017

 -------------------------
 #P B3LYP/6-311+g(d) force
 -------------------------

 -----
 DPGEN
 -----
 Symbolic Z-matrix:
 Charge =  0 Multiplicity = 2

                         Standard orientation:
 ---------------------------------------------------------------------
 Center     Atomic      Atomic             Coordinates (Angstroms)
 Number     Number       Type             X           Y           Z
 ---------------------------------------------------------------------
      1         11           0       -2.653223    1.896739    0.175142
      2         11           0        2.371237   -1.905797   -0.536587
      3         11           0        0.971742    1.936746   -0.887823
      4         11           0       -0.111055   -0.664666    1.997209
      5         11           0        3.388273    0.828924    0.736242
      6         11           0       -3.315152   -1.285434    0.240456
      7         11           0       -0.651822   -0.806513   -1.724639
 ---------------------------------------------------------------------

 SCF Done:  E(UB3LYP) =  -1136.12076861     A.U. after   24 cycles

 The electronic state is 2-A.
 Alpha  occ. eigenvalues --  -38.44906 -38.44774 -38.44770 -38.44132 -38.43868
 Alpha  occ. eigenvalues --  -38.43607 -38.42663  -2.20711  -2.20630  -2.20608
 Alpha  occ. eigenvalues --   -2.19943  -2.19714  -2.19531  -2.18541  -1.14396
 Alpha  occ. eigenvalues --   -1.14356  -1.14328  -1.14305  -1.14294  -1.14286
 Alpha  occ. eigenvalues --   -1.14273  -1.14260  -1.14244  -1.13618  -1.13601
 Alpha  occ. eigenvalues --   -1.13585  -1.13394  -1.13373  -1.13359  -1.13221
 Alpha  occ. eigenvalues --   -1.13167  -1.13133  -1.12235  -1.12212  -1.12163
 Alpha  occ. eigenvalues --   -0.18431  -0.14291  -0.11160  -0.10969
 Alpha virt. eigenvalues --   -0.06960  -0.05796  -0.04335  -0.03137  -0.02683
 Alpha virt. eigenvalues --   -0.02561  -0.02463  -0.01276  -0.00583  -0.00370
 Alpha virt. eigenvalues --    0.00168   0.00175   0.00287   0.00591   0.00670

  Beta  occ. eigenvalues --  -38.44850 -38.44774 -38.44750 -38.44130 -38.43857
  Beta  occ. eigenvalues --  -38.43523 -38.42646  -2.20611  -2.20604  -2.20594
  Beta  occ. eigenvalues --   -2.19941  -2.19698  -2.19378  -2.18513  -1.14324
  Beta  occ. eigenvalues --   -1.14284  -1.14283  -1.14282  -1.14272  -1.14267
  Beta  occ. eigenvalues --   -1.14259  -1.14233  -1.14224  -1.13615  -1.13601
  Beta  occ. eigenvalues --   -1.13574  -1.13367  -1.13364  -1.13335  -1.13118
  Beta  occ. eigenvalues --   -1.13056  -1.13020  -1.12210  -1.12174  -1.12147
  Beta  occ. eigenvalues --   -0.17702  -0.14079  -0.10757
  Beta virt. eigenvalues --   -0.07327  -0.06700  -0.05793  -0.03647  -0.02968
  Beta virt. eigenvalues --   -0.02402  -0.01911  -0.01741  -0.01176  -0.00494
  Beta virt. eigenvalues --   -0.00171   0.00171   0.00205   0.00475   0.00669

 Mulliken charges and spin densities:
               1          2
     1  Na  -0.131971   0.018534
     2  Na  -0.070552   0.011461
     3  Na  -0.594780  -0.072919
     4  Na  -0.471725   0.327499
     5  Na   0.673660   0.215702
     6  Na   0.616572   0.100913
     7  Na  -0.021204   0.398809
 Sum of Mulliken charges =  -0.00000   1.00000

 Dipole moment (field-independent basis, Debye):
    X=             -0.4047    Y=             -0.4418    Z=              0.6351  Tot=              0.8731
 Quadrupole moment (field-independent basis, Debye-Ang):
   XX=            -47.8881   YY=            -76.1505   ZZ=            -70.9904
   XY=              0.1458   XZ=              0.5821   YZ=              2.2473

 Normal termination of Gaussian 16 at Thu Dec  7 22:29:30 2023.
