 Gaussian 16, Revision B.01,
 Gaussian 16:  ES64L-G16RevB.01 20-Dec-2017

 -------------------------
 #P B3LYP/6-311+g(d) force
 -------------------------

 -----
 DPGEN
 -----
 Symbolic Z-matrix:
 Charge =  0 Multiplicity = 2

                         Standard orientation:
 ---------------------------------------------------------------------
 Center     Atomic      Atomic             Coordinates (Angstroms)
 Number     Number       Type             X           Y           Z
 ---------------------------------------------------------------------
      1         11           0       -2.940689    0.730279    1.324591
      2         11           0       -0.413609   -3.459469    0.432187
      3         11           0       -3.467332   -2.084823   -0.719506
      4         11           0        3.344751   -2.203953   -0.563308
      5         11           0        3.881300    0.597704    0.227177
      6         11           0        1.212672    3.152858    0.511623
      7         11           0       -1.617093    3.267404   -1.212764
 ---------------------------------------------------------------------

 SCF Done:  E(UB3LYP) =  -1136.10614130     A.U. after   24 cycles

 The electronic state is 2-A.
 Alpha  occ. eigenvalues --  -38.44850 -38.44812 -38.44730 -38.44656 -38.44636
 Alpha  occ. eigenvalues --  -38.43710 -38.43653  -2.20628  -2.20610  -2.20509
 Alpha  occ. eigenvalues --   -2.20437  -2.20398  -2.19548  -2.19441  -1.14327
 Alpha  occ. eigenvalues --   -1.14302  -1.14289  -1.14275  -1.14271  -1.14246
 Alpha  occ. eigenvalues --   -1.14181  -1.14169  -1.14126  -1.14106  -1.14094
 Alpha  occ. eigenvalues --   -1.14081  -1.14067  -1.14056  -1.14023  -1.13220
 Alpha  occ. eigenvalues --   -1.13187  -1.13177  -1.13099  -1.13085  -1.13055
 Alpha  occ. eigenvalues --   -0.15627  -0.13704  -0.13291  -0.09962
 Alpha virt. eigenvalues --   -0.07419  -0.05881  -0.03806  -0.03623  -0.02910
 Alpha virt. eigenvalues --   -0.02618  -0.02514  -0.01618  -0.01412  -0.00837
 Alpha virt. eigenvalues --   -0.00342  -0.00154   0.00313   0.00451   0.00482

  Beta  occ. eigenvalues --  -38.44836 -38.44808 -38.44711 -38.44644 -38.44595
  Beta  occ. eigenvalues --  -38.43678 -38.43571  -2.20608  -2.20604  -2.20475
  Beta  occ. eigenvalues --   -2.20418  -2.20324  -2.19488  -2.19287  -1.14313
  Beta  occ. eigenvalues --   -1.14285  -1.14274  -1.14272  -1.14247  -1.14225
  Beta  occ. eigenvalues --   -1.14159  -1.14147  -1.14099  -1.14093  -1.14082
  Beta  occ. eigenvalues --   -1.14039  -1.14024  -1.14005  -1.13961  -1.13180
  Beta  occ. eigenvalues --   -1.13147  -1.13135  -1.12993  -1.12981  -1.12954
  Beta  occ. eigenvalues --   -0.15192  -0.13187  -0.12615
  Beta virt. eigenvalues --   -0.07482  -0.06693  -0.05572  -0.03596  -0.03359
  Beta virt. eigenvalues --   -0.02721  -0.02109  -0.02073  -0.01578  -0.01218
  Beta virt. eigenvalues --   -0.00665  -0.00194   0.00117   0.00407   0.00507

 Mulliken charges and spin densities:
               1          2
     1  Na  -0.002171   0.378824
     2  Na  -0.277209   0.454676
     3  Na   0.156206  -0.062316
     4  Na  -0.085740  -0.001285
     5  Na   0.118731   0.122592
     6  Na  -0.176997   0.090426
     7  Na   0.267179   0.017084
 Sum of Mulliken charges =  -0.00000   1.00000

 Dipole moment (field-independent basis, Debye):
    X=             -0.6467    Y=              0.9616    Z=             -0.4428  Tot=              1.2405
 Quadrupole moment (field-independent basis, Debye-Ang):
   XX=            -67.6216   YY=            -70.5064   ZZ=            -65.4361
   XY=             -0.7030   XZ=              5.0539   YZ=              2.6274

 Normal termination of Gaussian 16 at Mon Dec  4 05:14:30 2023.
