 Gaussian 16, Revision B.01,
 Gaussian 16:  ES64L-G16RevB.01 20-Dec-2017

 -------------------------
 #P B3LYP/6-311+g(d) force
 -------------------------

 -----
 DPGEN
 -----
 Symbolic Z-matrix:
 Charge =  0 Multiplicity = 2

                         Standard orientation:
 ---------------------------------------------------------------------
 Center     Atomic      Atomic             Coordinates (Angstroms)
 Number     Number       Type             X           Y           Z
 ---------------------------------------------------------------------
      1         11           0        0.147414    3.067573   -0.406927
      2         11           0       -4.746917    0.404912    0.719092
      3         11           0       -3.356667   -1.638720   -0.762125
      4         11           0       -0.227532   -0.044526   -0.464356
      5         11           0        2.283339   -2.478795    0.698939
      6         11           0        2.481836    0.788113    1.625495
      7         11           0        3.418527   -0.098558   -1.410117
 ---------------------------------------------------------------------

 SCF Done:  E(UB3LYP) =  -1136.10854831     A.U. after   24 cycles

 The electronic state is 2-A.
 Alpha  occ. eigenvalues --  -38.45646 -38.45437 -38.43901 -38.43665 -38.43580
 Alpha  occ. eigenvalues --  -38.42753 -38.42752  -2.21480  -2.21295  -2.19743
 Alpha  occ. eigenvalues --   -2.19510  -2.19427  -2.18691  -2.18569  -1.15158
 Alpha  occ. eigenvalues --   -1.15138  -1.15095  -1.14988  -1.14953  -1.14884
 Alpha  occ. eigenvalues --   -1.13536  -1.13372  -1.13358  -1.13157  -1.13149
 Alpha  occ. eigenvalues --   -1.13118  -1.13116  -1.13080  -1.13053  -1.12394
 Alpha  occ. eigenvalues --   -1.12379  -1.12327  -1.12230  -1.12209  -1.12180
 Alpha  occ. eigenvalues --   -0.17606  -0.13920  -0.11485  -0.09900
 Alpha virt. eigenvalues --   -0.07311  -0.05472  -0.04369  -0.03265  -0.02886
 Alpha virt. eigenvalues --   -0.01995  -0.01828  -0.01421  -0.01039  -0.00862
 Alpha virt. eigenvalues --   -0.00407  -0.00018   0.00188   0.00574   0.00632

  Beta  occ. eigenvalues --  -38.45605 -38.45413 -38.43845 -38.43670 -38.43562
  Beta  occ. eigenvalues --  -38.42754 -38.42696  -2.21408  -2.21253  -2.19640
  Beta  occ. eigenvalues --   -2.19525  -2.19396  -2.18588  -2.18572  -1.15099
  Beta  occ. eigenvalues --   -1.15077  -1.15047  -1.14936  -1.14924  -1.14858
  Beta  occ. eigenvalues --   -1.13486  -1.13303  -1.13285  -1.13169  -1.13151
  Beta  occ. eigenvalues --   -1.13100  -1.13084  -1.13061  -1.13007  -1.12331
  Beta  occ. eigenvalues --   -1.12324  -1.12267  -1.12233  -1.12199  -1.12149
  Beta  occ. eigenvalues --   -0.17007  -0.13440  -0.11303
  Beta virt. eigenvalues --   -0.07067  -0.06435  -0.05090  -0.04215  -0.02897
  Beta virt. eigenvalues --   -0.02618  -0.01846  -0.01588  -0.01001  -0.00871
  Beta virt. eigenvalues --   -0.00454  -0.00229   0.00193   0.00273   0.00655

 Mulliken charges and spin densities:
               1          2
     1  Na   0.815587   0.011440
     2  Na  -0.074701   0.293446
     3  Na   0.270259  -0.035163
     4  Na  -2.306681   0.093333
     5  Na  -0.080556  -0.039044
     6  Na   0.505214   0.336556
     7  Na   0.870878   0.339432
 Sum of Mulliken charges =  -0.00000   1.00000

 Dipole moment (field-independent basis, Debye):
    X=              1.4703    Y=              0.1067    Z=              0.1680  Tot=              1.4838
 Quadrupole moment (field-independent basis, Debye-Ang):
   XX=            -74.4947   YY=            -68.9946   ZZ=            -58.7416
   XY=             -3.9605   XZ=             -2.4416   YZ=              2.3546

 Normal termination of Gaussian 16 at Tue Dec  5 13:42:00 2023.
