 Gaussian 16, Revision B.01,
 Gaussian 16:  ES64L-G16RevB.01 20-Dec-2017

 -------------------------
 #P B3LYP/6-311+g(d) force
 -------------------------

 -----
 DPGEN
 -----
 Symbolic Z-matrix:
 Charge =  0 Multiplicity = 2

                         Standard orientation:
 ---------------------------------------------------------------------
 Center     Atomic      Atomic             Coordinates (Angstroms)
 Number     Number       Type             X           Y           Z
 ---------------------------------------------------------------------
      1         11           0        2.710117    1.807959    0.100011
      2         11           0       -1.122911    2.947876   -0.010756
      3         11           0       -3.272326    0.084521   -0.235678
      4         11           0        0.940782   -0.498487    1.767763
      5         11           0       -1.812141   -2.691844    0.248363
      6         11           0        2.625750   -2.165597   -0.889367
      7         11           0       -0.069271    0.515572   -0.980336
 ---------------------------------------------------------------------

 SCF Done:  E(UB3LYP) =  -1136.12268889     A.U. after   21 cycles

 The electronic state is 2-A.
 Alpha  occ. eigenvalues --  -38.44783 -38.44043 -38.43946 -38.43850 -38.43773
 Alpha  occ. eigenvalues --  -38.43397 -38.43285  -2.20612  -2.19897  -2.19758
 Alpha  occ. eigenvalues --   -2.19717  -2.19576  -2.19353  -2.19309  -1.14298
 Alpha  occ. eigenvalues --   -1.14282  -1.14226  -1.13607  -1.13576  -1.13563
 Alpha  occ. eigenvalues --   -1.13538  -1.13418  -1.13398  -1.13390  -1.13360
 Alpha  occ. eigenvalues --   -1.13308  -1.13237  -1.13217  -1.13204  -1.13139
 Alpha  occ. eigenvalues --   -1.12973  -1.12966  -1.12937  -1.12913  -1.12908
 Alpha  occ. eigenvalues --   -0.18304  -0.13485  -0.12501  -0.09802
 Alpha virt. eigenvalues --   -0.06217  -0.05599  -0.04976  -0.03005  -0.02563
 Alpha virt. eigenvalues --   -0.01965  -0.01712  -0.01434  -0.00888  -0.00680
 Alpha virt. eigenvalues --   -0.00016   0.00268   0.00653   0.00692   0.00793

  Beta  occ. eigenvalues --  -38.44772 -38.44041 -38.43940 -38.43850 -38.43710
  Beta  occ. eigenvalues --  -38.43334 -38.43263  -2.20595  -2.19896  -2.19748
  Beta  occ. eigenvalues --   -2.19718  -2.19459  -2.19315  -2.19194  -1.14289
  Beta  occ. eigenvalues --   -1.14251  -1.14211  -1.13607  -1.13573  -1.13552
  Beta  occ. eigenvalues --   -1.13535  -1.13401  -1.13390  -1.13387  -1.13356
  Beta  occ. eigenvalues --   -1.13300  -1.13148  -1.13137  -1.13128  -1.13077
  Beta  occ. eigenvalues --   -1.12950  -1.12927  -1.12877  -1.12840  -1.12819
  Beta  occ. eigenvalues --   -0.17771  -0.13198  -0.12204
  Beta virt. eigenvalues --   -0.06272  -0.06004  -0.05381  -0.04859  -0.02429
  Beta virt. eigenvalues --   -0.02010  -0.01853  -0.01426  -0.00919  -0.00685
  Beta virt. eigenvalues --   -0.00648   0.00181   0.00378   0.00717   0.00800

 Mulliken charges and spin densities:
               1          2
     1  Na   0.331844   0.145757
     2  Na   0.079166  -0.036001
     3  Na  -0.048445  -0.039460
     4  Na  -0.248881   0.280214
     5  Na   0.032030   0.018556
     6  Na  -0.252455   0.356551
     7  Na   0.106740   0.274382
 Sum of Mulliken charges =  -0.00000   1.00000

 Dipole moment (field-independent basis, Debye):
    X=             -0.0121    Y=              0.4924    Z=              0.4649  Tot=              0.6772
 Quadrupole moment (field-independent basis, Debye-Ang):
   XX=            -55.8916   YY=            -60.2866   ZZ=            -76.9070
   XY=              3.5214   XZ=             -0.2939   YZ=              0.8176

 Normal termination of Gaussian 16 at Tue Dec  5 16:05:36 2023.
