 Gaussian 16, Revision B.01,
 Gaussian 16:  ES64L-G16RevB.01 20-Dec-2017

 -------------------------
 #P B3LYP/6-311+g(d) force
 -------------------------

 -----
 DPGEN
 -----
 Symbolic Z-matrix:
 Charge =  0 Multiplicity = 2

                         Standard orientation:
 ---------------------------------------------------------------------
 Center     Atomic      Atomic             Coordinates (Angstroms)
 Number     Number       Type             X           Y           Z
 ---------------------------------------------------------------------
      1         11           0        4.057116   -0.342573   -1.463891
      2         11           0       -1.512688    2.731214   -0.503549
      3         11           0       -1.737416    0.336851    1.934570
      4         11           0       -2.929860   -0.838873   -1.810889
      5         11           0        1.200697    2.449703    0.385081
      6         11           0       -1.293502   -2.939520    0.131462
      7         11           0        2.215652   -1.396801    1.327216
 ---------------------------------------------------------------------

 SCF Done:  E(UB3LYP) =  -1136.11779704     A.U. after   19 cycles

 The electronic state is 2-A.
 Alpha  occ. eigenvalues --  -38.44917 -38.44529 -38.44386 -38.44129 -38.44016
 Alpha  occ. eigenvalues --  -38.44011 -38.43743  -2.20722  -2.20357  -2.20150
 Alpha  occ. eigenvalues --   -2.19892  -2.19826  -2.19798  -2.19616  -1.14391
 Alpha  occ. eigenvalues --   -1.14385  -1.14338  -1.14122  -1.14010  -1.13982
 Alpha  occ. eigenvalues --   -1.13809  -1.13803  -1.13772  -1.13578  -1.13568
 Alpha  occ. eigenvalues --   -1.13523  -1.13515  -1.13480  -1.13467  -1.13461
 Alpha  occ. eigenvalues --   -1.13447  -1.13405  -1.13297  -1.13253  -1.13235
 Alpha  occ. eigenvalues --   -0.16939  -0.13092  -0.12596  -0.10678
 Alpha virt. eigenvalues --   -0.06357  -0.05456  -0.05020  -0.03766  -0.03100
 Alpha virt. eigenvalues --   -0.02542  -0.01457  -0.00944  -0.00795  -0.00748
 Alpha virt. eigenvalues --   -0.00531   0.00054   0.00143   0.00283   0.00522

  Beta  occ. eigenvalues --  -38.44868 -38.44530 -38.44343 -38.44123 -38.44012
  Beta  occ. eigenvalues --  -38.43949 -38.43737  -2.20633  -2.20360  -2.20068
  Beta  occ. eigenvalues --   -2.19884  -2.19803  -2.19700  -2.19605  -1.14330
  Beta  occ. eigenvalues --   -1.14312  -1.14277  -1.14126  -1.14002  -1.13980
  Beta  occ. eigenvalues --   -1.13753  -1.13747  -1.13721  -1.13575  -1.13565
  Beta  occ. eigenvalues --   -1.13496  -1.13487  -1.13472  -1.13437  -1.13395
  Beta  occ. eigenvalues --   -1.13369  -1.13348  -1.13292  -1.13244  -1.13217
  Beta  occ. eigenvalues --   -0.16382  -0.12671  -0.12437
  Beta virt. eigenvalues --   -0.07303  -0.06096  -0.05048  -0.04600  -0.03597
  Beta virt. eigenvalues --   -0.02664  -0.01876  -0.01306  -0.00871  -0.00767
  Beta virt. eigenvalues --   -0.00378  -0.00348   0.00298   0.00316   0.00420

 Mulliken charges and spin densities:
               1          2
     1  Na   0.124821   0.239775
     2  Na   0.299764   0.085113
     3  Na   0.274272   0.326301
     4  Na  -0.220930   0.398058
     5  Na  -0.418988   0.020347
     6  Na   0.012351  -0.022346
     7  Na  -0.071291  -0.047248
 Sum of Mulliken charges =  -0.00000   1.00000

 Dipole moment (field-independent basis, Debye):
    X=             -0.0388    Y=              0.1579    Z=              0.0208  Tot=              0.1639
 Quadrupole moment (field-independent basis, Debye-Ang):
   XX=            -65.9234   YY=            -67.5367   ZZ=            -66.7767
   XY=             -1.1978   XZ=             -3.0443   YZ=             -0.9732

 Normal termination of Gaussian 16 at Sun Dec  3 16:23:16 2023.
