 Gaussian 16, Revision B.01,
 Gaussian 16:  ES64L-G16RevB.01 20-Dec-2017

 -------------------------
 #P B3LYP/6-311+g(d) force
 -------------------------

 -----
 DPGEN
 -----
 Symbolic Z-matrix:
 Charge =  0 Multiplicity = 2

                         Standard orientation:
 ---------------------------------------------------------------------
 Center     Atomic      Atomic             Coordinates (Angstroms)
 Number     Number       Type             X           Y           Z
 ---------------------------------------------------------------------
      1         11           0        0.258064    0.325028    1.834861
      2         11           0        0.494165    2.890396   -0.707865
      3         11           0        3.271727    1.736363    0.070645
      4         11           0        3.265264   -1.652886   -0.680607
      5         11           0        0.382564   -2.808353   -0.025811
      6         11           0       -2.839833   -1.552087   -0.249065
      7         11           0       -4.831949    1.061538   -0.242157
 ---------------------------------------------------------------------

 SCF Done:  E(UB3LYP) =  -1136.11718756     A.U. after   20 cycles

 The electronic state is 2-A.
 Alpha  occ. eigenvalues --  -38.45446 -38.44787 -38.44331 -38.43980 -38.43873
 Alpha  occ. eigenvalues --  -38.43543 -38.43401  -2.21243  -2.20592  -2.20185
 Alpha  occ. eigenvalues --   -2.19779  -2.19672  -2.19384  -2.19248  -1.14915
 Alpha  occ. eigenvalues --   -1.14897  -1.14848  -1.14282  -1.14247  -1.14234
 Alpha  occ. eigenvalues --   -1.13864  -1.13837  -1.13806  -1.13443  -1.13422
 Alpha  occ. eigenvalues --   -1.13413  -1.13360  -1.13334  -1.13303  -1.13074
 Alpha  occ. eigenvalues --   -1.13038  -1.13028  -1.12917  -1.12899  -1.12871
 Alpha  occ. eigenvalues --   -0.17083  -0.13731  -0.12463  -0.10716
 Alpha virt. eigenvalues --   -0.06771  -0.05897  -0.04245  -0.03425  -0.03109
 Alpha virt. eigenvalues --   -0.02292  -0.02188  -0.01550  -0.01164  -0.00656
 Alpha virt. eigenvalues --   -0.00340   0.00052   0.00422   0.00516   0.00672

  Beta  occ. eigenvalues --  -38.45386 -38.44786 -38.44307 -38.43907 -38.43878
  Beta  occ. eigenvalues --  -38.43496 -38.43396  -2.21132  -2.20590  -2.20143
  Beta  occ. eigenvalues --   -2.19688  -2.19643  -2.19296  -2.19239  -1.14840
  Beta  occ. eigenvalues --   -1.14828  -1.14762  -1.14284  -1.14247  -1.14223
  Beta  occ. eigenvalues --   -1.13840  -1.13813  -1.13751  -1.13388  -1.13376
  Beta  occ. eigenvalues --   -1.13335  -1.13328  -1.13317  -1.13258  -1.13029
  Beta  occ. eigenvalues --   -1.12981  -1.12965  -1.12912  -1.12885  -1.12846
  Beta  occ. eigenvalues --   -0.16549  -0.13229  -0.12041
  Beta virt. eigenvalues --   -0.07335  -0.06472  -0.05702  -0.03978  -0.02944
  Beta virt. eigenvalues --   -0.02664  -0.02088  -0.01929  -0.01216  -0.00940
  Beta virt. eigenvalues --   -0.00635  -0.00048   0.00250   0.00494   0.00622

 Mulliken charges and spin densities:
               1          2
     1  Na  -0.184332   0.078780
     2  Na  -0.081504  -0.032690
     3  Na   0.256029   0.279953
     4  Na  -0.078603   0.299897
     5  Na   0.063704   0.014055
     6  Na  -0.213295  -0.010388
     7  Na   0.238002   0.370392
 Sum of Mulliken charges =  -0.00000   1.00000

 Dipole moment (field-independent basis, Debye):
    X=              0.4962    Y=              1.2015    Z=              0.3634  Tot=              1.3498
 Quadrupole moment (field-independent basis, Debye-Ang):
   XX=            -72.7400   YY=            -65.1754   ZZ=            -67.4726
   XY=              0.4239   XZ=              1.1951   YZ=             -0.9632

 Normal termination of Gaussian 16 at Mon Nov 27 04:22:14 2023.
