 Gaussian 16, Revision B.01,
 Gaussian 16:  ES64L-G16RevB.01 20-Dec-2017

 -------------------------
 #P B3LYP/6-311+g(d) force
 -------------------------

 -----
 DPGEN
 -----
 Symbolic Z-matrix:
 Charge =  0 Multiplicity = 2

                         Standard orientation:
 ---------------------------------------------------------------------
 Center     Atomic      Atomic             Coordinates (Angstroms)
 Number     Number       Type             X           Y           Z
 ---------------------------------------------------------------------
      1         11           0        1.302083   -1.919750    0.695371
      2         11           0        4.411771   -1.501541    0.573792
      3         11           0        5.410416    2.464664    0.039114
      4         11           0        2.262388    1.019695   -0.587005
      5         11           0       -1.121029   -1.130922   -0.994031
      6         11           0       -5.259655   -0.174147   -0.872604
      7         11           0       -7.005975    1.242000    1.145363
 ---------------------------------------------------------------------

 SCF Done:  E(UB3LYP) =  -1136.11233907     A.U. after   21 cycles

 The electronic state is 2-A.
 Alpha  occ. eigenvalues --  -38.44921 -38.44617 -38.44274 -38.44256 -38.43939
 Alpha  occ. eigenvalues --  -38.43870 -38.43776  -2.20753  -2.20477  -2.20056
 Alpha  occ. eigenvalues --   -2.20051  -2.19803  -2.19733  -2.19604  -1.14461
 Alpha  occ. eigenvalues --   -1.14453  -1.14334  -1.14170  -1.14131  -1.14064
 Alpha  occ. eigenvalues --   -1.13763  -1.13713  -1.13708  -1.13701  -1.13700
 Alpha  occ. eigenvalues --   -1.13664  -1.13514  -1.13468  -1.13456  -1.13392
 Alpha  occ. eigenvalues --   -1.13387  -1.13365  -1.13257  -1.13251  -1.13207
 Alpha  occ. eigenvalues --   -0.16945  -0.13664  -0.12396  -0.11216
 Alpha virt. eigenvalues --   -0.06731  -0.05414  -0.04397  -0.03599  -0.02866
 Alpha virt. eigenvalues --   -0.02552  -0.02222  -0.01836  -0.01461  -0.01006
 Alpha virt. eigenvalues --   -0.00476  -0.00179   0.00214   0.00439   0.00563

  Beta  occ. eigenvalues --  -38.44903 -38.44537 -38.44241 -38.44233 -38.43943
  Beta  occ. eigenvalues --  -38.43841 -38.43745  -2.20720  -2.20333  -2.20028
  Beta  occ. eigenvalues --   -2.19975  -2.19757  -2.19742  -2.19545  -1.14440
  Beta  occ. eigenvalues --   -1.14417  -1.14309  -1.14062  -1.14036  -1.13954
  Beta  occ. eigenvalues --   -1.13747  -1.13682  -1.13681  -1.13661  -1.13650
  Beta  occ. eigenvalues --   -1.13618  -1.13454  -1.13445  -1.13415  -1.13400
  Beta  occ. eigenvalues --   -1.13394  -1.13359  -1.13212  -1.13209  -1.13166
  Beta  occ. eigenvalues --   -0.16255  -0.13408  -0.12033
  Beta virt. eigenvalues --   -0.07639  -0.06260  -0.05226  -0.04149  -0.03266
  Beta virt. eigenvalues --   -0.02539  -0.02237  -0.01926  -0.01626  -0.01259
  Beta virt. eigenvalues --   -0.00698  -0.00170  -0.00018   0.00377   0.00493

 Mulliken charges and spin densities:
               1          2
     1  Na  -0.329462   0.293865
     2  Na   0.399872   0.178529
     3  Na   0.778776   0.110255
     4  Na  -0.759236   0.291018
     5  Na  -0.044645   0.085737
     6  Na  -0.264003  -0.013405
     7  Na   0.218698   0.054002
 Sum of Mulliken charges =  -0.00000   1.00000

 Dipole moment (field-independent basis, Debye):
    X=              1.0842    Y=              0.2199    Z=              0.3988  Tot=              1.1759
 Quadrupole moment (field-independent basis, Debye-Ang):
   XX=            -58.4063   YY=            -68.2480   ZZ=            -68.4793
   XY=             -1.5059   XZ=             -2.5372   YZ=              2.5567

 Normal termination of Gaussian 16 at Tue Nov 28 19:20:23 2023.
