 Gaussian 16, Revision B.01,
 Gaussian 16:  ES64L-G16RevB.01 20-Dec-2017

 -------------------------
 #P B3LYP/6-311+g(d) force
 -------------------------

 -----
 DPGEN
 -----
 Symbolic Z-matrix:
 Charge =  0 Multiplicity = 2

                         Standard orientation:
 ---------------------------------------------------------------------
 Center     Atomic      Atomic             Coordinates (Angstroms)
 Number     Number       Type             X           Y           Z
 ---------------------------------------------------------------------
      1         11           0        0.536410   -0.158654    1.851861
      2         11           0        2.384022    1.897130    0.033488
      3         11           0       -0.603519    0.126791   -1.671140
      4         11           0       -1.026569    2.640646    0.018844
      5         11           0       -3.368550   -0.238654    0.150864
      6         11           0       -0.671715   -2.712251    0.145684
      7         11           0        2.749921   -1.555008   -0.529601
 ---------------------------------------------------------------------

 SCF Done:  E(UB3LYP) =  -1136.13680305     A.U. after   19 cycles

 The electronic state is 2-A.
 Alpha  occ. eigenvalues --  -38.44498 -38.43944 -38.43706 -38.43369 -38.43324
 Alpha  occ. eigenvalues --  -38.43257 -38.43190  -2.20305  -2.19765  -2.19556
 Alpha  occ. eigenvalues --   -2.19245  -2.19221  -2.19186  -2.19125  -1.13984
 Alpha  occ. eigenvalues --   -1.13958  -1.13946  -1.13431  -1.13428  -1.13409
 Alpha  occ. eigenvalues --   -1.13246  -1.13214  -1.13193  -1.13047  -1.12934
 Alpha  occ. eigenvalues --   -1.12902  -1.12886  -1.12858  -1.12852  -1.12823
 Alpha  occ. eigenvalues --   -1.12804  -1.12796  -1.12788  -1.12747  -1.12734
 Alpha  occ. eigenvalues --   -0.18636  -0.13149  -0.12471  -0.10438
 Alpha virt. eigenvalues --   -0.05954  -0.05215  -0.04584  -0.03238  -0.02825
 Alpha virt. eigenvalues --   -0.02220  -0.01781  -0.01096  -0.00383  -0.00356
 Alpha virt. eigenvalues --   -0.00009   0.00340   0.00779   0.00866   0.00871

  Beta  occ. eigenvalues --  -38.44498 -38.43929 -38.43701 -38.43363 -38.43315
  Beta  occ. eigenvalues --  -38.43195 -38.43110  -2.20307  -2.19740  -2.19551
  Beta  occ. eigenvalues --   -2.19236  -2.19174  -2.19109  -2.18977  -1.13975
  Beta  occ. eigenvalues --   -1.13959  -1.13945  -1.13414  -1.13394  -1.13394
  Beta  occ. eigenvalues --   -1.13235  -1.13198  -1.13188  -1.13015  -1.12902
  Beta  occ. eigenvalues --   -1.12877  -1.12852  -1.12839  -1.12799  -1.12792
  Beta  occ. eigenvalues --   -1.12750  -1.12737  -1.12693  -1.12642  -1.12633
  Beta  occ. eigenvalues --   -0.17933  -0.12937  -0.12210
  Beta virt. eigenvalues --   -0.06609  -0.05871  -0.05194  -0.04536  -0.02512
  Beta virt. eigenvalues --   -0.02048  -0.01684  -0.01241  -0.01016  -0.00408
  Beta virt. eigenvalues --   -0.00400   0.00136   0.00371   0.00840   0.00865

 Mulliken charges and spin densities:
               1          2
     1  Na  -0.247834   0.661459
     2  Na   0.169364  -0.027620
     3  Na  -0.202497   0.638096
     4  Na   0.106878  -0.151743
     5  Na   0.095591  -0.099256
     6  Na   0.105324  -0.062168
     7  Na  -0.026826   0.041232
 Sum of Mulliken charges =  -0.00000   1.00000

 Dipole moment (field-independent basis, Debye):
    X=             -0.2537    Y=             -0.0453    Z=              0.0539  Tot=              0.2632
 Quadrupole moment (field-independent basis, Debye-Ang):
   XX=            -53.1651   YY=            -63.9390   ZZ=            -75.3326
   XY=              0.1905   XZ=             -2.5480   YZ=              0.8114

 Normal termination of Gaussian 16 at Thu Dec  7 10:10:43 2023.
