 Gaussian 16, Revision B.01,
 Gaussian 16:  ES64L-G16RevB.01 20-Dec-2017

 -------------------------
 #P B3LYP/6-311+g(d) force
 -------------------------

 -----
 DPGEN
 -----
 Symbolic Z-matrix:
 Charge =  0 Multiplicity = 2

                         Standard orientation:
 ---------------------------------------------------------------------
 Center     Atomic      Atomic             Coordinates (Angstroms)
 Number     Number       Type             X           Y           Z
 ---------------------------------------------------------------------
      1         11           0        0.589121    3.476283   -0.423418
      2         11           0        0.922887   -2.547386    0.093737
      3         11           0        3.773755   -0.979430    1.163891
      4         11           0        2.959176    0.773467   -1.316007
      5         11           0       -1.466437    1.028387    1.349430
      6         11           0       -4.401038    0.467162    0.207018
      7         11           0       -2.377464   -2.218484   -1.074651
 ---------------------------------------------------------------------

 SCF Done:  E(UB3LYP) =  -1136.11509524     A.U. after   23 cycles

 The electronic state is 2-A.
 Alpha  occ. eigenvalues --  -38.45225 -38.45013 -38.44312 -38.44084 -38.43892
 Alpha  occ. eigenvalues --  -38.43856 -38.43029  -2.21018  -2.20799  -2.20107
 Alpha  occ. eigenvalues --   -2.19921  -2.19745  -2.19662  -2.18809  -1.14725
 Alpha  occ. eigenvalues --   -1.14681  -1.14639  -1.14503  -1.14470  -1.14422
 Alpha  occ. eigenvalues --   -1.13784  -1.13767  -1.13736  -1.13577  -1.13561
 Alpha  occ. eigenvalues --   -1.13535  -1.13410  -1.13389  -1.13377  -1.13355
 Alpha  occ. eigenvalues --   -1.13341  -1.13261  -1.12474  -1.12457  -1.12452
 Alpha  occ. eigenvalues --   -0.16483  -0.14255  -0.12284  -0.10325
 Alpha virt. eigenvalues --   -0.07112  -0.05023  -0.04580  -0.03581  -0.03351
 Alpha virt. eigenvalues --   -0.02494  -0.01674  -0.01426  -0.00815  -0.00722
 Alpha virt. eigenvalues --   -0.00434  -0.00335   0.00279   0.00552   0.00621

  Beta  occ. eigenvalues --  -38.45217 -38.45010 -38.44278 -38.44018 -38.43842
  Beta  occ. eigenvalues --  -38.43830 -38.43003  -2.21007  -2.20798  -2.20050
  Beta  occ. eigenvalues --   -2.19799  -2.19651  -2.19620  -2.18761  -1.14708
  Beta  occ. eigenvalues --   -1.14679  -1.14612  -1.14497  -1.14463  -1.14414
  Beta  occ. eigenvalues --   -1.13749  -1.13724  -1.13674  -1.13490  -1.13477
  Beta  occ. eigenvalues --   -1.13459  -1.13344  -1.13339  -1.13323  -1.13315
  Beta  occ. eigenvalues --   -1.13311  -1.13199  -1.12442  -1.12427  -1.12418
  Beta  occ. eigenvalues --   -0.16035  -0.13647  -0.11615
  Beta virt. eigenvalues --   -0.07152  -0.07060  -0.04722  -0.04262  -0.03303
  Beta virt. eigenvalues --   -0.02934  -0.02304  -0.01280  -0.01144  -0.00678
  Beta virt. eigenvalues --   -0.00454  -0.00255  -0.00031   0.00314   0.00628

 Mulliken charges and spin densities:
               1          2
     1  Na  -0.073520   0.110126
     2  Na  -0.321518   0.046821
     3  Na   0.263281   0.326658
     4  Na   0.099779   0.071326
     5  Na  -0.315587   0.033151
     6  Na   0.384060   0.304513
     7  Na  -0.036495   0.107404
 Sum of Mulliken charges =  -0.00000   1.00000

 Dipole moment (field-independent basis, Debye):
    X=             -0.0636    Y=             -0.2699    Z=             -0.2133  Tot=              0.3499
 Quadrupole moment (field-independent basis, Debye-Ang):
   XX=            -62.4445   YY=            -75.4707   ZZ=            -63.7413
   XY=              1.8783   XZ=              2.4742   YZ=             -0.5785

 Normal termination of Gaussian 16 at Sun Dec  3 20:10:55 2023.
