 Gaussian 16, Revision B.01,
 Gaussian 16:  ES64L-G16RevB.01 20-Dec-2017

 -------------------------
 #P B3LYP/6-311+g(d) force
 -------------------------

 -----
 DPGEN
 -----
 Symbolic Z-matrix:
 Charge =  0 Multiplicity = 2

                         Standard orientation:
 ---------------------------------------------------------------------
 Center     Atomic      Atomic             Coordinates (Angstroms)
 Number     Number       Type             X           Y           Z
 ---------------------------------------------------------------------
      1         11           0        2.889906    1.283615   -0.028524
      2         11           0        0.255253   -0.092882   -1.608758
      3         11           0       -3.106645    0.399402   -0.278328
      4         11           0        2.287524   -1.970240   -0.031959
      5         11           0       -0.534325    2.817055   -0.047573
      6         11           0       -0.259445   -0.131113    2.147342
      7         11           0       -1.532268   -2.305837   -0.152200
 ---------------------------------------------------------------------

 SCF Done:  E(UB3LYP) =  -1136.13676955     A.U. after   19 cycles

 The electronic state is 2-A.
 Alpha  occ. eigenvalues --  -38.44151 -38.44118 -38.43726 -38.43654 -38.43233
 Alpha  occ. eigenvalues --  -38.43203 -38.43040  -2.20010  -2.19952  -2.19607
 Alpha  occ. eigenvalues --   -2.19517  -2.19238  -2.19113  -2.18878  -1.13697
 Alpha  occ. eigenvalues --   -1.13668  -1.13650  -1.13635  -1.13618  -1.13588
 Alpha  occ. eigenvalues --   -1.13272  -1.13234  -1.13228  -1.13222  -1.13172
 Alpha  occ. eigenvalues --   -1.13144  -1.12944  -1.12897  -1.12861  -1.12774
 Alpha  occ. eigenvalues --   -1.12763  -1.12737  -1.12559  -1.12545  -1.12508
 Alpha  occ. eigenvalues --   -0.18820  -0.13385  -0.12178  -0.10875
 Alpha virt. eigenvalues --   -0.05823  -0.05205  -0.04332  -0.03364  -0.02740
 Alpha virt. eigenvalues --   -0.02701  -0.01649  -0.01039  -0.00301  -0.00213
 Alpha virt. eigenvalues --   -0.00033   0.00355   0.00765   0.00896   0.00919

  Beta  occ. eigenvalues --  -38.44145 -38.44116 -38.43651 -38.43623 -38.43194
  Beta  occ. eigenvalues --  -38.43174 -38.43037  -2.20001  -2.19952  -2.19514
  Beta  occ. eigenvalues --   -2.19416  -2.19131  -2.19101  -2.18875  -1.13694
  Beta  occ. eigenvalues --   -1.13649  -1.13637  -1.13633  -1.13607  -1.13588
  Beta  occ. eigenvalues --   -1.13218  -1.13160  -1.13148  -1.13136  -1.13098
  Beta  occ. eigenvalues --   -1.13086  -1.12886  -1.12823  -1.12787  -1.12757
  Beta  occ. eigenvalues --   -1.12729  -1.12712  -1.12555  -1.12522  -1.12510
  Beta  occ. eigenvalues --   -0.18082  -0.13159  -0.11944
  Beta virt. eigenvalues --   -0.06909  -0.05768  -0.05218  -0.04310  -0.02566
  Beta virt. eigenvalues --   -0.01964  -0.01608  -0.01535  -0.00987  -0.00354
  Beta virt. eigenvalues --   -0.00261   0.00127   0.00384   0.00841   0.00886

 Mulliken charges and spin densities:
               1          2
     1  Na   0.089017  -0.046329
     2  Na  -0.354532   0.344898
     3  Na   0.144370  -0.007441
     4  Na   0.308535  -0.021989
     5  Na   0.058223  -0.065253
     6  Na  -0.679762   0.770212
     7  Na   0.434150   0.025902
 Sum of Mulliken charges =  -0.00000   1.00000

 Dipole moment (field-independent basis, Debye):
    X=              0.1634    Y=              0.0436    Z=              0.1881  Tot=              0.2530
 Quadrupole moment (field-independent basis, Debye-Ang):
   XX=            -54.6627   YY=            -65.4477   ZZ=            -73.7607
   XY=             -0.1181   XZ=              1.1712   YZ=              0.0486

 Normal termination of Gaussian 16 at Tue Dec  5 19:40:52 2023.
