 Gaussian 16, Revision B.01,
 Gaussian 16:  ES64L-G16RevB.01 20-Dec-2017

 -------------------------
 #P B3LYP/6-311+g(d) force
 -------------------------

 -----
 DPGEN
 -----
 Symbolic Z-matrix:
 Charge =  0 Multiplicity = 2

                         Standard orientation:
 ---------------------------------------------------------------------
 Center     Atomic      Atomic             Coordinates (Angstroms)
 Number     Number       Type             X           Y           Z
 ---------------------------------------------------------------------
      1         11           0       -1.065362   -0.759789    1.476642
      2         11           0        3.794640    0.984470    0.191187
      3         11           0       -3.749370    1.421950    0.064827
      4         11           0        0.437098   -3.162376   -0.453522
      5         11           0        3.985369   -2.826938   -0.341122
      6         11           0        3.078553    4.349559   -0.358883
      7         11           0       -6.480929   -0.006877   -0.579130
 ---------------------------------------------------------------------

 SCF Done:  E(UB3LYP) =  -1136.10387616     A.U. after   19 cycles

 The electronic state is 2-A.
 Alpha  occ. eigenvalues --  -38.45002 -38.44995 -38.44924 -38.44688 -38.44464
 Alpha  occ. eigenvalues --  -38.43882 -38.43756  -2.20796  -2.20794  -2.20710
 Alpha  occ. eigenvalues --   -2.20447  -2.20248  -2.19638  -2.19499  -1.14447
 Alpha  occ. eigenvalues --   -1.14446  -1.14442  -1.14434  -1.14430  -1.14410
 Alpha  occ. eigenvalues --   -1.14363  -1.14346  -1.14330  -1.14131  -1.14119
 Alpha  occ. eigenvalues --   -1.14096  -1.13921  -1.13912  -1.13903  -1.13300
 Alpha  occ. eigenvalues --   -1.13299  -1.13268  -1.13193  -1.13186  -1.13114
 Alpha  occ. eigenvalues --   -0.15428  -0.13995  -0.12085  -0.11428
 Alpha virt. eigenvalues --   -0.06991  -0.05714  -0.04407  -0.03473  -0.03072
 Alpha virt. eigenvalues --   -0.02711  -0.02159  -0.01773  -0.01343  -0.01189
 Alpha virt. eigenvalues --   -0.00903  -0.00684  -0.00025   0.00341   0.00363

  Beta  occ. eigenvalues --  -38.44932 -38.44919 -38.44844 -38.44708 -38.44477
  Beta  occ. eigenvalues --  -38.43854 -38.43764  -2.20677  -2.20640  -2.20561
  Beta  occ. eigenvalues --   -2.20489  -2.20277  -2.19587  -2.19517  -1.14372
  Beta  occ. eigenvalues --   -1.14354  -1.14351  -1.14340  -1.14336  -1.14314
  Beta  occ. eigenvalues --   -1.14261  -1.14244  -1.14237  -1.14164  -1.14143
  Beta  occ. eigenvalues --   -1.14095  -1.13944  -1.13932  -1.13889  -1.13265
  Beta  occ. eigenvalues --   -1.13264  -1.13237  -1.13207  -1.13200  -1.13106
  Beta  occ. eigenvalues --   -0.14763  -0.13355  -0.11745
  Beta virt. eigenvalues --   -0.08287  -0.06554  -0.05338  -0.04000  -0.03229
  Beta virt. eigenvalues --   -0.02883  -0.02486  -0.01905  -0.01515  -0.01214
  Beta virt. eigenvalues --   -0.00923  -0.00496  -0.00424   0.00107   0.00421

 Mulliken charges and spin densities:
               1          2
     1  Na  -0.560699   0.397830
     2  Na  -0.408243  -0.032343
     3  Na  -0.244872   0.008306
     4  Na   0.255046  -0.096050
     5  Na   0.181365   0.353558
     6  Na   0.323596   0.167645
     7  Na   0.453808   0.201055
 Sum of Mulliken charges =  -0.00000   1.00000

 Dipole moment (field-independent basis, Debye):
    X=             -1.8398    Y=             -1.2723    Z=             -0.1380  Tot=              2.2411
 Quadrupole moment (field-independent basis, Debye-Ang):
   XX=            -62.8279   YY=            -61.9853   ZZ=            -72.4339
   XY=             -2.7986   XZ=              2.1173   YZ=              1.4145

 Normal termination of Gaussian 16 at Sun Dec  3 16:15:36 2023.
