 Gaussian 16, Revision B.01,
 Gaussian 16:  ES64L-G16RevB.01 20-Dec-2017

 -------------------------
 #P B3LYP/6-311+g(d) force
 -------------------------

 -----
 DPGEN
 -----
 Symbolic Z-matrix:
 Charge =  0 Multiplicity = 2

                         Standard orientation:
 ---------------------------------------------------------------------
 Center     Atomic      Atomic             Coordinates (Angstroms)
 Number     Number       Type             X           Y           Z
 ---------------------------------------------------------------------
      1         11           0       -0.287935    0.464277   -1.563977
      2         11           0        0.027859   -2.164572   -0.618222
      3         11           0        2.318755   -0.932450    0.550396
      4         11           0       -0.228702   -0.523933    1.637463
      5         11           0       -2.577102   -0.599957   -0.173685
      6         11           0       -1.019106    2.134376    0.746487
      7         11           0        1.766232    1.622260   -0.578462
 ---------------------------------------------------------------------

 SCF Done:  E(UB3LYP) =  -1136.08487265     A.U. after   19 cycles

 The electronic state is 2-A.
 Alpha  occ. eigenvalues --  -38.44249 -38.43969 -38.43934 -38.43837 -38.43589
 Alpha  occ. eigenvalues --  -38.43518 -38.43418  -2.20576  -2.20229  -2.20018
 Alpha  occ. eigenvalues --   -2.19916  -2.19670  -2.19640  -2.19465  -1.14641
 Alpha  occ. eigenvalues --   -1.14310  -1.14203  -1.14114  -1.13957  -1.13890
 Alpha  occ. eigenvalues --   -1.13796  -1.13641  -1.13590  -1.13563  -1.13498
 Alpha  occ. eigenvalues --   -1.13403  -1.13357  -1.13301  -1.13280  -1.13269
 Alpha  occ. eigenvalues --   -1.13250  -1.13155  -1.13137  -1.13105  -1.13030
 Alpha  occ. eigenvalues --   -0.21361  -0.13639  -0.13027  -0.12225
 Alpha virt. eigenvalues --   -0.04986  -0.04318  -0.04130  -0.03618  -0.03347
 Alpha virt. eigenvalues --   -0.02928  -0.01002  -0.00577  -0.00098   0.00358
 Alpha virt. eigenvalues --    0.00787   0.00855   0.01051   0.01093   0.01153

  Beta  occ. eigenvalues --  -38.44167 -38.43917 -38.43887 -38.43822 -38.43579
  Beta  occ. eigenvalues --  -38.43494 -38.43395  -2.20431  -2.20083  -2.19990
  Beta  occ. eigenvalues --   -2.19892  -2.19635  -2.19622  -2.19426  -1.14546
  Beta  occ. eigenvalues --   -1.14224  -1.14097  -1.14025  -1.13865  -1.13813
  Beta  occ. eigenvalues --   -1.13755  -1.13613  -1.13555  -1.13509  -1.13443
  Beta  occ. eigenvalues --   -1.13384  -1.13329  -1.13281  -1.13249  -1.13224
  Beta  occ. eigenvalues --   -1.13190  -1.13133  -1.13116  -1.13042  -1.13009
  Beta  occ. eigenvalues --   -0.20584  -0.13300  -0.12734
  Beta virt. eigenvalues --   -0.07972  -0.04987  -0.04299  -0.04093  -0.02719
  Beta virt. eigenvalues --   -0.02531  -0.01709  -0.00945  -0.00524   0.00059
  Beta virt. eigenvalues --    0.00390   0.00774   0.00847   0.01062   0.01106

 Mulliken charges and spin densities:
               1          2
     1  Na  -0.432040   0.290073
     2  Na   0.336210   0.162553
     3  Na   0.142249  -0.017518
     4  Na  -0.248255   0.476229
     5  Na  -0.027957  -0.117901
     6  Na  -0.094295   0.038423
     7  Na   0.324088   0.168142
 Sum of Mulliken charges =  -0.00000   1.00000

 Dipole moment (field-independent basis, Debye):
    X=             -0.1881    Y=              0.1080    Z=              0.2142  Tot=              0.3048
 Quadrupole moment (field-independent basis, Debye-Ang):
   XX=            -60.8766   YY=            -67.5148   ZZ=            -68.8252
   XY=              0.0146   XZ=              0.0894   YZ=              1.6695

 Normal termination of Gaussian 16 at Thu Dec  7 11:20:13 2023.
