 Gaussian 16, Revision B.01,
 Gaussian 16:  ES64L-G16RevB.01 20-Dec-2017

 -------------------------
 #P B3LYP/6-311+g(d) force
 -------------------------

 -----
 DPGEN
 -----
 Symbolic Z-matrix:
 Charge =  0 Multiplicity = 2

                         Standard orientation:
 ---------------------------------------------------------------------
 Center     Atomic      Atomic             Coordinates (Angstroms)
 Number     Number       Type             X           Y           Z
 ---------------------------------------------------------------------
      1         11           0       -1.484872    2.453178    0.085263
      2         11           0       -0.468836   -2.690900    0.348631
      3         11           0       -3.092946   -0.542105   -0.412140
      4         11           0        0.094294   -0.097569   -1.604703
      5         11           0        2.225938    2.123768   -0.311866
      6         11           0        2.562056   -1.588592   -0.187934
      7         11           0        0.164367    0.342220    2.082749
 ---------------------------------------------------------------------

 SCF Done:  E(UB3LYP) =  -1136.13961486     A.U. after   19 cycles

 The electronic state is 2-A.
 Alpha  occ. eigenvalues --  -38.43696 -38.43674 -38.43640 -38.43639 -38.43544
 Alpha  occ. eigenvalues --  -38.43185 -38.43117  -2.19545  -2.19540  -2.19528
 Alpha  occ. eigenvalues --   -2.19479  -2.19406  -2.19129  -2.19080  -1.13255
 Alpha  occ. eigenvalues --   -1.13225  -1.13217  -1.13206  -1.13199  -1.13181
 Alpha  occ. eigenvalues --   -1.13172  -1.13160  -1.13155  -1.13147  -1.13138
 Alpha  occ. eigenvalues --   -1.13133  -1.13079  -1.13070  -1.13016  -1.12835
 Alpha  occ. eigenvalues --   -1.12782  -1.12752  -1.12743  -1.12715  -1.12705
 Alpha  occ. eigenvalues --   -0.18852  -0.12907  -0.12625  -0.10934
 Alpha virt. eigenvalues --   -0.05346  -0.05177  -0.04632  -0.03144  -0.03045
 Alpha virt. eigenvalues --   -0.02643  -0.01392  -0.01141  -0.00268  -0.00145
 Alpha virt. eigenvalues --    0.00010   0.00360   0.00833   0.00896   0.00928

  Beta  occ. eigenvalues --  -38.43689 -38.43670 -38.43633 -38.43542 -38.43538
  Beta  occ. eigenvalues --  -38.43176 -38.43056  -2.19539  -2.19520  -2.19470
  Beta  occ. eigenvalues --   -2.19399  -2.19361  -2.19067  -2.19019  -1.13247
  Beta  occ. eigenvalues --   -1.13207  -1.13187  -1.13177  -1.13170  -1.13153
  Beta  occ. eigenvalues --   -1.13147  -1.13134  -1.13122  -1.13109  -1.13067
  Beta  occ. eigenvalues --   -1.13059  -1.13032  -1.13021  -1.13002  -1.12791
  Beta  occ. eigenvalues --   -1.12719  -1.12712  -1.12700  -1.12673  -1.12653
  Beta  occ. eigenvalues --   -0.18121  -0.12648  -0.12384
  Beta virt. eigenvalues --   -0.06996  -0.05348  -0.05127  -0.04584  -0.02337
  Beta virt. eigenvalues --   -0.02290  -0.01573  -0.01301  -0.01085  -0.00293
  Beta virt. eigenvalues --   -0.00172   0.00127   0.00384   0.00869   0.00914

 Mulliken charges and spin densities:
               1          2
     1  Na   0.212866  -0.024754
     2  Na   0.192822   0.093135
     3  Na   0.068182  -0.010282
     4  Na  -0.327593   0.422272
     5  Na   0.110227  -0.086687
     6  Na   0.191233  -0.052672
     7  Na  -0.447737   0.658987
 Sum of Mulliken charges =  -0.00000   1.00000

 Dipole moment (field-independent basis, Debye):
    X=              0.1375    Y=              0.1758    Z=              0.1329  Tot=              0.2597
 Quadrupole moment (field-independent basis, Debye-Ang):
   XX=            -57.6647   YY=            -62.5682   ZZ=            -73.3822
   XY=              0.2491   XZ=              0.0047   YZ=             -0.8651

 Normal termination of Gaussian 16 at Thu Dec  7 16:32:13 2023.
