 Gaussian 16, Revision B.01,
 Gaussian 16:  ES64L-G16RevB.01 20-Dec-2017

 -------------------------
 #P B3LYP/6-311+g(d) force
 -------------------------

 -----
 DPGEN
 -----
 Symbolic Z-matrix:
 Charge =  0 Multiplicity = 2

                         Standard orientation:
 ---------------------------------------------------------------------
 Center     Atomic      Atomic             Coordinates (Angstroms)
 Number     Number       Type             X           Y           Z
 ---------------------------------------------------------------------
      1         11           0        0.408574   -0.211259   -1.824066
      2         11           0        0.867416    2.783461   -0.046728
      3         11           0       -2.559933    1.580479   -0.073219
      4         11           0        1.002057   -2.757949    0.175563
      5         11           0       -0.298589   -0.027214    1.835163
      6         11           0       -2.337844   -1.610332   -0.221661
      7         11           0        2.918319    0.242814    0.154948
 ---------------------------------------------------------------------

 SCF Done:  E(UB3LYP) =  -1136.14060880     A.U. after   19 cycles

 The electronic state is 2-A.
 Alpha  occ. eigenvalues --  -38.43712 -38.43590 -38.43535 -38.43376 -38.43349
 Alpha  occ. eigenvalues --  -38.43282 -38.43269  -2.19598  -2.19454  -2.19434
 Alpha  occ. eigenvalues --   -2.19250  -2.19237  -2.19231  -2.19223  -1.13302
 Alpha  occ. eigenvalues --   -1.13263  -1.13236  -1.13196  -1.13129  -1.13110
 Alpha  occ. eigenvalues --   -1.13106  -1.13093  -1.13028  -1.12957  -1.12932
 Alpha  occ. eigenvalues --   -1.12913  -1.12911  -1.12886  -1.12885  -1.12872
 Alpha  occ. eigenvalues --   -1.12869  -1.12853  -1.12848  -1.12835  -1.12828
 Alpha  occ. eigenvalues --   -0.19070  -0.13146  -0.12639  -0.10831
 Alpha virt. eigenvalues --   -0.05277  -0.05089  -0.04828  -0.03263  -0.02951
 Alpha virt. eigenvalues --   -0.02502  -0.01249  -0.01103  -0.00220  -0.00170
 Alpha virt. eigenvalues --   -0.00001   0.00383   0.00880   0.00929   0.00936

  Beta  occ. eigenvalues --  -38.43706 -38.43587 -38.43527 -38.43372 -38.43342
  Beta  occ. eigenvalues --  -38.43205 -38.43188  -2.19591  -2.19451  -2.19423
  Beta  occ. eigenvalues --   -2.19233  -2.19215  -2.19107  -2.19084  -1.13293
  Beta  occ. eigenvalues --   -1.13243  -1.13224  -1.13194  -1.13113  -1.13100
  Beta  occ. eigenvalues --   -1.13090  -1.13059  -1.13027  -1.12922  -1.12913
  Beta  occ. eigenvalues --   -1.12882  -1.12870  -1.12865  -1.12851  -1.12818
  Beta  occ. eigenvalues --   -1.12796  -1.12770  -1.12749  -1.12748  -1.12735
  Beta  occ. eigenvalues --   -0.18321  -0.12898  -0.12390
  Beta virt. eigenvalues --   -0.06900  -0.05252  -0.05097  -0.04781  -0.02436
  Beta virt. eigenvalues --   -0.02159  -0.01449  -0.01168  -0.01035  -0.00274
  Beta virt. eigenvalues --   -0.00229   0.00131   0.00399   0.00911   0.00919

 Mulliken charges and spin densities:
               1          2
     1  Na  -0.385398   0.675899
     2  Na   0.042124  -0.108174
     3  Na   0.059936  -0.080491
     4  Na   0.234545  -0.081893
     5  Na  -0.404375   0.704366
     6  Na   0.233658  -0.046996
     7  Na   0.219510  -0.062711
 Sum of Mulliken charges =  -0.00000   1.00000

 Dipole moment (field-independent basis, Debye):
    X=              0.0405    Y=             -0.0042    Z=              0.0094  Tot=              0.0418
 Quadrupole moment (field-independent basis, Debye-Ang):
   XX=            -59.0704   YY=            -61.2390   ZZ=            -73.6690
   XY=             -0.5080   XZ=              1.5142   YZ=             -0.4417

 Normal termination of Gaussian 16 at Thu Dec  7 08:33:37 2023.
