 Gaussian 16, Revision B.01,
 Gaussian 16:  ES64L-G16RevB.01 20-Dec-2017

 -------------------------
 #P B3LYP/6-311+g(d) force
 -------------------------

 -----
 DPGEN
 -----
 Symbolic Z-matrix:
 Charge =  0 Multiplicity = 2

                         Standard orientation:
 ---------------------------------------------------------------------
 Center     Atomic      Atomic             Coordinates (Angstroms)
 Number     Number       Type             X           Y           Z
 ---------------------------------------------------------------------
      1         11           0       -2.663566   -1.013118    0.619223
      2         11           0       -5.672033   -0.626158   -0.492881
      3         11           0       -2.728502    2.200360   -0.196166
      4         11           0        0.441971    1.130104   -0.041149
      5         11           0        0.699156   -1.980107   -0.179724
      6         11           0        3.238524    0.375151    1.010134
      7         11           0        6.684450   -0.086232   -0.719437
 ---------------------------------------------------------------------

 SCF Done:  E(UB3LYP) =  -1136.10989934     A.U. after   23 cycles

 The electronic state is 2-A.
 Alpha  occ. eigenvalues --  -38.44880 -38.44524 -38.44408 -38.44222 -38.44176
 Alpha  occ. eigenvalues --  -38.44026 -38.43998  -2.20730  -2.20392  -2.20216
 Alpha  occ. eigenvalues --   -2.20106  -2.19968  -2.19859  -2.19835  -1.14408
 Alpha  occ. eigenvalues --   -1.14388  -1.14325  -1.14074  -1.14038  -1.14017
 Alpha  occ. eigenvalues --   -1.13901  -1.13865  -1.13837  -1.13794  -1.13782
 Alpha  occ. eigenvalues --   -1.13707  -1.13695  -1.13631  -1.13602  -1.13559
 Alpha  occ. eigenvalues --   -1.13558  -1.13519  -1.13507  -1.13482  -1.13404
 Alpha  occ. eigenvalues --   -0.17708  -0.14269  -0.11866  -0.11113
 Alpha virt. eigenvalues --   -0.06968  -0.05467  -0.04812  -0.03457  -0.03262
 Alpha virt. eigenvalues --   -0.02754  -0.01944  -0.01210  -0.01126  -0.00771
 Alpha virt. eigenvalues --   -0.00420  -0.00220  -0.00030   0.00211   0.00428

  Beta  occ. eigenvalues --  -38.44800 -38.44463 -38.44352 -38.44261 -38.44189
  Beta  occ. eigenvalues --  -38.43996 -38.43963  -2.20587  -2.20280  -2.20112
  Beta  occ. eigenvalues --   -2.20052  -2.20017  -2.19921  -2.19768  -1.14311
  Beta  occ. eigenvalues --   -1.14294  -1.14206  -1.14007  -1.13964  -1.13918
  Beta  occ. eigenvalues --   -1.13829  -1.13795  -1.13771  -1.13752  -1.13735
  Beta  occ. eigenvalues --   -1.13668  -1.13667  -1.13656  -1.13630  -1.13620
  Beta  occ. eigenvalues --   -1.13595  -1.13551  -1.13450  -1.13433  -1.13379
  Beta  occ. eigenvalues --   -0.16779  -0.13928  -0.11399
  Beta virt. eigenvalues --   -0.07706  -0.06825  -0.05015  -0.04366  -0.03135
  Beta virt. eigenvalues --   -0.02642  -0.02450  -0.01649  -0.01212  -0.00799
  Beta virt. eigenvalues --   -0.00610  -0.00143  -0.00095   0.00138   0.00364

 Mulliken charges and spin densities:
               1          2
     1  Na  -0.499187   0.165561
     2  Na   0.218682   0.264557
     3  Na   0.238963  -0.027972
     4  Na  -1.063776   0.631013
     5  Na   0.347603   0.274614
     6  Na   0.701500   0.148900
     7  Na   0.056215  -0.456674
 Sum of Mulliken charges =  -0.00000   1.00000

 Dipole moment (field-independent basis, Debye):
    X=             -2.0055    Y=             -0.2622    Z=             -0.4039  Tot=              2.0625
 Quadrupole moment (field-independent basis, Debye-Ang):
   XX=            -67.9662   YY=            -67.2928   ZZ=            -69.5906
   XY=             -4.3230   XZ=              0.0792   YZ=              0.5323

 Normal termination of Gaussian 16 at Tue Nov 28 21:09:19 2023.
