 Gaussian 16, Revision B.01,
 Gaussian 16:  ES64L-G16RevB.01 20-Dec-2017

 -------------------------
 #P B3LYP/6-311+g(d) force
 -------------------------

 -----
 DPGEN
 -----
 Symbolic Z-matrix:
 Charge =  0 Multiplicity = 2

                         Standard orientation:
 ---------------------------------------------------------------------
 Center     Atomic      Atomic             Coordinates (Angstroms)
 Number     Number       Type             X           Y           Z
 ---------------------------------------------------------------------
      1         11           0       -0.420293    3.152472   -0.552266
      2         11           0        4.339692   -0.384069    0.268305
      3         11           0        2.746887    3.074536    0.400557
      4         11           0       -4.170859    1.723856   -0.221462
      5         11           0        2.506224   -2.830019   -0.220245
      6         11           0       -0.852372   -3.283466   -0.460881
      7         11           0       -4.149280   -1.453310    0.785993
 ---------------------------------------------------------------------

 SCF Done:  E(UB3LYP) =  -1136.10636877     A.U. after   22 cycles

 The electronic state is 2-A.
 Alpha  occ. eigenvalues --  -38.45444 -38.44813 -38.44701 -38.44669 -38.44214
 Alpha  occ. eigenvalues --  -38.44197 -38.44102  -2.21197  -2.20592  -2.20468
 Alpha  occ. eigenvalues --   -2.20440  -2.20028  -2.20021  -2.19895  -1.14875
 Alpha  occ. eigenvalues --   -1.14860  -1.14846  -1.14253  -1.14239  -1.14228
 Alpha  occ. eigenvalues --   -1.14159  -1.14137  -1.14123  -1.14110  -1.14092
 Alpha  occ. eigenvalues --   -1.14044  -1.13804  -1.13699  -1.13695  -1.13660
 Alpha  occ. eigenvalues --   -1.13639  -1.13603  -1.13545  -1.13537  -1.13508
 Alpha  occ. eigenvalues --   -0.15456  -0.14053  -0.13360  -0.10921
 Alpha virt. eigenvalues --   -0.07863  -0.04831  -0.04575  -0.03605  -0.03474
 Alpha virt. eigenvalues --   -0.02462  -0.02170  -0.01836  -0.01302  -0.00878
 Alpha virt. eigenvalues --   -0.00816  -0.00143  -0.00001   0.00330   0.00529

  Beta  occ. eigenvalues --  -38.45441 -38.44776 -38.44669 -38.44663 -38.44212
  Beta  occ. eigenvalues --  -38.44127 -38.44024  -2.21195  -2.20524  -2.20432
  Beta  occ. eigenvalues --   -2.20412  -2.20030  -2.19894  -2.19750  -1.14877
  Beta  occ. eigenvalues --   -1.14862  -1.14817  -1.14207  -1.14195  -1.14176
  Beta  occ. eigenvalues --   -1.14128  -1.14112  -1.14098  -1.14086  -1.14080
  Beta  occ. eigenvalues --   -1.14006  -1.13749  -1.13706  -1.13685  -1.13575
  Beta  occ. eigenvalues --   -1.13557  -1.13530  -1.13447  -1.13441  -1.13414
  Beta  occ. eigenvalues --   -0.14887  -0.13383  -0.12589
  Beta virt. eigenvalues --   -0.08014  -0.07806  -0.04323  -0.04070  -0.03427
  Beta virt. eigenvalues --   -0.03172  -0.02261  -0.02022  -0.01688  -0.01100
  Beta virt. eigenvalues --   -0.00628  -0.00472   0.00008   0.00206   0.00347

 Mulliken charges and spin densities:
               1          2
     1  Na  -0.523848   0.156748
     2  Na  -0.096649   0.297515
     3  Na   0.424261  -0.026251
     4  Na   0.172130   0.209669
     5  Na   0.319497   0.026443
     6  Na  -0.323786   0.330189
     7  Na   0.028394   0.005686
 Sum of Mulliken charges =  -0.00000   1.00000

 Dipole moment (field-independent basis, Debye):
    X=             -0.8766    Y=              0.5759    Z=              0.1959  Tot=              1.0670
 Quadrupole moment (field-independent basis, Debye-Ang):
   XX=            -59.2504   YY=            -67.8754   ZZ=            -72.5785
   XY=              3.7298   XZ=              0.7604   YZ=             -1.4724

 Normal termination of Gaussian 16 at Sun Dec  3 12:53:40 2023.
