 Gaussian 16, Revision B.01,
 Gaussian 16:  ES64L-G16RevB.01 20-Dec-2017

 -------------------------
 #P B3LYP/6-311+g(d) force
 -------------------------

 -----
 DPGEN
 -----
 Symbolic Z-matrix:
 Charge =  0 Multiplicity = 2

                         Standard orientation:
 ---------------------------------------------------------------------
 Center     Atomic      Atomic             Coordinates (Angstroms)
 Number     Number       Type             X           Y           Z
 ---------------------------------------------------------------------
      1         11           0        0.451595    0.290406   -1.639392
      2         11           0        0.977620   -2.513520   -0.486810
      3         11           0        3.376385    0.159822    0.171517
      4         11           0        0.424950    2.822959   -0.015136
      5         11           0       -0.020580    0.056291    2.109188
      6         11           0       -2.081223   -1.875741    0.239558
      7         11           0       -3.128747    1.059783   -0.378925
 ---------------------------------------------------------------------

 SCF Done:  E(UB3LYP) =  -1136.13137514     A.U. after   19 cycles

 The electronic state is 2-A.
 Alpha  occ. eigenvalues --  -38.44839 -38.44350 -38.43785 -38.43421 -38.43352
 Alpha  occ. eigenvalues --  -38.43222 -38.43046  -2.20630  -2.20153  -2.19669
 Alpha  occ. eigenvalues --   -2.19348  -2.19275  -2.19124  -2.18948  -1.14307
 Alpha  occ. eigenvalues --   -1.14283  -1.14268  -1.13843  -1.13816  -1.13780
 Alpha  occ. eigenvalues --   -1.13337  -1.13302  -1.13285  -1.13155  -1.13044
 Alpha  occ. eigenvalues --   -1.12945  -1.12934  -1.12899  -1.12868  -1.12812
 Alpha  occ. eigenvalues --   -1.12787  -1.12778  -1.12634  -1.12585  -1.12557
 Alpha  occ. eigenvalues --   -0.18678  -0.13107  -0.12270  -0.10906
 Alpha virt. eigenvalues --   -0.06303  -0.04724  -0.04394  -0.03319  -0.02888
 Alpha virt. eigenvalues --   -0.02688  -0.02003  -0.00880  -0.00354  -0.00138
 Alpha virt. eigenvalues --    0.00004   0.00327   0.00775   0.00833   0.00874

  Beta  occ. eigenvalues --  -38.44837 -38.44346 -38.43685 -38.43415 -38.43291
  Beta  occ. eigenvalues --  -38.43216 -38.43035  -2.20629  -2.20147  -2.19486
  Beta  occ. eigenvalues --   -2.19271  -2.19235  -2.19117  -2.18930  -1.14290
  Beta  occ. eigenvalues --   -1.14285  -1.14267  -1.13841  -1.13798  -1.13777
  Beta  occ. eigenvalues --   -1.13217  -1.13171  -1.13157  -1.13105  -1.12974
  Beta  occ. eigenvalues --   -1.12910  -1.12880  -1.12855  -1.12848  -1.12809
  Beta  occ. eigenvalues --   -1.12784  -1.12745  -1.12611  -1.12554  -1.12548
  Beta  occ. eigenvalues --   -0.17942  -0.12910  -0.12006
  Beta virt. eigenvalues --   -0.06978  -0.06252  -0.04696  -0.04360  -0.02566
  Beta virt. eigenvalues --   -0.02104  -0.01905  -0.01615  -0.00813  -0.00398
  Beta virt. eigenvalues --   -0.00115   0.00101   0.00355   0.00836   0.00882

 Mulliken charges and spin densities:
               1          2
     1  Na  -0.176110   0.391639
     2  Na   0.188068  -0.002611
     3  Na   0.139730  -0.034961
     4  Na   0.065065  -0.074750
     5  Na  -0.433150   0.696230
     6  Na   0.220819   0.073940
     7  Na  -0.004423  -0.049488
 Sum of Mulliken charges =  -0.00000   1.00000

 Dipole moment (field-independent basis, Debye):
    X=              0.4420    Y=              0.3581    Z=              0.2236  Tot=              0.6113
 Quadrupole moment (field-independent basis, Debye-Ang):
   XX=            -52.9643   YY=            -66.7659   ZZ=            -73.6035
   XY=             -0.6168   XZ=              1.5437   YZ=              0.2713

 Normal termination of Gaussian 16 at Wed Dec  6 00:41:15 2023.
