 Gaussian 16, Revision B.01,
 Gaussian 16:  ES64L-G16RevB.01 20-Dec-2017

 -------------------------
 #P B3LYP/6-311+g(d) force
 -------------------------

 -----
 DPGEN
 -----
 Symbolic Z-matrix:
 Charge =  0 Multiplicity = 2

                         Standard orientation:
 ---------------------------------------------------------------------
 Center     Atomic      Atomic             Coordinates (Angstroms)
 Number     Number       Type             X           Y           Z
 ---------------------------------------------------------------------
      1         11           0       -0.873021   -0.738926    2.104560
      2         11           0       -2.638205    1.403060   -1.117571
      3         11           0       -2.935383   -2.830972    0.216250
      4         11           0        0.184185   -0.610121   -1.786874
      5         11           0        3.964317   -1.650301   -0.608639
      6         11           0        2.434789    0.780213    0.944454
      7         11           0       -0.136682    3.647047    0.247820
 ---------------------------------------------------------------------

 SCF Done:  E(UB3LYP) =  -1136.11939195     A.U. after   20 cycles

 The electronic state is 2-A.
 Alpha  occ. eigenvalues --  -38.45097 -38.44472 -38.44448 -38.44299 -38.44158
 Alpha  occ. eigenvalues --  -38.43806 -38.43704  -2.20880  -2.20270  -2.20235
 Alpha  occ. eigenvalues --   -2.20080  -2.19909  -2.19633  -2.19459  -1.14566
 Alpha  occ. eigenvalues --   -1.14533  -1.14488  -1.13939  -1.13921  -1.13918
 Alpha  occ. eigenvalues --   -1.13893  -1.13878  -1.13843  -1.13752  -1.13740
 Alpha  occ. eigenvalues --   -1.13714  -1.13586  -1.13576  -1.13544  -1.13319
 Alpha  occ. eigenvalues --   -1.13307  -1.13247  -1.13139  -1.13117  -1.13101
 Alpha  occ. eigenvalues --   -0.16998  -0.13016  -0.11782  -0.11064
 Alpha virt. eigenvalues --   -0.06407  -0.05770  -0.04846  -0.03121  -0.02898
 Alpha virt. eigenvalues --   -0.02753  -0.02166  -0.01688  -0.00711  -0.00545
 Alpha virt. eigenvalues --   -0.00288   0.00206   0.00374   0.00474   0.00553

  Beta  occ. eigenvalues --  -38.45039 -38.44416 -38.44402 -38.44289 -38.44165
  Beta  occ. eigenvalues --  -38.43784 -38.43705  -2.20772  -2.20177  -2.20139
  Beta  occ. eigenvalues --   -2.20062  -2.19925  -2.19594  -2.19461  -1.14491
  Beta  occ. eigenvalues --   -1.14460  -1.14403  -1.13865  -1.13856  -1.13852
  Beta  occ. eigenvalues --   -1.13832  -1.13808  -1.13781  -1.13742  -1.13727
  Beta  occ. eigenvalues --   -1.13699  -1.13598  -1.13574  -1.13556  -1.13292
  Beta  occ. eigenvalues --   -1.13277  -1.13207  -1.13141  -1.13108  -1.13103
  Beta  occ. eigenvalues --   -0.16264  -0.12828  -0.11647
  Beta virt. eigenvalues --   -0.07404  -0.06130  -0.05454  -0.04435  -0.02851
  Beta virt. eigenvalues --   -0.02487  -0.02047  -0.01901  -0.01527  -0.00676
  Beta virt. eigenvalues --   -0.00373  -0.00098   0.00242   0.00534   0.00581

 Mulliken charges and spin densities:
               1          2
     1  Na  -0.129752   0.393171
     2  Na   0.294625   0.123264
     3  Na   0.098009  -0.084202
     4  Na  -0.273302   0.389054
     5  Na   0.233293   0.052827
     6  Na  -0.050666   0.121646
     7  Na  -0.172207   0.004239
 Sum of Mulliken charges =  -0.00000   1.00000

 Dipole moment (field-independent basis, Debye):
    X=             -0.0944    Y=             -0.6589    Z=             -0.3251  Tot=              0.7408
 Quadrupole moment (field-independent basis, Debye-Ang):
   XX=            -57.9974   YY=            -65.4053   ZZ=            -72.0089
   XY=             -0.6755   XZ=              1.4065   YZ=              3.4375

 Normal termination of Gaussian 16 at Sun Dec  3 15:10:49 2023.
