 Gaussian 16, Revision B.01,
 Gaussian 16:  ES64L-G16RevB.01 20-Dec-2017

 -------------------------
 #P B3LYP/6-311+g(d) force
 -------------------------

 -----
 DPGEN
 -----
 Symbolic Z-matrix:
 Charge =  0 Multiplicity = 2

                         Standard orientation:
 ---------------------------------------------------------------------
 Center     Atomic      Atomic             Coordinates (Angstroms)
 Number     Number       Type             X           Y           Z
 ---------------------------------------------------------------------
      1         11           0       -3.806057    0.405088    0.403854
      2         11           0        1.086387   -0.747089   -1.578487
      3         11           0       -0.342376    0.228297    2.120254
      4         11           0       -1.603778   -2.217717   -0.709015
      5         11           0        2.696860   -1.631230    0.759349
      6         11           0        2.707386    1.799335    0.016678
      7         11           0       -0.738423    2.163316   -1.012633
 ---------------------------------------------------------------------

 SCF Done:  E(UB3LYP) =  -1136.12581265     A.U. after   21 cycles

 The electronic state is 2-A.
 Alpha  occ. eigenvalues --  -38.45071 -38.44754 -38.44135 -38.43900 -38.43471
 Alpha  occ. eigenvalues --  -38.43214 -38.43192  -2.20836  -2.20565  -2.19995
 Alpha  occ. eigenvalues --   -2.19728  -2.19293  -2.19175  -2.19044  -1.14510
 Alpha  occ. eigenvalues --   -1.14493  -1.14470  -1.14238  -1.14207  -1.14176
 Alpha  occ. eigenvalues --   -1.13728  -1.13639  -1.13616  -1.13410  -1.13386
 Alpha  occ. eigenvalues --   -1.13366  -1.13027  -1.12951  -1.12912  -1.12849
 Alpha  occ. eigenvalues --   -1.12831  -1.12771  -1.12726  -1.12708  -1.12651
 Alpha  occ. eigenvalues --   -0.18243  -0.13534  -0.11407  -0.11184
 Alpha virt. eigenvalues --   -0.06664  -0.05293  -0.04222  -0.03338  -0.02792
 Alpha virt. eigenvalues --   -0.02675  -0.02241  -0.01126  -0.00596  -0.00172
 Alpha virt. eigenvalues --    0.00101   0.00270   0.00342   0.00686   0.00734

  Beta  occ. eigenvalues --  -38.45070 -38.44679 -38.44119 -38.43899 -38.43453
  Beta  occ. eigenvalues --  -38.43188 -38.43140  -2.20836  -2.20425  -2.19967
  Beta  occ. eigenvalues --   -2.19729  -2.19263  -2.19081  -2.18998  -1.14501
  Beta  occ. eigenvalues --   -1.14496  -1.14471  -1.14144  -1.14112  -1.14070
  Beta  occ. eigenvalues --   -1.13710  -1.13609  -1.13594  -1.13405  -1.13383
  Beta  occ. eigenvalues --   -1.13357  -1.12991  -1.12921  -1.12894  -1.12781
  Beta  occ. eigenvalues --   -1.12767  -1.12712  -1.12683  -1.12662  -1.12618
  Beta  occ. eigenvalues --   -0.17504  -0.13386  -0.11149
  Beta virt. eigenvalues --   -0.07317  -0.06420  -0.05323  -0.03704  -0.03043
  Beta virt. eigenvalues --   -0.02147  -0.02090  -0.01737  -0.01067  -0.00425
  Beta virt. eigenvalues --   -0.00058   0.00090   0.00299   0.00542   0.00752

 Mulliken charges and spin densities:
               1          2
     1  Na   0.258046   0.047378
     2  Na   0.377844   0.237863
     3  Na  -0.345719   0.539942
     4  Na  -0.266954  -0.010759
     5  Na   0.127673   0.161026
     6  Na   0.184141  -0.003825
     7  Na  -0.335031   0.028375
 Sum of Mulliken charges =  -0.00000   1.00000

 Dipole moment (field-independent basis, Debye):
    X=             -0.5023    Y=              0.2197    Z=              0.6555  Tot=              0.8546
 Quadrupole moment (field-independent basis, Debye-Ang):
   XX=            -49.0023   YY=            -73.7175   ZZ=            -71.0014
   XY=             -0.2392   XZ=              1.2819   YZ=             -1.3265

 Normal termination of Gaussian 16 at Thu Dec  7 06:12:05 2023.
