 Gaussian 16, Revision B.01,
 Gaussian 16:  ES64L-G16RevB.01 20-Dec-2017

 -------------------------
 #P B3LYP/6-311+g(d) force
 -------------------------

 -----
 DPGEN
 -----
 Symbolic Z-matrix:
 Charge =  0 Multiplicity = 2

                         Standard orientation:
 ---------------------------------------------------------------------
 Center     Atomic      Atomic             Coordinates (Angstroms)
 Number     Number       Type             X           Y           Z
 ---------------------------------------------------------------------
      1         11           0        3.432234    0.026203    0.102033
      2         11           0       -2.845249    1.408904    0.006871
      3         11           0        0.741306    2.704132   -0.109715
      4         11           0       -0.068773    0.163446    1.841368
      5         11           0        0.167430    0.058282   -1.786295
      6         11           0        0.920232   -2.546460    0.015007
      7         11           0       -2.347181   -1.814507   -0.069269
 ---------------------------------------------------------------------

 SCF Done:  E(UB3LYP) =  -1136.13730137     A.U. after   19 cycles

 The electronic state is 2-A.
 Alpha  occ. eigenvalues --  -38.44727 -38.44046 -38.43465 -38.43320 -38.43283
 Alpha  occ. eigenvalues --  -38.43229 -38.42987  -2.20509  -2.19879  -2.19344
 Alpha  occ. eigenvalues --   -2.19261  -2.19193  -2.19149  -2.18881  -1.14183
 Alpha  occ. eigenvalues --   -1.14164  -1.14149  -1.13561  -1.13546  -1.13515
 Alpha  occ. eigenvalues --   -1.13022  -1.13007  -1.12997  -1.12969  -1.12920
 Alpha  occ. eigenvalues --   -1.12913  -1.12872  -1.12867  -1.12805  -1.12800
 Alpha  occ. eigenvalues --   -1.12773  -1.12749  -1.12564  -1.12546  -1.12497
 Alpha  occ. eigenvalues --   -0.18824  -0.13142  -0.12348  -0.10634
 Alpha virt. eigenvalues --   -0.06180  -0.04968  -0.04384  -0.03162  -0.02790
 Alpha virt. eigenvalues --   -0.02421  -0.01973  -0.01022  -0.00349  -0.00169
 Alpha virt. eigenvalues --   -0.00024   0.00334   0.00785   0.00869   0.00917

  Beta  occ. eigenvalues --  -38.44727 -38.44043 -38.43461 -38.43275 -38.43239
  Beta  occ. eigenvalues --  -38.43148 -38.42980  -2.20511  -2.19877  -2.19340
  Beta  occ. eigenvalues --   -2.19139  -2.19112  -2.19046  -2.18871  -1.14170
  Beta  occ. eigenvalues --   -1.14166  -1.14152  -1.13563  -1.13523  -1.13515
  Beta  occ. eigenvalues --   -1.13017  -1.13000  -1.12972  -1.12906  -1.12843
  Beta  occ. eigenvalues --   -1.12826  -1.12774  -1.12765  -1.12750  -1.12747
  Beta  occ. eigenvalues --   -1.12709  -1.12684  -1.12555  -1.12506  -1.12494
  Beta  occ. eigenvalues --   -0.18079  -0.12930  -0.12073
  Beta virt. eigenvalues --   -0.06718  -0.06143  -0.04985  -0.04369  -0.02399
  Beta virt. eigenvalues --   -0.01968  -0.01879  -0.01358  -0.00968  -0.00405
  Beta virt. eigenvalues --   -0.00219   0.00113   0.00354   0.00828   0.00863

 Mulliken charges and spin densities:
               1          2
     1  Na   0.083779  -0.100240
     2  Na   0.222574  -0.078505
     3  Na   0.116140  -0.190210
     4  Na  -0.406614   0.781560
     5  Na  -0.315781   0.713978
     6  Na   0.152927  -0.086153
     7  Na   0.146976  -0.040430
 Sum of Mulliken charges =  -0.00000   1.00000

 Dipole moment (field-independent basis, Debye):
    X=              0.3223    Y=              0.2159    Z=              0.0541  Tot=              0.3917
 Quadrupole moment (field-independent basis, Debye-Ang):
   XX=            -51.7244   YY=            -65.4555   ZZ=            -75.0191
   XY=             -0.2615   XZ=              0.6334   YZ=             -0.1665

 Normal termination of Gaussian 16 at Sat Dec  9 06:11:16 2023.
