 Gaussian 16, Revision B.01,
 Gaussian 16:  ES64L-G16RevB.01 20-Dec-2017

 -------------------------
 #P B3LYP/6-311+g(d) force
 -------------------------

 -----
 DPGEN
 -----
 Symbolic Z-matrix:
 Charge =  0 Multiplicity = 2

                         Standard orientation:
 ---------------------------------------------------------------------
 Center     Atomic      Atomic             Coordinates (Angstroms)
 Number     Number       Type             X           Y           Z
 ---------------------------------------------------------------------
      1         11           0        1.377167    3.163892    0.304043
      2         11           0        3.635757    0.750420   -1.207531
      3         11           0        2.666700   -2.070120    0.014486
      4         11           0        0.267315   -2.904979    1.752788
      5         11           0       -2.456890   -2.588001   -1.055082
      6         11           0       -1.740519    3.252441    0.791159
      7         11           0       -3.749530    0.396348   -0.599862
 ---------------------------------------------------------------------

 SCF Done:  E(UB3LYP) =  -1136.11107206     A.U. after   20 cycles

 The electronic state is 2-A.
 Alpha  occ. eigenvalues --  -38.44908 -38.44661 -38.44577 -38.44412 -38.44357
 Alpha  occ. eigenvalues --  -38.44000 -38.43853  -2.20682  -2.20446  -2.20357
 Alpha  occ. eigenvalues --   -2.20246  -2.20185  -2.19809  -2.19679  -1.14356
 Alpha  occ. eigenvalues --   -1.14350  -1.14315  -1.14133  -1.14121  -1.14092
 Alpha  occ. eigenvalues --   -1.14027  -1.14014  -1.14014  -1.13988  -1.13909
 Alpha  occ. eigenvalues --   -1.13904  -1.13819  -1.13795  -1.13787  -1.13469
 Alpha  occ. eigenvalues --   -1.13462  -1.13439  -1.13329  -1.13320  -1.13304
 Alpha  occ. eigenvalues --   -0.15885  -0.13743  -0.13564  -0.10933
 Alpha virt. eigenvalues --   -0.07150  -0.05044  -0.04202  -0.03707  -0.03507
 Alpha virt. eigenvalues --   -0.02026  -0.01852  -0.01492  -0.01351  -0.01258
 Alpha virt. eigenvalues --   -0.00565  -0.00131   0.00006   0.00531   0.00753

  Beta  occ. eigenvalues --  -38.44885 -38.44653 -38.44552 -38.44398 -38.44289
  Beta  occ. eigenvalues --  -38.43964 -38.43787  -2.20643  -2.20436  -2.20315
  Beta  occ. eigenvalues --   -2.20230  -2.20059  -2.19744  -2.19556  -1.14330
  Beta  occ. eigenvalues --   -1.14324  -1.14271  -1.14120  -1.14119  -1.14060
  Beta  occ. eigenvalues --   -1.14001  -1.13989  -1.13950  -1.13944  -1.13903
  Beta  occ. eigenvalues --   -1.13887  -1.13735  -1.13716  -1.13703  -1.13422
  Beta  occ. eigenvalues --   -1.13418  -1.13394  -1.13248  -1.13236  -1.13223
  Beta  occ. eigenvalues --   -0.15335  -0.13023  -0.12797
  Beta virt. eigenvalues --   -0.07790  -0.07315  -0.04616  -0.03647  -0.03484
  Beta virt. eigenvalues --   -0.03229  -0.01753  -0.01651  -0.01315  -0.01179
  Beta virt. eigenvalues --   -0.01042  -0.00287   0.00113   0.00256   0.00508

 Mulliken charges and spin densities:
               1          2
     1  Na  -0.132969   0.039096
     2  Na   0.376574   0.305972
     3  Na  -0.374381   0.063032
     4  Na   0.082418   0.289627
     5  Na   0.063630   0.094689
     6  Na   0.104975   0.125139
     7  Na  -0.120247   0.082445
 Sum of Mulliken charges =  -0.00000   1.00000

 Dipole moment (field-independent basis, Debye):
    X=             -0.4894    Y=             -0.3840    Z=             -0.0101  Tot=              0.6221
 Quadrupole moment (field-independent basis, Debye-Ang):
   XX=            -66.3299   YY=            -66.3067   ZZ=            -69.2562
   XY=              0.1443   XZ=             -1.9126   YZ=              1.4631

 Normal termination of Gaussian 16 at Sun Dec  3 18:26:14 2023.
