 Gaussian 16, Revision B.01,
 Gaussian 16:  ES64L-G16RevB.01 20-Dec-2017

 -------------------------
 #P B3LYP/6-311+g(d) force
 -------------------------

 -----
 DPGEN
 -----
 Symbolic Z-matrix:
 Charge =  0 Multiplicity = 2

                         Standard orientation:
 ---------------------------------------------------------------------
 Center     Atomic      Atomic             Coordinates (Angstroms)
 Number     Number       Type             X           Y           Z
 ---------------------------------------------------------------------
      1         11           0        0.184910   -0.169790    2.065547
      2         11           0        2.703959    1.376692   -0.203564
      3         11           0       -3.148886    0.597247    0.005072
      4         11           0       -1.462026   -2.436004   -0.174445
      5         11           0        2.278261   -1.977850   -0.189503
      6         11           0       -0.230923   -0.179891   -1.354183
      7         11           0       -0.325296    2.789595   -0.148924
 ---------------------------------------------------------------------

 SCF Done:  E(UB3LYP) =  -1136.13489898     A.U. after   20 cycles

 The electronic state is 2-A.
 Alpha  occ. eigenvalues --  -38.44133 -38.43741 -38.43669 -38.43638 -38.43362
 Alpha  occ. eigenvalues --  -38.43161 -38.42907  -2.19970  -2.19603  -2.19550
 Alpha  occ. eigenvalues --   -2.19530  -2.19268  -2.19037  -2.19014  -1.13651
 Alpha  occ. eigenvalues --   -1.13627  -1.13613  -1.13384  -1.13286  -1.13267
 Alpha  occ. eigenvalues --   -1.13263  -1.13210  -1.13194  -1.13185  -1.13157
 Alpha  occ. eigenvalues --   -1.13131  -1.12945  -1.12885  -1.12880  -1.12777
 Alpha  occ. eigenvalues --   -1.12693  -1.12673  -1.12663  -1.12625  -1.12601
 Alpha  occ. eigenvalues --   -0.19036  -0.13224  -0.12557  -0.10584
 Alpha virt. eigenvalues --   -0.05669  -0.05240  -0.04559  -0.03078  -0.02707
 Alpha virt. eigenvalues --   -0.02373  -0.01637  -0.01116  -0.00315  -0.00257
 Alpha virt. eigenvalues --    0.00010   0.00341   0.00802   0.00881   0.00912

  Beta  occ. eigenvalues --  -38.44131 -38.43736 -38.43663 -38.43629 -38.43258
  Beta  occ. eigenvalues --  -38.43156 -38.42855  -2.19970  -2.19596  -2.19537
  Beta  occ. eigenvalues --   -2.19522  -2.19078  -2.19030  -2.18922  -1.13647
  Beta  occ. eigenvalues --   -1.13618  -1.13610  -1.13366  -1.13282  -1.13265
  Beta  occ. eigenvalues --   -1.13236  -1.13200  -1.13162  -1.13156  -1.13153
  Beta  occ. eigenvalues --   -1.13127  -1.12822  -1.12761  -1.12748  -1.12744
  Beta  occ. eigenvalues --   -1.12667  -1.12661  -1.12603  -1.12565  -1.12537
  Beta  occ. eigenvalues --   -0.18312  -0.12988  -0.12304
  Beta virt. eigenvalues --   -0.06625  -0.05636  -0.05237  -0.04538  -0.02294
  Beta virt. eigenvalues --   -0.01935  -0.01558  -0.01266  -0.01059  -0.00371
  Beta virt. eigenvalues --   -0.00297   0.00164   0.00380   0.00858   0.00879

 Mulliken charges and spin densities:
               1          2
     1  Na  -0.637505   0.772103
     2  Na   0.173249   0.016308
     3  Na   0.255938   0.018614
     4  Na   0.567604   0.020757
     5  Na   0.399973   0.018100
     6  Na  -0.979869   0.156580
     7  Na   0.220610  -0.002462
 Sum of Mulliken charges =  -0.00000   1.00000

 Dipole moment (field-independent basis, Debye):
    X=             -0.1129    Y=             -0.0576    Z=              0.2794  Tot=              0.3068
 Quadrupole moment (field-independent basis, Debye-Ang):
   XX=            -54.1465   YY=            -62.6220   ZZ=            -75.5292
   XY=             -0.6036   XZ=             -0.9862   YZ=              0.0558

 Normal termination of Gaussian 16 at Tue Dec  5 12:11:28 2023.
