 Gaussian 16, Revision B.01,
 Gaussian 16:  ES64L-G16RevB.01 20-Dec-2017

 -------------------------
 #P B3LYP/6-311+g(d) force
 -------------------------

 -----
 DPGEN
 -----
 Symbolic Z-matrix:
 Charge =  0 Multiplicity = 2

                         Standard orientation:
 ---------------------------------------------------------------------
 Center     Atomic      Atomic             Coordinates (Angstroms)
 Number     Number       Type             X           Y           Z
 ---------------------------------------------------------------------
      1         11           0        2.734070    0.566805    1.509299
      2         11           0        1.138689    3.255544   -0.050150
      3         11           0        2.998648    0.387370   -1.491489
      4         11           0        3.858949   -2.470485    0.240792
      5         11           0       -0.325977   -0.648482   -0.243037
      6         11           0       -3.888775   -1.600081   -0.144684
      7         11           0       -6.515603    0.509329    0.179269
 ---------------------------------------------------------------------

 SCF Done:  E(UB3LYP) =  -1136.11118580     A.U. after   22 cycles

 The electronic state is 2-A.
 Alpha  occ. eigenvalues --  -38.46035 -38.45639 -38.43929 -38.43856 -38.43504
 Alpha  occ. eigenvalues --  -38.43448 -38.43262  -2.21914  -2.21539  -2.19753
 Alpha  occ. eigenvalues --   -2.19645  -2.19308  -2.19262  -2.19029  -1.15672
 Alpha  occ. eigenvalues --   -1.15599  -1.15477  -1.15237  -1.15212  -1.15100
 Alpha  occ. eigenvalues --   -1.13439  -1.13377  -1.13354  -1.13288  -1.13286
 Alpha  occ. eigenvalues --   -1.13264  -1.12986  -1.12965  -1.12940  -1.12937
 Alpha  occ. eigenvalues --   -1.12918  -1.12902  -1.12716  -1.12706  -1.12676
 Alpha  occ. eigenvalues --   -0.17705  -0.13225  -0.11890  -0.10675
 Alpha virt. eigenvalues --   -0.07172  -0.05524  -0.05191  -0.02740  -0.02470
 Alpha virt. eigenvalues --   -0.02370  -0.02177  -0.01638  -0.01484  -0.00954
 Alpha virt. eigenvalues --   -0.00847  -0.00246   0.00130   0.00319   0.00559

  Beta  occ. eigenvalues --  -38.46025 -38.45623 -38.43832 -38.43772 -38.43497
  Beta  occ. eigenvalues --  -38.43449 -38.43278  -2.21899  -2.21512  -2.19574
  Beta  occ. eigenvalues --   -2.19489  -2.19295  -2.19264  -2.19064  -1.15659
  Beta  occ. eigenvalues --   -1.15571  -1.15470  -1.15211  -1.15187  -1.15082
  Beta  occ. eigenvalues --   -1.13317  -1.13255  -1.13232  -1.13181  -1.13179
  Beta  occ. eigenvalues --   -1.13165  -1.12978  -1.12948  -1.12942  -1.12931
  Beta  occ. eigenvalues --   -1.12912  -1.12903  -1.12746  -1.12736  -1.12654
  Beta  occ. eigenvalues --   -0.17227  -0.12476  -0.11731
  Beta virt. eigenvalues --   -0.07198  -0.07055  -0.05196  -0.04771  -0.02435
  Beta virt. eigenvalues --   -0.02414  -0.01989  -0.01878  -0.01582  -0.01208
  Beta virt. eigenvalues --   -0.00700  -0.00414  -0.00061   0.00192   0.00397

 Mulliken charges and spin densities:
               1          2
     1  Na   0.474082   0.162022
     2  Na   0.257156   0.067758
     3  Na   0.810836   0.152182
     4  Na   0.180831  -0.005463
     5  Na  -1.202994   0.302666
     6  Na  -0.391916  -0.082347
     7  Na  -0.127995   0.403182
 Sum of Mulliken charges =  -0.00000   1.00000

 Dipole moment (field-independent basis, Debye):
    X=              2.7429    Y=              0.9002    Z=             -0.0574  Tot=              2.8874
 Quadrupole moment (field-independent basis, Debye-Ang):
   XX=            -74.0941   YY=            -67.4894   ZZ=            -62.5555
   XY=             -5.4078   XZ=             -1.8704   YZ=             -0.7232

 Normal termination of Gaussian 16 at Fri Dec  8 20:06:09 2023.
