 Gaussian 16, Revision B.01,
 Gaussian 16:  ES64L-G16RevB.01 20-Dec-2017

 -------------------------
 #P B3LYP/6-311+g(d) force
 -------------------------

 -----
 DPGEN
 -----
 Symbolic Z-matrix:
 Charge =  0 Multiplicity = 2

                         Standard orientation:
 ---------------------------------------------------------------------
 Center     Atomic      Atomic             Coordinates (Angstroms)
 Number     Number       Type             X           Y           Z
 ---------------------------------------------------------------------
      1         11           0        3.201391   -2.931902   -0.127038
      2         11           0        4.489278    0.767766    0.067302
      3         11           0        1.978476    2.893410   -0.180085
      4         11           0       -1.626079    3.003276   -0.071753
      5         11           0       -3.526846   -2.372604   -0.479203
      6         11           0       -0.053488   -2.117916    0.495126
      7         11           0       -4.462732    0.757971    0.295651
 ---------------------------------------------------------------------

 SCF Done:  E(UB3LYP) =  -1136.10943393     A.U. after   25 cycles

 The electronic state is 2-A.
 Alpha  occ. eigenvalues --  -38.45655 -38.45127 -38.44685 -38.44421 -38.44226
 Alpha  occ. eigenvalues --  -38.44152 -38.43610  -2.21420  -2.20886  -2.20482
 Alpha  occ. eigenvalues --   -2.20198  -2.20036  -2.19928  -2.19398  -1.15103
 Alpha  occ. eigenvalues --   -1.15078  -1.15067  -1.14575  -1.14562  -1.14502
 Alpha  occ. eigenvalues --   -1.14141  -1.14138  -1.14099  -1.13863  -1.13846
 Alpha  occ. eigenvalues --   -1.13839  -1.13688  -1.13683  -1.13672  -1.13612
 Alpha  occ. eigenvalues --   -1.13608  -1.13570  -1.13060  -1.13053  -1.13019
 Alpha  occ. eigenvalues --   -0.15743  -0.14157  -0.12979  -0.10705
 Alpha virt. eigenvalues --   -0.07784  -0.05021  -0.04337  -0.03656  -0.03405
 Alpha virt. eigenvalues --   -0.02731  -0.02273  -0.01895  -0.01055  -0.00561
 Alpha virt. eigenvalues --   -0.00413  -0.00226   0.00169   0.00257   0.00551

  Beta  occ. eigenvalues --  -38.45646 -38.45108 -38.44621 -38.44394 -38.44177
  Beta  occ. eigenvalues --  -38.44152 -38.43554  -2.21409  -2.20854  -2.20366
  Beta  occ. eigenvalues --   -2.20150  -2.19944  -2.19936  -2.19293  -1.15101
  Beta  occ. eigenvalues --   -1.15076  -1.15020  -1.14556  -1.14543  -1.14461
  Beta  occ. eigenvalues --   -1.14061  -1.14059  -1.14015  -1.13831  -1.13810
  Beta  occ. eigenvalues --   -1.13800  -1.13625  -1.13622  -1.13619  -1.13618
  Beta  occ. eigenvalues --   -1.13611  -1.13535  -1.12987  -1.12983  -1.12953
  Beta  occ. eigenvalues --   -0.15243  -0.13391  -0.12298
  Beta virt. eigenvalues --   -0.07909  -0.07572  -0.04635  -0.03914  -0.03452
  Beta virt. eigenvalues --   -0.02960  -0.02526  -0.02029  -0.01691  -0.00842
  Beta virt. eigenvalues --   -0.00397  -0.00128   0.00072   0.00193   0.00344

 Mulliken charges and spin densities:
               1          2
     1  Na   0.676924   0.026989
     2  Na  -0.297242   0.244913
     3  Na   0.364180   0.035033
     4  Na   0.101259   0.216958
     5  Na   0.420252   0.239969
     6  Na  -1.204125   0.151669
     7  Na  -0.061247   0.084469
 Sum of Mulliken charges =  -0.00000   1.00000

 Dipole moment (field-independent basis, Debye):
    X=             -0.3341    Y=             -0.9203    Z=              0.0066  Tot=              0.9791
 Quadrupole moment (field-independent basis, Debye-Ang):
   XX=            -51.6605   YY=            -72.3954   ZZ=            -73.5788
   XY=             -5.7924   XZ=             -1.1573   YZ=              1.6028

 Normal termination of Gaussian 16 at Mon Dec  4 00:37:07 2023.
