 Gaussian 16, Revision B.01,
 Gaussian 16:  ES64L-G16RevB.01 20-Dec-2017

 -------------------------
 #P B3LYP/6-311+g(d) force
 -------------------------

 -----
 DPGEN
 -----
 Symbolic Z-matrix:
 Charge =  0 Multiplicity = 2

                         Standard orientation:
 ---------------------------------------------------------------------
 Center     Atomic      Atomic             Coordinates (Angstroms)
 Number     Number       Type             X           Y           Z
 ---------------------------------------------------------------------
      1         11           0       -2.694034    1.175282   -0.105839
      2         11           0        2.982656    0.731170   -0.358017
      3         11           0        1.683574   -2.581264    0.078307
      4         11           0        0.234401    2.960946    0.178892
      5         11           0       -0.079447    0.056061   -1.705196
      6         11           0       -2.124859   -2.184245   -0.225128
      7         11           0       -0.002291   -0.157949    2.136981
 ---------------------------------------------------------------------

 SCF Done:  E(UB3LYP) =  -1136.14093909     A.U. after   18 cycles

 The electronic state is 2-A.
 Alpha  occ. eigenvalues --  -38.43790 -38.43738 -38.43697 -38.43619 -38.43538
 Alpha  occ. eigenvalues --  -38.43359 -38.43285  -2.19658  -2.19565  -2.19510
 Alpha  occ. eigenvalues --   -2.19458  -2.19412  -2.19252  -2.19207  -1.13321
 Alpha  occ. eigenvalues --   -1.13287  -1.13282  -1.13254  -1.13224  -1.13208
 Alpha  occ. eigenvalues --   -1.13184  -1.13171  -1.13159  -1.13142  -1.13130
 Alpha  occ. eigenvalues --   -1.13111  -1.13095  -1.13069  -1.13031  -1.12931
 Alpha  occ. eigenvalues --   -1.12896  -1.12874  -1.12872  -1.12849  -1.12842
 Alpha  occ. eigenvalues --   -0.18581  -0.12833  -0.12525  -0.10909
 Alpha virt. eigenvalues --   -0.05351  -0.05111  -0.04907  -0.03143  -0.03031
 Alpha virt. eigenvalues --   -0.02748  -0.01299  -0.01188  -0.00401  -0.00295
 Alpha virt. eigenvalues --   -0.00026   0.00372   0.00839   0.00869   0.00900

  Beta  occ. eigenvalues --  -38.43732 -38.43694 -38.43691 -38.43614 -38.43533
  Beta  occ. eigenvalues --  -38.43355 -38.43220  -2.19555  -2.19509  -2.19476
  Beta  occ. eigenvalues --   -2.19452  -2.19406  -2.19202  -2.19134  -1.13240
  Beta  occ. eigenvalues --   -1.13214  -1.13206  -1.13201  -1.13177  -1.13168
  Beta  occ. eigenvalues --   -1.13161  -1.13146  -1.13144  -1.13134  -1.13114
  Beta  occ. eigenvalues --   -1.13101  -1.13086  -1.13045  -1.13029  -1.12886
  Beta  occ. eigenvalues --   -1.12852  -1.12843  -1.12838  -1.12791  -1.12781
  Beta  occ. eigenvalues --   -0.17843  -0.12589  -0.12303
  Beta virt. eigenvalues --   -0.06980  -0.05362  -0.05094  -0.04818  -0.02355
  Beta virt. eigenvalues --   -0.02249  -0.01684  -0.01209  -0.01107  -0.00453
  Beta virt. eigenvalues --   -0.00356   0.00114   0.00391   0.00865   0.00887

 Mulliken charges and spin densities:
               1          2
     1  Na   0.239269  -0.022114
     2  Na   0.108463  -0.047045
     3  Na   0.071331  -0.079070
     4  Na   0.118170  -0.008850
     5  Na  -0.168586   0.457006
     6  Na   0.155024  -0.076855
     7  Na  -0.523672   0.776929
 Sum of Mulliken charges =  -0.00000   1.00000

 Dipole moment (field-independent basis, Debye):
    X=              0.0615    Y=             -0.1366    Z=              0.1322  Tot=              0.1998
 Quadrupole moment (field-independent basis, Debye-Ang):
   XX=            -59.5262   YY=            -60.9644   ZZ=            -73.4908
   XY=              0.1543   XZ=             -0.2489   YZ=              0.4774

 Normal termination of Gaussian 16 at Thu Dec  7 23:45:09 2023.
