 Gaussian 16, Revision B.01,
 Gaussian 16:  ES64L-G16RevB.01 20-Dec-2017

 -------------------------
 #P B3LYP/6-311+g(d) force
 -------------------------

 -----
 DPGEN
 -----
 Symbolic Z-matrix:
 Charge =  0 Multiplicity = 2

                         Standard orientation:
 ---------------------------------------------------------------------
 Center     Atomic      Atomic             Coordinates (Angstroms)
 Number     Number       Type             X           Y           Z
 ---------------------------------------------------------------------
      1         11           0       -3.345717    0.221777    0.200044
      2         11           0        0.161074   -0.203650    1.913893
      3         11           0       -1.752949   -2.722815   -0.377256
      4         11           0        3.229352   -1.759323    0.273460
      5         11           0        0.580453   -0.213046   -1.762655
      6         11           0       -1.277459    2.564007   -0.118122
      7         11           0        2.405246    2.113049   -0.129365
 ---------------------------------------------------------------------

 SCF Done:  E(UB3LYP) =  -1136.12904535     A.U. after   21 cycles

 The electronic state is 2-A.
 Alpha  occ. eigenvalues --  -38.44866 -38.44335 -38.44327 -38.43949 -38.43726
 Alpha  occ. eigenvalues --  -38.43502 -38.43111  -2.20622  -2.20168  -2.20133
 Alpha  occ. eigenvalues --   -2.19791  -2.19521  -2.19383  -2.18960  -1.14294
 Alpha  occ. eigenvalues --   -1.14280  -1.14260  -1.13859  -1.13827  -1.13818
 Alpha  occ. eigenvalues --   -1.13809  -1.13798  -1.13757  -1.13475  -1.13429
 Alpha  occ. eigenvalues --   -1.13401  -1.13189  -1.13177  -1.13170  -1.13067
 Alpha  occ. eigenvalues --   -1.13012  -1.13006  -1.12645  -1.12620  -1.12600
 Alpha  occ. eigenvalues --   -0.17973  -0.13325  -0.11900  -0.10403
 Alpha virt. eigenvalues --   -0.06496  -0.05772  -0.04345  -0.03276  -0.02624
 Alpha virt. eigenvalues --   -0.02424  -0.02056  -0.01525  -0.00839  -0.00328
 Alpha virt. eigenvalues --   -0.00089   0.00285   0.00615   0.00673   0.00708

  Beta  occ. eigenvalues --  -38.44860 -38.44335 -38.44319 -38.43871 -38.43717
  Beta  occ. eigenvalues --  -38.43431 -38.43109  -2.20613  -2.20169  -2.20122
  Beta  occ. eigenvalues --   -2.19649  -2.19507  -2.19254  -2.18958  -1.14276
  Beta  occ. eigenvalues --   -1.14270  -1.14256  -1.13864  -1.13815  -1.13806
  Beta  occ. eigenvalues --   -1.13800  -1.13781  -1.13751  -1.13377  -1.13331
  Beta  occ. eigenvalues --   -1.13294  -1.13171  -1.13162  -1.13160  -1.12979
  Beta  occ. eigenvalues --   -1.12924  -1.12907  -1.12647  -1.12611  -1.12586
  Beta  occ. eigenvalues --   -0.17291  -0.13132  -0.11654
  Beta virt. eigenvalues --   -0.06713  -0.06326  -0.05675  -0.04272  -0.02623
  Beta virt. eigenvalues --   -0.02048  -0.01856  -0.01491  -0.01335  -0.00877
  Beta virt. eigenvalues --   -0.00353   0.00080   0.00325   0.00687   0.00736

 Mulliken charges and spin densities:
               1          2
     1  Na   0.070412   0.016465
     2  Na  -0.181892   0.621291
     3  Na   0.081563  -0.021724
     4  Na  -0.011481  -0.061704
     5  Na  -0.019034   0.483423
     6  Na  -0.096667  -0.032305
     7  Na   0.157099  -0.005446
 Sum of Mulliken charges =  -0.00000   1.00000

 Dipole moment (field-independent basis, Debye):
    X=              0.6840    Y=             -0.2146    Z=              0.1169  Tot=              0.7264
 Quadrupole moment (field-independent basis, Debye-Ang):
   XX=            -52.0089   YY=            -65.0365   ZZ=            -76.1198
   XY=             -0.2367   XZ=              0.2402   YZ=              0.0507

 Normal termination of Gaussian 16 at Fri Dec  8 06:44:45 2023.
