 Gaussian 16, Revision B.01,
 Gaussian 16:  ES64L-G16RevB.01 20-Dec-2017

 -------------------------
 #P B3LYP/6-311+g(d) force
 -------------------------

 -----
 DPGEN
 -----
 Symbolic Z-matrix:
 Charge =  0 Multiplicity = 2

                         Standard orientation:
 ---------------------------------------------------------------------
 Center     Atomic      Atomic             Coordinates (Angstroms)
 Number     Number       Type             X           Y           Z
 ---------------------------------------------------------------------
      1         11           0       -1.676725   -2.456932    0.036784
      2         11           0        2.292130   -1.899228    0.107234
      3         11           0        2.963808    1.055792   -0.256278
      4         11           0        0.032537   -0.028303    1.621228
      5         11           0       -0.336166    2.746727    0.242898
      6         11           0       -0.042576   -0.028141   -1.585821
      7         11           0       -3.233010    0.610085   -0.166046
 ---------------------------------------------------------------------

 SCF Done:  E(UB3LYP) =  -1136.13403401     A.U. after   20 cycles

 The electronic state is 2-A.
 Alpha  occ. eigenvalues --  -38.44604 -38.44162 -38.43718 -38.43375 -38.43069
 Alpha  occ. eigenvalues --  -38.42902 -38.42786  -2.20427  -2.20039  -2.19614
 Alpha  occ. eigenvalues --   -2.19235  -2.19080  -2.18819  -2.18790  -1.14102
 Alpha  occ. eigenvalues --   -1.14081  -1.14068  -1.13754  -1.13697  -1.13669
 Alpha  occ. eigenvalues --   -1.13292  -1.13268  -1.13243  -1.12933  -1.12909
 Alpha  occ. eigenvalues --   -1.12862  -1.12814  -1.12710  -1.12683  -1.12574
 Alpha  occ. eigenvalues --   -1.12492  -1.12449  -1.12424  -1.12396  -1.12384
 Alpha  occ. eigenvalues --   -0.19103  -0.13623  -0.12237  -0.10301
 Alpha virt. eigenvalues --   -0.06157  -0.05220  -0.04320  -0.03221  -0.02482
 Alpha virt. eigenvalues --   -0.02014  -0.01957  -0.01149  -0.00337  -0.00291
 Alpha virt. eigenvalues --    0.00035   0.00332   0.00745   0.00875   0.00894

  Beta  occ. eigenvalues --  -38.44600 -38.44153 -38.43711 -38.43371 -38.43005
  Beta  occ. eigenvalues --  -38.42892 -38.42704  -2.20421  -2.20026  -2.19605
  Beta  occ. eigenvalues --   -2.19230  -2.18963  -2.18777  -2.18669  -1.14081
  Beta  occ. eigenvalues --   -1.14079  -1.14062  -1.13750  -1.13674  -1.13650
  Beta  occ. eigenvalues --   -1.13287  -1.13246  -1.13226  -1.12927  -1.12885
  Beta  occ. eigenvalues --   -1.12855  -1.12732  -1.12634  -1.12595  -1.12523
  Beta  occ. eigenvalues --   -1.12417  -1.12398  -1.12393  -1.12314  -1.12296
  Beta  occ. eigenvalues --   -0.18397  -0.13353  -0.11958
  Beta virt. eigenvalues --   -0.06444  -0.06082  -0.05218  -0.04325  -0.02431
  Beta virt. eigenvalues --   -0.01899  -0.01728  -0.01109  -0.00953  -0.00394
  Beta virt. eigenvalues --   -0.00311   0.00170   0.00367   0.00787   0.00873

 Mulliken charges and spin densities:
               1          2
     1  Na   0.093873  -0.109636
     2  Na   0.262076  -0.053265
     3  Na   0.220482   0.045511
     4  Na  -0.336903   0.639566
     5  Na   0.115461  -0.073417
     6  Na  -0.442143   0.596643
     7  Na   0.087154  -0.045403
 Sum of Mulliken charges =  -0.00000   1.00000

 Dipole moment (field-independent basis, Debye):
    X=             -0.2278    Y=              0.0123    Z=             -0.0418  Tot=              0.2320
 Quadrupole moment (field-independent basis, Debye-Ang):
   XX=            -50.5082   YY=            -63.7184   ZZ=            -76.8162
   XY=             -0.0688   XZ=             -0.1155   YZ=             -0.2890

 Normal termination of Gaussian 16 at Wed Nov 29 02:33:41 2023.
