 Gaussian 16, Revision B.01,
 Gaussian 16:  ES64L-G16RevB.01 20-Dec-2017

 -------------------------
 #P B3LYP/6-311+g(d) force
 -------------------------

 -----
 DPGEN
 -----
 Symbolic Z-matrix:
 Charge =  0 Multiplicity = 2

                         Standard orientation:
 ---------------------------------------------------------------------
 Center     Atomic      Atomic             Coordinates (Angstroms)
 Number     Number       Type             X           Y           Z
 ---------------------------------------------------------------------
      1         11           0        3.257572    2.161125   -0.101390
      2         11           0       -1.487272    1.396014   -1.470825
      3         11           0       -0.965675   -0.930632    1.687739
      4         11           0       -3.687454    1.378702    1.179480
      5         11           0        4.463777   -1.014170    0.730797
      6         11           0        1.887783   -1.237118   -1.151349
      7         11           0       -3.468732   -1.753922   -0.874451
 ---------------------------------------------------------------------

 SCF Done:  E(UB3LYP) =  -1136.09587849     A.U. after   30 cycles

 The electronic state is 2-A.
 Alpha  occ. eigenvalues --  -38.46264 -38.45413 -38.44901 -38.44726 -38.44229
 Alpha  occ. eigenvalues --  -38.43687 -38.43413  -2.22008  -2.21183  -2.20722
 Alpha  occ. eigenvalues --   -2.20478  -2.20042  -2.19521  -2.19231  -1.15692
 Alpha  occ. eigenvalues --   -1.15660  -1.15646  -1.14867  -1.14835  -1.14815
 Alpha  occ. eigenvalues --   -1.14402  -1.14371  -1.14347  -1.14165  -1.14141
 Alpha  occ. eigenvalues --   -1.14111  -1.13723  -1.13711  -1.13665  -1.13200
 Alpha  occ. eigenvalues --   -1.13162  -1.13152  -1.12913  -1.12881  -1.12853
 Alpha  occ. eigenvalues --   -0.17055  -0.14830  -0.10435  -0.09980
 Alpha virt. eigenvalues --   -0.07565  -0.06739  -0.05098  -0.03277  -0.02807
 Alpha virt. eigenvalues --   -0.02312  -0.02040  -0.01825  -0.01510  -0.01042
 Alpha virt. eigenvalues --   -0.00362  -0.00121   0.00102   0.00130   0.00246

  Beta  occ. eigenvalues --  -38.46268 -38.45398 -38.44867 -38.44724 -38.44205
  Beta  occ. eigenvalues --  -38.43644 -38.43362  -2.22019  -2.21158  -2.20658
  Beta  occ. eigenvalues --   -2.20477  -2.20000  -2.19441  -2.19139  -1.15688
  Beta  occ. eigenvalues --   -1.15663  -1.15655  -1.14850  -1.14816  -1.14783
  Beta  occ. eigenvalues --   -1.14359  -1.14328  -1.14302  -1.14166  -1.14134
  Beta  occ. eigenvalues --   -1.14102  -1.13698  -1.13661  -1.13632  -1.13145
  Beta  occ. eigenvalues --   -1.13113  -1.13088  -1.12852  -1.12817  -1.12774
  Beta  occ. eigenvalues --   -0.16432  -0.14507  -0.09859
  Beta virt. eigenvalues --   -0.07362  -0.06873  -0.06644  -0.04468  -0.03116
  Beta virt. eigenvalues --   -0.02627  -0.01898  -0.01745  -0.01492  -0.00988
  Beta virt. eigenvalues --   -0.00890  -0.00206  -0.00043   0.00118   0.00247

 Mulliken charges and spin densities:
               1          2
     1  Na  -0.120099   0.031675
     2  Na  -0.418958   0.258728
     3  Na  -0.101710  -0.034130
     4  Na   0.139474   0.235434
     5  Na   0.248490   0.177206
     6  Na  -0.071399   0.225640
     7  Na   0.324202   0.105447
 Sum of Mulliken charges =  -0.00000   1.00000

 Dipole moment (field-independent basis, Debye):
    X=              0.0069    Y=             -1.0736    Z=              0.2536  Tot=              1.1032
 Quadrupole moment (field-independent basis, Debye-Ang):
   XX=            -52.2822   YY=            -79.5580   ZZ=            -67.2754
   XY=              3.1109   XZ=              6.5946   YZ=              4.6465

 Normal termination of Gaussian 16 at Fri Dec  8 03:33:16 2023.
