 Gaussian 16, Revision B.01,
 Gaussian 16:  ES64L-G16RevB.01 20-Dec-2017

 -------------------------
 #P B3LYP/6-311+g(d) force
 -------------------------

 -----
 DPGEN
 -----
 Symbolic Z-matrix:
 Charge =  0 Multiplicity = 2

                         Standard orientation:
 ---------------------------------------------------------------------
 Center     Atomic      Atomic             Coordinates (Angstroms)
 Number     Number       Type             X           Y           Z
 ---------------------------------------------------------------------
      1         11           0        3.391067   -1.413996   -0.701866
      2         11           0       -0.197873   -0.557900   -1.738893
      3         11           0       -1.085795    1.921995    0.275411
      4         11           0        1.261623   -0.426041    1.850927
      5         11           0       -3.955240    0.080311   -0.445828
      6         11           0       -1.732533   -1.656077    0.870422
      7         11           0        2.318750    2.051708   -0.110172
 ---------------------------------------------------------------------

 SCF Done:  E(UB3LYP) =  -1136.12173515     A.U. after   29 cycles

 The electronic state is 2-A.
 Alpha  occ. eigenvalues --  -38.45551 -38.45047 -38.44154 -38.43576 -38.43550
 Alpha  occ. eigenvalues --  -38.43468 -38.42466  -2.21378  -2.20910  -2.19946
 Alpha  occ. eigenvalues --   -2.19494  -2.19478  -2.19318  -2.18362  -1.15062
 Alpha  occ. eigenvalues --   -1.15028  -1.15004  -1.14629  -1.14564  -1.14499
 Alpha  occ. eigenvalues --   -1.13619  -1.13608  -1.13589  -1.13215  -1.13158
 Alpha  occ. eigenvalues --   -1.13152  -1.13113  -1.13104  -1.13097  -1.12993
 Alpha  occ. eigenvalues --   -1.12971  -1.12941  -1.12083  -1.12036  -1.11967
 Alpha  occ. eigenvalues --   -0.18701  -0.14238  -0.11084  -0.10899
 Alpha virt. eigenvalues --   -0.07306  -0.05239  -0.04396  -0.03048  -0.02984
 Alpha virt. eigenvalues --   -0.02301  -0.02247  -0.01186  -0.00868  -0.00164
 Alpha virt. eigenvalues --    0.00037   0.00242   0.00334   0.00664   0.00739

  Beta  occ. eigenvalues --  -38.45543 -38.44997 -38.44150 -38.43510 -38.43502
  Beta  occ. eigenvalues --  -38.43459 -38.42464  -2.21362  -2.20819  -2.19942
  Beta  occ. eigenvalues --   -2.19411  -2.19362  -2.19302  -2.18361  -1.15052
  Beta  occ. eigenvalues --   -1.15016  -1.14990  -1.14560  -1.14501  -1.14430
  Beta  occ. eigenvalues --   -1.13615  -1.13599  -1.13583  -1.13143  -1.13088
  Beta  occ. eigenvalues --   -1.13068  -1.13066  -1.13018  -1.13012  -1.12968
  Beta  occ. eigenvalues --   -1.12951  -1.12930  -1.12087  -1.12009  -1.11967
  Beta  occ. eigenvalues --   -0.17968  -0.14095  -0.10721
  Beta virt. eigenvalues --   -0.07187  -0.07032  -0.05180  -0.03845  -0.02855
  Beta virt. eigenvalues --   -0.02738  -0.01647  -0.01502  -0.01104  -0.00487
  Beta virt. eigenvalues --   -0.00137   0.00069   0.00252   0.00480   0.00695

 Mulliken charges and spin densities:
               1          2
     1  Na  -0.076826   0.055764
     2  Na  -0.186945   0.412214
     3  Na  -0.746025   0.037377
     4  Na   0.464858   0.173440
     5  Na   1.018330   0.084901
     6  Na  -0.381796   0.110230
     7  Na  -0.091596   0.126073
 Sum of Mulliken charges =  -0.00000   1.00000

 Dipole moment (field-independent basis, Debye):
    X=             -0.9011    Y=             -0.0102    Z=             -0.3792  Tot=              0.9777
 Quadrupole moment (field-independent basis, Debye-Ang):
   XX=            -44.5213   YY=            -77.8352   ZZ=            -70.6157
   XY=              0.5095   XZ=              0.8742   YZ=             -0.3652

 Normal termination of Gaussian 16 at Tue Dec  5 16:06:24 2023.
