 Gaussian 16, Revision B.01,
 Gaussian 16:  ES64L-G16RevB.01 20-Dec-2017

 -------------------------
 #P B3LYP/6-311+g(d) force
 -------------------------

 -----
 DPGEN
 -----
 Symbolic Z-matrix:
 Charge =  0 Multiplicity = 2

                         Standard orientation:
 ---------------------------------------------------------------------
 Center     Atomic      Atomic             Coordinates (Angstroms)
 Number     Number       Type             X           Y           Z
 ---------------------------------------------------------------------
      1         11           0        2.007272    2.851302   -0.369002
      2         11           0       -3.632044   -0.780535   -0.136844
      3         11           0        1.979688   -1.328601    1.839744
      4         11           0       -0.237828   -3.048980   -0.773840
      5         11           0        3.259360   -0.119279   -0.688886
      6         11           0       -2.926540    2.088685    0.516510
      7         11           0       -0.449906    0.337407   -0.387682
 ---------------------------------------------------------------------

 SCF Done:  E(UB3LYP) =  -1136.11986249     A.U. after   25 cycles

 The electronic state is 2-A.
 Alpha  occ. eigenvalues --  -38.45017 -38.44804 -38.43862 -38.43672 -38.43423
 Alpha  occ. eigenvalues --  -38.43324 -38.43106  -2.20862  -2.20671  -2.19744
 Alpha  occ. eigenvalues --   -2.19540  -2.19285  -2.19250  -2.18914  -1.14553
 Alpha  occ. eigenvalues --   -1.14528  -1.14495  -1.14376  -1.14323  -1.14310
 Alpha  occ. eigenvalues --   -1.13424  -1.13386  -1.13375  -1.13209  -1.13188
 Alpha  occ. eigenvalues --   -1.13131  -1.13009  -1.12943  -1.12930  -1.12907
 Alpha  occ. eigenvalues --   -1.12897  -1.12872  -1.12587  -1.12568  -1.12537
 Alpha  occ. eigenvalues --   -0.17565  -0.14403  -0.12124  -0.09852
 Alpha virt. eigenvalues --   -0.06499  -0.05350  -0.04767  -0.03384  -0.02609
 Alpha virt. eigenvalues --   -0.02376  -0.01488  -0.01380  -0.00943  -0.00858
 Alpha virt. eigenvalues --   -0.00051   0.00171   0.00471   0.00628   0.00690

  Beta  occ. eigenvalues --  -38.45008 -38.44790 -38.43834 -38.43594 -38.43399
  Beta  occ. eigenvalues --  -38.43312 -38.43073  -2.20850  -2.20653  -2.19692
  Beta  occ. eigenvalues --   -2.19397  -2.19264  -2.19205  -2.18855  -1.14546
  Beta  occ. eigenvalues --   -1.14523  -1.14456  -1.14349  -1.14317  -1.14270
  Beta  occ. eigenvalues --   -1.13395  -1.13347  -1.13335  -1.13109  -1.13089
  Beta  occ. eigenvalues --   -1.13036  -1.12978  -1.12935  -1.12909  -1.12878
  Beta  occ. eigenvalues --   -1.12864  -1.12845  -1.12544  -1.12530  -1.12489
  Beta  occ. eigenvalues --   -0.17156  -0.13876  -0.11637
  Beta virt. eigenvalues --   -0.06510  -0.06393  -0.05097  -0.04542  -0.02911
  Beta virt. eigenvalues --   -0.02375  -0.02018  -0.01318  -0.00966  -0.00795
  Beta virt. eigenvalues --   -0.00626   0.00167   0.00332   0.00643   0.00710

 Mulliken charges and spin densities:
               1          2
     1  Na   0.728588  -0.052060
     2  Na   1.284004  -0.044810
     3  Na   0.234483   0.272703
     4  Na   0.458348   0.092446
     5  Na   0.784797   0.368839
     6  Na   0.921698   0.146120
     7  Na  -4.411918   0.216761
 Sum of Mulliken charges =  -0.00000   1.00000

 Dipole moment (field-independent basis, Debye):
    X=             -0.6522    Y=              0.0133    Z=             -0.1248  Tot=              0.6642
 Quadrupole moment (field-independent basis, Debye-Ang):
   XX=            -58.2158   YY=            -66.4954   ZZ=            -71.6203
   XY=              3.2068   XZ=             -4.1427   YZ=              3.3990

 Normal termination of Gaussian 16 at Tue Dec  5 19:18:37 2023.
