 Gaussian 16, Revision B.01,
 Gaussian 16:  ES64L-G16RevB.01 20-Dec-2017

 -------------------------
 #P B3LYP/6-311+g(d) force
 -------------------------

 -----
 DPGEN
 -----
 Symbolic Z-matrix:
 Charge =  0 Multiplicity = 2

                         Standard orientation:
 ---------------------------------------------------------------------
 Center     Atomic      Atomic             Coordinates (Angstroms)
 Number     Number       Type             X           Y           Z
 ---------------------------------------------------------------------
      1         11           0       -2.096296    2.214512    0.366014
      2         11           0        0.054144    0.440597   -1.899923
      3         11           0       -0.125256    0.136247    2.060229
      4         11           0        2.296476    2.287628   -0.264131
      5         11           0       -0.074122   -2.197947   -0.072266
      6         11           0       -3.028355   -1.297216   -0.382244
      7         11           0        2.973410   -1.583821    0.192319
 ---------------------------------------------------------------------

 SCF Done:  E(UB3LYP) =  -1136.12845677     A.U. after   21 cycles

 The electronic state is 2-A.
 Alpha  occ. eigenvalues --  -38.44188 -38.44128 -38.44038 -38.44037 -38.43975
 Alpha  occ. eigenvalues --  -38.43790 -38.42603  -2.19999  -2.19964  -2.19935
 Alpha  occ. eigenvalues --   -2.19820  -2.19791  -2.19698  -2.18595  -1.13695
 Alpha  occ. eigenvalues --   -1.13662  -1.13657  -1.13629  -1.13624  -1.13616
 Alpha  occ. eigenvalues --   -1.13593  -1.13584  -1.13543  -1.13518  -1.13476
 Alpha  occ. eigenvalues --   -1.13462  -1.13453  -1.13447  -1.13413  -1.13391
 Alpha  occ. eigenvalues --   -1.13325  -1.13301  -1.12285  -1.12263  -1.12225
 Alpha  occ. eigenvalues --   -0.18541  -0.12975  -0.12085  -0.11119
 Alpha virt. eigenvalues --   -0.05824  -0.05736  -0.03807  -0.03270  -0.02964
 Alpha virt. eigenvalues --   -0.02878  -0.01805  -0.01416  -0.00386  -0.00094
 Alpha virt. eigenvalues --    0.00099   0.00305   0.00660   0.00796   0.00878

  Beta  occ. eigenvalues --  -38.44190 -38.44122 -38.44033 -38.43963 -38.43946
  Beta  occ. eigenvalues --  -38.43717 -38.42589  -2.20003  -2.19953  -2.19815
  Beta  occ. eigenvalues --   -2.19772  -2.19766  -2.19565  -2.18576  -1.13700
  Beta  occ. eigenvalues --   -1.13656  -1.13646  -1.13631  -1.13594  -1.13585
  Beta  occ. eigenvalues --   -1.13517  -1.13499  -1.13488  -1.13470  -1.13452
  Beta  occ. eigenvalues --   -1.13431  -1.13431  -1.13405  -1.13390  -1.13302
  Beta  occ. eigenvalues --   -1.13236  -1.13203  -1.12278  -1.12231  -1.12188
  Beta  occ. eigenvalues --   -0.17780  -0.12766  -0.11799
  Beta virt. eigenvalues --   -0.07217  -0.05800  -0.05621  -0.03796  -0.02571
  Beta virt. eigenvalues --   -0.02194  -0.01864  -0.01664  -0.01313  -0.00428
  Beta virt. eigenvalues --    0.00045   0.00076   0.00332   0.00708   0.00820

 Mulliken charges and spin densities:
               1          2
     1  Na   0.131766  -0.050117
     2  Na  -0.301678   0.518307
     3  Na  -0.348738   0.551725
     4  Na   0.063547  -0.107063
     5  Na   0.040402   0.184560
     6  Na   0.310278  -0.007042
     7  Na   0.104422  -0.090370
 Sum of Mulliken charges =  -0.00000   1.00000

 Dipole moment (field-independent basis, Debye):
    X=              0.0426    Y=              0.4163    Z=              0.0796  Tot=              0.4260
 Quadrupole moment (field-independent basis, Debye-Ang):
   XX=            -52.9435   YY=            -68.2938   ZZ=            -72.3427
   XY=             -0.1832   XZ=              1.2788   YZ=              0.7561

 Normal termination of Gaussian 16 at Tue Dec  5 13:40:35 2023.
