 Gaussian 16, Revision B.01,
 Gaussian 16:  ES64L-G16RevB.01 20-Dec-2017

 -------------------------
 #P B3LYP/6-311+g(d) force
 -------------------------

 -----
 DPGEN
 -----
 Symbolic Z-matrix:
 Charge =  0 Multiplicity = 2

                         Standard orientation:
 ---------------------------------------------------------------------
 Center     Atomic      Atomic             Coordinates (Angstroms)
 Number     Number       Type             X           Y           Z
 ---------------------------------------------------------------------
      1         11           0        0.066665   -0.647396   -1.327578
      2         11           0       -3.234446   -1.228856   -1.204908
      3         11           0       -1.572903    2.338988   -0.264679
      4         11           0        1.890405    2.072738    0.044845
      5         11           0        3.033146   -0.902037   -1.063883
      6         11           0       -1.393113   -0.208212    2.190027
      7         11           0        1.210247   -1.425226    1.626176
 ---------------------------------------------------------------------

 SCF Done:  E(UB3LYP) =  -1136.12309358     A.U. after   24 cycles

 The electronic state is 2-A.
 Alpha  occ. eigenvalues --  -38.44897 -38.44299 -38.44180 -38.43778 -38.43467
 Alpha  occ. eigenvalues --  -38.43186 -38.42953  -2.20694  -2.20191  -2.20093
 Alpha  occ. eigenvalues --   -2.19781  -2.19409  -2.19029  -2.18784  -1.14371
 Alpha  occ. eigenvalues --   -1.14328  -1.14305  -1.13954  -1.13854  -1.13808
 Alpha  occ. eigenvalues --   -1.13786  -1.13734  -1.13702  -1.13477  -1.13412
 Alpha  occ. eigenvalues --   -1.13394  -1.13101  -1.13038  -1.13015  -1.12709
 Alpha  occ. eigenvalues --   -1.12703  -1.12663  -1.12468  -1.12458  -1.12400
 Alpha  occ. eigenvalues --   -0.18670  -0.13654  -0.12142  -0.11293
 Alpha virt. eigenvalues --   -0.05786  -0.05286  -0.04453  -0.03535  -0.02863
 Alpha virt. eigenvalues --   -0.02703  -0.01901  -0.00968  -0.00466   0.00002
 Alpha virt. eigenvalues --    0.00216   0.00352   0.00493   0.00730   0.00784

  Beta  occ. eigenvalues --  -38.44840 -38.44230 -38.44161 -38.43736 -38.43426
  Beta  occ. eigenvalues --  -38.43189 -38.42948  -2.20590  -2.20067  -2.20059
  Beta  occ. eigenvalues --   -2.19706  -2.19338  -2.19035  -2.18777  -1.14288
  Beta  occ. eigenvalues --   -1.14258  -1.14241  -1.13854  -1.13817  -1.13719
  Beta  occ. eigenvalues --   -1.13711  -1.13700  -1.13683  -1.13417  -1.13359
  Beta  occ. eigenvalues --   -1.13342  -1.13046  -1.12979  -1.12959  -1.12711
  Beta  occ. eigenvalues --   -1.12701  -1.12666  -1.12456  -1.12450  -1.12395
  Beta  occ. eigenvalues --   -0.18015  -0.13317  -0.11052
  Beta virt. eigenvalues --   -0.08156  -0.05549  -0.04934  -0.04199  -0.03149
  Beta virt. eigenvalues --   -0.02289  -0.02026  -0.01661  -0.00743  -0.00305
  Beta virt. eigenvalues --    0.00156   0.00296   0.00422   0.00625   0.00791

 Mulliken charges and spin densities:
               1          2
     1  Na  -1.874823   0.292003
     2  Na   0.411586   0.040935
     3  Na   0.023352   0.074846
     4  Na  -0.433275   0.040310
     5  Na   2.096633   0.151291
     6  Na   0.034769   0.208854
     7  Na  -0.258242   0.191760
 Sum of Mulliken charges =  -0.00000   1.00000

 Dipole moment (field-independent basis, Debye):
    X=             -0.2544    Y=             -0.3762    Z=             -0.1958  Tot=              0.4946
 Quadrupole moment (field-independent basis, Debye-Ang):
   XX=            -51.7159   YY=            -75.5751   ZZ=            -67.4120
   XY=             -0.2275   XZ=             -0.0379   YZ=              4.1654

 Normal termination of Gaussian 16 at Fri Dec  8 20:13:48 2023.
