 Gaussian 16, Revision B.01,
 Gaussian 16:  ES64L-G16RevB.01 20-Dec-2017

 -------------------------
 #P B3LYP/6-311+g(d) force
 -------------------------

 -----
 DPGEN
 -----
 Symbolic Z-matrix:
 Charge =  0 Multiplicity = 2

                         Standard orientation:
 ---------------------------------------------------------------------
 Center     Atomic      Atomic             Coordinates (Angstroms)
 Number     Number       Type             X           Y           Z
 ---------------------------------------------------------------------
      1         11           0       -0.355469   -0.084835   -1.613006
      2         11           0        0.170951   -0.002771    1.644449
      3         11           0        2.921249   -0.773696   -0.076963
      4         11           0        0.217876   -2.986595   -0.017909
      5         11           0        1.713631    2.422698   -0.109007
      6         11           0       -2.934320   -1.000292    0.116606
      7         11           0       -1.733918    2.425491    0.055830
 ---------------------------------------------------------------------

 SCF Done:  E(UB3LYP) =  -1136.14012654     A.U. after   19 cycles

 The electronic state is 2-A.
 Alpha  occ. eigenvalues --  -38.43899 -38.43679 -38.43656 -38.43646 -38.43509
 Alpha  occ. eigenvalues --  -38.42778 -38.42772  -2.19746  -2.19542  -2.19516
 Alpha  occ. eigenvalues --   -2.19513  -2.19380  -2.18791  -2.18780  -1.13436
 Alpha  occ. eigenvalues --   -1.13409  -1.13377  -1.13233  -1.13210  -1.13205
 Alpha  occ. eigenvalues --   -1.13203  -1.13186  -1.13182  -1.13179  -1.13147
 Alpha  occ. eigenvalues --   -1.13129  -1.13053  -1.13041  -1.13009  -1.12536
 Alpha  occ. eigenvalues --   -1.12434  -1.12412  -1.12409  -1.12396  -1.12393
 Alpha  occ. eigenvalues --   -0.19038  -0.13002  -0.12873  -0.10231
 Alpha virt. eigenvalues --   -0.05491  -0.05177  -0.05057  -0.02891  -0.02804
 Alpha virt. eigenvalues --   -0.01953  -0.01443  -0.01323  -0.00429  -0.00391
 Alpha virt. eigenvalues --    0.00052   0.00365   0.00850   0.00880   0.00883

  Beta  occ. eigenvalues --  -38.43894 -38.43674 -38.43650 -38.43640 -38.43504
  Beta  occ. eigenvalues --  -38.42706 -38.42696  -2.19740  -2.19537  -2.19509
  Beta  occ. eigenvalues --   -2.19506  -2.19373  -2.18661  -2.18641  -1.13428
  Beta  occ. eigenvalues --   -1.13382  -1.13377  -1.13230  -1.13208  -1.13199
  Beta  occ. eigenvalues --   -1.13181  -1.13174  -1.13152  -1.13150  -1.13145
  Beta  occ. eigenvalues --   -1.13130  -1.13048  -1.13011  -1.13008  -1.12444
  Beta  occ. eigenvalues --   -1.12337  -1.12317  -1.12315  -1.12296  -1.12293
  Beta  occ. eigenvalues --   -0.18322  -0.12749  -0.12610
  Beta virt. eigenvalues --   -0.06339  -0.05490  -0.05174  -0.05029  -0.02103
  Beta virt. eigenvalues --   -0.02013  -0.01364  -0.01248  -0.00956  -0.00489
  Beta virt. eigenvalues --   -0.00449   0.00184   0.00403   0.00869   0.00892

 Mulliken charges and spin densities:
               1          2
     1  Na  -0.401287   0.702191
     2  Na  -0.384542   0.721157
     3  Na   0.147287  -0.059738
     4  Na   0.151751  -0.112856
     5  Na   0.136969  -0.058897
     6  Na   0.164823  -0.112388
     7  Na   0.185000  -0.079470
 Sum of Mulliken charges =  -0.00000   1.00000

 Dipole moment (field-independent basis, Debye):
    X=             -0.1348    Y=             -0.0951    Z=              0.0202  Tot=              0.1662
 Quadrupole moment (field-independent basis, Debye-Ang):
   XX=            -56.1468   YY=            -57.8961   ZZ=            -77.0981
   XY=              0.0656   XZ=             -1.2671   YZ=             -0.2051

 Normal termination of Gaussian 16 at Thu Dec  7 02:01:01 2023.
