 Gaussian 16, Revision B.01,
 Gaussian 16:  ES64L-G16RevB.01 20-Dec-2017

 -------------------------
 #P B3LYP/6-311+g(d) force
 -------------------------

 -----
 DPGEN
 -----
 Symbolic Z-matrix:
 Charge =  0 Multiplicity = 2

                         Standard orientation:
 ---------------------------------------------------------------------
 Center     Atomic      Atomic             Coordinates (Angstroms)
 Number     Number       Type             X           Y           Z
 ---------------------------------------------------------------------
      1         11           0       -0.088585    0.130505    1.992308
      2         11           0       -0.163061   -2.986163   -0.065693
      3         11           0        2.187717    2.170071   -0.184080
      4         11           0       -1.714333    2.682197   -0.111344
      5         11           0       -3.132238   -0.831218   -0.203337
      6         11           0        0.100425   -0.017189   -1.385084
      7         11           0        2.810074   -1.148203   -0.042771
 ---------------------------------------------------------------------

 SCF Done:  E(UB3LYP) =  -1136.13801609     A.U. after   18 cycles

 The electronic state is 2-A.
 Alpha  occ. eigenvalues --  -38.44186 -38.43938 -38.43763 -38.43713 -38.43439
 Alpha  occ. eigenvalues --  -38.43170 -38.42798  -2.19985  -2.19739  -2.19610
 Alpha  occ. eigenvalues --   -2.19586  -2.19291  -2.19069  -2.18834  -1.13663
 Alpha  occ. eigenvalues --   -1.13642  -1.13622  -1.13418  -1.13402  -1.13373
 Alpha  occ. eigenvalues --   -1.13322  -1.13283  -1.13270  -1.13251  -1.13238
 Alpha  occ. eigenvalues --   -1.13198  -1.12989  -1.12950  -1.12919  -1.12758
 Alpha  occ. eigenvalues --   -1.12683  -1.12679  -1.12529  -1.12465  -1.12457
 Alpha  occ. eigenvalues --   -0.18633  -0.12969  -0.12564  -0.10272
 Alpha virt. eigenvalues --   -0.05707  -0.05329  -0.04926  -0.02913  -0.02701
 Alpha virt. eigenvalues --   -0.02173  -0.01585  -0.01353  -0.00620  -0.00514
 Alpha virt. eigenvalues --    0.00022   0.00339   0.00787   0.00810   0.00872

  Beta  occ. eigenvalues --  -38.44182 -38.43936 -38.43757 -38.43708 -38.43434
  Beta  occ. eigenvalues --  -38.43069 -38.42747  -2.19979  -2.19736  -2.19602
  Beta  occ. eigenvalues --   -2.19580  -2.19286  -2.18884  -2.18743  -1.13647
  Beta  occ. eigenvalues --   -1.13635  -1.13621  -1.13407  -1.13390  -1.13375
  Beta  occ. eigenvalues --   -1.13317  -1.13269  -1.13260  -1.13237  -1.13210
  Beta  occ. eigenvalues --   -1.13197  -1.12983  -1.12925  -1.12918  -1.12637
  Beta  occ. eigenvalues --   -1.12553  -1.12546  -1.12453  -1.12400  -1.12390
  Beta  occ. eigenvalues --   -0.17923  -0.12732  -0.12334
  Beta virt. eigenvalues --   -0.06368  -0.05701  -0.05301  -0.04896  -0.02157
  Beta virt. eigenvalues --   -0.01955  -0.01499  -0.01287  -0.01114  -0.00670
  Beta virt. eigenvalues --   -0.00566   0.00171   0.00382   0.00810   0.00836

 Mulliken charges and spin densities:
               1          2
     1  Na  -0.474350   0.792380
     2  Na   0.245105  -0.007597
     3  Na   0.301993  -0.016825
     4  Na   0.102600  -0.072798
     5  Na   0.110091  -0.043605
     6  Na  -0.675612   0.301401
     7  Na   0.390173   0.047045
 Sum of Mulliken charges =  -0.00000   1.00000

 Dipole moment (field-independent basis, Debye):
    X=             -0.2128    Y=              0.1384    Z=              0.1361  Tot=              0.2880
 Quadrupole moment (field-independent basis, Debye-Ang):
   XX=            -55.2742   YY=            -58.8527   ZZ=            -77.1138
   XY=             -0.0027   XZ=              0.4532   YZ=             -0.3948

 Normal termination of Gaussian 16 at Tue Dec  5 15:51:48 2023.
