 Gaussian 16, Revision B.01,
 Gaussian 16:  ES64L-G16RevB.01 20-Dec-2017

 -------------------------
 #P B3LYP/6-311+g(d) force
 -------------------------

 -----
 DPGEN
 -----
 Symbolic Z-matrix:
 Charge =  0 Multiplicity = 2

                         Standard orientation:
 ---------------------------------------------------------------------
 Center     Atomic      Atomic             Coordinates (Angstroms)
 Number     Number       Type             X           Y           Z
 ---------------------------------------------------------------------
      1         11           0       -0.379116   -1.013142    1.849989
      2         11           0        1.123243    2.652817    0.563640
      3         11           0        3.304351    0.435713   -0.977365
      4         11           0       -3.099639   -1.171352   -1.042836
      5         11           0       -2.448809    1.840290    0.373061
      6         11           0        1.570999   -2.510784    0.563031
      7         11           0       -0.071029   -0.233543   -1.329521
 ---------------------------------------------------------------------

 SCF Done:  E(UB3LYP) =  -1136.12726768     A.U. after   21 cycles

 The electronic state is 2-A.
 Alpha  occ. eigenvalues --  -38.44242 -38.44124 -38.43945 -38.43782 -38.43544
 Alpha  occ. eigenvalues --  -38.43455 -38.43284  -2.20095  -2.19946  -2.19777
 Alpha  occ. eigenvalues --   -2.19734  -2.19530  -2.19360  -2.19094  -1.13786
 Alpha  occ. eigenvalues --   -1.13728  -1.13719  -1.13620  -1.13592  -1.13588
 Alpha  occ. eigenvalues --   -1.13575  -1.13453  -1.13447  -1.13408  -1.13381
 Alpha  occ. eigenvalues --   -1.13330  -1.13226  -1.13168  -1.13157  -1.12989
 Alpha  occ. eigenvalues --   -1.12978  -1.12953  -1.12769  -1.12764  -1.12728
 Alpha  occ. eigenvalues --   -0.18411  -0.13521  -0.12126  -0.11005
 Alpha virt. eigenvalues --   -0.05812  -0.05293  -0.04557  -0.03326  -0.02960
 Alpha virt. eigenvalues --   -0.02363  -0.01954  -0.01108  -0.00546  -0.00094
 Alpha virt. eigenvalues --    0.00039   0.00262   0.00661   0.00808   0.00834

  Beta  occ. eigenvalues --  -38.44198 -38.44095 -38.43936 -38.43712 -38.43510
  Beta  occ. eigenvalues --  -38.43445 -38.43277  -2.20015  -2.19892  -2.19763
  Beta  occ. eigenvalues --   -2.19606  -2.19468  -2.19345  -2.19084  -1.13722
  Beta  occ. eigenvalues --   -1.13680  -1.13662  -1.13574  -1.13556  -1.13543
  Beta  occ. eigenvalues --   -1.13515  -1.13443  -1.13434  -1.13382  -1.13296
  Beta  occ. eigenvalues --   -1.13240  -1.13162  -1.13134  -1.13105  -1.12969
  Beta  occ. eigenvalues --   -1.12961  -1.12922  -1.12761  -1.12760  -1.12707
  Beta  occ. eigenvalues --   -0.17799  -0.13152  -0.11798
  Beta virt. eigenvalues --   -0.07377  -0.05601  -0.05169  -0.04175  -0.02946
  Beta virt. eigenvalues --   -0.02358  -0.01748  -0.01542  -0.01013  -0.00371
  Beta virt. eigenvalues --   -0.00006   0.00130   0.00322   0.00766   0.00834

 Mulliken charges and spin densities:
               1          2
     1  Na   0.109653   0.383942
     2  Na  -0.435738   0.050423
     3  Na   0.793058   0.048379
     4  Na   0.515492   0.140667
     5  Na   0.072060   0.126383
     6  Na  -0.215482   0.084076
     7  Na  -0.839043   0.166130
 Sum of Mulliken charges =  -0.00000   1.00000

 Dipole moment (field-independent basis, Debye):
    X=             -0.2950    Y=             -0.1352    Z=              0.0310  Tot=              0.3259
 Quadrupole moment (field-independent basis, Debye-Ang):
   XX=            -53.8867   YY=            -68.5525   ZZ=            -71.9164
   XY=             -0.8955   XZ=             -1.0521   YZ=              2.7946

 Normal termination of Gaussian 16 at Wed Nov 29 17:02:44 2023.
