 Gaussian 16, Revision B.01,
 Gaussian 16:  ES64L-G16RevB.01 20-Dec-2017

 -------------------------
 #P B3LYP/6-311+g(d) force
 -------------------------

 -----
 DPGEN
 -----
 Symbolic Z-matrix:
 Charge =  0 Multiplicity = 2

                         Standard orientation:
 ---------------------------------------------------------------------
 Center     Atomic      Atomic             Coordinates (Angstroms)
 Number     Number       Type             X           Y           Z
 ---------------------------------------------------------------------
      1         11           0       -2.277086   -2.097906   -1.376849
      2         11           0       -0.922854    3.115089   -0.117150
      3         11           0        1.707862    2.133721   -1.458284
      4         11           0       -3.230131    0.418671    0.881977
      5         11           0        3.122456   -1.295472   -0.142100
      6         11           0        0.297715   -2.799838    0.339335
      7         11           0        1.302038    0.525736    1.873071
 ---------------------------------------------------------------------

 SCF Done:  E(UB3LYP) =  -1136.12244120     A.U. after   19 cycles

 The electronic state is 2-A.
 Alpha  occ. eigenvalues --  -38.44492 -38.44485 -38.44395 -38.44120 -38.43997
 Alpha  occ. eigenvalues --  -38.43738 -38.43675  -2.20326  -2.20320  -2.20166
 Alpha  occ. eigenvalues --   -2.19965  -2.19812  -2.19559  -2.19522  -1.14041
 Alpha  occ. eigenvalues --   -1.14009  -1.13986  -1.13977  -1.13953  -1.13907
 Alpha  occ. eigenvalues --   -1.13840  -1.13819  -1.13803  -1.13656  -1.13632
 Alpha  occ. eigenvalues --   -1.13606  -1.13529  -1.13473  -1.13455  -1.13222
 Alpha  occ. eigenvalues --   -1.13205  -1.13184  -1.13172  -1.13156  -1.13142
 Alpha  occ. eigenvalues --   -0.17243  -0.13222  -0.13118  -0.10313
 Alpha virt. eigenvalues --   -0.06355  -0.05932  -0.04224  -0.03910  -0.03345
 Alpha virt. eigenvalues --   -0.02159  -0.01589  -0.01145  -0.00843  -0.00622
 Alpha virt. eigenvalues --   -0.00197   0.00142   0.00317   0.00449   0.00706

  Beta  occ. eigenvalues --  -38.44495 -38.44433 -38.44373 -38.44110 -38.43992
  Beta  occ. eigenvalues --  -38.43706 -38.43612  -2.20333  -2.20222  -2.20124
  Beta  occ. eigenvalues --   -2.19951  -2.19807  -2.19500  -2.19405  -1.14022
  Beta  occ. eigenvalues --   -1.14012  -1.13967  -1.13923  -1.13893  -1.13849
  Beta  occ. eigenvalues --   -1.13811  -1.13791  -1.13768  -1.13641  -1.13625
  Beta  occ. eigenvalues --   -1.13575  -1.13511  -1.13476  -1.13430  -1.13180
  Beta  occ. eigenvalues --   -1.13166  -1.13143  -1.13094  -1.13081  -1.13058
  Beta  occ. eigenvalues --   -0.16729  -0.12881  -0.12716
  Beta virt. eigenvalues --   -0.06961  -0.06111  -0.05811  -0.03819  -0.03519
  Beta virt. eigenvalues --   -0.02744  -0.01553  -0.01466  -0.01125  -0.00754
  Beta virt. eigenvalues --   -0.00509   0.00099   0.00384   0.00466   0.00563

 Mulliken charges and spin densities:
               1          2
     1  Na   0.191947   0.151838
     2  Na   0.071308   0.015721
     3  Na  -0.196425   0.356638
     4  Na  -0.152849   0.036783
     5  Na   0.500693   0.038683
     6  Na  -0.442955   0.024023
     7  Na   0.028281   0.376314
 Sum of Mulliken charges =  -0.00000   1.00000

 Dipole moment (field-independent basis, Debye):
    X=              0.4419    Y=             -0.1912    Z=              0.1316  Tot=              0.4991
 Quadrupole moment (field-independent basis, Debye-Ang):
   XX=            -60.1123   YY=            -69.3211   ZZ=            -70.4558
   XY=             -4.4449   XZ=             -1.2881   YZ=              1.3605

 Normal termination of Gaussian 16 at Sun Dec  3 23:04:03 2023.
