 Gaussian 16, Revision B.01,
 Gaussian 16:  ES64L-G16RevB.01 20-Dec-2017

 -------------------------
 #P B3LYP/6-311+g(d) force
 -------------------------

 -----
 DPGEN
 -----
 Symbolic Z-matrix:
 Charge =  0 Multiplicity = 2

                         Standard orientation:
 ---------------------------------------------------------------------
 Center     Atomic      Atomic             Coordinates (Angstroms)
 Number     Number       Type             X           Y           Z
 ---------------------------------------------------------------------
      1         11           0        0.290417   -2.571368   -0.091016
      2         11           0       -2.061488    2.134062    0.272670
      3         11           0       -3.055870   -1.209746    0.074038
      4         11           0        3.122055   -0.705474   -0.165085
      5         11           0        1.602119    2.325346   -0.231782
      6         11           0        0.507413   -0.068711    1.928235
      7         11           0       -0.404646    0.095891   -1.787058
 ---------------------------------------------------------------------

 SCF Done:  E(UB3LYP) =  -1136.13788647     A.U. after   19 cycles

 The electronic state is 2-A.
 Alpha  occ. eigenvalues --  -38.44201 -38.44197 -38.43607 -38.43499 -38.43312
 Alpha  occ. eigenvalues --  -38.43227 -38.42930  -2.20049  -2.20015  -2.19448
 Alpha  occ. eigenvalues --   -2.19432  -2.19274  -2.19099  -2.18837  -1.13719
 Alpha  occ. eigenvalues --   -1.13706  -1.13703  -1.13687  -1.13673  -1.13661
 Alpha  occ. eigenvalues --   -1.13140  -1.13121  -1.13112  -1.13079  -1.13070
 Alpha  occ. eigenvalues --   -1.13041  -1.12962  -1.12921  -1.12890  -1.12770
 Alpha  occ. eigenvalues --   -1.12765  -1.12724  -1.12531  -1.12510  -1.12442
 Alpha  occ. eigenvalues --   -0.18844  -0.13294  -0.12248  -0.10772
 Alpha virt. eigenvalues --   -0.05903  -0.05261  -0.04208  -0.03357  -0.02812
 Alpha virt. eigenvalues --   -0.02511  -0.01746  -0.01064  -0.00240  -0.00140
 Alpha virt. eigenvalues --   -0.00036   0.00353   0.00760   0.00888   0.00920

  Beta  occ. eigenvalues --  -38.44201 -38.44193 -38.43601 -38.43416 -38.43239
  Beta  occ. eigenvalues --  -38.43218 -38.42920  -2.20046  -2.20017  -2.19439
  Beta  occ. eigenvalues --   -2.19279  -2.19139  -2.19087  -2.18823  -1.13714
  Beta  occ. eigenvalues --   -1.13705  -1.13682  -1.13680  -1.13668  -1.13665
  Beta  occ. eigenvalues --   -1.13129  -1.13091  -1.13075  -1.13016  -1.12966
  Beta  occ. eigenvalues --   -1.12931  -1.12875  -1.12832  -1.12796  -1.12754
  Beta  occ. eigenvalues --   -1.12721  -1.12720  -1.12524  -1.12462  -1.12438
  Beta  occ. eigenvalues --   -0.18098  -0.13090  -0.11985
  Beta virt. eigenvalues --   -0.06863  -0.05819  -0.05269  -0.04188  -0.02590
  Beta virt. eigenvalues --   -0.02015  -0.01658  -0.01459  -0.01010  -0.00290
  Beta virt. eigenvalues --   -0.00177   0.00111   0.00375   0.00829   0.00877

 Mulliken charges and spin densities:
               1          2
     1  Na   0.215542  -0.125209
     2  Na   0.056774  -0.072725
     3  Na   0.074082  -0.082959
     4  Na   0.260020  -0.026929
     5  Na   0.173257  -0.074565
     6  Na  -0.486455   0.749780
     7  Na  -0.293220   0.632607
 Sum of Mulliken charges =  -0.00000   1.00000

 Dipole moment (field-independent basis, Debye):
    X=             -0.1024    Y=             -0.0238    Z=              0.0759  Tot=              0.1296
 Quadrupole moment (field-independent basis, Debye-Ang):
   XX=            -52.9505   YY=            -66.4479   ZZ=            -73.7437
   XY=              0.1279   XZ=             -1.9372   YZ=              0.4063

 Normal termination of Gaussian 16 at Tue Dec  5 18:51:57 2023.
