 Gaussian 16, Revision B.01,
 Gaussian 16:  ES64L-G16RevB.01 20-Dec-2017

 -------------------------
 #P B3LYP/6-311+g(d) force
 -------------------------

 -----
 DPGEN
 -----
 Symbolic Z-matrix:
 Charge =  0 Multiplicity = 2

                         Standard orientation:
 ---------------------------------------------------------------------
 Center     Atomic      Atomic             Coordinates (Angstroms)
 Number     Number       Type             X           Y           Z
 ---------------------------------------------------------------------
      1         11           0        4.190804   -0.924897    0.067488
      2         11           0       -1.383348    1.092719   -1.116861
      3         11           0       -4.158290    1.150967    0.033016
      4         11           0       -2.794022   -2.035524    0.380006
      5         11           0        1.071604   -1.599784   -1.296843
      6         11           0        2.664112    2.329509   -0.013324
      7         11           0        0.409139   -0.012989    1.946517
 ---------------------------------------------------------------------

 SCF Done:  E(UB3LYP) =  -1136.10626523     A.U. after   30 cycles

 The electronic state is 2-A.
 Alpha  occ. eigenvalues --  -38.45104 -38.44921 -38.44813 -38.44435 -38.43987
 Alpha  occ. eigenvalues --  -38.43863 -38.43588  -2.20920  -2.20696  -2.20672
 Alpha  occ. eigenvalues --   -2.20252  -2.19791  -2.19634  -2.19448  -1.14587
 Alpha  occ. eigenvalues --   -1.14565  -1.14520  -1.14405  -1.14392  -1.14353
 Alpha  occ. eigenvalues --   -1.14330  -1.14325  -1.14291  -1.13911  -1.13889
 Alpha  occ. eigenvalues --   -1.13871  -1.13509  -1.13452  -1.13400  -1.13320
 Alpha  occ. eigenvalues --   -1.13284  -1.13283  -1.13122  -1.13086  -1.13074
 Alpha  occ. eigenvalues --   -0.17622  -0.14436  -0.10741  -0.10530
 Alpha virt. eigenvalues --   -0.07728  -0.06192  -0.04048  -0.03541  -0.02982
 Alpha virt. eigenvalues --   -0.02246  -0.02108  -0.01982  -0.01063  -0.00856
 Alpha virt. eigenvalues --   -0.00537   0.00070   0.00262   0.00453   0.00498

  Beta  occ. eigenvalues --  -38.45027 -38.44918 -38.44814 -38.44355 -38.43985
  Beta  occ. eigenvalues --  -38.43856 -38.43554  -2.20778  -2.20692  -2.20678
  Beta  occ. eigenvalues --   -2.20105  -2.19791  -2.19624  -2.19386  -1.14488
  Beta  occ. eigenvalues --   -1.14474  -1.14416  -1.14413  -1.14389  -1.14355
  Beta  occ. eigenvalues --   -1.14310  -1.14304  -1.14290  -1.13806  -1.13789
  Beta  occ. eigenvalues --   -1.13772  -1.13505  -1.13453  -1.13384  -1.13316
  Beta  occ. eigenvalues --   -1.13281  -1.13254  -1.13086  -1.13044  -1.13027
  Beta  occ. eigenvalues --   -0.17079  -0.13797  -0.10472
  Beta virt. eigenvalues --   -0.07518  -0.07092  -0.05982  -0.03619  -0.03078
  Beta virt. eigenvalues --   -0.02817  -0.02243  -0.01723  -0.01474  -0.00763
  Beta virt. eigenvalues --   -0.00585  -0.00215   0.00122   0.00373   0.00523

 Mulliken charges and spin densities:
               1          2
     1  Na   0.203240   0.376698
     2  Na  -0.284292   0.055306
     3  Na   0.312340   0.112426
     4  Na   0.047571   0.040702
     5  Na  -0.092969   0.104566
     6  Na  -0.085681   0.072011
     7  Na  -0.100208   0.238290
 Sum of Mulliken charges =  -0.00000   1.00000

 Dipole moment (field-independent basis, Debye):
    X=             -0.3599    Y=             -0.6501    Z=              1.0584  Tot=              1.2932
 Quadrupole moment (field-independent basis, Debye-Ang):
   XX=            -64.6619   YY=            -77.2166   ZZ=            -63.2028
   XY=              5.0436   XZ=             -1.3837   YZ=             -2.8489

 Normal termination of Gaussian 16 at Thu Dec  7 19:36:56 2023.
