 Gaussian 16, Revision B.01,
 Gaussian 16:  ES64L-G16RevB.01 20-Dec-2017

 -------------------------
 #P B3LYP/6-311+g(d) force
 -------------------------

 -----
 DPGEN
 -----
 Symbolic Z-matrix:
 Charge =  0 Multiplicity = 2

                         Standard orientation:
 ---------------------------------------------------------------------
 Center     Atomic      Atomic             Coordinates (Angstroms)
 Number     Number       Type             X           Y           Z
 ---------------------------------------------------------------------
      1         11           0       -2.153854   -1.670596   -0.016959
      2         11           0        1.370656   -2.551899   -0.393432
      3         11           0       -0.281372   -0.614411    2.302023
      4         11           0        0.824018    2.793493    0.415127
      5         11           0       -2.566010    1.573017   -0.428943
      6         11           0       -0.260961   -0.005472   -1.642777
      7         11           0        3.067524    0.475869   -0.235039
 ---------------------------------------------------------------------

 SCF Done:  E(UB3LYP) =  -1136.13342773     A.U. after   20 cycles

 The electronic state is 2-A.
 Alpha  occ. eigenvalues --  -38.44278 -38.43753 -38.43623 -38.43546 -38.43444
 Alpha  occ. eigenvalues --  -38.43380 -38.43362  -2.20145  -2.19583  -2.19506
 Alpha  occ. eigenvalues --   -2.19498  -2.19472  -2.19222  -2.19206  -1.13819
 Alpha  occ. eigenvalues --   -1.13769  -1.13754  -1.13357  -1.13267  -1.13259
 Alpha  occ. eigenvalues --   -1.13251  -1.13233  -1.13179  -1.13155  -1.13138
 Alpha  occ. eigenvalues --   -1.13107  -1.13068  -1.13062  -1.13042  -1.12898
 Alpha  occ. eigenvalues --   -1.12877  -1.12874  -1.12870  -1.12846  -1.12842
 Alpha  occ. eigenvalues --   -0.18808  -0.13041  -0.12471  -0.11327
 Alpha virt. eigenvalues --   -0.05257  -0.05123  -0.04602  -0.03315  -0.03247
 Alpha virt. eigenvalues --   -0.02926  -0.01243  -0.00964  -0.00211  -0.00119
 Alpha virt. eigenvalues --   -0.00027   0.00361   0.00836   0.00914   0.00942

  Beta  occ. eigenvalues --  -38.44171 -38.43753 -38.43615 -38.43534 -38.43384
  Beta  occ. eigenvalues --  -38.43374 -38.43353  -2.19948  -2.19585  -2.19491
  Beta  occ. eigenvalues --   -2.19481  -2.19367  -2.19209  -2.19197  -1.13688
  Beta  occ. eigenvalues --   -1.13631  -1.13617  -1.13321  -1.13261  -1.13242
  Beta  occ. eigenvalues --   -1.13235  -1.13230  -1.13156  -1.13125  -1.13113
  Beta  occ. eigenvalues --   -1.13061  -1.13045  -1.13003  -1.12978  -1.12876
  Beta  occ. eigenvalues --   -1.12867  -1.12861  -1.12852  -1.12838  -1.12834
  Beta  occ. eigenvalues --   -0.18075  -0.12794  -0.12238
  Beta virt. eigenvalues --   -0.07334  -0.05223  -0.05094  -0.04490  -0.02537
  Beta virt. eigenvalues --   -0.02426  -0.01913  -0.01168  -0.00923  -0.00188
  Beta virt. eigenvalues --   -0.00157   0.00111   0.00401   0.00904   0.00940

 Mulliken charges and spin densities:
               1          2
     1  Na   0.599811   0.091799
     2  Na   0.185407  -0.033552
     3  Na  -0.707342   0.661355
     4  Na  -0.054480   0.062789
     5  Na   0.222727   0.036370
     6  Na  -0.198888   0.213304
     7  Na  -0.047235  -0.032066
 Sum of Mulliken charges =  -0.00000   1.00000

 Dipole moment (field-independent basis, Debye):
    X=              0.0184    Y=             -0.0543    Z=              0.3121  Tot=              0.3173
 Quadrupole moment (field-independent basis, Debye-Ang):
   XX=            -60.1127   YY=            -64.3976   ZZ=            -71.2333
   XY=             -1.2462   XZ=              0.0136   YZ=              1.1164

 Normal termination of Gaussian 16 at Fri Dec  8 06:43:43 2023.
