 Gaussian 16, Revision B.01,
 Gaussian 16:  ES64L-G16RevB.01 20-Dec-2017

 -------------------------
 #P B3LYP/6-311+g(d) force
 -------------------------

 -----
 DPGEN
 -----
 Symbolic Z-matrix:
 Charge =  0 Multiplicity = 2

                         Standard orientation:
 ---------------------------------------------------------------------
 Center     Atomic      Atomic             Coordinates (Angstroms)
 Number     Number       Type             X           Y           Z
 ---------------------------------------------------------------------
      1         11           0        1.240461   -0.038443   -1.982432
      2         11           0       -3.756518   -0.392325    0.331602
      3         11           0        2.871260   -1.645558    0.520667
      4         11           0        2.350940    1.832308    0.568505
      5         11           0       -0.460338    0.134503    2.218948
      6         11           0       -0.920129   -1.977119   -0.745296
      7         11           0       -1.325675    2.086634   -0.911994
 ---------------------------------------------------------------------

 SCF Done:  E(UB3LYP) =  -1136.12816866     A.U. after   24 cycles

 The electronic state is 2-A.
 Alpha  occ. eigenvalues --  -38.44878 -38.44835 -38.44088 -38.43778 -38.43498
 Alpha  occ. eigenvalues --  -38.43434 -38.42961  -2.20694  -2.20624  -2.19900
 Alpha  occ. eigenvalues --   -2.19716  -2.19332  -2.19255  -2.18824  -1.14369
 Alpha  occ. eigenvalues --   -1.14330  -1.14312  -1.14294  -1.14282  -1.14258
 Alpha  occ. eigenvalues --   -1.13579  -1.13561  -1.13536  -1.13424  -1.13357
 Alpha  occ. eigenvalues --   -1.13313  -1.13010  -1.12999  -1.12960  -1.12946
 Alpha  occ. eigenvalues --   -1.12911  -1.12870  -1.12538  -1.12501  -1.12421
 Alpha  occ. eigenvalues --   -0.18302  -0.13514  -0.11670  -0.11078
 Alpha virt. eigenvalues --   -0.06514  -0.05105  -0.04378  -0.03298  -0.02959
 Alpha virt. eigenvalues --   -0.02827  -0.02131  -0.00979  -0.00536  -0.00122
 Alpha virt. eigenvalues --    0.00222   0.00254   0.00300   0.00686   0.00791

  Beta  occ. eigenvalues --  -38.44837 -38.44805 -38.44079 -38.43709 -38.43493
  Beta  occ. eigenvalues --  -38.43405 -38.42945  -2.20628  -2.20559  -2.19883
  Beta  occ. eigenvalues --   -2.19591  -2.19326  -2.19204  -2.18800  -1.14291
  Beta  occ. eigenvalues --   -1.14286  -1.14281  -1.14264  -1.14237  -1.14203
  Beta  occ. eigenvalues --   -1.13567  -1.13541  -1.13520  -1.13336  -1.13277
  Beta  occ. eigenvalues --   -1.13216  -1.13001  -1.12985  -1.12951  -1.12903
  Beta  occ. eigenvalues --   -1.12866  -1.12839  -1.12514  -1.12464  -1.12410
  Beta  occ. eigenvalues --   -0.17505  -0.13376  -0.10857
  Beta virt. eigenvalues --   -0.07730  -0.06265  -0.05060  -0.03806  -0.02974
  Beta virt. eigenvalues --   -0.02272  -0.02079  -0.01993  -0.00875  -0.00323
  Beta virt. eigenvalues --   -0.00033   0.00213   0.00308   0.00489   0.00759

 Mulliken charges and spin densities:
               1          2
     1  Na   0.424871   0.434011
     2  Na   0.313493  -0.005374
     3  Na   0.077118   0.029135
     4  Na   0.013486   0.003244
     5  Na  -0.306933   0.521777
     6  Na  -0.316549  -0.001415
     7  Na  -0.205487   0.018621
 Sum of Mulliken charges =  -0.00000   1.00000

 Dipole moment (field-independent basis, Debye):
    X=             -0.5205    Y=              0.0113    Z=              0.6367  Tot=              0.8225
 Quadrupole moment (field-independent basis, Debye-Ang):
   XX=            -50.4325   YY=            -76.1305   ZZ=            -67.7661
   XY=             -0.6978   XZ=              0.8950   YZ=             -2.8095

 Normal termination of Gaussian 16 at Thu Dec  7 12:21:44 2023.
