 Gaussian 16, Revision B.01,
 Gaussian 16:  ES64L-G16RevB.01 20-Dec-2017

 -------------------------
 #P B3LYP/6-311+g(d) force
 -------------------------

 -----
 DPGEN
 -----
 Symbolic Z-matrix:
 Charge =  0 Multiplicity = 2

                         Standard orientation:
 ---------------------------------------------------------------------
 Center     Atomic      Atomic             Coordinates (Angstroms)
 Number     Number       Type             X           Y           Z
 ---------------------------------------------------------------------
      1         11           0        2.505953    0.909511    1.769913
      2         11           0        0.670076   -0.666845   -1.908303
      3         11           0       -0.420140    2.563629    0.126851
      4         11           0       -2.959464    1.400623   -0.851880
      5         11           0       -3.020212   -1.948935    0.160564
      6         11           0        3.599167   -0.841348   -1.226717
      7         11           0       -0.375381   -1.416635    1.929573
 ---------------------------------------------------------------------

 SCF Done:  E(UB3LYP) =  -1136.11744498     A.U. after   23 cycles

 The electronic state is 2-A.
 Alpha  occ. eigenvalues --  -38.45388 -38.44900 -38.44850 -38.44198 -38.43871
 Alpha  occ. eigenvalues --  -38.43390 -38.42800  -2.21220  -2.20709  -2.20685
 Alpha  occ. eigenvalues --   -2.20016  -2.19721  -2.19206  -2.18644  -1.14917
 Alpha  occ. eigenvalues --   -1.14861  -1.14855  -1.14375  -1.14362  -1.14351
 Alpha  occ. eigenvalues --   -1.14338  -1.14320  -1.14286  -1.13680  -1.13674
 Alpha  occ. eigenvalues --   -1.13647  -1.13439  -1.13375  -1.13346  -1.12877
 Alpha  occ. eigenvalues --   -1.12865  -1.12854  -1.12327  -1.12300  -1.12286
 Alpha  occ. eigenvalues --   -0.17620  -0.13765  -0.12195  -0.11330
 Alpha virt. eigenvalues --   -0.06544  -0.05188  -0.04743  -0.03589  -0.03067
 Alpha virt. eigenvalues --   -0.02767  -0.02226  -0.01278  -0.00708   0.00013
 Alpha virt. eigenvalues --    0.00115   0.00140   0.00266   0.00383   0.00521

  Beta  occ. eigenvalues --  -38.45322 -38.44835 -38.44815 -38.44147 -38.43864
  Beta  occ. eigenvalues --  -38.43397 -38.42800  -2.21102  -2.20624  -2.20590
  Beta  occ. eigenvalues --   -2.19924  -2.19708  -2.19220  -2.18647  -1.14834
  Beta  occ. eigenvalues --   -1.14777  -1.14764  -1.14300  -1.14283  -1.14280
  Beta  occ. eigenvalues --   -1.14275  -1.14268  -1.14234  -1.13620  -1.13614
  Beta  occ. eigenvalues --   -1.13571  -1.13435  -1.13361  -1.13339  -1.12884
  Beta  occ. eigenvalues --   -1.12871  -1.12862  -1.12331  -1.12301  -1.12275
  Beta  occ. eigenvalues --   -0.16909  -0.13466  -0.11218
  Beta virt. eigenvalues --   -0.08218  -0.06390  -0.04776  -0.04271  -0.03074
  Beta virt. eigenvalues --   -0.02552  -0.02342  -0.02116  -0.00929  -0.00572
  Beta virt. eigenvalues --    0.00090   0.00207   0.00254   0.00338   0.00536

 Mulliken charges and spin densities:
               1          2
     1  Na   0.078296   0.378092
     2  Na  -0.466384   0.520329
     3  Na  -0.097682  -0.037422
     4  Na   0.150853   0.034306
     5  Na   0.462175  -0.073971
     6  Na   0.282514  -0.039650
     7  Na  -0.409773   0.218315
 Sum of Mulliken charges =  -0.00000   1.00000

 Dipole moment (field-independent basis, Debye):
    X=              1.2064    Y=             -0.3993    Z=             -0.2407  Tot=              1.2933
 Quadrupole moment (field-independent basis, Debye-Ang):
   XX=            -52.4853   YY=            -78.5154   ZZ=            -67.7157
   XY=              1.0578   XZ=              4.1284   YZ=              3.6106

 Normal termination of Gaussian 16 at Sun Dec  3 20:24:43 2023.
