 Gaussian 16, Revision B.01,
 Gaussian 16:  ES64L-G16RevB.01 20-Dec-2017

 -------------------------
 #P B3LYP/6-311+g(d) force
 -------------------------

 -----
 DPGEN
 -----
 Symbolic Z-matrix:
 Charge =  0 Multiplicity = 2

                         Standard orientation:
 ---------------------------------------------------------------------
 Center     Atomic      Atomic             Coordinates (Angstroms)
 Number     Number       Type             X           Y           Z
 ---------------------------------------------------------------------
      1         11           0       -0.180822    0.267333    1.912492
      2         11           0       -3.698566   -0.486774    0.227859
      3         11           0       -0.971914    0.865008   -1.627436
      4         11           0       -0.677550   -2.435534   -0.629171
      5         11           0        0.417257    3.372988    0.498339
      6         11           0        2.583731    0.586165   -1.101377
      7         11           0        2.527864   -2.169185    0.719294
 ---------------------------------------------------------------------

 SCF Done:  E(UB3LYP) =  -1136.13401180     A.U. after   19 cycles

 The electronic state is 2-A.
 Alpha  occ. eigenvalues --  -38.44479 -38.44140 -38.44006 -38.43766 -38.43510
 Alpha  occ. eigenvalues --  -38.43464 -38.43339  -2.20253  -2.19962  -2.19833
 Alpha  occ. eigenvalues --   -2.19626  -2.19351  -2.19312  -2.19166  -1.13928
 Alpha  occ. eigenvalues --   -1.13916  -1.13884  -1.13643  -1.13628  -1.13580
 Alpha  occ. eigenvalues --   -1.13538  -1.13516  -1.13433  -1.13302  -1.13255
 Alpha  occ. eigenvalues --   -1.13252  -1.13051  -1.13014  -1.12982  -1.12974
 Alpha  occ. eigenvalues --   -1.12958  -1.12929  -1.12835  -1.12821  -1.12812
 Alpha  occ. eigenvalues --   -0.17965  -0.12771  -0.12310  -0.10788
 Alpha virt. eigenvalues --   -0.06076  -0.05135  -0.04609  -0.03203  -0.03121
 Alpha virt. eigenvalues --   -0.02618  -0.01873  -0.01220  -0.00553  -0.00212
 Alpha virt. eigenvalues --    0.00099   0.00322   0.00610   0.00749   0.00818

  Beta  occ. eigenvalues --  -38.44482 -38.44111 -38.43995 -38.43683 -38.43505
  Beta  occ. eigenvalues --  -38.43412 -38.43334  -2.20260  -2.19909  -2.19817
  Beta  occ. eigenvalues --   -2.19474  -2.19306  -2.19258  -2.19158  -1.13931
  Beta  occ. eigenvalues --   -1.13913  -1.13890  -1.13598  -1.13585  -1.13549
  Beta  occ. eigenvalues --   -1.13525  -1.13484  -1.13426  -1.13200  -1.13148
  Beta  occ. eigenvalues --   -1.13142  -1.12990  -1.12980  -1.12961  -1.12944
  Beta  occ. eigenvalues --   -1.12922  -1.12875  -1.12831  -1.12809  -1.12801
  Beta  occ. eigenvalues --   -0.17235  -0.12617  -0.12104
  Beta virt. eigenvalues --   -0.06939  -0.05992  -0.04970  -0.04491  -0.02653
  Beta virt. eigenvalues --   -0.02454  -0.01839  -0.01603  -0.01122  -0.00341
  Beta virt. eigenvalues --   -0.00216   0.00168   0.00358   0.00710   0.00749

 Mulliken charges and spin densities:
               1          2
     1  Na  -0.400442   0.694054
     2  Na   0.165699  -0.084943
     3  Na   0.249554   0.409153
     4  Na  -0.232708   0.008166
     5  Na   0.070345  -0.096202
     6  Na  -0.262392   0.071500
     7  Na   0.409945  -0.001728
 Sum of Mulliken charges =  -0.00000   1.00000

 Dipole moment (field-independent basis, Debye):
    X=             -0.5697    Y=              0.0245    Z=              0.0520  Tot=              0.5726
 Quadrupole moment (field-independent basis, Debye-Ang):
   XX=            -56.6518   YY=            -63.9393   ZZ=            -72.6087
   XY=              0.4654   XZ=             -1.1881   YZ=             -0.0581

 Normal termination of Gaussian 16 at Wed Nov 29 16:23:29 2023.
