 Gaussian 16, Revision B.01,
 Gaussian 16:  ES64L-G16RevB.01 20-Dec-2017

 -------------------------
 #P B3LYP/6-311+g(d) force
 -------------------------

 -----
 DPGEN
 -----
 Symbolic Z-matrix:
 Charge =  0 Multiplicity = 2

                         Standard orientation:
 ---------------------------------------------------------------------
 Center     Atomic      Atomic             Coordinates (Angstroms)
 Number     Number       Type             X           Y           Z
 ---------------------------------------------------------------------
      1         11           0        2.748256   -1.863878   -0.565758
      2         11           0       -3.048591   -1.469054   -0.396939
      3         11           0        0.147953   -1.920018    1.111783
      4         11           0        0.096923   -0.093196   -1.900632
      5         11           0        1.350487    2.977653   -0.467109
      6         11           0       -2.081726    1.724848    0.261509
      7         11           0        0.786697    0.643645    1.957146
 ---------------------------------------------------------------------

 SCF Done:  E(UB3LYP) =  -1136.12881572     A.U. after   19 cycles

 The electronic state is 2-A.
 Alpha  occ. eigenvalues --  -38.44064 -38.44009 -38.43934 -38.43900 -38.43574
 Alpha  occ. eigenvalues --  -38.43442 -38.43334  -2.20019  -2.19907  -2.19773
 Alpha  occ. eigenvalues --   -2.19744  -2.19434  -2.19386  -2.19151  -1.13865
 Alpha  occ. eigenvalues --   -1.13621  -1.13618  -1.13589  -1.13552  -1.13532
 Alpha  occ. eigenvalues --   -1.13467  -1.13436  -1.13427  -1.13420  -1.13405
 Alpha  occ. eigenvalues --   -1.13349  -1.13113  -1.13057  -1.13051  -1.13045
 Alpha  occ. eigenvalues --   -1.13018  -1.12999  -1.12814  -1.12812  -1.12793
 Alpha  occ. eigenvalues --   -0.18627  -0.12750  -0.12278  -0.11593
 Alpha virt. eigenvalues --   -0.05394  -0.05227  -0.04116  -0.03491  -0.03130
 Alpha virt. eigenvalues --   -0.03090  -0.01405  -0.01294  -0.00284   0.00117
 Alpha virt. eigenvalues --    0.00243   0.00380   0.00765   0.00891   0.00905

  Beta  occ. eigenvalues --  -38.43980 -38.43935 -38.43924 -38.43896 -38.43569
  Beta  occ. eigenvalues --  -38.43404 -38.43335  -2.19867  -2.19772  -2.19756
  Beta  occ. eigenvalues --   -2.19738  -2.19379  -2.19369  -2.19153  -1.13755
  Beta  occ. eigenvalues --   -1.13522  -1.13515  -1.13497  -1.13471  -1.13448
  Beta  occ. eigenvalues --   -1.13433  -1.13417  -1.13406  -1.13394  -1.13381
  Beta  occ. eigenvalues --   -1.13350  -1.13057  -1.13044  -1.13034  -1.13015
  Beta  occ. eigenvalues --   -1.12978  -1.12964  -1.12815  -1.12806  -1.12795
  Beta  occ. eigenvalues --   -0.17838  -0.12536  -0.12128
  Beta virt. eigenvalues --   -0.07537  -0.05316  -0.05104  -0.03993  -0.02775
  Beta virt. eigenvalues --   -0.02532  -0.02061  -0.01286  -0.01242  -0.00076
  Beta virt. eigenvalues --    0.00092   0.00293   0.00409   0.00775   0.00935

 Mulliken charges and spin densities:
               1          2
     1  Na  -0.057653  -0.056817
     2  Na   0.276164  -0.129749
     3  Na  -0.100858   0.381674
     4  Na  -0.221806   0.682280
     5  Na  -0.098856  -0.070061
     6  Na  -0.340728   0.109775
     7  Na   0.543736   0.082898
 Sum of Mulliken charges =  -0.00000   1.00000

 Dipole moment (field-independent basis, Debye):
    X=              0.2944    Y=              0.2453    Z=             -0.3934  Tot=              0.5492
 Quadrupole moment (field-independent basis, Debye-Ang):
   XX=            -60.4899   YY=            -64.3286   ZZ=            -69.9475
   XY=              0.0576   XZ=             -1.8088   YZ=              0.2255

 Normal termination of Gaussian 16 at Wed Nov 29 16:16:39 2023.
