 Gaussian 16, Revision B.01,
 Gaussian 16:  ES64L-G16RevB.01 20-Dec-2017

 -------------------------
 #P B3LYP/6-311+g(d) force
 -------------------------

 -----
 DPGEN
 -----
 Symbolic Z-matrix:
 Charge =  0 Multiplicity = 2

                         Standard orientation:
 ---------------------------------------------------------------------
 Center     Atomic      Atomic             Coordinates (Angstroms)
 Number     Number       Type             X           Y           Z
 ---------------------------------------------------------------------
      1         11           0        1.850698    2.409738   -0.669324
      2         11           0       -4.075776   -0.131624   -0.762503
      3         11           0       -1.202084    1.862849    0.899400
      4         11           0       -0.186244   -0.370405   -1.509535
      5         11           0        1.968539   -0.026236    1.813968
      6         11           0       -0.902520   -1.960642    1.513292
      7         11           0        2.547388   -1.783680   -1.285298
 ---------------------------------------------------------------------

 SCF Done:  E(UB3LYP) =  -1136.12772601     A.U. after   21 cycles

 The electronic state is 2-A.
 Alpha  occ. eigenvalues --  -38.44821 -38.44245 -38.44183 -38.43704 -38.43699
 Alpha  occ. eigenvalues --  -38.43389 -38.42998  -2.20563  -2.20110  -2.19999
 Alpha  occ. eigenvalues --   -2.19636  -2.19541  -2.19228  -2.18835  -1.14239
 Alpha  occ. eigenvalues --   -1.14227  -1.14180  -1.13803  -1.13758  -1.13726
 Alpha  occ. eigenvalues --   -1.13682  -1.13655  -1.13599  -1.13367  -1.13328
 Alpha  occ. eigenvalues --   -1.13275  -1.13184  -1.13162  -1.13143  -1.12936
 Alpha  occ. eigenvalues --   -1.12911  -1.12820  -1.12513  -1.12491  -1.12465
 Alpha  occ. eigenvalues --   -0.18196  -0.12908  -0.11641  -0.11431
 Alpha virt. eigenvalues --   -0.06362  -0.04853  -0.04362  -0.03192  -0.02874
 Alpha virt. eigenvalues --   -0.02823  -0.02122  -0.01012  -0.00834  -0.00047
 Alpha virt. eigenvalues --    0.00131   0.00228   0.00321   0.00678   0.00771

  Beta  occ. eigenvalues --  -38.44810 -38.44192 -38.44134 -38.43673 -38.43652
  Beta  occ. eigenvalues --  -38.43382 -38.42991  -2.20543  -2.20015  -2.19911
  Beta  occ. eigenvalues --   -2.19551  -2.19487  -2.19217  -2.18825  -1.14222
  Beta  occ. eigenvalues --   -1.14213  -1.14167  -1.13725  -1.13688  -1.13660
  Beta  occ. eigenvalues --   -1.13623  -1.13581  -1.13536  -1.13307  -1.13263
  Beta  occ. eigenvalues --   -1.13214  -1.13144  -1.13114  -1.13103  -1.12931
  Beta  occ. eigenvalues --   -1.12882  -1.12816  -1.12497  -1.12488  -1.12453
  Beta  occ. eigenvalues --   -0.17438  -0.12682  -0.11230
  Beta virt. eigenvalues --   -0.07677  -0.06158  -0.04732  -0.04007  -0.02880
  Beta virt. eigenvalues --   -0.02354  -0.02022  -0.01852  -0.00891  -0.00492
  Beta virt. eigenvalues --    0.00058   0.00155   0.00263   0.00421   0.00717

 Mulliken charges and spin densities:
               1          2
     1  Na   0.108597  -0.027378
     2  Na   0.193040   0.002874
     3  Na  -0.105187   0.072337
     4  Na  -0.313981   0.466111
     5  Na   0.175863   0.343622
     6  Na  -0.128521   0.175034
     7  Na   0.070190  -0.032600
 Sum of Mulliken charges =  -0.00000   1.00000

 Dipole moment (field-independent basis, Debye):
    X=             -0.4563    Y=             -0.2464    Z=              0.1682  Tot=              0.5452
 Quadrupole moment (field-independent basis, Debye-Ang):
   XX=            -52.1071   YY=            -73.3692   ZZ=            -67.2517
   XY=              0.5973   XZ=              0.6989   YZ=             -1.1941

 Normal termination of Gaussian 16 at Sun Dec  3 19:45:34 2023.
