 Gaussian 16, Revision B.01,
 Gaussian 16:  ES64L-G16RevB.01 20-Dec-2017

 -------------------------
 #P B3LYP/6-311+g(d) force
 -------------------------

 -----
 DPGEN
 -----
 Symbolic Z-matrix:
 Charge =  0 Multiplicity = 2

                         Standard orientation:
 ---------------------------------------------------------------------
 Center     Atomic      Atomic             Coordinates (Angstroms)
 Number     Number       Type             X           Y           Z
 ---------------------------------------------------------------------
      1         11           0       -3.020527   -1.326436   -0.033895
      2         11           0       -2.319023    2.199111   -0.004681
      3         11           0        0.265709   -2.652883   -0.133781
      4         11           0        0.087533    0.351561   -1.788799
      5         11           0        0.053606   -0.041695    1.924205
      6         11           0        3.071674   -0.798532   -0.076839
      7         11           0        1.861028    2.268874    0.113789
 ---------------------------------------------------------------------

 SCF Done:  E(UB3LYP) =  -1136.13708502     A.U. after   19 cycles

 The electronic state is 2-A.
 Alpha  occ. eigenvalues --  -38.44312 -38.44142 -38.43932 -38.43546 -38.43471
 Alpha  occ. eigenvalues --  -38.43355 -38.42814  -2.20107  -2.20001  -2.19729
 Alpha  occ. eigenvalues --   -2.19418  -2.19384  -2.19292  -2.18701  -1.13781
 Alpha  occ. eigenvalues --   -1.13760  -1.13754  -1.13665  -1.13663  -1.13657
 Alpha  occ. eigenvalues --   -1.13407  -1.13390  -1.13366  -1.13133  -1.13098
 Alpha  occ. eigenvalues --   -1.13060  -1.13045  -1.13009  -1.12992  -1.12966
 Alpha  occ. eigenvalues --   -1.12920  -1.12901  -1.12390  -1.12368  -1.12327
 Alpha  occ. eigenvalues --   -0.18664  -0.13237  -0.12169  -0.10673
 Alpha virt. eigenvalues --   -0.05870  -0.05601  -0.04215  -0.03260  -0.02762
 Alpha virt. eigenvalues --   -0.02499  -0.01760  -0.01247  -0.00452  -0.00209
 Alpha virt. eigenvalues --   -0.00026   0.00345   0.00724   0.00831   0.00918

  Beta  occ. eigenvalues --  -38.44313 -38.44137 -38.43931 -38.43538 -38.43383
  Beta  occ. eigenvalues --  -38.43281 -38.42806  -2.20110  -2.19996  -2.19730
  Beta  occ. eigenvalues --   -2.19407  -2.19223  -2.19157  -2.18690  -1.13769
  Beta  occ. eigenvalues --   -1.13763  -1.13760  -1.13665  -1.13660  -1.13629
  Beta  occ. eigenvalues --   -1.13396  -1.13385  -1.13370  -1.13117  -1.13052
  Beta  occ. eigenvalues --   -1.13041  -1.12958  -1.12899  -1.12879  -1.12875
  Beta  occ. eigenvalues --   -1.12827  -1.12802  -1.12385  -1.12330  -1.12323
  Beta  occ. eigenvalues --   -0.17911  -0.13034  -0.11921
  Beta virt. eigenvalues --   -0.06752  -0.05803  -0.05622  -0.04201  -0.02483
  Beta virt. eigenvalues --   -0.01978  -0.01673  -0.01436  -0.01185  -0.00520
  Beta virt. eigenvalues --   -0.00246   0.00119   0.00365   0.00787   0.00818

 Mulliken charges and spin densities:
               1          2
     1  Na  -0.010027  -0.089917
     2  Na   0.056967  -0.158289
     3  Na   0.076645  -0.081319
     4  Na  -0.284232   0.669997
     5  Na  -0.379186   0.757316
     6  Na   0.268752   0.014022
     7  Na   0.271080  -0.111810
 Sum of Mulliken charges =  -0.00000   1.00000

 Dipole moment (field-independent basis, Debye):
    X=             -0.1927    Y=              0.1443    Z=              0.0475  Tot=              0.2454
 Quadrupole moment (field-independent basis, Debye-Ang):
   XX=            -52.8318   YY=            -65.3150   ZZ=            -74.7695
   XY=             -0.0097   XZ=             -0.0264   YZ=              0.9062

 Normal termination of Gaussian 16 at Fri Dec  8 05:52:52 2023.
