 Gaussian 16, Revision B.01,
 Gaussian 16:  ES64L-G16RevB.01 20-Dec-2017

 -------------------------
 #P B3LYP/6-311+g(d) force
 -------------------------

 -----
 DPGEN
 -----
 Symbolic Z-matrix:
 Charge =  0 Multiplicity = 2

                         Standard orientation:
 ---------------------------------------------------------------------
 Center     Atomic      Atomic             Coordinates (Angstroms)
 Number     Number       Type             X           Y           Z
 ---------------------------------------------------------------------
      1         11           0        2.551021    1.439078   -0.811534
      2         11           0       -0.939356   -3.500132   -0.505700
      3         11           0       -0.926633    4.009274   -0.319732
      4         11           0       -3.452883    1.613407    0.894847
      5         11           0        5.158498   -0.117151    0.442489
      6         11           0        1.534103   -1.939482    0.601249
      7         11           0       -3.924751   -1.504994   -0.301619
 ---------------------------------------------------------------------

 SCF Done:  E(UB3LYP) =  -1136.11226975     A.U. after   20 cycles

 The electronic state is 2-A.
 Alpha  occ. eigenvalues --  -38.45361 -38.44836 -38.44815 -38.44361 -38.44232
 Alpha  occ. eigenvalues --  -38.43878 -38.43564  -2.21129  -2.20640  -2.20626
 Alpha  occ. eigenvalues --   -2.20161  -2.19995  -2.19640  -2.19381  -1.14820
 Alpha  occ. eigenvalues --   -1.14811  -1.14751  -1.14312  -1.14300  -1.14295
 Alpha  occ. eigenvalues --   -1.14290  -1.14250  -1.14236  -1.13826  -1.13822
 Alpha  occ. eigenvalues --   -1.13783  -1.13680  -1.13668  -1.13623  -1.13304
 Alpha  occ. eigenvalues --   -1.13286  -1.13267  -1.13063  -1.13039  -1.13018
 Alpha  occ. eigenvalues --   -0.15838  -0.14046  -0.12769  -0.10902
 Alpha virt. eigenvalues --   -0.06771  -0.05948  -0.04064  -0.03680  -0.03086
 Alpha virt. eigenvalues --   -0.02577  -0.02122  -0.01689  -0.01345  -0.00772
 Alpha virt. eigenvalues --   -0.00601  -0.00335   0.00247   0.00390   0.00513

  Beta  occ. eigenvalues --  -38.45358 -38.44781 -38.44776 -38.44303 -38.44231
  Beta  occ. eigenvalues --  -38.43825 -38.43554  -2.21127  -2.20557  -2.20537
  Beta  occ. eigenvalues --   -2.20054  -2.19998  -2.19541  -2.19366  -1.14819
  Beta  occ. eigenvalues --   -1.14812  -1.14726  -1.14263  -1.14254  -1.14223
  Beta  occ. eigenvalues --   -1.14220  -1.14187  -1.14174  -1.13755  -1.13750
  Beta  occ. eigenvalues --   -1.13714  -1.13687  -1.13670  -1.13593  -1.13235
  Beta  occ. eigenvalues --   -1.13215  -1.13206  -1.13037  -1.13032  -1.13004
  Beta  occ. eigenvalues --   -0.15372  -0.13426  -0.12172
  Beta virt. eigenvalues --   -0.07686  -0.06710  -0.05421  -0.03779  -0.03463
  Beta virt. eigenvalues --   -0.02714  -0.02393  -0.01851  -0.01376  -0.01142
  Beta virt. eigenvalues --   -0.00452  -0.00296  -0.00156   0.00286   0.00469

 Mulliken charges and spin densities:
               1          2
     1  Na  -0.424899   0.077359
     2  Na   0.709724  -0.045751
     3  Na   0.013177   0.246394
     4  Na   0.061100  -0.030906
     5  Na   0.795714   0.281297
     6  Na  -0.951017   0.193555
     7  Na  -0.203799   0.278053
 Sum of Mulliken charges =  -0.00000   1.00000

 Dipole moment (field-independent basis, Debye):
    X=              1.7796    Y=             -0.5599    Z=              0.0505  Tot=              1.8663
 Quadrupole moment (field-independent basis, Debye-Ang):
   XX=            -58.6059   YY=            -69.5443   ZZ=            -70.0485
   XY=              1.2054   XZ=              2.1527   YZ=             -0.3143

 Normal termination of Gaussian 16 at Mon Dec  4 05:01:43 2023.
