 Gaussian 16, Revision B.01,
 Gaussian 16:  ES64L-G16RevB.01 20-Dec-2017

 -------------------------
 #P B3LYP/6-311+g(d) force
 -------------------------

 -----
 DPGEN
 -----
 Symbolic Z-matrix:
 Charge =  0 Multiplicity = 2

                         Standard orientation:
 ---------------------------------------------------------------------
 Center     Atomic      Atomic             Coordinates (Angstroms)
 Number     Number       Type             X           Y           Z
 ---------------------------------------------------------------------
      1         11           0       -0.813459   -1.727725    1.508499
      2         11           0        3.858085   -1.474859   -0.736967
      3         11           0        0.476315   -0.482687   -1.301425
      4         11           0       -0.872960    1.779062    1.349446
      5         11           0       -3.678641   -1.599115   -0.152238
      6         11           0        3.317689    1.463386    0.674804
      7         11           0       -2.287029    2.041938   -1.342119
 ---------------------------------------------------------------------

 SCF Done:  E(UB3LYP) =  -1136.11316592     A.U. after   25 cycles

 The electronic state is 2-A.
 Alpha  occ. eigenvalues --  -38.45554 -38.45162 -38.44927 -38.44471 -38.43334
 Alpha  occ. eigenvalues --  -38.43062 -38.43058  -2.21321  -2.20988  -2.20684
 Alpha  occ. eigenvalues --   -2.20278  -2.19205  -2.18936  -2.18914  -1.14999
 Alpha  occ. eigenvalues --   -1.14968  -1.14963  -1.14718  -1.14643  -1.14593
 Alpha  occ. eigenvalues --   -1.14367  -1.14344  -1.14330  -1.13941  -1.13931
 Alpha  occ. eigenvalues --   -1.13914  -1.12889  -1.12855  -1.12810  -1.12710
 Alpha  occ. eigenvalues --   -1.12605  -1.12578  -1.12558  -1.12538  -1.12484
 Alpha  occ. eigenvalues --   -0.17592  -0.13939  -0.11186  -0.10605
 Alpha virt. eigenvalues --   -0.07316  -0.05893  -0.03962  -0.03206  -0.03170
 Alpha virt. eigenvalues --   -0.02620  -0.02105  -0.01735  -0.00696  -0.00565
 Alpha virt. eigenvalues --   -0.00082   0.00059   0.00254   0.00533   0.00574

  Beta  occ. eigenvalues --  -38.45539 -38.45136 -38.44942 -38.44453 -38.43282
  Beta  occ. eigenvalues --  -38.43029 -38.43024  -2.21294  -2.20942  -2.20713
  Beta  occ. eigenvalues --   -2.20245  -2.19109  -2.18884  -2.18843  -1.14980
  Beta  occ. eigenvalues --   -1.14951  -1.14932  -1.14665  -1.14612  -1.14559
  Beta  occ. eigenvalues --   -1.14385  -1.14355  -1.14349  -1.13913  -1.13907
  Beta  occ. eigenvalues --   -1.13893  -1.12825  -1.12784  -1.12740  -1.12667
  Beta  occ. eigenvalues --   -1.12564  -1.12537  -1.12509  -1.12485  -1.12435
  Beta  occ. eigenvalues --   -0.16928  -0.13734  -0.11072
  Beta virt. eigenvalues --   -0.07114  -0.07005  -0.05489  -0.03479  -0.03023
  Beta virt. eigenvalues --   -0.02829  -0.02350  -0.01641  -0.01300  -0.00500
  Beta virt. eigenvalues --   -0.00379   0.00002   0.00079   0.00402   0.00602

 Mulliken charges and spin densities:
               1          2
     1  Na   0.077786   0.315390
     2  Na   0.301022   0.064940
     3  Na  -0.495107   0.092409
     4  Na  -0.186907   0.050692
     5  Na  -0.038805  -0.104578
     6  Na   0.071478   0.135020
     7  Na   0.270532   0.446127
 Sum of Mulliken charges =  -0.00000   1.00000

 Dipole moment (field-independent basis, Debye):
    X=              1.1183    Y=             -0.2542    Z=             -0.0013  Tot=              1.1468
 Quadrupole moment (field-independent basis, Debye-Ang):
   XX=            -48.9330   YY=            -74.2160   ZZ=            -71.6719
   XY=              0.8871   XZ=              2.8245   YZ=              2.5666

 Normal termination of Gaussian 16 at Thu Dec  7 12:17:11 2023.
