 Gaussian 16, Revision B.01,
 Gaussian 16:  ES64L-G16RevB.01 20-Dec-2017

 -------------------------
 #P B3LYP/6-311+g(d) force
 -------------------------

 -----
 DPGEN
 -----
 Symbolic Z-matrix:
 Charge =  0 Multiplicity = 2

                         Standard orientation:
 ---------------------------------------------------------------------
 Center     Atomic      Atomic             Coordinates (Angstroms)
 Number     Number       Type             X           Y           Z
 ---------------------------------------------------------------------
      1         11           0        2.016437    2.162919    0.920815
      2         11           0        1.897921   -2.148131    0.551913
      3         11           0       -0.328205   -0.667732   -1.345361
      4         11           0        3.300296    0.017269   -1.177924
      5         11           0       -1.382065    2.034069    0.509292
      6         11           0       -3.718279    0.127842   -1.144990
      7         11           0       -1.786105   -1.526235    1.686256
 ---------------------------------------------------------------------

 SCF Done:  E(UB3LYP) =  -1136.12601080     A.U. after   21 cycles

 The electronic state is 2-A.
 Alpha  occ. eigenvalues --  -38.44649 -38.44399 -38.44280 -38.44130 -38.43656
 Alpha  occ. eigenvalues --  -38.43372 -38.43090  -2.20483  -2.20274  -2.20179
 Alpha  occ. eigenvalues --   -2.19958  -2.19513  -2.19227  -2.18912  -1.14144
 Alpha  occ. eigenvalues --   -1.14132  -1.14103  -1.13961  -1.13927  -1.13907
 Alpha  occ. eigenvalues --   -1.13892  -1.13847  -1.13797  -1.13621  -1.13600
 Alpha  occ. eigenvalues --   -1.13574  -1.13191  -1.13167  -1.13155  -1.12929
 Alpha  occ. eigenvalues --   -1.12899  -1.12843  -1.12578  -1.12571  -1.12562
 Alpha  occ. eigenvalues --   -0.18109  -0.14296  -0.11567  -0.10735
 Alpha virt. eigenvalues --   -0.06515  -0.05348  -0.04965  -0.03376  -0.02688
 Alpha virt. eigenvalues --   -0.02546  -0.01991  -0.01039  -0.00869  -0.00210
 Alpha virt. eigenvalues --    0.00136   0.00263   0.00334   0.00407   0.00751

  Beta  occ. eigenvalues --  -38.44599 -38.44377 -38.44262 -38.44065 -38.43655
  Beta  occ. eigenvalues --  -38.43355 -38.43082  -2.20390  -2.20233  -2.20149
  Beta  occ. eigenvalues --   -2.19837  -2.19516  -2.19199  -2.18900  -1.14073
  Beta  occ. eigenvalues --   -1.14065  -1.14045  -1.13936  -1.13896  -1.13882
  Beta  occ. eigenvalues --   -1.13855  -1.13825  -1.13774  -1.13533  -1.13518
  Beta  occ. eigenvalues --   -1.13489  -1.13196  -1.13173  -1.13129  -1.12915
  Beta  occ. eigenvalues --   -1.12861  -1.12816  -1.12566  -1.12563  -1.12546
  Beta  occ. eigenvalues --   -0.17554  -0.13982  -0.11209
  Beta virt. eigenvalues --   -0.07203  -0.06284  -0.05308  -0.04285  -0.03187
  Beta virt. eigenvalues --   -0.02320  -0.02115  -0.01343  -0.00875  -0.00480
  Beta virt. eigenvalues --   -0.00135   0.00223   0.00254   0.00475   0.00572

 Mulliken charges and spin densities:
               1          2
     1  Na  -0.477550   0.028673
     2  Na   0.102195   0.117247
     3  Na  -0.984529   0.050670
     4  Na   0.800900   0.025507
     5  Na  -0.172816   0.162211
     6  Na   0.775558   0.224408
     7  Na  -0.043758   0.391284
 Sum of Mulliken charges =  -0.00000   1.00000

 Dipole moment (field-independent basis, Debye):
    X=             -0.4968    Y=             -0.5437    Z=             -0.0884  Tot=              0.7418
 Quadrupole moment (field-independent basis, Debye-Ang):
   XX=            -49.9853   YY=            -76.7912   ZZ=            -68.9829
   XY=             -0.4951   XZ=             -1.1883   YZ=             -1.8468

 Normal termination of Gaussian 16 at Wed Nov 29 16:05:51 2023.
