 Gaussian 16, Revision B.01,
 Gaussian 16:  ES64L-G16RevB.01 20-Dec-2017

 -------------------------
 #P B3LYP/6-311+g(d) force
 -------------------------

 -----
 DPGEN
 -----
 Symbolic Z-matrix:
 Charge =  0 Multiplicity = 2

                         Standard orientation:
 ---------------------------------------------------------------------
 Center     Atomic      Atomic             Coordinates (Angstroms)
 Number     Number       Type             X           Y           Z
 ---------------------------------------------------------------------
      1         11           0        0.657898   -2.351143    0.239408
      2         11           0       -1.977058    2.096691   -0.275456
      3         11           0       -2.948221   -1.440532   -0.164595
      4         11           0       -0.348854    0.163724    2.024624
      5         11           0        1.485714    2.200907    0.105626
      6         11           0       -0.106433   -0.119608   -1.677358
      7         11           0        3.236954   -0.550038   -0.252249
 ---------------------------------------------------------------------

 SCF Done:  E(UB3LYP) =  -1136.13495367     A.U. after   19 cycles

 The electronic state is 2-A.
 Alpha  occ. eigenvalues --  -38.44137 -38.44112 -38.43559 -38.43443 -38.43392
 Alpha  occ. eigenvalues --  -38.43047 -38.43029  -2.19969  -2.19951  -2.19502
 Alpha  occ. eigenvalues --   -2.19409  -2.19325  -2.18968  -2.18952  -1.13645
 Alpha  occ. eigenvalues --   -1.13628  -1.13627  -1.13620  -1.13605  -1.13594
 Alpha  occ. eigenvalues --   -1.13191  -1.13145  -1.13132  -1.13116  -1.13106
 Alpha  occ. eigenvalues --   -1.13021  -1.12984  -1.12964  -1.12940  -1.12660
 Alpha  occ. eigenvalues --   -1.12634  -1.12633  -1.12620  -1.12573  -1.12562
 Alpha  occ. eigenvalues --   -0.19154  -0.13320  -0.12237  -0.11030
 Alpha virt. eigenvalues --   -0.05878  -0.05140  -0.03959  -0.03296  -0.02846
 Alpha virt. eigenvalues --   -0.02678  -0.01822  -0.01050  -0.00143   0.00010
 Alpha virt. eigenvalues --    0.00089   0.00330   0.00771   0.00911   0.00946

  Beta  occ. eigenvalues --  -38.44135 -38.44110 -38.43461 -38.43435 -38.43326
  Beta  occ. eigenvalues --  -38.43039 -38.43016  -2.19969  -2.19949  -2.19321
  Beta  occ. eigenvalues --   -2.19313  -2.19288  -2.18950  -2.18943  -1.13647
  Beta  occ. eigenvalues --   -1.13629  -1.13609  -1.13606  -1.13602  -1.13589
  Beta  occ. eigenvalues --   -1.13088  -1.13065  -1.13036  -1.13016  -1.12988
  Beta  occ. eigenvalues --   -1.12951  -1.12943  -1.12935  -1.12901  -1.12646
  Beta  occ. eigenvalues --   -1.12629  -1.12583  -1.12579  -1.12571  -1.12555
  Beta  occ. eigenvalues --   -0.18397  -0.13081  -0.11970
  Beta virt. eigenvalues --   -0.07050  -0.05823  -0.05144  -0.03957  -0.02534
  Beta virt. eigenvalues --   -0.02019  -0.01743  -0.01571  -0.01009  -0.00122
  Beta virt. eigenvalues --    0.00046   0.00104   0.00347   0.00829   0.00897

 Mulliken charges and spin densities:
               1          2
     1  Na   0.506789   0.023427
     2  Na   0.221083  -0.073283
     3  Na   0.183404  -0.091887
     4  Na  -0.592712   0.628922
     5  Na   0.388193   0.008531
     6  Na  -0.687170   0.543461
     7  Na  -0.019587  -0.039171
 Sum of Mulliken charges =  -0.00000   1.00000

 Dipole moment (field-independent basis, Debye):
    X=             -0.2455    Y=             -0.0495    Z=              0.0622  Tot=              0.2580
 Quadrupole moment (field-independent basis, Debye-Ang):
   XX=            -52.4236   YY=            -67.8111   ZZ=            -72.8744
   XY=              0.3999   XZ=              0.0636   YZ=             -0.3758

 Normal termination of Gaussian 16 at Thu Dec  7 13:52:15 2023.
