 Gaussian 16, Revision B.01,
 Gaussian 16:  ES64L-G16RevB.01 20-Dec-2017

 -------------------------
 #P B3LYP/6-311+g(d) force
 -------------------------

 -----
 DPGEN
 -----
 Symbolic Z-matrix:
 Charge =  0 Multiplicity = 2

                         Standard orientation:
 ---------------------------------------------------------------------
 Center     Atomic      Atomic             Coordinates (Angstroms)
 Number     Number       Type             X           Y           Z
 ---------------------------------------------------------------------
      1         11           0        1.047966   -2.071949    0.032796
      2         11           0        2.326240    1.339283    0.371978
      3         11           0       -1.240435    1.093471   -0.065792
      4         11           0       -2.156894   -2.544668    0.119947
      5         11           0       -4.483454   -0.071099   -0.092916
      6         11           0        0.093233    3.552467   -0.110222
      7         11           0        4.413343   -1.297505   -0.255790
 ---------------------------------------------------------------------

 SCF Done:  E(UB3LYP) =  -1136.12756214     A.U. after   24 cycles

 The electronic state is 2-A.
 Alpha  occ. eigenvalues --  -38.44223 -38.44019 -38.44017 -38.43870 -38.43703
 Alpha  occ. eigenvalues --  -38.43600 -38.43406  -2.20097  -2.19965  -2.19912
 Alpha  occ. eigenvalues --   -2.19723  -2.19546  -2.19430  -2.19278  -1.13884
 Alpha  occ. eigenvalues --   -1.13801  -1.13792  -1.13737  -1.13642  -1.13624
 Alpha  occ. eigenvalues --   -1.13529  -1.13521  -1.13415  -1.13402  -1.13393
 Alpha  occ. eigenvalues --   -1.13357  -1.13191  -1.13185  -1.13152  -1.13087
 Alpha  occ. eigenvalues --   -1.13079  -1.13053  -1.12962  -1.12956  -1.12882
 Alpha  occ. eigenvalues --   -0.17420  -0.14105  -0.13310  -0.10587
 Alpha virt. eigenvalues --   -0.05886  -0.05474  -0.04326  -0.03964  -0.02413
 Alpha virt. eigenvalues --   -0.02112  -0.01844  -0.01572  -0.01284  -0.00768
 Alpha virt. eigenvalues --   -0.00020   0.00135   0.00589   0.00687   0.00776

  Beta  occ. eigenvalues --  -38.44216 -38.44021 -38.44013 -38.43842 -38.43621
  Beta  occ. eigenvalues --  -38.43549 -38.43363  -2.20087  -2.19960  -2.19914
  Beta  occ. eigenvalues --   -2.19680  -2.19391  -2.19334  -2.19204  -1.13887
  Beta  occ. eigenvalues --   -1.13795  -1.13785  -1.13718  -1.13640  -1.13588
  Beta  occ. eigenvalues --   -1.13533  -1.13520  -1.13402  -1.13370  -1.13356
  Beta  occ. eigenvalues --   -1.13304  -1.13083  -1.13079  -1.13058  -1.13018
  Beta  occ. eigenvalues --   -1.13014  -1.12994  -1.12915  -1.12912  -1.12794
  Beta  occ. eigenvalues --   -0.17004  -0.13453  -0.12873
  Beta virt. eigenvalues --   -0.06994  -0.05811  -0.05265  -0.04200  -0.03271
  Beta virt. eigenvalues --   -0.02094  -0.01834  -0.01720  -0.01227  -0.01119
  Beta virt. eigenvalues --   -0.00370   0.00293   0.00379   0.00704   0.00763

 Mulliken charges and spin densities:
               1          2
     1  Na  -1.235133   0.374166
     2  Na  -0.523462   0.163570
     3  Na  -3.173298  -0.031353
     4  Na   0.824106  -0.469656
     5  Na   0.820401   0.360116
     6  Na   1.879681   0.101742
     7  Na   1.407706   0.501415
 Sum of Mulliken charges =  -0.00000   1.00000

 Dipole moment (field-independent basis, Debye):
    X=              0.2423    Y=              0.5099    Z=             -0.0603  Tot=              0.5677
 Quadrupole moment (field-independent basis, Debye-Ang):
   XX=            -64.6952   YY=            -59.5824   ZZ=            -72.2158
   XY=              1.9159   XZ=             -0.4222   YZ=              0.0866

 Normal termination of Gaussian 16 at Tue Nov 28 19:30:57 2023.
