 Gaussian 16, Revision B.01,
 Gaussian 16:  ES64L-G16RevB.01 20-Dec-2017

 -------------------------
 #P B3LYP/6-311+g(d) force
 -------------------------

 -----
 DPGEN
 -----
 Symbolic Z-matrix:
 Charge =  0 Multiplicity = 2

                         Standard orientation:
 ---------------------------------------------------------------------
 Center     Atomic      Atomic             Coordinates (Angstroms)
 Number     Number       Type             X           Y           Z
 ---------------------------------------------------------------------
      1         11           0        0.913238   -1.434516    0.190570
      2         11           0        5.652231   -0.613460   -0.500316
      3         11           0        3.014697    1.073808   -0.172017
      4         11           0       -0.427314    1.788966   -0.323208
      5         11           0       -2.671935   -0.858334   -0.704733
      6         11           0       -0.998525    0.055754    2.102676
      7         11           0       -5.482393   -0.012217   -0.592972
 ---------------------------------------------------------------------

 SCF Done:  E(UB3LYP) =  -1136.10942009     A.U. after   21 cycles

 The electronic state is 2-A.
 Alpha  occ. eigenvalues --  -38.45740 -38.44812 -38.44195 -38.44062 -38.43561
 Alpha  occ. eigenvalues --  -38.43454 -38.43445  -2.21657  -2.20731  -2.20139
 Alpha  occ. eigenvalues --   -2.19846  -2.19443  -2.19381  -2.19259  -1.15347
 Alpha  occ. eigenvalues --   -1.15327  -1.15287  -1.14416  -1.14385  -1.14335
 Alpha  occ. eigenvalues --   -1.13816  -1.13772  -1.13741  -1.13527  -1.13504
 Alpha  occ. eigenvalues --   -1.13490  -1.13168  -1.13136  -1.13113  -1.13050
 Alpha  occ. eigenvalues --   -1.13047  -1.13039  -1.12900  -1.12896  -1.12838
 Alpha  occ. eigenvalues --   -0.18662  -0.13970  -0.11560  -0.11151
 Alpha virt. eigenvalues --   -0.07222  -0.06131  -0.04105  -0.02946  -0.02928
 Alpha virt. eigenvalues --   -0.02403  -0.01993  -0.01937  -0.01270  -0.00802
 Alpha virt. eigenvalues --   -0.00298   0.00233   0.00292   0.00429   0.00584

  Beta  occ. eigenvalues --  -38.45719 -38.44755 -38.44112 -38.44060 -38.43543
  Beta  occ. eigenvalues --  -38.43449 -38.43443  -2.21626  -2.20630  -2.19987
  Beta  occ. eigenvalues --   -2.19842  -2.19411  -2.19364  -2.19266  -1.15323
  Beta  occ. eigenvalues --   -1.15283  -1.15249  -1.14347  -1.14305  -1.14254
  Beta  occ. eigenvalues --   -1.13713  -1.13666  -1.13631  -1.13524  -1.13501
  Beta  occ. eigenvalues --   -1.13486  -1.13162  -1.13119  -1.13092  -1.13033
  Beta  occ. eigenvalues --   -1.13021  -1.13002  -1.12905  -1.12900  -1.12832
  Beta  occ. eigenvalues --   -0.17919  -0.13794  -0.11509
  Beta virt. eigenvalues --   -0.07052  -0.06979  -0.05915  -0.03665  -0.02904
  Beta virt. eigenvalues --   -0.02315  -0.02236  -0.01638  -0.01575  -0.00728
  Beta virt. eigenvalues --   -0.00638  -0.00204   0.00362   0.00505   0.00549

 Mulliken charges and spin densities:
               1          2
     1  Na  -0.374459   0.410139
     2  Na   0.546151   0.043716
     3  Na  -0.344058  -0.057782
     4  Na  -0.339969   0.487884
     5  Na  -0.670701  -0.127102
     6  Na   0.517180   0.209138
     7  Na   0.665855   0.034007
 Sum of Mulliken charges =  -0.00000   1.00000

 Dipole moment (field-independent basis, Debye):
    X=              0.3241    Y=              0.0097    Z=              1.3625  Tot=              1.4005
 Quadrupole moment (field-independent basis, Debye-Ang):
   XX=            -66.9974   YY=            -72.1809   ZZ=            -65.6988
   XY=             -6.2079   XZ=             -4.7400   YZ=              3.0769

 Normal termination of Gaussian 16 at Wed Nov 29 03:40:48 2023.
