 Gaussian 16, Revision B.01,
 Gaussian 16:  ES64L-G16RevB.01 20-Dec-2017

 -------------------------
 #P B3LYP/6-311+g(d) force
 -------------------------

 -----
 DPGEN
 -----
 Symbolic Z-matrix:
 Charge =  0 Multiplicity = 2

                         Standard orientation:
 ---------------------------------------------------------------------
 Center     Atomic      Atomic             Coordinates (Angstroms)
 Number     Number       Type             X           Y           Z
 ---------------------------------------------------------------------
      1         11           0       -2.544649    2.113480    0.644107
      2         11           0        1.046425    0.656359    1.636060
      3         11           0       -0.552280   -2.135115    0.773229
      4         11           0        2.620921   -1.483596    0.025139
      5         11           0       -3.710581   -0.666949   -0.837906
      6         11           0        0.066501   -0.088639   -1.352101
      7         11           0        3.073663    1.604460   -0.888529
 ---------------------------------------------------------------------

 SCF Done:  E(UB3LYP) =  -1136.12013608     A.U. after   24 cycles

 The electronic state is 2-A.
 Alpha  occ. eigenvalues --  -38.44743 -38.44350 -38.44239 -38.44119 -38.43573
 Alpha  occ. eigenvalues --  -38.43310 -38.42352  -2.20542  -2.20330  -2.20206
 Alpha  occ. eigenvalues --   -2.19904  -2.19559  -2.19185  -2.18288  -1.14213
 Alpha  occ. eigenvalues --   -1.14188  -1.14174  -1.14088  -1.13996  -1.13964
 Alpha  occ. eigenvalues --   -1.13912  -1.13852  -1.13802  -1.13575  -1.13556
 Alpha  occ. eigenvalues --   -1.13547  -1.13252  -1.13192  -1.13161  -1.12847
 Alpha  occ. eigenvalues --   -1.12839  -1.12825  -1.12014  -1.11941  -1.11891
 Alpha  occ. eigenvalues --   -0.18882  -0.14149  -0.11313  -0.10790
 Alpha virt. eigenvalues --   -0.06651  -0.05657  -0.04261  -0.03045  -0.02497
 Alpha virt. eigenvalues --   -0.02474  -0.02069  -0.01173  -0.00665  -0.00295
 Alpha virt. eigenvalues --    0.00150   0.00186   0.00454   0.00631   0.00665

  Beta  occ. eigenvalues --  -38.44719 -38.44321 -38.44227 -38.44103 -38.43497
  Beta  occ. eigenvalues --  -38.43295 -38.42343  -2.20497  -2.20280  -2.20188
  Beta  occ. eigenvalues --   -2.19876  -2.19421  -2.19159  -2.18275  -1.14179
  Beta  occ. eigenvalues --   -1.14160  -1.14143  -1.14048  -1.13953  -1.13930
  Beta  occ. eigenvalues --   -1.13883  -1.13829  -1.13779  -1.13557  -1.13536
  Beta  occ. eigenvalues --   -1.13516  -1.13163  -1.13092  -1.13056  -1.12832
  Beta  occ. eigenvalues --   -1.12815  -1.12796  -1.12011  -1.11908  -1.11874
  Beta  occ. eigenvalues --   -0.18216  -0.13873  -0.11077
  Beta virt. eigenvalues --   -0.07067  -0.06400  -0.05392  -0.03924  -0.02801
  Beta virt. eigenvalues --   -0.02353  -0.01829  -0.01331  -0.00990  -0.00444
  Beta virt. eigenvalues --   -0.00157   0.00177   0.00238   0.00594   0.00697

 Mulliken charges and spin densities:
               1          2
     1  Na  -0.259067   0.082515
     2  Na  -0.240776   0.406284
     3  Na  -0.127750  -0.038854
     4  Na   0.739487   0.112897
     5  Na   0.512267   0.094898
     6  Na  -0.826629   0.252232
     7  Na   0.202469   0.090028
 Sum of Mulliken charges =  -0.00000   1.00000

 Dipole moment (field-independent basis, Debye):
    X=             -0.2550    Y=             -0.3157    Z=             -0.0087  Tot=              0.4060
 Quadrupole moment (field-independent basis, Debye-Ang):
   XX=            -51.8028   YY=            -71.0642   ZZ=            -71.3915
   XY=             -0.2734   XZ=              0.9536   YZ=              0.3140

 Normal termination of Gaussian 16 at Thu Dec  7 07:44:13 2023.
