 Gaussian 16, Revision B.01,
 Gaussian 16:  ES64L-G16RevB.01 20-Dec-2017

 -------------------------
 #P B3LYP/6-311+g(d) force
 -------------------------

 -----
 DPGEN
 -----
 Symbolic Z-matrix:
 Charge =  0 Multiplicity = 2

                         Standard orientation:
 ---------------------------------------------------------------------
 Center     Atomic      Atomic             Coordinates (Angstroms)
 Number     Number       Type             X           Y           Z
 ---------------------------------------------------------------------
      1         11           0        3.250221   -1.135612    0.102310
      2         11           0        1.855984    2.698877    0.117689
      3         11           0        0.331279   -0.033050   -1.685168
      4         11           0       -0.103935   -2.911459   -0.344709
      5         11           0       -3.300269   -0.911288    0.253881
      6         11           0       -2.002474    2.305969   -0.434799
      7         11           0       -0.030805   -0.013438    1.990796
 ---------------------------------------------------------------------

 SCF Done:  E(UB3LYP) =  -1136.13433098     A.U. after   19 cycles

 The electronic state is 2-A.
 Alpha  occ. eigenvalues --  -38.44673 -38.44176 -38.43896 -38.43778 -38.43687
 Alpha  occ. eigenvalues --  -38.43500 -38.43244  -2.20441  -2.19958  -2.19674
 Alpha  occ. eigenvalues --   -2.19584  -2.19538  -2.19333  -2.19169  -1.14122
 Alpha  occ. eigenvalues --   -1.14092  -1.14081  -1.13630  -1.13618  -1.13603
 Alpha  occ. eigenvalues --   -1.13353  -1.13336  -1.13313  -1.13269  -1.13248
 Alpha  occ. eigenvalues --   -1.13216  -1.13209  -1.13170  -1.13149  -1.13064
 Alpha  occ. eigenvalues --   -1.12994  -1.12945  -1.12849  -1.12795  -1.12784
 Alpha  occ. eigenvalues --   -0.17992  -0.12769  -0.12246  -0.10427
 Alpha virt. eigenvalues --   -0.06057  -0.05506  -0.04707  -0.03067  -0.02816
 Alpha virt. eigenvalues --   -0.02418  -0.01863  -0.01368  -0.00711  -0.00522
 Alpha virt. eigenvalues --   -0.00040   0.00325   0.00713   0.00773   0.00829

  Beta  occ. eigenvalues --  -38.44672 -38.44175 -38.43895 -38.43768 -38.43600
  Beta  occ. eigenvalues --  -38.43490 -38.43177  -2.20443  -2.19957  -2.19675
  Beta  occ. eigenvalues --   -2.19568  -2.19379  -2.19318  -2.19046  -1.14110
  Beta  occ. eigenvalues --   -1.14094  -1.14081  -1.13620  -1.13613  -1.13604
  Beta  occ. eigenvalues --   -1.13342  -1.13336  -1.13312  -1.13250  -1.13227
  Beta  occ. eigenvalues --   -1.13202  -1.13110  -1.13061  -1.13039  -1.13031
  Beta  occ. eigenvalues --   -1.12967  -1.12937  -1.12767  -1.12709  -1.12694
  Beta  occ. eigenvalues --   -0.17279  -0.12586  -0.12007
  Beta virt. eigenvalues --   -0.06595  -0.06011  -0.05465  -0.04639  -0.02377
  Beta virt. eigenvalues --   -0.02084  -0.01755  -0.01396  -0.01292  -0.00749
  Beta virt. eigenvalues --   -0.00549   0.00104   0.00351   0.00759   0.00787

 Mulliken charges and spin densities:
               1          2
     1  Na   0.035010  -0.100408
     2  Na  -0.053039  -0.107866
     3  Na   0.158601   0.513192
     4  Na   0.091550  -0.083503
     5  Na   0.034423  -0.014480
     6  Na   0.029128  -0.048448
     7  Na  -0.295673   0.841514
 Sum of Mulliken charges =  -0.00000   1.00000

 Dipole moment (field-independent basis, Debye):
    X=              0.3318    Y=             -0.0685    Z=              0.1337  Tot=              0.3643
 Quadrupole moment (field-independent basis, Debye-Ang):
   XX=            -53.1720   YY=            -62.5179   ZZ=            -76.2764
   XY=              0.1556   XZ=              0.7209   YZ=             -0.2661

 Normal termination of Gaussian 16 at Thu Dec  7 06:51:45 2023.
