 Gaussian 16, Revision B.01,
 Gaussian 16:  ES64L-G16RevB.01 20-Dec-2017

 -------------------------
 #P B3LYP/6-311+g(d) force
 -------------------------

 -----
 DPGEN
 -----
 Symbolic Z-matrix:
 Charge =  0 Multiplicity = 2

                         Standard orientation:
 ---------------------------------------------------------------------
 Center     Atomic      Atomic             Coordinates (Angstroms)
 Number     Number       Type             X           Y           Z
 ---------------------------------------------------------------------
      1         11           0        0.198152   -0.554392    1.913887
      2         11           0       -3.109152   -0.181856   -0.047726
      3         11           0       -0.730841   -2.684051   -0.331615
      4         11           0       -0.176434    0.427359   -1.627670
      5         11           0       -0.995453    2.744626    0.378157
      6         11           0        2.345174    1.804227   -0.185556
      7         11           0        2.468555   -1.555913   -0.099477
 ---------------------------------------------------------------------

 SCF Done:  E(UB3LYP) =  -1136.13919531     A.U. after   18 cycles

 The electronic state is 2-A.
 Alpha  occ. eigenvalues --  -38.43840 -38.43601 -38.43556 -38.43511 -38.43365
 Alpha  occ. eigenvalues --  -38.43348 -38.43012  -2.19676  -2.19459  -2.19428
 Alpha  occ. eigenvalues --   -2.19406  -2.19290  -2.19265  -2.19022  -1.13357
 Alpha  occ. eigenvalues --   -1.13336  -1.13321  -1.13174  -1.13147  -1.13125
 Alpha  occ. eigenvalues --   -1.13120  -1.13100  -1.13088  -1.13069  -1.13057
 Alpha  occ. eigenvalues --   -1.13015  -1.13000  -1.12942  -1.12930  -1.12896
 Alpha  occ. eigenvalues --   -1.12883  -1.12870  -1.12697  -1.12651  -1.12641
 Alpha  occ. eigenvalues --   -0.19016  -0.12968  -0.12834  -0.10692
 Alpha virt. eigenvalues --   -0.05398  -0.05086  -0.04833  -0.03146  -0.03014
 Alpha virt. eigenvalues --   -0.02359  -0.01359  -0.01086  -0.00271  -0.00207
 Alpha virt. eigenvalues --    0.00013   0.00373   0.00863   0.00909   0.00927

  Beta  occ. eigenvalues --  -38.43838 -38.43593 -38.43550 -38.43504 -38.43354
  Beta  occ. eigenvalues --  -38.43264 -38.42949  -2.19675  -2.19446  -2.19421
  Beta  occ. eigenvalues --   -2.19398  -2.19250  -2.19135  -2.18906  -1.13350
  Beta  occ. eigenvalues --   -1.13327  -1.13316  -1.13163  -1.13137  -1.13106
  Beta  occ. eigenvalues --   -1.13097  -1.13089  -1.13070  -1.13047  -1.13038
  Beta  occ. eigenvalues --   -1.13010  -1.12965  -1.12901  -1.12874  -1.12840
  Beta  occ. eigenvalues --   -1.12790  -1.12782  -1.12618  -1.12567  -1.12555
  Beta  occ. eigenvalues --   -0.18284  -0.12722  -0.12592
  Beta virt. eigenvalues --   -0.06780  -0.05392  -0.05069  -0.04755  -0.02358
  Beta virt. eigenvalues --   -0.02239  -0.01327  -0.01283  -0.01013  -0.00306
  Beta virt. eigenvalues --   -0.00252   0.00149   0.00398   0.00894   0.00915

 Mulliken charges and spin densities:
               1          2
     1  Na  -0.552510   0.737019
     2  Na   0.076289  -0.068675
     3  Na   0.222538  -0.065094
     4  Na  -0.291427   0.478870
     5  Na   0.017354  -0.009692
     6  Na   0.195146  -0.047153
     7  Na   0.332610  -0.025275
 Sum of Mulliken charges =  -0.00000   1.00000

 Dipole moment (field-independent basis, Debye):
    X=             -0.1445    Y=              0.0794    Z=              0.1240  Tot=              0.2063
 Quadrupole moment (field-independent basis, Debye-Ang):
   XX=            -57.6505   YY=            -61.5312   ZZ=            -74.2102
   XY=             -0.0361   XZ=             -0.8819   YZ=              2.0712

 Normal termination of Gaussian 16 at Thu Dec  7 16:16:47 2023.
