 Gaussian 16, Revision B.01,
 Gaussian 16:  ES64L-G16RevB.01 20-Dec-2017

 -------------------------
 #P B3LYP/6-311+g(d) force
 -------------------------

 -----
 DPGEN
 -----
 Symbolic Z-matrix:
 Charge =  0 Multiplicity = 2

                         Standard orientation:
 ---------------------------------------------------------------------
 Center     Atomic      Atomic             Coordinates (Angstroms)
 Number     Number       Type             X           Y           Z
 ---------------------------------------------------------------------
      1         11           0       -1.369775   -1.895513   -1.024844
      2         11           0       -4.704871   -1.474278   -0.490621
      3         11           0       -5.259231    2.345024   -0.272685
      4         11           0       -2.105702    1.348725    0.856194
      5         11           0        1.006426   -1.223453    1.407765
      6         11           0        5.254067   -0.215111    0.698316
      7         11           0        7.179085    1.114605   -1.174126
 ---------------------------------------------------------------------

 SCF Done:  E(UB3LYP) =  -1136.11235693     A.U. after   19 cycles

 The electronic state is 2-A.
 Alpha  occ. eigenvalues --  -38.45194 -38.44830 -38.44434 -38.44225 -38.44046
 Alpha  occ. eigenvalues --  -38.43973 -38.43848  -2.20980  -2.20638  -2.20256
 Alpha  occ. eigenvalues --   -2.20003  -2.19848  -2.19749  -2.19643  -1.14682
 Alpha  occ. eigenvalues --   -1.14647  -1.14566  -1.14306  -1.14304  -1.14235
 Alpha  occ. eigenvalues --   -1.13935  -1.13925  -1.13873  -1.13671  -1.13662
 Alpha  occ. eigenvalues --   -1.13628  -1.13585  -1.13494  -1.13494  -1.13417
 Alpha  occ. eigenvalues --   -1.13413  -1.13373  -1.13300  -1.13295  -1.13252
 Alpha  occ. eigenvalues --   -0.16382  -0.13434  -0.12196  -0.11431
 Alpha virt. eigenvalues --   -0.06778  -0.05445  -0.04666  -0.03480  -0.03030
 Alpha virt. eigenvalues --   -0.02503  -0.02263  -0.01857  -0.01467  -0.01150
 Alpha virt. eigenvalues --   -0.00686  -0.00173   0.00203   0.00354   0.00404

  Beta  occ. eigenvalues --  -38.45149 -38.44756 -38.44398 -38.44203 -38.44038
  Beta  occ. eigenvalues --  -38.43952 -38.43850  -2.20895  -2.20503  -2.20195
  Beta  occ. eigenvalues --   -2.19964  -2.19833  -2.19710  -2.19648  -1.14626
  Beta  occ. eigenvalues --   -1.14588  -1.14498  -1.14216  -1.14206  -1.14133
  Beta  occ. eigenvalues --   -1.13899  -1.13885  -1.13800  -1.13646  -1.13623
  Beta  occ. eigenvalues --   -1.13608  -1.13577  -1.13484  -1.13484  -1.13389
  Beta  occ. eigenvalues --   -1.13384  -1.13350  -1.13304  -1.13299  -1.13249
  Beta  occ. eigenvalues --   -0.15607  -0.13273  -0.11979
  Beta virt. eigenvalues --   -0.07666  -0.06461  -0.05095  -0.04460  -0.03125
  Beta virt. eigenvalues --   -0.02456  -0.02372  -0.02073  -0.01673  -0.01300
  Beta virt. eigenvalues --   -0.00689  -0.00477  -0.00033   0.00359   0.00414

 Mulliken charges and spin densities:
               1          2
     1  Na  -0.072321   0.262429
     2  Na   0.098271   0.256978
     3  Na   0.390606  -0.029555
     4  Na  -0.233009   0.392386
     5  Na  -0.193177   0.098382
     6  Na  -0.387666  -0.007657
     7  Na   0.397295   0.027037
 Sum of Mulliken charges =  -0.00000   1.00000

 Dipole moment (field-independent basis, Debye):
    X=             -1.3677    Y=              0.2267    Z=             -0.3459  Tot=              1.4288
 Quadrupole moment (field-independent basis, Debye-Ang):
   XX=            -61.0848   YY=            -68.6976   ZZ=            -67.5951
   XY=              1.1316   XZ=             -2.4820   YZ=             -2.8915

 Normal termination of Gaussian 16 at Wed Nov 29 00:07:30 2023.
