 Gaussian 16, Revision B.01,
 Gaussian 16:  ES64L-G16RevB.01 20-Dec-2017

 -------------------------
 #P B3LYP/6-311+g(d) force
 -------------------------

 -----
 DPGEN
 -----
 Symbolic Z-matrix:
 Charge =  0 Multiplicity = 2

                         Standard orientation:
 ---------------------------------------------------------------------
 Center     Atomic      Atomic             Coordinates (Angstroms)
 Number     Number       Type             X           Y           Z
 ---------------------------------------------------------------------
      1         11           0        1.221007   -1.995543    0.128665
      2         11           0        4.424593   -2.332720   -0.567583
      3         11           0        3.384324    0.605694    0.615493
      4         11           0        1.450938    3.598283   -0.426303
      5         11           0       -0.219215    1.368744    0.203396
      6         11           0       -3.630529   -0.821487    0.413772
      7         11           0       -6.631117   -0.422971   -0.367439
 ---------------------------------------------------------------------

 SCF Done:  E(UB3LYP) =  -1136.11850322     A.U. after   21 cycles

 The electronic state is 2-A.
 Alpha  occ. eigenvalues --  -38.44986 -38.44544 -38.44520 -38.44133 -38.43913
 Alpha  occ. eigenvalues --  -38.43660 -38.43281  -2.20836  -2.20373  -2.20372
 Alpha  occ. eigenvalues --   -2.19995  -2.19807  -2.19468  -2.19066  -1.14544
 Alpha  occ. eigenvalues --   -1.14525  -1.14426  -1.14063  -1.14053  -1.14044
 Alpha  occ. eigenvalues --   -1.14026  -1.14020  -1.13929  -1.13826  -1.13629
 Alpha  occ. eigenvalues --   -1.13610  -1.13467  -1.13461  -1.13362  -1.13132
 Alpha  occ. eigenvalues --   -1.13106  -1.13106  -1.12745  -1.12743  -1.12701
 Alpha  occ. eigenvalues --   -0.17241  -0.13534  -0.12899  -0.10904
 Alpha virt. eigenvalues --   -0.06299  -0.05517  -0.04374  -0.04191  -0.02603
 Alpha virt. eigenvalues --   -0.02290  -0.01905  -0.01844  -0.01313  -0.00795
 Alpha virt. eigenvalues --   -0.00258  -0.00126   0.00119   0.00364   0.00645

  Beta  occ. eigenvalues --  -38.44957 -38.44529 -38.44469 -38.44116 -38.43887
  Beta  occ. eigenvalues --  -38.43603 -38.43290  -2.20784  -2.20346  -2.20280
  Beta  occ. eigenvalues --   -2.19963  -2.19763  -2.19362  -2.19089  -1.14498
  Beta  occ. eigenvalues --   -1.14490  -1.14385  -1.14027  -1.14011  -1.14000
  Beta  occ. eigenvalues --   -1.13990  -1.13981  -1.13860  -1.13800  -1.13607
  Beta  occ. eigenvalues --   -1.13583  -1.13442  -1.13429  -1.13315  -1.13066
  Beta  occ. eigenvalues --   -1.13034  -1.13034  -1.12767  -1.12765  -1.12673
  Beta  occ. eigenvalues --   -0.16624  -0.13313  -0.12360
  Beta virt. eigenvalues --   -0.07481  -0.06156  -0.04884  -0.04011  -0.03921
  Beta virt. eigenvalues --   -0.02517  -0.02019  -0.01703  -0.01441  -0.01178
  Beta virt. eigenvalues --   -0.00473  -0.00001   0.00084   0.00330   0.00467

 Mulliken charges and spin densities:
               1          2
     1  Na  -0.921768   0.073374
     2  Na   1.156255   0.270323
     3  Na  -0.236066   0.296364
     4  Na   1.770789   0.339167
     5  Na  -1.720742   0.027921
     6  Na  -0.412987  -0.258860
     7  Na   0.364520   0.251712
 Sum of Mulliken charges =  -0.00000   1.00000

 Dipole moment (field-independent basis, Debye):
    X=              2.6920    Y=             -0.0334    Z=             -0.4738  Tot=              2.7335
 Quadrupole moment (field-independent basis, Debye-Ang):
   XX=            -61.3584   YY=            -62.1570   ZZ=            -71.4036
   XY=             -5.6117   XZ=              0.6110   YZ=              0.2258

 Normal termination of Gaussian 16 at Wed Nov 29 02:09:18 2023.
