 Gaussian 16, Revision B.01,
 Gaussian 16:  ES64L-G16RevB.01 20-Dec-2017

 -------------------------
 #P B3LYP/6-311+g(d) force
 -------------------------

 -----
 DPGEN
 -----
 Symbolic Z-matrix:
 Charge =  0 Multiplicity = 2

                         Standard orientation:
 ---------------------------------------------------------------------
 Center     Atomic      Atomic             Coordinates (Angstroms)
 Number     Number       Type             X           Y           Z
 ---------------------------------------------------------------------
      1         11           0       -2.570162   -2.238248   -0.109883
      2         11           0        0.007201   -0.008079    0.056028
      3         11           0       -3.850889    0.757424   -0.517049
      4         11           0       -0.758704    3.289268    0.651353
      5         11           0        2.720806    2.272740   -0.245440
      6         11           0        3.531795   -1.063189   -0.483843
      7         11           0        0.919954   -3.009915    0.648834
 ---------------------------------------------------------------------

 SCF Done:  E(UB3LYP) =  -1136.12933328     A.U. after   22 cycles

 The electronic state is 2-A.
 Alpha  occ. eigenvalues --  -38.44370 -38.44217 -38.43907 -38.43746 -38.43734
 Alpha  occ. eigenvalues --  -38.43558 -38.43519  -2.20176  -2.20052  -2.19724
 Alpha  occ. eigenvalues --   -2.19584  -2.19541  -2.19449  -2.19419  -1.13862
 Alpha  occ. eigenvalues --   -1.13853  -1.13797  -1.13741  -1.13731  -1.13691
 Alpha  occ. eigenvalues --   -1.13382  -1.13365  -1.13344  -1.13252  -1.13236
 Alpha  occ. eigenvalues --   -1.13227  -1.13213  -1.13199  -1.13183  -1.13166
 Alpha  occ. eigenvalues --   -1.13144  -1.13083  -1.13073  -1.13035  -1.13017
 Alpha  occ. eigenvalues --   -0.17244  -0.13866  -0.13105  -0.09991
 Alpha virt. eigenvalues --   -0.06555  -0.05399  -0.04193  -0.03586  -0.02929
 Alpha virt. eigenvalues --   -0.02082  -0.01886  -0.01485  -0.01239  -0.00376
 Alpha virt. eigenvalues --   -0.00081   0.00237   0.00432   0.00704   0.00756

  Beta  occ. eigenvalues --  -38.44354 -38.44205 -38.43846 -38.43702 -38.43692
  Beta  occ. eigenvalues --  -38.43529 -38.43514  -2.20151  -2.20037  -2.19613
  Beta  occ. eigenvalues --   -2.19506  -2.19463  -2.19439  -2.19366  -1.13851
  Beta  occ. eigenvalues --   -1.13842  -1.13739  -1.13738  -1.13727  -1.13626
  Beta  occ. eigenvalues --   -1.13308  -1.13289  -1.13261  -1.13200  -1.13192
  Beta  occ. eigenvalues --   -1.13171  -1.13167  -1.13155  -1.13145  -1.13118
  Beta  occ. eigenvalues --   -1.13107  -1.13091  -1.13037  -1.13004  -1.12988
  Beta  occ. eigenvalues --   -0.16902  -0.13027  -0.12662
  Beta virt. eigenvalues --   -0.06689  -0.06588  -0.05198  -0.04033  -0.02943
  Beta virt. eigenvalues --   -0.02331  -0.01924  -0.01733  -0.01264  -0.01073
  Beta virt. eigenvalues --   -0.00128   0.00196   0.00440   0.00475   0.00760

 Mulliken charges and spin densities:
               1          2
     1  Na   1.009546   0.126077
     2  Na  -4.485442  -0.182317
     3  Na   0.199398   0.357654
     4  Na   0.907245   0.178613
     5  Na   0.791400   0.161906
     6  Na   0.399301   0.282462
     7  Na   1.178552   0.075604
 Sum of Mulliken charges =  -0.00000   1.00000

 Dipole moment (field-independent basis, Debye):
    X=              0.0927    Y=             -0.0226    Z=              0.2235  Tot=              0.2431
 Quadrupole moment (field-independent basis, Debye-Ang):
   XX=            -67.2416   YY=            -56.3731   ZZ=            -72.5403
   XY=             -2.1855   XZ=             -0.4012   YZ=             -0.4600

 Normal termination of Gaussian 16 at Fri Dec  8 17:12:17 2023.
