 Gaussian 16, Revision B.01,
 Gaussian 16:  ES64L-G16RevB.01 20-Dec-2017

 -------------------------
 #P B3LYP/6-311+g(d) force
 -------------------------

 -----
 DPGEN
 -----
 Symbolic Z-matrix:
 Charge =  0 Multiplicity = 2

                         Standard orientation:
 ---------------------------------------------------------------------
 Center     Atomic      Atomic             Coordinates (Angstroms)
 Number     Number       Type             X           Y           Z
 ---------------------------------------------------------------------
      1         11           0        2.274918    2.029923   -0.000564
      2         11           0       -0.622316    2.679032    1.112549
      3         11           0       -4.147942   -1.519663   -0.828139
      4         11           0        2.773515   -2.241428    0.380730
      5         11           0        5.072000   -0.157564   -0.951992
      6         11           0       -3.745163    1.638584   -0.697343
      7         11           0       -1.605011   -2.428884    0.984760
 ---------------------------------------------------------------------

 SCF Done:  E(UB3LYP) =  -1136.11067159     A.U. after   21 cycles

 The electronic state is 2-A.
 Alpha  occ. eigenvalues --  -38.45592 -38.45002 -38.44573 -38.44367 -38.44294
 Alpha  occ. eigenvalues --  -38.44208 -38.42969  -2.21332  -2.20804  -2.20371
 Alpha  occ. eigenvalues --   -2.20177  -2.20082  -2.20035  -2.18773  -1.15024
 Alpha  occ. eigenvalues --   -1.15006  -1.14958  -1.14470  -1.14461  -1.14428
 Alpha  occ. eigenvalues --   -1.14061  -1.14051  -1.13988  -1.13830  -1.13830
 Alpha  occ. eigenvalues --   -1.13798  -1.13773  -1.13735  -1.13731  -1.13701
 Alpha  occ. eigenvalues --   -1.13693  -1.13641  -1.12450  -1.12430  -1.12419
 Alpha  occ. eigenvalues --   -0.15880  -0.14494  -0.12254  -0.10972
 Alpha virt. eigenvalues --   -0.07256  -0.05350  -0.04253  -0.03723  -0.03395
 Alpha virt. eigenvalues --   -0.02526  -0.02004  -0.01641  -0.01287  -0.00739
 Alpha virt. eigenvalues --   -0.00457  -0.00283   0.00119   0.00505   0.00567

  Beta  occ. eigenvalues --  -38.45587 -38.44947 -38.44550 -38.44322 -38.44234
  Beta  occ. eigenvalues --  -38.44208 -38.42960  -2.21326  -2.20703  -2.20333
  Beta  occ. eigenvalues --   -2.20092  -2.20040  -2.19969  -2.18760  -1.15023
  Beta  occ. eigenvalues --   -1.15003  -1.14927  -1.14401  -1.14394  -1.14353
  Beta  occ. eigenvalues --   -1.14030  -1.14026  -1.13950  -1.13771  -1.13770
  Beta  occ. eigenvalues --   -1.13745  -1.13740  -1.13704  -1.13687  -1.13656
  Beta  occ. eigenvalues --   -1.13651  -1.13594  -1.12431  -1.12422  -1.12408
  Beta  occ. eigenvalues --   -0.15348  -0.14032  -0.11820
  Beta virt. eigenvalues --   -0.07611  -0.07168  -0.04766  -0.03875  -0.03532
  Beta virt. eigenvalues --   -0.02970  -0.02360  -0.01663  -0.01534  -0.01029
  Beta virt. eigenvalues --   -0.00545  -0.00203  -0.00076   0.00298   0.00555

 Mulliken charges and spin densities:
               1          2
     1  Na  -0.317315   0.206888
     2  Na  -0.219481  -0.060986
     3  Na   0.640878   0.044866
     4  Na  -0.044599   0.054667
     5  Na   0.607367   0.221393
     6  Na  -0.085040   0.252668
     7  Na  -0.581810   0.280503
 Sum of Mulliken charges =  -0.00000   1.00000

 Dipole moment (field-independent basis, Debye):
    X=              0.6829    Y=             -0.4030    Z=             -0.5660  Tot=              0.9742
 Quadrupole moment (field-independent basis, Debye-Ang):
   XX=            -55.9539   YY=            -70.7417   ZZ=            -70.7022
   XY=             -0.2635   XZ=             -1.0109   YZ=             -1.6340

 Normal termination of Gaussian 16 at Sun Dec  3 14:53:20 2023.
