 Gaussian 16, Revision B.01,
 Gaussian 16:  ES64L-G16RevB.01 20-Dec-2017

 -------------------------
 #P B3LYP/6-311+g(d) force
 -------------------------

 -----
 DPGEN
 -----
 Symbolic Z-matrix:
 Charge =  0 Multiplicity = 2

                         Standard orientation:
 ---------------------------------------------------------------------
 Center     Atomic      Atomic             Coordinates (Angstroms)
 Number     Number       Type             X           Y           Z
 ---------------------------------------------------------------------
      1         11           0        3.361075   -1.099314   -0.537498
      2         11           0        1.806469    2.693818    0.183134
      3         11           0       -3.347056   -1.060634   -0.474286
      4         11           0       -2.043819    2.249817   -0.009781
      5         11           0        0.145424    0.019442   -1.484066
      6         11           0        0.033373    0.107362    1.730770
      7         11           0        0.044534   -2.910491    0.591726
 ---------------------------------------------------------------------

 SCF Done:  E(UB3LYP) =  -1136.13272744     A.U. after   20 cycles

 The electronic state is 2-A.
 Alpha  occ. eigenvalues --  -38.44345 -38.44154 -38.43894 -38.43813 -38.43530
 Alpha  occ. eigenvalues --  -38.43411 -38.43138  -2.20120  -2.19934  -2.19695
 Alpha  occ. eigenvalues --   -2.19646  -2.19467  -2.19245  -2.19094  -1.13796
 Alpha  occ. eigenvalues --   -1.13764  -1.13754  -1.13610  -1.13585  -1.13571
 Alpha  occ. eigenvalues --   -1.13378  -1.13363  -1.13336  -1.13335  -1.13322
 Alpha  occ. eigenvalues --   -1.13253  -1.13209  -1.13102  -1.13069  -1.12962
 Alpha  occ. eigenvalues --   -1.12901  -1.12857  -1.12781  -1.12710  -1.12689
 Alpha  occ. eigenvalues --   -0.18205  -0.12845  -0.12355  -0.10266
 Alpha virt. eigenvalues --   -0.05923  -0.05562  -0.04735  -0.02929  -0.02757
 Alpha virt. eigenvalues --   -0.02008  -0.01961  -0.01511  -0.00625  -0.00544
 Alpha virt. eigenvalues --   -0.00024   0.00254   0.00689   0.00746   0.00810

  Beta  occ. eigenvalues --  -38.44321 -38.44141 -38.43892 -38.43809 -38.43491
  Beta  occ. eigenvalues --  -38.43389 -38.43056  -2.20077  -2.19912  -2.19693
  Beta  occ. eigenvalues --   -2.19642  -2.19395  -2.19208  -2.18943  -1.13755
  Beta  occ. eigenvalues --   -1.13736  -1.13725  -1.13592  -1.13565  -1.13556
  Beta  occ. eigenvalues --   -1.13366  -1.13363  -1.13334  -1.13320  -1.13315
  Beta  occ. eigenvalues --   -1.13242  -1.13149  -1.13058  -1.13012  -1.12921
  Beta  occ. eigenvalues --   -1.12865  -1.12837  -1.12682  -1.12612  -1.12574
  Beta  occ. eigenvalues --   -0.17585  -0.12476  -0.12096
  Beta virt. eigenvalues --   -0.06643  -0.05658  -0.05553  -0.04664  -0.02348
  Beta virt. eigenvalues --   -0.02077  -0.01759  -0.01471  -0.01115  -0.00576
  Beta virt. eigenvalues --   -0.00543   0.00105   0.00327   0.00759   0.00769

 Mulliken charges and spin densities:
               1          2
     1  Na  -0.048331   0.081373
     2  Na  -0.014417  -0.062675
     3  Na  -0.033924   0.064147
     4  Na   0.062771  -0.009556
     5  Na  -0.286197   0.504343
     6  Na   0.281248   0.366294
     7  Na   0.038849   0.056075
 Sum of Mulliken charges =  -0.00000   1.00000

 Dipole moment (field-independent basis, Debye):
    X=              0.1305    Y=              0.1662    Z=              0.0550  Tot=              0.2183
 Quadrupole moment (field-independent basis, Debye-Ang):
   XX=            -54.6418   YY=            -60.7273   ZZ=            -76.0462
   XY=              0.9514   XZ=              0.3903   YZ=              0.3448

 Normal termination of Gaussian 16 at Thu Dec  7 09:45:07 2023.
