 Gaussian 16, Revision B.01,
 Gaussian 16:  ES64L-G16RevB.01 20-Dec-2017

 -------------------------
 #P B3LYP/6-311+g(d) force
 -------------------------

 -----
 DPGEN
 -----
 Symbolic Z-matrix:
 Charge =  0 Multiplicity = 2

                         Standard orientation:
 ---------------------------------------------------------------------
 Center     Atomic      Atomic             Coordinates (Angstroms)
 Number     Number       Type             X           Y           Z
 ---------------------------------------------------------------------
      1         11           0        0.048836    3.012821    0.140871
      2         11           0        5.377619   -0.766814   -1.196258
      3         11           0        2.735927    1.314268    0.165717
      4         11           0        2.974798   -2.056741    1.550363
      5         11           0       -0.524848    0.000468   -0.053261
      6         11           0       -4.213444   -1.429709   -1.168697
      7         11           0       -6.398888   -0.074293    0.561264
 ---------------------------------------------------------------------

 SCF Done:  E(UB3LYP) =  -1136.11102946     A.U. after   19 cycles

 The electronic state is 2-A.
 Alpha  occ. eigenvalues --  -38.44719 -38.44373 -38.44301 -38.44209 -38.44186
 Alpha  occ. eigenvalues --  -38.43851 -38.43604  -2.20504  -2.20147  -2.20090
 Alpha  occ. eigenvalues --   -2.20051  -2.19954  -2.19727  -2.19480  -1.14180
 Alpha  occ. eigenvalues --   -1.14156  -1.14153  -1.13829  -1.13801  -1.13752
 Alpha  occ. eigenvalues --   -1.13752  -1.13743  -1.13738  -1.13735  -1.13717
 Alpha  occ. eigenvalues --   -1.13689  -1.13625  -1.13618  -1.13565  -1.13431
 Alpha  occ. eigenvalues --   -1.13413  -1.13352  -1.13131  -1.13115  -1.13104
 Alpha  occ. eigenvalues --   -0.16375  -0.13735  -0.12364  -0.10240
 Alpha virt. eigenvalues --   -0.07062  -0.05191  -0.04869  -0.03450  -0.02921
 Alpha virt. eigenvalues --   -0.02474  -0.01922  -0.01627  -0.01416  -0.01047
 Alpha virt. eigenvalues --   -0.00501  -0.00117   0.00254   0.00427   0.00538

  Beta  occ. eigenvalues --  -38.44701 -38.44322 -38.44305 -38.44178 -38.44154
  Beta  occ. eigenvalues --  -38.43825 -38.43586  -2.20472  -2.20099  -2.20052
  Beta  occ. eigenvalues --   -2.19993  -2.19894  -2.19683  -2.19447  -1.14160
  Beta  occ. eigenvalues --   -1.14134  -1.14130  -1.13765  -1.13759  -1.13748
  Beta  occ. eigenvalues --   -1.13733  -1.13729  -1.13699  -1.13681  -1.13668
  Beta  occ. eigenvalues --   -1.13650  -1.13584  -1.13569  -1.13529  -1.13404
  Beta  occ. eigenvalues --   -1.13357  -1.13320  -1.13103  -1.13093  -1.13081
  Beta  occ. eigenvalues --   -0.15827  -0.13551  -0.12100
  Beta virt. eigenvalues --   -0.07042  -0.06279  -0.05008  -0.04481  -0.03247
  Beta virt. eigenvalues --   -0.02733  -0.02160  -0.01573  -0.01490  -0.01207
  Beta virt. eigenvalues --   -0.00753  -0.00199   0.00111   0.00357   0.00555

 Mulliken charges and spin densities:
               1          2
     1  Na   0.491261   0.133182
     2  Na   0.436329   0.135092
     3  Na   0.206729   0.272403
     4  Na   0.232300   0.221479
     5  Na  -1.237777   0.203574
     6  Na  -0.161719  -0.039481
     7  Na   0.032875   0.073752
 Sum of Mulliken charges =  -0.00000   1.00000

 Dipole moment (field-independent basis, Debye):
    X=             -0.8806    Y=              0.2097    Z=              0.1115  Tot=              0.9121
 Quadrupole moment (field-independent basis, Debye-Ang):
   XX=            -60.3733   YY=            -67.1449   ZZ=            -67.2926
   XY=             -7.3952   XZ=             -5.2719   YZ=              3.5898

 Normal termination of Gaussian 16 at Tue Nov 28 19:17:22 2023.
