 Gaussian 16, Revision B.01,
 Gaussian 16:  ES64L-G16RevB.01 20-Dec-2017

 -------------------------
 #P B3LYP/6-311+g(d) force
 -------------------------

 -----
 DPGEN
 -----
 Symbolic Z-matrix:
 Charge =  0 Multiplicity = 2

                         Standard orientation:
 ---------------------------------------------------------------------
 Center     Atomic      Atomic             Coordinates (Angstroms)
 Number     Number       Type             X           Y           Z
 ---------------------------------------------------------------------
      1         11           0        1.528052   -2.616393   -0.268059
      2         11           0       -0.120039    0.467220   -1.324686
      3         11           0        3.174496    0.083343   -0.486606
      4         11           0       -3.017497    1.633028   -0.327296
      5         11           0        0.919653    3.106975    0.297591
      6         11           0       -2.536896   -2.317188   -0.163711
      7         11           0        0.052231   -0.356986    2.272768
 ---------------------------------------------------------------------

 SCF Done:  E(UB3LYP) =  -1136.13021846     A.U. after   19 cycles

 The electronic state is 2-A.
 Alpha  occ. eigenvalues --  -38.44511 -38.44393 -38.43919 -38.43865 -38.43787
 Alpha  occ. eigenvalues --  -38.43585 -38.43186  -2.20289  -2.20140  -2.19716
 Alpha  occ. eigenvalues --   -2.19711  -2.19617  -2.19423  -2.19135  -1.13979
 Alpha  occ. eigenvalues --   -1.13946  -1.13909  -1.13824  -1.13792  -1.13782
 Alpha  occ. eigenvalues --   -1.13408  -1.13402  -1.13376  -1.13375  -1.13355
 Alpha  occ. eigenvalues --   -1.13337  -1.13271  -1.13247  -1.13225  -1.13092
 Alpha  occ. eigenvalues --   -1.13084  -1.13054  -1.12836  -1.12778  -1.12767
 Alpha  occ. eigenvalues --   -0.17877  -0.12872  -0.12242  -0.10465
 Alpha virt. eigenvalues --   -0.06045  -0.05435  -0.04928  -0.02903  -0.02886
 Alpha virt. eigenvalues --   -0.02433  -0.01709  -0.01537  -0.00799  -0.00672
 Alpha virt. eigenvalues --   -0.00047   0.00291   0.00701   0.00721   0.00836

  Beta  occ. eigenvalues --  -38.44503 -38.44395 -38.43913 -38.43851 -38.43675
  Beta  occ. eigenvalues --  -38.43578 -38.43155  -2.20274  -2.20145  -2.19706
  Beta  occ. eigenvalues --   -2.19688  -2.19414  -2.19408  -2.19081  -1.13963
  Beta  occ. eigenvalues --   -1.13934  -1.13901  -1.13820  -1.13796  -1.13784
  Beta  occ. eigenvalues --   -1.13397  -1.13391  -1.13356  -1.13354  -1.13345
  Beta  occ. eigenvalues --   -1.13319  -1.13133  -1.13108  -1.13084  -1.13075
  Beta  occ. eigenvalues --   -1.13070  -1.13033  -1.12786  -1.12738  -1.12729
  Beta  occ. eigenvalues --   -0.17225  -0.12592  -0.12096
  Beta virt. eigenvalues --   -0.06611  -0.05958  -0.05344  -0.04847  -0.02264
  Beta virt. eigenvalues --   -0.02172  -0.01618  -0.01477  -0.01379  -0.00812
  Beta virt. eigenvalues --   -0.00689   0.00137   0.00358   0.00720   0.00799

 Mulliken charges and spin densities:
               1          2
     1  Na   0.130806   0.035414
     2  Na  -0.125908   0.044002
     3  Na   0.335724   0.100742
     4  Na   0.123559   0.016162
     5  Na   0.034629   0.074528
     6  Na  -0.011516  -0.034401
     7  Na  -0.487293   0.763552
 Sum of Mulliken charges =  -0.00000   1.00000

 Dipole moment (field-independent basis, Debye):
    X=             -0.3947    Y=              0.1916    Z=              0.1246  Tot=              0.4561
 Quadrupole moment (field-independent basis, Debye-Ang):
   XX=            -56.8270   YY=            -59.8326   ZZ=            -76.2215
   XY=              0.9242   XZ=             -0.3483   YZ=              1.7749

 Normal termination of Gaussian 16 at Thu Dec  7 16:51:59 2023.
