 Gaussian 16, Revision B.01,
 Gaussian 16:  ES64L-G16RevB.01 20-Dec-2017

 -------------------------
 #P B3LYP/6-311+g(d) force
 -------------------------

 -----
 DPGEN
 -----
 Symbolic Z-matrix:
 Charge =  0 Multiplicity = 2

                         Standard orientation:
 ---------------------------------------------------------------------
 Center     Atomic      Atomic             Coordinates (Angstroms)
 Number     Number       Type             X           Y           Z
 ---------------------------------------------------------------------
      1         11           0       -0.450845    0.123082   -1.990948
      2         11           0       -1.563196    2.009312   -0.139119
      3         11           0        1.518780    1.885077    0.337488
      4         11           0        3.329469   -0.656198   -0.411139
      5         11           0        0.246359   -0.262223    2.099503
      6         11           0       -0.112351   -2.316579   -0.163408
      7         11           0       -2.968216   -0.782470    0.267624
 ---------------------------------------------------------------------

 SCF Done:  E(UB3LYP) =  -1136.12394563     A.U. after   21 cycles

 The electronic state is 2-A.
 Alpha  occ. eigenvalues --  -38.44650 -38.44222 -38.44211 -38.44175 -38.42881
 Alpha  occ. eigenvalues --  -38.42790 -38.42749  -2.20451  -2.20180  -2.20177
 Alpha  occ. eigenvalues --   -2.20101  -2.18849  -2.18782  -2.18695  -1.14134
 Alpha  occ. eigenvalues --   -1.14111  -1.14079  -1.13905  -1.13867  -1.13850
 Alpha  occ. eigenvalues --   -1.13844  -1.13790  -1.13774  -1.13763  -1.13740
 Alpha  occ. eigenvalues --   -1.13732  -1.12589  -1.12526  -1.12490  -1.12475
 Alpha  occ. eigenvalues --   -1.12411  -1.12403  -1.12390  -1.12360  -1.12276
 Alpha  occ. eigenvalues --   -0.19521  -0.13431  -0.11991  -0.11709
 Alpha virt. eigenvalues --   -0.06184  -0.04406  -0.03767  -0.03626  -0.03179
 Alpha virt. eigenvalues --   -0.02966  -0.01914  -0.00630  -0.00176   0.00205
 Alpha virt. eigenvalues --    0.00290   0.00377   0.00699   0.00936   0.00981

  Beta  occ. eigenvalues --  -38.44646 -38.44206 -38.44131 -38.44092 -38.42870
  Beta  occ. eigenvalues --  -38.42781 -38.42736  -2.20446  -2.20095  -2.20029
  Beta  occ. eigenvalues --   -2.20011  -2.18833  -2.18772  -2.18678  -1.14133
  Beta  occ. eigenvalues --   -1.14095  -1.14077  -1.13817  -1.13774  -1.13763
  Beta  occ. eigenvalues --   -1.13753  -1.13736  -1.13724  -1.13713  -1.13644
  Beta  occ. eigenvalues --   -1.13643  -1.12580  -1.12501  -1.12467  -1.12452
  Beta  occ. eigenvalues --   -1.12396  -1.12385  -1.12350  -1.12337  -1.12268
  Beta  occ. eigenvalues --   -0.18706  -0.13215  -0.11692
  Beta virt. eigenvalues --   -0.07714  -0.06072  -0.04395  -0.03636  -0.02976
  Beta virt. eigenvalues --   -0.02244  -0.01998  -0.01797  -0.00584  -0.00006
  Beta virt. eigenvalues --    0.00179   0.00293   0.00380   0.00909   0.00971

 Mulliken charges and spin densities:
               1          2
     1  Na  -0.823136   0.515203
     2  Na   0.530480   0.094421
     3  Na   0.419070   0.057747
     4  Na  -0.059775  -0.067077
     5  Na  -0.728969   0.418867
     6  Na   0.377108   0.005549
     7  Na   0.285223  -0.024709
 Sum of Mulliken charges =  -0.00000   1.00000

 Dipole moment (field-independent basis, Debye):
    X=              0.2433    Y=             -0.3788    Z=              0.0311  Tot=              0.4513
 Quadrupole moment (field-independent basis, Debye-Ang):
   XX=            -53.1063   YY=            -73.4339   ZZ=            -68.3651
   XY=             -0.5710   XZ=             -2.2764   YZ=              0.9248

 Normal termination of Gaussian 16 at Thu Dec  7 04:16:06 2023.
