 Gaussian 16, Revision B.01,
 Gaussian 16:  ES64L-G16RevB.01 20-Dec-2017

 -------------------------
 #P B3LYP/6-311+g(d) force
 -------------------------

 -----
 DPGEN
 -----
 Symbolic Z-matrix:
 Charge =  0 Multiplicity = 2

                         Standard orientation:
 ---------------------------------------------------------------------
 Center     Atomic      Atomic             Coordinates (Angstroms)
 Number     Number       Type             X           Y           Z
 ---------------------------------------------------------------------
      1         11           0       -4.200238   -2.464898   -0.333949
      2         11           0        3.761866   -0.488963    0.387907
      3         11           0        6.683238   -0.565598   -0.758987
      4         11           0       -0.385543   -1.550115    0.597833
      5         11           0       -4.860586    0.422820   -0.051605
      6         11           0        0.998824    2.004409    0.836822
      7         11           0       -1.997561    2.642346   -0.678021
 ---------------------------------------------------------------------

 SCF Done:  E(UB3LYP) =  -1136.11248730     A.U. after   19 cycles

 The electronic state is 2-A.
 Alpha  occ. eigenvalues --  -38.45948 -38.44685 -38.44432 -38.44368 -38.44355
 Alpha  occ. eigenvalues --  -38.43953 -38.43531  -2.21704  -2.20512  -2.20225
 Alpha  occ. eigenvalues --   -2.20170  -2.20151  -2.19755  -2.19332  -1.15385
 Alpha  occ. eigenvalues --   -1.15347  -1.15294  -1.14241  -1.14169  -1.14152
 Alpha  occ. eigenvalues --   -1.13893  -1.13877  -1.13871  -1.13835  -1.13821
 Alpha  occ. eigenvalues --   -1.13814  -1.13807  -1.13803  -1.13778  -1.13420
 Alpha  occ. eigenvalues --   -1.13397  -1.13396  -1.13019  -1.13013  -1.12960
 Alpha  occ. eigenvalues --   -0.16335  -0.14013  -0.12211  -0.11660
 Alpha virt. eigenvalues --   -0.06624  -0.06159  -0.04455  -0.03610  -0.02817
 Alpha virt. eigenvalues --   -0.02533  -0.02359  -0.01632  -0.01366  -0.00952
 Alpha virt. eigenvalues --   -0.00506  -0.00262  -0.00129   0.00115   0.00723

  Beta  occ. eigenvalues --  -38.45859 -38.44664 -38.44383 -38.44377 -38.44352
  Beta  occ. eigenvalues --  -38.43907 -38.43538  -2.21538  -2.20473  -2.20170
  Beta  occ. eigenvalues --   -2.20164  -2.20133  -2.19669  -2.19351  -1.15273
  Beta  occ. eigenvalues --   -1.15237  -1.15170  -1.14216  -1.14142  -1.14121
  Beta  occ. eigenvalues --   -1.13852  -1.13848  -1.13828  -1.13818  -1.13814
  Beta  occ. eigenvalues --   -1.13808  -1.13805  -1.13789  -1.13759  -1.13364
  Beta  occ. eigenvalues --   -1.13338  -1.13338  -1.13036  -1.13029  -1.12939
  Beta  occ. eigenvalues --   -0.15656  -0.13773  -0.11791
  Beta virt. eigenvalues --   -0.08303  -0.06101  -0.05524  -0.04200  -0.03265
  Beta virt. eigenvalues --   -0.02623  -0.02397  -0.02046  -0.01445  -0.01138
  Beta virt. eigenvalues --   -0.00610  -0.00305  -0.00068   0.00106   0.00202

 Mulliken charges and spin densities:
               1          2
     1  Na   0.569309  -0.123657
     2  Na  -0.222478   0.109147
     3  Na   0.170521   0.153099
     4  Na  -0.268879   0.550545
     5  Na  -0.210703   0.138629
     6  Na  -0.040879  -0.137897
     7  Na   0.003110   0.310135
 Sum of Mulliken charges =  -0.00000   1.00000

 Dipole moment (field-independent basis, Debye):
    X=             -1.1415    Y=             -0.0840    Z=             -0.0460  Tot=              1.1455
 Quadrupole moment (field-independent basis, Debye-Ang):
   XX=            -63.1734   YY=            -66.1572   ZZ=            -71.7921
   XY=              2.0620   XZ=             -1.3079   YZ=              0.8315

 Normal termination of Gaussian 16 at Sun Dec  3 12:08:04 2023.
