 Gaussian 16, Revision B.01,
 Gaussian 16:  ES64L-G16RevB.01 20-Dec-2017

 -------------------------
 #P B3LYP/6-311+g(d) force
 -------------------------

 -----
 DPGEN
 -----
 Symbolic Z-matrix:
 Charge =  0 Multiplicity = 2

                         Standard orientation:
 ---------------------------------------------------------------------
 Center     Atomic      Atomic             Coordinates (Angstroms)
 Number     Number       Type             X           Y           Z
 ---------------------------------------------------------------------
      1         11           0       -1.229732    2.556686    0.371751
      2         11           0        0.028015   -0.320081   -1.716546
      3         11           0       -3.340144   -0.192105   -0.071275
      4         11           0        2.757501   -1.199718    0.006998
      5         11           0        1.839362    2.249339   -0.518291
      6         11           0        0.588161   -0.249976    1.982267
      7         11           0       -0.643163   -2.844145   -0.054903
 ---------------------------------------------------------------------

 SCF Done:  E(UB3LYP) =  -1136.13600505     A.U. after   19 cycles

 The electronic state is 2-A.
 Alpha  occ. eigenvalues --  -38.44087 -38.43902 -38.43711 -38.43641 -38.43414
 Alpha  occ. eigenvalues --  -38.43325 -38.43313  -2.19871  -2.19788  -2.19569
 Alpha  occ. eigenvalues --   -2.19564  -2.19291  -2.19289  -2.19177  -1.13547
 Alpha  occ. eigenvalues --   -1.13532  -1.13529  -1.13512  -1.13458  -1.13404
 Alpha  occ. eigenvalues --   -1.13309  -1.13249  -1.13208  -1.13189  -1.13174
 Alpha  occ. eigenvalues --   -1.13162  -1.13014  -1.12971  -1.12953  -1.12927
 Alpha  occ. eigenvalues --   -1.12908  -1.12889  -1.12844  -1.12831  -1.12802
 Alpha  occ. eigenvalues --   -0.18743  -0.12830  -0.12703  -0.10890
 Alpha virt. eigenvalues --   -0.05739  -0.04953  -0.04757  -0.03131  -0.03086
 Alpha virt. eigenvalues --   -0.02618  -0.01468  -0.01100  -0.00349  -0.00228
 Alpha virt. eigenvalues --   -0.00003   0.00353   0.00844   0.00868   0.00920

  Beta  occ. eigenvalues --  -38.44091 -38.43892 -38.43704 -38.43553 -38.43401
  Beta  occ. eigenvalues --  -38.43320 -38.43242  -2.19879  -2.19776  -2.19559
  Beta  occ. eigenvalues --   -2.19401  -2.19270  -2.19170  -2.19159  -1.13547
  Beta  occ. eigenvalues --   -1.13535  -1.13518  -1.13504  -1.13422  -1.13398
  Beta  occ. eigenvalues --   -1.13291  -1.13215  -1.13168  -1.13109  -1.13076
  Beta  occ. eigenvalues --   -1.13054  -1.12993  -1.12938  -1.12907  -1.12870
  Beta  occ. eigenvalues --   -1.12836  -1.12822  -1.12812  -1.12798  -1.12797
  Beta  occ. eigenvalues --   -0.18006  -0.12608  -0.12453
  Beta virt. eigenvalues --   -0.06959  -0.05710  -0.04919  -0.04684  -0.02378
  Beta virt. eigenvalues --   -0.02309  -0.01575  -0.01402  -0.01028  -0.00391
  Beta virt. eigenvalues --   -0.00230   0.00127   0.00393   0.00844   0.00915

 Mulliken charges and spin densities:
               1          2
     1  Na  -0.046746  -0.022357
     2  Na  -0.098136   0.539914
     3  Na  -0.125543  -0.082991
     4  Na   0.464075  -0.049774
     5  Na   0.066822   0.017650
     6  Na  -0.357194   0.738676
     7  Na   0.096722  -0.141117
 Sum of Mulliken charges =  -0.00000   1.00000

 Dipole moment (field-independent basis, Debye):
    X=             -0.0188    Y=             -0.3105    Z=              0.0762  Tot=              0.3203
 Quadrupole moment (field-independent basis, Debye-Ang):
   XX=            -57.5193   YY=            -63.0130   ZZ=            -73.6497
   XY=              0.2780   XZ=             -1.3041   YZ=             -0.2008

 Normal termination of Gaussian 16 at Fri Dec  8 02:06:24 2023.
