 Gaussian 16, Revision B.01,
 Gaussian 16:  ES64L-G16RevB.01 20-Dec-2017

 -------------------------
 #P B3LYP/6-311+g(d) force
 -------------------------

 -----
 DPGEN
 -----
 Symbolic Z-matrix:
 Charge =  0 Multiplicity = 2

                         Standard orientation:
 ---------------------------------------------------------------------
 Center     Atomic      Atomic             Coordinates (Angstroms)
 Number     Number       Type             X           Y           Z
 ---------------------------------------------------------------------
      1         11           0        0.062446   -0.023862    1.904825
      2         11           0        0.138089    0.068245   -1.763148
      3         11           0        1.016498    2.699675    0.055177
      4         11           0       -2.491538    1.757614   -0.027351
      5         11           0        0.820465   -2.621893    0.056937
      6         11           0        3.016557   -0.186192   -0.112327
      7         11           0       -2.562518   -1.693586   -0.114113
 ---------------------------------------------------------------------

 SCF Done:  E(UB3LYP) =  -1136.14126618     A.U. after   18 cycles

 The electronic state is 2-A.
 Alpha  occ. eigenvalues --  -38.43769 -38.43753 -38.43658 -38.43344 -38.43311
 Alpha  occ. eigenvalues --  -38.43216 -38.43136  -2.19652  -2.19585  -2.19494
 Alpha  occ. eigenvalues --   -2.19290  -2.19197  -2.19180  -2.19048  -1.13340
 Alpha  occ. eigenvalues --   -1.13314  -1.13296  -1.13262  -1.13258  -1.13230
 Alpha  occ. eigenvalues --   -1.13165  -1.13155  -1.13133  -1.12980  -1.12944
 Alpha  occ. eigenvalues --   -1.12904  -1.12902  -1.12876  -1.12839  -1.12818
 Alpha  occ. eigenvalues --   -1.12802  -1.12798  -1.12717  -1.12703  -1.12669
 Alpha  occ. eigenvalues --   -0.19014  -0.13053  -0.12588  -0.10814
 Alpha virt. eigenvalues --   -0.05419  -0.05202  -0.04626  -0.03142  -0.02935
 Alpha virt. eigenvalues --   -0.02537  -0.01425  -0.01079  -0.00266  -0.00189
 Alpha virt. eigenvalues --   -0.00001   0.00372   0.00832   0.00913   0.00929

  Beta  occ. eigenvalues --  -38.43763 -38.43751 -38.43656 -38.43305 -38.43256
  Beta  occ. eigenvalues --  -38.43141 -38.43128  -2.19645  -2.19584  -2.19493
  Beta  occ. eigenvalues --   -2.19173  -2.19128  -2.19059  -2.19037  -1.13334
  Beta  occ. eigenvalues --   -1.13296  -1.13278  -1.13262  -1.13239  -1.13231
  Beta  occ. eigenvalues --   -1.13157  -1.13141  -1.13135  -1.12897  -1.12868
  Beta  occ. eigenvalues --   -1.12839  -1.12806  -1.12794  -1.12791  -1.12779
  Beta  occ. eigenvalues --   -1.12737  -1.12708  -1.12690  -1.12667  -1.12654
  Beta  occ. eigenvalues --   -0.18260  -0.12810  -0.12325
  Beta virt. eigenvalues --   -0.06873  -0.05397  -0.05209  -0.04607  -0.02338
  Beta virt. eigenvalues --   -0.02114  -0.01473  -0.01335  -0.01017  -0.00328
  Beta virt. eigenvalues --   -0.00249   0.00127   0.00386   0.00880   0.00903

 Mulliken charges and spin densities:
               1          2
     1  Na  -0.421357   0.764279
     2  Na  -0.360276   0.683272
     3  Na   0.135977  -0.122575
     4  Na   0.030777  -0.120648
     5  Na   0.253920  -0.060024
     6  Na   0.332309  -0.043540
     7  Na   0.028649  -0.100764
 Sum of Mulliken charges =  -0.00000   1.00000

 Dipole moment (field-independent basis, Debye):
    X=             -0.0806    Y=              0.1079    Z=              0.0399  Tot=              0.1405
 Quadrupole moment (field-independent basis, Debye-Ang):
   XX=            -56.7505   YY=            -62.6059   ZZ=            -74.0389
   XY=              0.1292   XZ=              0.1310   YZ=              0.2557

 Normal termination of Gaussian 16 at Thu Dec  7 06:15:11 2023.
