 Gaussian 16, Revision B.01,
 Gaussian 16:  ES64L-G16RevB.01 20-Dec-2017

 -------------------------
 #P B3LYP/6-311+g(d) force
 -------------------------

 -----
 DPGEN
 -----
 Symbolic Z-matrix:
 Charge =  0 Multiplicity = 2

                         Standard orientation:
 ---------------------------------------------------------------------
 Center     Atomic      Atomic             Coordinates (Angstroms)
 Number     Number       Type             X           Y           Z
 ---------------------------------------------------------------------
      1         11           0       -1.177732   -1.565588    1.191918
      2         11           0        2.097652    1.863196   -0.923418
      3         11           0       -1.844286    1.931403    0.150613
      4         11           0       -3.600282   -0.730295   -0.780864
      5         11           0        3.419982   -1.578497   -0.204330
      6         11           0        0.918536    0.770327    1.912401
      7         11           0        0.186131   -0.690546   -1.346322
 ---------------------------------------------------------------------

 SCF Done:  E(UB3LYP) =  -1136.12359311     A.U. after   23 cycles

 The electronic state is 2-A.
 Alpha  occ. eigenvalues --  -38.44421 -38.44286 -38.43966 -38.43841 -38.43705
 Alpha  occ. eigenvalues --  -38.43304 -38.43284  -2.20271  -2.20055  -2.19920
 Alpha  occ. eigenvalues --   -2.19711  -2.19661  -2.19245  -2.19145  -1.13939
 Alpha  occ. eigenvalues --   -1.13930  -1.13906  -1.13734  -1.13722  -1.13715
 Alpha  occ. eigenvalues --   -1.13697  -1.13601  -1.13505  -1.13400  -1.13379
 Alpha  occ. eigenvalues --   -1.13354  -1.13296  -1.13291  -1.13250  -1.12938
 Alpha  occ. eigenvalues --   -1.12880  -1.12853  -1.12827  -1.12808  -1.12763
 Alpha  occ. eigenvalues --   -0.18842  -0.13956  -0.11342  -0.11001
 Alpha virt. eigenvalues --   -0.06579  -0.05369  -0.04169  -0.03003  -0.02727
 Alpha virt. eigenvalues --   -0.02472  -0.02230  -0.01230  -0.00610  -0.00078
 Alpha virt. eigenvalues --    0.00141   0.00274   0.00544   0.00696   0.00732

  Beta  occ. eigenvalues --  -38.44402 -38.44293 -38.43938 -38.43813 -38.43650
  Beta  occ. eigenvalues --  -38.43273 -38.43234  -2.20236  -2.20070  -2.19872
  Beta  occ. eigenvalues --   -2.19660  -2.19563  -2.19129  -2.19119  -1.13917
  Beta  occ. eigenvalues --   -1.13900  -1.13881  -1.13742  -1.13719  -1.13708
  Beta  occ. eigenvalues --   -1.13661  -1.13569  -1.13470  -1.13354  -1.13350
  Beta  occ. eigenvalues --   -1.13287  -1.13256  -1.13203  -1.13180  -1.12852
  Beta  occ. eigenvalues --   -1.12815  -1.12794  -1.12782  -1.12765  -1.12730
  Beta  occ. eigenvalues --   -0.18074  -0.13699  -0.10877
  Beta virt. eigenvalues --   -0.07311  -0.06361  -0.05298  -0.03611  -0.02872
  Beta virt. eigenvalues --   -0.02329  -0.01904  -0.01555  -0.01102  -0.00265
  Beta virt. eigenvalues --   -0.00037   0.00187   0.00299   0.00686   0.00743

 Mulliken charges and spin densities:
               1          2
     1  Na   0.001139   0.054087
     2  Na   0.039274   0.047050
     3  Na  -0.302243   0.069510
     4  Na   0.357441   0.125237
     5  Na  -0.013947  -0.107592
     6  Na   0.273247   0.338377
     7  Na  -0.354911   0.473331
 Sum of Mulliken charges =  -0.00000   1.00000

 Dipole moment (field-independent basis, Debye):
    X=             -0.0803    Y=              0.1202    Z=             -0.0764  Tot=              0.1635
 Quadrupole moment (field-independent basis, Debye-Ang):
   XX=            -49.3935   YY=            -74.0503   ZZ=            -69.5614
   XY=              0.6039   XZ=              2.2759   YZ=             -2.4922

 Normal termination of Gaussian 16 at Fri Dec  8 00:16:34 2023.
