 Gaussian 16, Revision B.01,
 Gaussian 16:  ES64L-G16RevB.01 20-Dec-2017

 -------------------------
 #P B3LYP/6-311+g(d) force
 -------------------------

 -----
 DPGEN
 -----
 Symbolic Z-matrix:
 Charge =  0 Multiplicity = 2

                         Standard orientation:
 ---------------------------------------------------------------------
 Center     Atomic      Atomic             Coordinates (Angstroms)
 Number     Number       Type             X           Y           Z
 ---------------------------------------------------------------------
      1         11           0       -0.801468    0.370202   -0.988953
      2         11           0       -6.062432   -0.136374   -0.923040
      3         11           0       -3.283842   -0.079859    0.952353
      4         11           0       -0.287296   -1.715506    1.250847
      5         11           0        2.618020   -0.145537   -0.885067
      6         11           0        1.453588    2.396608    0.888747
      7         11           0        6.363430   -0.689536   -0.294887
 ---------------------------------------------------------------------

 SCF Done:  E(UB3LYP) =  -1136.10333674     A.U. after   27 cycles

 The electronic state is 2-A.
 Alpha  occ. eigenvalues --  -38.45683 -38.45536 -38.44475 -38.44274 -38.44119
 Alpha  occ. eigenvalues --  -38.43562 -38.43551  -2.21507  -2.21454  -2.20356
 Alpha  occ. eigenvalues --   -2.20031  -2.19944  -2.19428  -2.19313  -1.15159
 Alpha  occ. eigenvalues --   -1.15154  -1.15141  -1.15135  -1.15129  -1.15063
 Alpha  occ. eigenvalues --   -1.14014  -1.13990  -1.13981  -1.13683  -1.13681
 Alpha  occ. eigenvalues --   -1.13656  -1.13641  -1.13633  -1.13559  -1.13138
 Alpha  occ. eigenvalues --   -1.13099  -1.13049  -1.12986  -1.12985  -1.12939
 Alpha  occ. eigenvalues --   -0.17994  -0.13739  -0.11581  -0.11094
 Alpha virt. eigenvalues --   -0.07289  -0.06555  -0.04059  -0.03728  -0.02843
 Alpha virt. eigenvalues --   -0.02685  -0.02055  -0.01773  -0.01354  -0.01077
 Alpha virt. eigenvalues --   -0.00656  -0.00144   0.00161   0.00288   0.00341

  Beta  occ. eigenvalues --  -38.45597 -38.45532 -38.44415 -38.44203 -38.44130
  Beta  occ. eigenvalues --  -38.43586 -38.43546  -2.21451  -2.21346  -2.20244
  Beta  occ. eigenvalues --   -2.19969  -2.19897  -2.19417  -2.19359  -1.15165
  Beta  occ. eigenvalues --   -1.15105  -1.15066  -1.15038  -1.15037  -1.15002
  Beta  occ. eigenvalues --   -1.13935  -1.13920  -1.13904  -1.13676  -1.13629
  Beta  occ. eigenvalues --   -1.13592  -1.13590  -1.13572  -1.13545  -1.13132
  Beta  occ. eigenvalues --   -1.13090  -1.13052  -1.13017  -1.13016  -1.12960
  Beta  occ. eigenvalues --   -0.17473  -0.13464  -0.10740
  Beta virt. eigenvalues --   -0.08014  -0.06904  -0.06159  -0.03936  -0.03272
  Beta virt. eigenvalues --   -0.02531  -0.02238  -0.01743  -0.01538  -0.01075
  Beta virt. eigenvalues --   -0.00863  -0.00480   0.00089   0.00276   0.00358

 Mulliken charges and spin densities:
               1          2
     1  Na  -0.076084   0.652422
     2  Na  -0.149956  -0.106481
     3  Na   0.281463  -0.120058
     4  Na   0.171236   0.239914
     5  Na  -0.629154  -0.152969
     6  Na   0.175081   0.272589
     7  Na   0.227412   0.214583
 Sum of Mulliken charges =  -0.00000   1.00000

 Dipole moment (field-independent basis, Debye):
    X=              0.3533    Y=              0.3887    Z=              0.8927  Tot=              1.0358
 Quadrupole moment (field-independent basis, Debye-Ang):
   XX=            -80.9075   YY=            -71.0815   ZZ=            -63.0599
   XY=              1.2785   XZ=              5.6035   YZ=              1.6987

 Normal termination of Gaussian 16 at Wed Nov 29 03:32:26 2023.
