 Gaussian 16, Revision B.01,
 Gaussian 16:  ES64L-G16RevB.01 20-Dec-2017

 -------------------------
 #P B3LYP/6-311+g(d) force
 -------------------------

 -----
 DPGEN
 -----
 Symbolic Z-matrix:
 Charge =  0 Multiplicity = 2

                         Standard orientation:
 ---------------------------------------------------------------------
 Center     Atomic      Atomic             Coordinates (Angstroms)
 Number     Number       Type             X           Y           Z
 ---------------------------------------------------------------------
      1         11           0       -0.852582    3.251724    0.140651
      2         11           0        4.272914    0.475226   -1.269823
      3         11           0        1.484806    1.088751    1.533027
      4         11           0        3.148693   -2.109581    0.920384
      5         11           0       -0.245113   -1.731959   -1.037489
      6         11           0       -4.617339   -1.566771    0.559570
      7         11           0       -3.191380    0.592609   -0.846321
 ---------------------------------------------------------------------

 SCF Done:  E(UB3LYP) =  -1136.10863101     A.U. after   22 cycles

 The electronic state is 2-A.
 Alpha  occ. eigenvalues --  -38.45184 -38.44892 -38.44820 -38.44669 -38.44286
 Alpha  occ. eigenvalues --  -38.43873 -38.42651  -2.20945  -2.20685  -2.20597
 Alpha  occ. eigenvalues --   -2.20445  -2.20105  -2.19726  -2.18436  -1.14621
 Alpha  occ. eigenvalues --   -1.14602  -1.14535  -1.14337  -1.14326  -1.14299
 Alpha  occ. eigenvalues --   -1.14289  -1.14245  -1.14234  -1.14142  -1.14128
 Alpha  occ. eigenvalues --   -1.14052  -1.13852  -1.13743  -1.13724  -1.13407
 Alpha  occ. eigenvalues --   -1.13379  -1.13331  -1.12107  -1.12098  -1.12084
 Alpha  occ. eigenvalues --   -0.16472  -0.14167  -0.11465  -0.10556
 Alpha virt. eigenvalues --   -0.07198  -0.05974  -0.04488  -0.03304  -0.03192
 Alpha virt. eigenvalues --   -0.02176  -0.02083  -0.01536  -0.01166  -0.00900
 Alpha virt. eigenvalues --   -0.00506  -0.00263   0.00177   0.00419   0.00501

  Beta  occ. eigenvalues --  -38.45112 -38.44826 -38.44794 -38.44671 -38.44253
  Beta  occ. eigenvalues --  -38.43868 -38.42656  -2.20811  -2.20613  -2.20503
  Beta  occ. eigenvalues --   -2.20449  -2.20046  -2.19719  -2.18444  -1.14529
  Beta  occ. eigenvalues --   -1.14509  -1.14444  -1.14307  -1.14265  -1.14226
  Beta  occ. eigenvalues --   -1.14208  -1.14197  -1.14160  -1.14139  -1.14119
  Beta  occ. eigenvalues --   -1.14063  -1.13813  -1.13703  -1.13683  -1.13394
  Beta  occ. eigenvalues --   -1.13374  -1.13320  -1.12112  -1.12105  -1.12088
  Beta  occ. eigenvalues --   -0.15943  -0.13765  -0.11263
  Beta virt. eigenvalues --   -0.07040  -0.06583  -0.05871  -0.04340  -0.03113
  Beta virt. eigenvalues --   -0.02762  -0.01988  -0.01549  -0.01304  -0.00972
  Beta virt. eigenvalues --   -0.00558  -0.00270   0.00021   0.00268   0.00463

 Mulliken charges and spin densities:
               1          2
     1  Na   0.060497  -0.101626
     2  Na  -0.002391   0.481049
     3  Na  -0.318307   0.029017
     4  Na   0.412423   0.055346
     5  Na  -0.114381   0.293753
     6  Na   0.329645   0.074177
     7  Na  -0.367485   0.168284
 Sum of Mulliken charges =  -0.00000   1.00000

 Dipole moment (field-independent basis, Debye):
    X=              0.6321    Y=             -1.3525    Z=              0.2307  Tot=              1.5106
 Quadrupole moment (field-independent basis, Debye-Ang):
   XX=            -68.8506   YY=            -71.3422   ZZ=            -63.1935
   XY=             -2.0531   XZ=             -0.1012   YZ=             -5.8887

 Normal termination of Gaussian 16 at Mon Dec  4 05:07:24 2023.
