 Gaussian 16, Revision B.01,
 Gaussian 16:  ES64L-G16RevB.01 20-Dec-2017

 -------------------------
 #P B3LYP/6-311+g(d) force
 -------------------------

 -----
 DPGEN
 -----
 Symbolic Z-matrix:
 Charge =  0 Multiplicity = 2

                         Standard orientation:
 ---------------------------------------------------------------------
 Center     Atomic      Atomic             Coordinates (Angstroms)
 Number     Number       Type             X           Y           Z
 ---------------------------------------------------------------------
      1         11           0        1.253601    1.771932    0.682867
      2         11           0       -2.507563    1.685144    0.386303
      3         11           0       -1.096627   -1.091272    1.992523
      4         11           0       -0.109253   -0.052038   -1.724848
      5         11           0       -3.545157   -0.877501   -1.051349
      6         11           0        2.084325   -1.809107    0.271526
      7         11           0        3.920674    0.372843   -0.557022
 ---------------------------------------------------------------------

 SCF Done:  E(UB3LYP) =  -1136.11394966     A.U. after   36 cycles

 The electronic state is 2-A.
 Alpha  occ. eigenvalues --  -38.45599 -38.45551 -38.44763 -38.43925 -38.43840
 Alpha  occ. eigenvalues --  -38.43109 -38.42593  -2.21448  -2.21414  -2.20607
 Alpha  occ. eigenvalues --   -2.19770  -2.19714  -2.19002  -2.18478  -1.15162
 Alpha  occ. eigenvalues --   -1.15113  -1.15088  -1.15071  -1.15058  -1.15033
 Alpha  occ. eigenvalues --   -1.14293  -1.14254  -1.14222  -1.13436  -1.13420
 Alpha  occ. eigenvalues --   -1.13394  -1.13382  -1.13360  -1.13351  -1.12677
 Alpha  occ. eigenvalues --   -1.12672  -1.12653  -1.12190  -1.12139  -1.12102
 Alpha  occ. eigenvalues --   -0.18580  -0.14797  -0.11374  -0.10464
 Alpha virt. eigenvalues --   -0.07502  -0.05285  -0.04701  -0.03299  -0.03018
 Alpha virt. eigenvalues --   -0.02389  -0.02147  -0.01199  -0.00942  -0.00234
 Alpha virt. eigenvalues --   -0.00031   0.00177   0.00303   0.00646   0.00734

  Beta  occ. eigenvalues --  -38.45572 -38.45539 -38.44719 -38.43837 -38.43829
  Beta  occ. eigenvalues --  -38.43107 -38.42584  -2.21399  -2.21389  -2.20526
  Beta  occ. eigenvalues --   -2.19698  -2.19610  -2.19002  -2.18464  -1.15117
  Beta  occ. eigenvalues --   -1.15100  -1.15060  -1.15044  -1.15032  -1.15016
  Beta  occ. eigenvalues --   -1.14242  -1.14188  -1.14167  -1.13383  -1.13356
  Beta  occ. eigenvalues --   -1.13330  -1.13317  -1.13288  -1.13270  -1.12682
  Beta  occ. eigenvalues --   -1.12674  -1.12626  -1.12184  -1.12117  -1.12082
  Beta  occ. eigenvalues --   -0.17930  -0.14474  -0.10230
  Beta virt. eigenvalues --   -0.07580  -0.07254  -0.05224  -0.04086  -0.02987
  Beta virt. eigenvalues --   -0.02721  -0.01841  -0.01490  -0.01116  -0.00600
  Beta virt. eigenvalues --   -0.00179   0.00031   0.00248   0.00377   0.00721

 Mulliken charges and spin densities:
               1          2
     1  Na  -0.632928   0.034678
     2  Na   0.080686   0.134285
     3  Na  -0.179967   0.372605
     4  Na  -0.351309   0.128953
     5  Na   0.333291   0.189950
     6  Na  -0.388590   0.058896
     7  Na   1.138817   0.080632
 Sum of Mulliken charges =  -0.00000   1.00000

 Dipole moment (field-independent basis, Debye):
    X=              0.1128    Y=              0.0543    Z=             -0.4942  Tot=              0.5098
 Quadrupole moment (field-independent basis, Debye-Ang):
   XX=            -44.7438   YY=            -82.0568   ZZ=            -68.1202
   XY=              1.1918   XZ=             -2.3738   YZ=              0.7283

 Normal termination of Gaussian 16 at Thu Dec  7 19:18:32 2023.
