 Gaussian 16, Revision B.01,
 Gaussian 16:  ES64L-G16RevB.01 20-Dec-2017

 -------------------------
 #P B3LYP/6-311+g(d) force
 -------------------------

 -----
 DPGEN
 -----
 Symbolic Z-matrix:
 Charge =  0 Multiplicity = 2

                         Standard orientation:
 ---------------------------------------------------------------------
 Center     Atomic      Atomic             Coordinates (Angstroms)
 Number     Number       Type             X           Y           Z
 ---------------------------------------------------------------------
      1         11           0        0.327597    3.211365   -0.696792
      2         11           0       -0.063393    0.029468   -1.534316
      3         11           0        0.379980   -0.064784    2.146924
      4         11           0        3.298379    0.267154    0.046330
      5         11           0        1.156888   -2.746112   -0.154894
      6         11           0       -2.693381    1.416675    0.677436
      7         11           0       -2.406069   -2.113765   -0.484686
 ---------------------------------------------------------------------

 SCF Done:  E(UB3LYP) =  -1136.13596592     A.U. after   18 cycles

 The electronic state is 2-A.
 Alpha  occ. eigenvalues --  -38.44132 -38.43976 -38.43873 -38.43766 -38.43727
 Alpha  occ. eigenvalues --  -38.43575 -38.43158  -2.19918  -2.19827  -2.19674
 Alpha  occ. eigenvalues --   -2.19567  -2.19563  -2.19391  -2.19117  -1.13600
 Alpha  occ. eigenvalues --   -1.13576  -1.13557  -1.13492  -1.13464  -1.13437
 Alpha  occ. eigenvalues --   -1.13347  -1.13333  -1.13310  -1.13266  -1.13255
 Alpha  occ. eigenvalues --   -1.13242  -1.13208  -1.13191  -1.13178  -1.13083
 Alpha  occ. eigenvalues --   -1.13043  -1.13024  -1.12805  -1.12752  -1.12741
 Alpha  occ. eigenvalues --   -0.18100  -0.12652  -0.12390  -0.10832
 Alpha virt. eigenvalues --   -0.05628  -0.05101  -0.05015  -0.03210  -0.02912
 Alpha virt. eigenvalues --   -0.02615  -0.01513  -0.01327  -0.00581  -0.00395
 Alpha virt. eigenvalues --   -0.00025   0.00336   0.00781   0.00823   0.00847

  Beta  occ. eigenvalues --  -38.44132 -38.43882 -38.43857 -38.43748 -38.43722
  Beta  occ. eigenvalues --  -38.43570 -38.43106  -2.19921  -2.19655  -2.19647
  Beta  occ. eigenvalues --   -2.19561  -2.19532  -2.19384  -2.19021  -1.13589
  Beta  occ. eigenvalues --   -1.13579  -1.13556  -1.13379  -1.13350  -1.13327
  Beta  occ. eigenvalues --   -1.13311  -1.13299  -1.13292  -1.13255  -1.13227
  Beta  occ. eigenvalues --   -1.13223  -1.13187  -1.13170  -1.13170  -1.13070
  Beta  occ. eigenvalues --   -1.13038  -1.13015  -1.12736  -1.12687  -1.12667
  Beta  occ. eigenvalues --   -0.17412  -0.12447  -0.12096
  Beta virt. eigenvalues --   -0.07006  -0.05584  -0.04991  -0.04895  -0.02501
  Beta virt. eigenvalues --   -0.02266  -0.01631  -0.01427  -0.01212  -0.00541
  Beta virt. eigenvalues --   -0.00421   0.00106   0.00373   0.00792   0.00851

 Mulliken charges and spin densities:
               1          2
     1  Na   0.008074   0.021845
     2  Na  -0.007424   0.283780
     3  Na  -0.271798   0.630646
     4  Na   0.035891  -0.050610
     5  Na   0.119783  -0.026813
     6  Na   0.024108   0.143703
     7  Na   0.091366  -0.002551
 Sum of Mulliken charges =  -0.00000   1.00000

 Dipole moment (field-independent basis, Debye):
    X=              0.2646    Y=             -0.0164    Z=              0.2206  Tot=              0.3448
 Quadrupole moment (field-independent basis, Debye-Ang):
   XX=            -57.9220   YY=            -61.1053   ZZ=            -74.0777
   XY=              0.2902   XZ=             -1.0752   YZ=              0.1912

 Normal termination of Gaussian 16 at Fri Dec  8 03:02:42 2023.
