 Gaussian 16, Revision B.01,
 Gaussian 16:  ES64L-G16RevB.01 20-Dec-2017

 -------------------------
 #P B3LYP/6-311+g(d) force
 -------------------------

 -----
 DPGEN
 -----
 Symbolic Z-matrix:
 Charge =  0 Multiplicity = 2

                         Standard orientation:
 ---------------------------------------------------------------------
 Center     Atomic      Atomic             Coordinates (Angstroms)
 Number     Number       Type             X           Y           Z
 ---------------------------------------------------------------------
      1         11           0       -1.993158   -2.607493   -0.542500
      2         11           0       -0.156514   -0.424380    2.074263
      3         11           0       -2.884223    0.964875    0.251425
      4         11           0       -0.082528    2.955171    0.135403
      5         11           0        2.778982   -2.130256    0.289546
      6         11           0       -0.385357   -0.096917   -1.668955
      7         11           0        2.722798    1.339000   -0.539181
 ---------------------------------------------------------------------

 SCF Done:  E(UB3LYP) =  -1136.13337856     A.U. after   20 cycles

 The electronic state is 2-A.
 Alpha  occ. eigenvalues --  -38.44173 -38.44126 -38.43995 -38.43957 -38.43709
 Alpha  occ. eigenvalues --  -38.43513 -38.43098  -2.19981  -2.19933  -2.19838
 Alpha  occ. eigenvalues --   -2.19774  -2.19539  -2.19451  -2.18953  -1.13671
 Alpha  occ. eigenvalues --   -1.13654  -1.13605  -1.13602  -1.13589  -1.13580
 Alpha  occ. eigenvalues --   -1.13505  -1.13481  -1.13473  -1.13449  -1.13415
 Alpha  occ. eigenvalues --   -1.13404  -1.13220  -1.13213  -1.13167  -1.13127
 Alpha  occ. eigenvalues --   -1.13087  -1.13068  -1.12623  -1.12618  -1.12600
 Alpha  occ. eigenvalues --   -0.18199  -0.13001  -0.12217  -0.10831
 Alpha virt. eigenvalues --   -0.05948  -0.05274  -0.04702  -0.03164  -0.02946
 Alpha virt. eigenvalues --   -0.02632  -0.01611  -0.01354  -0.00624  -0.00306
 Alpha virt. eigenvalues --   -0.00055   0.00331   0.00715   0.00783   0.00811

  Beta  occ. eigenvalues --  -38.44172 -38.44116 -38.43940 -38.43906 -38.43699
  Beta  occ. eigenvalues --  -38.43453 -38.43096  -2.19966  -2.19932  -2.19747
  Beta  occ. eigenvalues --   -2.19674  -2.19522  -2.19340  -2.18954  -1.13662
  Beta  occ. eigenvalues --   -1.13621  -1.13595  -1.13590  -1.13589  -1.13580
  Beta  occ. eigenvalues --   -1.13449  -1.13398  -1.13390  -1.13387  -1.13359
  Beta  occ. eigenvalues --   -1.13325  -1.13205  -1.13197  -1.13154  -1.13052
  Beta  occ. eigenvalues --   -1.13014  -1.12982  -1.12626  -1.12618  -1.12579
  Beta  occ. eigenvalues --   -0.17499  -0.12764  -0.11965
  Beta virt. eigenvalues --   -0.07012  -0.05860  -0.05135  -0.04633  -0.02518
  Beta virt. eigenvalues --   -0.02246  -0.01702  -0.01441  -0.01220  -0.00653
  Beta virt. eigenvalues --   -0.00331   0.00094   0.00377   0.00758   0.00849

 Mulliken charges and spin densities:
               1          2
     1  Na   0.108989  -0.036578
     2  Na  -0.361342   0.632148
     3  Na   0.272654   0.074085
     4  Na  -0.091875   0.003174
     5  Na  -0.066648  -0.041612
     6  Na   0.049587   0.349986
     7  Na   0.088635   0.018797
 Sum of Mulliken charges =  -0.00000   1.00000

 Dipole moment (field-independent basis, Debye):
    X=             -0.2659    Y=             -0.3817    Z=              0.1493  Tot=              0.4885
 Quadrupole moment (field-independent basis, Debye-Ang):
   XX=            -58.0585   YY=            -62.1472   ZZ=            -74.0397
   XY=             -0.3683   XZ=             -0.9479   YZ=              0.4374

 Normal termination of Gaussian 16 at Thu Dec  7 11:23:27 2023.
