 Gaussian 16, Revision B.01,
 Gaussian 16:  ES64L-G16RevB.01 20-Dec-2017

 -------------------------
 #P B3LYP/6-311+g(d) force
 -------------------------

 -----
 DPGEN
 -----
 Symbolic Z-matrix:
 Charge =  0 Multiplicity = 2

                         Standard orientation:
 ---------------------------------------------------------------------
 Center     Atomic      Atomic             Coordinates (Angstroms)
 Number     Number       Type             X           Y           Z
 ---------------------------------------------------------------------
      1         11           0       -2.874567    2.074036    0.240309
      2         11           0        0.842717    3.642440    0.453077
      3         11           0        1.548047   -1.747702   -1.365835
      4         11           0       -4.424040   -0.746061   -0.176242
      5         11           0       -1.125120   -2.883576    0.204958
      6         11           0        3.041914    1.323860   -1.006320
      7         11           0        2.991048   -1.662998    1.650054
 ---------------------------------------------------------------------

 SCF Done:  E(UB3LYP) =  -1136.10865311     A.U. after   23 cycles

 The electronic state is 2-A.
 Alpha  occ. eigenvalues --  -38.44979 -38.44591 -38.44491 -38.44490 -38.44375
 Alpha  occ. eigenvalues --  -38.44017 -38.43987  -2.20760  -2.20404  -2.20335
 Alpha  occ. eigenvalues --   -2.20257  -2.20157  -2.19816  -2.19745  -1.14461
 Alpha  occ. eigenvalues --   -1.14426  -1.14381  -1.14067  -1.14052  -1.14031
 Alpha  occ. eigenvalues --   -1.14010  -1.14001  -1.13955  -1.13942  -1.13934
 Alpha  occ. eigenvalues --   -1.13909  -1.13824  -1.13795  -1.13784  -1.13477
 Alpha  occ. eigenvalues --   -1.13470  -1.13429  -1.13418  -1.13399  -1.13387
 Alpha  occ. eigenvalues --   -0.16360  -0.13712  -0.12765  -0.10058
 Alpha virt. eigenvalues --   -0.07295  -0.06425  -0.03911  -0.03246  -0.02912
 Alpha virt. eigenvalues --   -0.02668  -0.02252  -0.01783  -0.01468  -0.00938
 Alpha virt. eigenvalues --   -0.00374   0.00041   0.00169   0.00325   0.00579

  Beta  occ. eigenvalues --  -38.44974 -38.44500 -38.44483 -38.44470 -38.44361
  Beta  occ. eigenvalues --  -38.43974 -38.43958  -2.20753  -2.20328  -2.20235
  Beta  occ. eigenvalues --   -2.20221  -2.20134  -2.19722  -2.19708  -1.14461
  Beta  occ. eigenvalues --   -1.14423  -1.14355  -1.14024  -1.14007  -1.13957
  Beta  occ. eigenvalues --   -1.13936  -1.13918  -1.13913  -1.13911  -1.13882
  Beta  occ. eigenvalues --   -1.13874  -1.13810  -1.13780  -1.13750  -1.13403
  Beta  occ. eigenvalues --   -1.13400  -1.13396  -1.13385  -1.13369  -1.13359
  Beta  occ. eigenvalues --   -0.15874  -0.13184  -0.12239
  Beta virt. eigenvalues --   -0.07240  -0.06740  -0.06106  -0.03747  -0.03058
  Beta virt. eigenvalues --   -0.02694  -0.02129  -0.01918  -0.01478  -0.01156
  Beta virt. eigenvalues --   -0.00830  -0.00096   0.00112   0.00358   0.00442

 Mulliken charges and spin densities:
               1          2
     1  Na  -0.285436   0.093664
     2  Na  -0.017664   0.056378
     3  Na   0.327543   0.139713
     4  Na   0.409202   0.033424
     5  Na  -0.340936   0.200473
     6  Na  -0.079126   0.067392
     7  Na  -0.013583   0.408956
 Sum of Mulliken charges =  -0.00000   1.00000

 Dipole moment (field-independent basis, Debye):
    X=              0.2362    Y=             -0.3680    Z=              0.0593  Tot=              0.4413
 Quadrupole moment (field-independent basis, Debye-Ang):
   XX=            -66.6619   YY=            -70.5597   ZZ=            -66.6947
   XY=              3.7456   XZ=             -2.8021   YZ=              0.0671

 Normal termination of Gaussian 16 at Sun Dec  3 21:04:43 2023.
