 Gaussian 16, Revision B.01,
 Gaussian 16:  ES64L-G16RevB.01 20-Dec-2017

 -------------------------
 #P B3LYP/6-311+g(d) force
 -------------------------

 -----
 DPGEN
 -----
 Symbolic Z-matrix:
 Charge =  0 Multiplicity = 2

                         Standard orientation:
 ---------------------------------------------------------------------
 Center     Atomic      Atomic             Coordinates (Angstroms)
 Number     Number       Type             X           Y           Z
 ---------------------------------------------------------------------
      1         11           0       -3.227985   -0.576676   -0.157882
      2         11           0        2.609620    1.941598   -0.019037
      3         11           0       -0.723613   -2.903548    0.036108
      4         11           0       -2.234697    2.632523    0.157785
      5         11           0        0.187629   -0.195707    1.628621
      6         11           0        3.253093   -0.958460   -0.052318
      7         11           0        0.135952    0.060269   -1.593278
 ---------------------------------------------------------------------

 SCF Done:  E(UB3LYP) =  -1136.12689666     A.U. after   21 cycles

 The electronic state is 2-A.
 Alpha  occ. eigenvalues --  -38.45042 -38.44678 -38.44433 -38.43476 -38.43434
 Alpha  occ. eigenvalues --  -38.43106 -38.42827  -2.20899  -2.20507  -2.20299
 Alpha  occ. eigenvalues --   -2.19364  -2.19263  -2.19050  -2.18689  -1.14623
 Alpha  occ. eigenvalues --   -1.14547  -1.14532  -1.14185  -1.14166  -1.14144
 Alpha  occ. eigenvalues --   -1.13958  -1.13949  -1.13938  -1.13101  -1.12991
 Alpha  occ. eigenvalues --   -1.12970  -1.12930  -1.12926  -1.12909  -1.12755
 Alpha  occ. eigenvalues --   -1.12683  -1.12655  -1.12359  -1.12345  -1.12333
 Alpha  occ. eigenvalues --   -0.18491  -0.13961  -0.11749  -0.09964
 Alpha virt. eigenvalues --   -0.06511  -0.05739  -0.04421  -0.03406  -0.02329
 Alpha virt. eigenvalues --   -0.02208  -0.01893  -0.01390  -0.00755  -0.00524
 Alpha virt. eigenvalues --   -0.00018   0.00286   0.00631   0.00741   0.00836

  Beta  occ. eigenvalues --  -38.45035 -38.44675 -38.44426 -38.43478 -38.43368
  Beta  occ. eigenvalues --  -38.43028 -38.42823  -2.20891  -2.20504  -2.20290
  Beta  occ. eigenvalues --   -2.19268  -2.19243  -2.18909  -2.18684  -1.14623
  Beta  occ. eigenvalues --   -1.14532  -1.14507  -1.14166  -1.14163  -1.14149
  Beta  occ. eigenvalues --   -1.13957  -1.13945  -1.13902  -1.13011  -1.12935
  Beta  occ. eigenvalues --   -1.12920  -1.12915  -1.12901  -1.12879  -1.12654
  Beta  occ. eigenvalues --   -1.12582  -1.12552  -1.12354  -1.12335  -1.12312
  Beta  occ. eigenvalues --   -0.17785  -0.13744  -0.11549
  Beta virt. eigenvalues --   -0.06426  -0.06132  -0.05709  -0.04416  -0.02619
  Beta virt. eigenvalues --   -0.02205  -0.01579  -0.01354  -0.00987  -0.00737
  Beta virt. eigenvalues --   -0.00522   0.00169   0.00324   0.00690   0.00749

 Mulliken charges and spin densities:
               1          2
     1  Na   0.145726  -0.001193
     2  Na   0.100442   0.008947
     3  Na   0.024838  -0.082912
     4  Na  -0.104003  -0.068853
     5  Na  -0.276597   0.647144
     6  Na   0.354703   0.032353
     7  Na  -0.245109   0.464514
 Sum of Mulliken charges =  -0.00000   1.00000

 Dipole moment (field-independent basis, Debye):
    X=              0.6018    Y=             -0.1138    Z=             -0.0433  Tot=              0.6140
 Quadrupole moment (field-independent basis, Debye-Ang):
   XX=            -49.6350   YY=            -63.1738   ZZ=            -78.9366
   XY=              1.0288   XZ=              0.0992   YZ=              0.7324

 Normal termination of Gaussian 16 at Thu Dec  7 09:03:45 2023.
