 Gaussian 16, Revision B.01,
 Gaussian 16:  ES64L-G16RevB.01 20-Dec-2017

 -------------------------
 #P B3LYP/6-311+g(d) force
 -------------------------

 -----
 DPGEN
 -----
 Symbolic Z-matrix:
 Charge =  0 Multiplicity = 2

                         Standard orientation:
 ---------------------------------------------------------------------
 Center     Atomic      Atomic             Coordinates (Angstroms)
 Number     Number       Type             X           Y           Z
 ---------------------------------------------------------------------
      1         11           0        2.779413    1.102334   -0.465263
      2         11           0       -0.335622   -0.248933    2.153700
      3         11           0       -3.992745   -0.847913    0.310989
      4         11           0       -0.086927   -1.891704   -1.433482
      5         11           0        2.977080   -2.056892    0.368472
      6         11           0       -1.772782    1.032305   -1.106617
      7         11           0        0.431583    2.910803    0.172202
 ---------------------------------------------------------------------

 SCF Done:  E(UB3LYP) =  -1136.12169514     A.U. after   22 cycles

 The electronic state is 2-A.
 Alpha  occ. eigenvalues --  -38.45437 -38.44541 -38.44401 -38.44380 -38.43731
 Alpha  occ. eigenvalues --  -38.43564 -38.42614  -2.21200  -2.20389  -2.20210
 Alpha  occ. eigenvalues --   -2.20186  -2.19540  -2.19478  -2.18502  -1.14889
 Alpha  occ. eigenvalues --   -1.14855  -1.14833  -1.14077  -1.14056  -1.14033
 Alpha  occ. eigenvalues --   -1.13887  -1.13873  -1.13853  -1.13845  -1.13818
 Alpha  occ. eigenvalues --   -1.13781  -1.13223  -1.13192  -1.13180  -1.13168
 Alpha  occ. eigenvalues --   -1.13142  -1.13107  -1.12187  -1.12167  -1.12130
 Alpha  occ. eigenvalues --   -0.17901  -0.13452  -0.12007  -0.10695
 Alpha virt. eigenvalues --   -0.07053  -0.05231  -0.04173  -0.03569  -0.02791
 Alpha virt. eigenvalues --   -0.02718  -0.02413  -0.01214  -0.00483  -0.00332
 Alpha virt. eigenvalues --   -0.00017   0.00167   0.00368   0.00586   0.00772

  Beta  occ. eigenvalues --  -38.45444 -38.44538 -38.44335 -38.44300 -38.43734
  Beta  occ. eigenvalues --  -38.43534 -38.42612  -2.21213  -2.20384  -2.20105
  Beta  occ. eigenvalues --   -2.20023  -2.19548  -2.19425  -2.18501  -1.14899
  Beta  occ. eigenvalues --   -1.14851  -1.14843  -1.14078  -1.14040  -1.14030
  Beta  occ. eigenvalues --   -1.13830  -1.13787  -1.13745  -1.13725  -1.13715
  Beta  occ. eigenvalues --   -1.13685  -1.13230  -1.13187  -1.13184  -1.13132
  Beta  occ. eigenvalues --   -1.13088  -1.13070  -1.12189  -1.12165  -1.12110
  Beta  occ. eigenvalues --   -0.17196  -0.13370  -0.11829
  Beta virt. eigenvalues --   -0.06950  -0.06713  -0.05143  -0.04086  -0.02979
  Beta virt. eigenvalues --   -0.02369  -0.02102  -0.01657  -0.01123  -0.00518
  Beta virt. eigenvalues --   -0.00101   0.00042   0.00212   0.00540   0.00676

 Mulliken charges and spin densities:
               1          2
     1  Na  -0.511405   0.031314
     2  Na  -0.746938   0.751753
     3  Na   0.316211  -0.160490
     4  Na  -0.037559   0.147933
     5  Na   0.429052  -0.050970
     6  Na  -0.258866   0.331370
     7  Na   0.809505  -0.050909
 Sum of Mulliken charges =  -0.00000   1.00000

 Dipole moment (field-independent basis, Debye):
    X=             -0.7571    Y=             -0.7291    Z=              0.1546  Tot=              1.0624
 Quadrupole moment (field-independent basis, Debye-Ang):
   XX=            -49.9946   YY=            -70.2923   ZZ=            -74.0243
   XY=              1.6122   XZ=             -0.6139   YZ=             -0.6774

 Normal termination of Gaussian 16 at Thu Dec  7 07:12:10 2023.
