 Gaussian 16, Revision B.01,
 Gaussian 16:  ES64L-G16RevB.01 20-Dec-2017

 -------------------------
 #P B3LYP/6-311+g(d) force
 -------------------------

 -----
 DPGEN
 -----
 Symbolic Z-matrix:
 Charge =  0 Multiplicity = 2

                         Standard orientation:
 ---------------------------------------------------------------------
 Center     Atomic      Atomic             Coordinates (Angstroms)
 Number     Number       Type             X           Y           Z
 ---------------------------------------------------------------------
      1         11           0        4.553742   -0.264968   -0.496359
      2         11           0        2.632160    2.409601    0.211923
      3         11           0       -3.815970   -1.895864   -0.517541
      4         11           0       -3.009166    1.523906   -0.754417
      5         11           0        1.750842   -3.097099   -0.390046
      6         11           0       -1.233830    3.369313    0.424541
      7         11           0       -0.877778   -2.044889    1.521901
 ---------------------------------------------------------------------

 SCF Done:  E(UB3LYP) =  -1136.10673534     A.U. after   20 cycles

 The electronic state is 2-A.
 Alpha  occ. eigenvalues --  -38.45028 -38.44911 -38.44667 -38.44629 -38.44412
 Alpha  occ. eigenvalues --  -38.44061 -38.43517  -2.20779  -2.20677  -2.20517
 Alpha  occ. eigenvalues --   -2.20405  -2.20188  -2.19875  -2.19374  -1.14463
 Alpha  occ. eigenvalues --   -1.14448  -1.14406  -1.14357  -1.14351  -1.14314
 Alpha  occ. eigenvalues --   -1.14288  -1.14169  -1.14142  -1.14066  -1.14051
 Alpha  occ. eigenvalues --   -1.14026  -1.13855  -1.13837  -1.13826  -1.13525
 Alpha  occ. eigenvalues --   -1.13514  -1.13496  -1.13062  -1.12995  -1.12979
 Alpha  occ. eigenvalues --   -0.15852  -0.13817  -0.13166  -0.10676
 Alpha virt. eigenvalues --   -0.07287  -0.05209  -0.04278  -0.03454  -0.03381
 Alpha virt. eigenvalues --   -0.02413  -0.02102  -0.01847  -0.01238  -0.00939
 Alpha virt. eigenvalues --   -0.00524  -0.00046   0.00296   0.00478   0.00579

  Beta  occ. eigenvalues --  -38.45007 -38.44906 -38.44654 -38.44578 -38.44384
  Beta  occ. eigenvalues --  -38.43986 -38.43480  -2.20746  -2.20673  -2.20499
  Beta  occ. eigenvalues --   -2.20310  -2.20139  -2.19735  -2.19305  -1.14443
  Beta  occ. eigenvalues --   -1.14430  -1.14360  -1.14356  -1.14350  -1.14285
  Beta  occ. eigenvalues --   -1.14240  -1.14163  -1.14123  -1.14002  -1.13987
  Beta  occ. eigenvalues --   -1.13961  -1.13823  -1.13804  -1.13781  -1.13430
  Beta  occ. eigenvalues --   -1.13415  -1.13408  -1.13016  -1.12949  -1.12934
  Beta  occ. eigenvalues --   -0.15356  -0.13056  -0.12488
  Beta virt. eigenvalues --   -0.07523  -0.07384  -0.04831  -0.03946  -0.03133
  Beta virt. eigenvalues --   -0.03065  -0.02068  -0.01892  -0.01659  -0.00983
  Beta virt. eigenvalues --   -0.00763  -0.00241   0.00233   0.00317   0.00483

 Mulliken charges and spin densities:
               1          2
     1  Na   0.207628   0.078958
     2  Na  -0.115490   0.126601
     3  Na   0.260796   0.328453
     4  Na  -0.318683   0.127154
     5  Na  -0.017280   0.219295
     6  Na   0.219697   0.092269
     7  Na  -0.236669   0.027271
 Sum of Mulliken charges =  -0.00000   1.00000

 Dipole moment (field-independent basis, Debye):
    X=              0.4377    Y=             -0.7467    Z=             -0.0183  Tot=              0.8657
 Quadrupole moment (field-independent basis, Debye-Ang):
   XX=            -65.8392   YY=            -68.5958   ZZ=            -68.1029
   XY=             -1.7730   XZ=             -0.5551   YZ=              3.5852

 Normal termination of Gaussian 16 at Mon Dec  4 05:20:00 2023.
