 Gaussian 16, Revision B.01,
 Gaussian 16:  ES64L-G16RevB.01 20-Dec-2017

 -------------------------
 #P B3LYP/6-311+g(d) force
 -------------------------

 -----
 DPGEN
 -----
 Symbolic Z-matrix:
 Charge =  0 Multiplicity = 2

                         Standard orientation:
 ---------------------------------------------------------------------
 Center     Atomic      Atomic             Coordinates (Angstroms)
 Number     Number       Type             X           Y           Z
 ---------------------------------------------------------------------
      1         11           0       -3.155205    1.074797    0.297321
      2         11           0       -2.519267   -1.634453   -1.249093
      3         11           0        0.258153    0.466949   -0.991690
      4         11           0        0.599119    0.724253    2.215846
      5         11           0        0.352557   -2.359334    1.276533
      6         11           0        1.399858    3.450226   -0.610721
      7         11           0        3.064786   -1.722438   -0.938195
 ---------------------------------------------------------------------

 SCF Done:  E(UB3LYP) =  -1136.12345651     A.U. after   20 cycles

 The electronic state is 2-A.
 Alpha  occ. eigenvalues --  -38.44657 -38.44474 -38.44072 -38.43785 -38.43575
 Alpha  occ. eigenvalues --  -38.43567 -38.42857  -2.20448  -2.20256  -2.19947
 Alpha  occ. eigenvalues --   -2.19621  -2.19432  -2.19355  -2.18831  -1.14119
 Alpha  occ. eigenvalues --   -1.14110  -1.14094  -1.13920  -1.13904  -1.13877
 Alpha  occ. eigenvalues --   -1.13650  -1.13573  -1.13549  -1.13294  -1.13267
 Alpha  occ. eigenvalues --   -1.13255  -1.13124  -1.13081  -1.13049  -1.13044
 Alpha  occ. eigenvalues --   -1.13005  -1.12985  -1.12560  -1.12470  -1.12454
 Alpha  occ. eigenvalues --   -0.17822  -0.12709  -0.11952  -0.11164
 Alpha virt. eigenvalues --   -0.06217  -0.05188  -0.04250  -0.03221  -0.02990
 Alpha virt. eigenvalues --   -0.02638  -0.01851  -0.01389  -0.00571  -0.00003
 Alpha virt. eigenvalues --    0.00033   0.00300   0.00374   0.00621   0.00736

  Beta  occ. eigenvalues --  -38.44662 -38.44436 -38.43984 -38.43770 -38.43559
  Beta  occ. eigenvalues --  -38.43547 -38.42830  -2.20460  -2.20185  -2.19786
  Beta  occ. eigenvalues --   -2.19593  -2.19386  -2.19340  -2.18785  -1.14121
  Beta  occ. eigenvalues --   -1.14115  -1.14101  -1.13863  -1.13856  -1.13834
  Beta  occ. eigenvalues --   -1.13544  -1.13465  -1.13421  -1.13269  -1.13249
  Beta  occ. eigenvalues --   -1.13238  -1.13084  -1.13043  -1.13029  -1.13005
  Beta  occ. eigenvalues --   -1.12996  -1.12976  -1.12507  -1.12437  -1.12421
  Beta  occ. eigenvalues --   -0.17121  -0.12450  -0.11804
  Beta virt. eigenvalues --   -0.07286  -0.05992  -0.05034  -0.03973  -0.02732
  Beta virt. eigenvalues --   -0.02649  -0.01817  -0.01604  -0.01292  -0.00341
  Beta virt. eigenvalues --    0.00077   0.00108   0.00374   0.00442   0.00666

 Mulliken charges and spin densities:
               1          2
     1  Na  -0.100196   0.065343
     2  Na   0.484545  -0.033355
     3  Na  -0.712169   0.124021
     4  Na   0.099477   0.422072
     5  Na   0.037242   0.168210
     6  Na   0.274670   0.086096
     7  Na  -0.083569   0.167613
 Sum of Mulliken charges =  -0.00000   1.00000

 Dipole moment (field-independent basis, Debye):
    X=             -0.1958    Y=             -0.0197    Z=              0.2172  Tot=              0.2931
 Quadrupole moment (field-independent basis, Debye-Ang):
   XX=            -60.2629   YY=            -62.6023   ZZ=            -69.8589
   XY=             -1.1849   XZ=             -2.8012   YZ=              2.1787

 Normal termination of Gaussian 16 at Tue Dec  5 18:19:07 2023.
