 Gaussian 16, Revision B.01,
 Gaussian 16:  ES64L-G16RevB.01 20-Dec-2017

 -------------------------
 #P B3LYP/6-311+g(d) force
 -------------------------

 -----
 DPGEN
 -----
 Symbolic Z-matrix:
 Charge =  0 Multiplicity = 2

                         Standard orientation:
 ---------------------------------------------------------------------
 Center     Atomic      Atomic             Coordinates (Angstroms)
 Number     Number       Type             X           Y           Z
 ---------------------------------------------------------------------
      1         11           0       -0.864704   -1.294810    2.050556
      2         11           0       -3.618646   -1.276883   -1.028029
      3         11           0        0.780330    2.383118    0.295350
      4         11           0       -0.127432   -0.766926   -1.421551
      5         11           0        3.832356   -0.139725   -1.340774
      6         11           0       -2.639802    1.904462    0.195265
      7         11           0        2.637898   -0.809237    1.249183
 ---------------------------------------------------------------------

 SCF Done:  E(UB3LYP) =  -1136.11875492     A.U. after   27 cycles

 The electronic state is 2-A.
 Alpha  occ. eigenvalues --  -38.45248 -38.44829 -38.44815 -38.44575 -38.43868
 Alpha  occ. eigenvalues --  -38.43737 -38.42325  -2.21052  -2.20674  -2.20635
 Alpha  occ. eigenvalues --   -2.20454  -2.19672  -2.19543  -2.18140  -1.14772
 Alpha  occ. eigenvalues --   -1.14719  -1.14660  -1.14457  -1.14308  -1.14301
 Alpha  occ. eigenvalues --   -1.14289  -1.14264  -1.14240  -1.14105  -1.14091
 Alpha  occ. eigenvalues --   -1.14065  -1.13341  -1.13337  -1.13297  -1.13231
 Alpha  occ. eigenvalues --   -1.13198  -1.13172  -1.11834  -1.11814  -1.11758
 Alpha  occ. eigenvalues --   -0.17921  -0.14189  -0.11611  -0.10674
 Alpha virt. eigenvalues --   -0.07000  -0.05388  -0.04873  -0.03317  -0.02863
 Alpha virt. eigenvalues --   -0.02631  -0.02115  -0.01351  -0.00981  -0.00421
 Alpha virt. eigenvalues --   -0.00048   0.00186   0.00265   0.00376   0.00720

  Beta  occ. eigenvalues --  -38.45241 -38.44790 -38.44719 -38.44552 -38.43846
  Beta  occ. eigenvalues --  -38.43737 -38.42320  -2.21041  -2.20599  -2.20459
  Beta  occ. eigenvalues --   -2.20417  -2.19631  -2.19543  -2.18133  -1.14748
  Beta  occ. eigenvalues --   -1.14712  -1.14654  -1.14409  -1.14250  -1.14236
  Beta  occ. eigenvalues --   -1.14188  -1.14143  -1.14109  -1.14077  -1.14068
  Beta  occ. eigenvalues --   -1.14003  -1.13314  -1.13302  -1.13274  -1.13227
  Beta  occ. eigenvalues --   -1.13199  -1.13168  -1.11829  -1.11801  -1.11757
  Beta  occ. eigenvalues --   -0.17247  -0.13874  -0.10592
  Beta virt. eigenvalues --   -0.07658  -0.06806  -0.05001  -0.04502  -0.02975
  Beta virt. eigenvalues --   -0.02680  -0.02032  -0.01631  -0.01107  -0.00674
  Beta virt. eigenvalues --   -0.00277   0.00055   0.00256   0.00386   0.00479

 Mulliken charges and spin densities:
               1          2
     1  Na  -0.059374   0.352401
     2  Na   0.843437   0.188596
     3  Na  -0.355781   0.039365
     4  Na  -1.226161   0.127845
     5  Na   1.016003   0.179654
     6  Na  -0.121241  -0.011674
     7  Na  -0.096883   0.123813
 Sum of Mulliken charges =  -0.00000   1.00000

 Dipole moment (field-independent basis, Debye):
    X=              0.3286    Y=             -0.4444    Z=             -0.0563  Tot=              0.5555
 Quadrupole moment (field-independent basis, Debye-Ang):
   XX=            -50.7069   YY=            -81.0733   ZZ=            -65.9049
   XY=              0.5524   XZ=             -2.6055   YZ=             -2.2325

 Normal termination of Gaussian 16 at Fri Dec  8 02:08:30 2023.
