 Gaussian 16, Revision B.01,
 Gaussian 16:  ES64L-G16RevB.01 20-Dec-2017

 -------------------------
 #P B3LYP/6-311+g(d) force
 -------------------------

 -----
 DPGEN
 -----
 Symbolic Z-matrix:
 Charge =  0 Multiplicity = 2

                         Standard orientation:
 ---------------------------------------------------------------------
 Center     Atomic      Atomic             Coordinates (Angstroms)
 Number     Number       Type             X           Y           Z
 ---------------------------------------------------------------------
      1         11           0       -3.539603   -0.525276    0.259242
      2         11           0       -0.799694   -2.206042   -0.722901
      3         11           0        2.327577    2.173783   -0.229110
      4         11           0        0.502925   -0.165899    2.141061
      5         11           0        0.346842    0.256898   -1.578509
      6         11           0       -1.702067    2.195514    0.006451
      7         11           0        2.864020   -1.728978    0.123766
 ---------------------------------------------------------------------

 SCF Done:  E(UB3LYP) =  -1136.12637091     A.U. after   21 cycles

 The electronic state is 2-A.
 Alpha  occ. eigenvalues --  -38.44545 -38.44316 -38.44139 -38.43836 -38.43573
 Alpha  occ. eigenvalues --  -38.43330 -38.43211  -2.20355  -2.20119  -2.19993
 Alpha  occ. eigenvalues --   -2.19667  -2.19418  -2.19376  -2.19122  -1.14028
 Alpha  occ. eigenvalues --   -1.14013  -1.14002  -1.13800  -1.13775  -1.13761
 Alpha  occ. eigenvalues --   -1.13656  -1.13620  -1.13609  -1.13414  -1.13315
 Alpha  occ. eigenvalues --   -1.13286  -1.13203  -1.13146  -1.13086  -1.13036
 Alpha  occ. eigenvalues --   -1.12994  -1.12957  -1.12765  -1.12756  -1.12693
 Alpha  occ. eigenvalues --   -0.18581  -0.13371  -0.11875  -0.10947
 Alpha virt. eigenvalues --   -0.06246  -0.05529  -0.03729  -0.03438  -0.02782
 Alpha virt. eigenvalues --   -0.02696  -0.01991  -0.01369  -0.00312  -0.00110
 Alpha virt. eigenvalues --    0.00036   0.00278   0.00687   0.00734   0.00816

  Beta  occ. eigenvalues --  -38.44546 -38.44313 -38.44049 -38.43828 -38.43568
  Beta  occ. eigenvalues --  -38.43259 -38.43185  -2.20359  -2.20118  -2.19826
  Beta  occ. eigenvalues --   -2.19657  -2.19413  -2.19249  -2.19078  -1.14033
  Beta  occ. eigenvalues --   -1.14006  -1.14004  -1.13780  -1.13775  -1.13758
  Beta  occ. eigenvalues --   -1.13545  -1.13504  -1.13489  -1.13389  -1.13297
  Beta  occ. eigenvalues --   -1.13282  -1.13132  -1.13123  -1.13067  -1.13033
  Beta  occ. eigenvalues --   -1.12909  -1.12877  -1.12725  -1.12693  -1.12669
  Beta  occ. eigenvalues --   -0.17866  -0.13167  -0.11613
  Beta virt. eigenvalues --   -0.07038  -0.06074  -0.05541  -0.03711  -0.02732
  Beta virt. eigenvalues --   -0.01989  -0.01910  -0.01643  -0.01312  -0.00329
  Beta virt. eigenvalues --   -0.00015   0.00090   0.00304   0.00753   0.00804

 Mulliken charges and spin densities:
               1          2
     1  Na  -0.201168  -0.020295
     2  Na   0.559564   0.149167
     3  Na   0.132492  -0.041652
     4  Na  -0.635257   0.743125
     5  Na  -0.264367   0.086432
     6  Na   0.252055   0.091155
     7  Na   0.156680  -0.007932
 Sum of Mulliken charges =  -0.00000   1.00000

 Dipole moment (field-independent basis, Debye):
    X=              0.1653    Y=             -0.0540    Z=              0.4940  Tot=              0.5237
 Quadrupole moment (field-independent basis, Debye-Ang):
   XX=            -50.3069   YY=            -68.8422   ZZ=            -73.7684
   XY=             -0.0420   XZ=             -1.0704   YZ=              0.4924

 Normal termination of Gaussian 16 at Thu Dec  7 06:45:38 2023.
