 Gaussian 16, Revision B.01,
 Gaussian 16:  ES64L-G16RevB.01 20-Dec-2017

 -------------------------
 #P B3LYP/6-311+g(d) force
 -------------------------

 -----
 DPGEN
 -----
 Symbolic Z-matrix:
 Charge =  0 Multiplicity = 2

                         Standard orientation:
 ---------------------------------------------------------------------
 Center     Atomic      Atomic             Coordinates (Angstroms)
 Number     Number       Type             X           Y           Z
 ---------------------------------------------------------------------
      1         11           0       -2.655102   -1.720107    0.229367
      2         11           0       -0.961987    0.490720   -1.455943
      3         11           0        2.157288    2.244386   -0.459907
      4         11           0        3.507793   -0.613641    0.137544
      5         11           0       -2.605794    2.338649    0.281585
      6         11           0        0.245715   -2.484550   -0.848252
      7         11           0        0.312088   -0.255457    2.115605
 ---------------------------------------------------------------------

 SCF Done:  E(UB3LYP) =  -1136.12608613     A.U. after   20 cycles

 The electronic state is 2-A.
 Alpha  occ. eigenvalues --  -38.44570 -38.44403 -38.44333 -38.43971 -38.43876
 Alpha  occ. eigenvalues --  -38.43137 -38.43057  -2.20370  -2.20259  -2.20130
 Alpha  occ. eigenvalues --   -2.19806  -2.19684  -2.19110  -2.18942  -1.14058
 Alpha  occ. eigenvalues --   -1.14033  -1.14014  -1.13950  -1.13916  -1.13895
 Alpha  occ. eigenvalues --   -1.13801  -1.13785  -1.13760  -1.13471  -1.13438
 Alpha  occ. eigenvalues --   -1.13420  -1.13412  -1.13327  -1.13318  -1.12794
 Alpha  occ. eigenvalues --   -1.12769  -1.12740  -1.12614  -1.12588  -1.12567
 Alpha  occ. eigenvalues --   -0.18147  -0.13450  -0.11925  -0.10598
 Alpha virt. eigenvalues --   -0.06090  -0.05914  -0.04201  -0.03447  -0.02755
 Alpha virt. eigenvalues --   -0.02465  -0.01838  -0.01424  -0.00658  -0.00266
 Alpha virt. eigenvalues --   -0.00038   0.00304   0.00645   0.00715   0.00790

  Beta  occ. eigenvalues --  -38.44571 -38.44400 -38.44323 -38.43877 -38.43875
  Beta  occ. eigenvalues --  -38.43093 -38.43035  -2.20374  -2.20256  -2.20114
  Beta  occ. eigenvalues --   -2.19687  -2.19628  -2.19032  -2.18903  -1.14061
  Beta  occ. eigenvalues --   -1.14024  -1.14015  -1.13946  -1.13906  -1.13881
  Beta  occ. eigenvalues --   -1.13781  -1.13770  -1.13752  -1.13410  -1.13350
  Beta  occ. eigenvalues --   -1.13325  -1.13316  -1.13313  -1.13290  -1.12745
  Beta  occ. eigenvalues --   -1.12705  -1.12681  -1.12584  -1.12555  -1.12528
  Beta  occ. eigenvalues --   -0.17441  -0.13292  -0.11734
  Beta virt. eigenvalues --   -0.06724  -0.05938  -0.05844  -0.04122  -0.02767
  Beta virt. eigenvalues --   -0.02136  -0.01746  -0.01460  -0.01322  -0.00645
  Beta virt. eigenvalues --   -0.00233   0.00110   0.00350   0.00708   0.00778

 Mulliken charges and spin densities:
               1          2
     1  Na   0.188650   0.107856
     2  Na   0.375289   0.071136
     3  Na  -0.095938  -0.030893
     4  Na   0.164619   0.029044
     5  Na  -0.121958   0.022128
     6  Na  -0.074661   0.082256
     7  Na  -0.436001   0.718474
 Sum of Mulliken charges =  -0.00000   1.00000

 Dipole moment (field-independent basis, Debye):
    X=              0.2104    Y=             -0.0796    Z=              0.3504  Tot=              0.4164
 Quadrupole moment (field-independent basis, Debye-Ang):
   XX=            -52.8272   YY=            -66.1682   ZZ=            -74.9996
   XY=              0.0071   XZ=             -2.6631   YZ=              0.9475

 Normal termination of Gaussian 16 at Fri Dec  8 03:04:31 2023.
