 Gaussian 16, Revision B.01,
 Gaussian 16:  ES64L-G16RevB.01 20-Dec-2017

 -------------------------
 #P B3LYP/6-311+g(d) force
 -------------------------

 -----
 DPGEN
 -----
 Symbolic Z-matrix:
 Charge =  0 Multiplicity = 2

                         Standard orientation:
 ---------------------------------------------------------------------
 Center     Atomic      Atomic             Coordinates (Angstroms)
 Number     Number       Type             X           Y           Z
 ---------------------------------------------------------------------
      1         11           0        0.590169   -0.793358    1.217922
      2         11           0        2.174944   -3.125828   -0.292006
      3         11           0        4.130774   -0.221812   -0.489756
      4         11           0       -0.152839    1.463825   -1.143776
      5         11           0       -3.146807   -0.052162    1.117794
      6         11           0        1.856501    3.163792    0.416659
      7         11           0       -5.452741   -0.434456   -0.826837
 ---------------------------------------------------------------------

 SCF Done:  E(UB3LYP) =  -1136.11635878     A.U. after   19 cycles

 The electronic state is 2-A.
 Alpha  occ. eigenvalues --  -38.44751 -38.44737 -38.43998 -38.43878 -38.43848
 Alpha  occ. eigenvalues --  -38.43822 -38.43560  -2.20580  -2.20540  -2.19883
 Alpha  occ. eigenvalues --   -2.19692  -2.19675  -2.19635  -2.19378  -1.14262
 Alpha  occ. eigenvalues --   -1.14259  -1.14218  -1.14205  -1.14178  -1.14145
 Alpha  occ. eigenvalues --   -1.13583  -1.13533  -1.13509  -1.13375  -1.13365
 Alpha  occ. eigenvalues --   -1.13342  -1.13327  -1.13304  -1.13303  -1.13299
 Alpha  occ. eigenvalues --   -1.13295  -1.13265  -1.13045  -1.13042  -1.13016
 Alpha  occ. eigenvalues --   -0.17029  -0.13656  -0.12226  -0.10761
 Alpha virt. eigenvalues --   -0.06207  -0.05711  -0.04633  -0.03588  -0.02753
 Alpha virt. eigenvalues --   -0.02313  -0.01991  -0.01513  -0.01179  -0.00635
 Alpha virt. eigenvalues --   -0.00444  -0.00010   0.00291   0.00475   0.00672

  Beta  occ. eigenvalues --  -38.44731 -38.44682 -38.43943 -38.43873 -38.43826
  Beta  occ. eigenvalues --  -38.43777 -38.43563  -2.20570  -2.20410  -2.19783
  Beta  occ. eigenvalues --   -2.19682  -2.19644  -2.19543  -2.19392  -1.14258
  Beta  occ. eigenvalues --   -1.14248  -1.14190  -1.14130  -1.14092  -1.14052
  Beta  occ. eigenvalues --   -1.13520  -1.13467  -1.13433  -1.13361  -1.13335
  Beta  occ. eigenvalues --   -1.13313  -1.13307  -1.13299  -1.13283  -1.13265
  Beta  occ. eigenvalues --   -1.13215  -1.13213  -1.13061  -1.13053  -1.12969
  Beta  occ. eigenvalues --   -0.16432  -0.13009  -0.12059
  Beta virt. eigenvalues --   -0.07418  -0.05933  -0.05171  -0.04357  -0.03264
  Beta virt. eigenvalues --   -0.02460  -0.02222  -0.01549  -0.01204  -0.01010
  Beta virt. eigenvalues --   -0.00461  -0.00139   0.00161   0.00452   0.00562

 Mulliken charges and spin densities:
               1          2
     1  Na  -0.474986   0.250112
     2  Na   0.449869  -0.062979
     3  Na   0.113191   0.448310
     4  Na  -0.204784  -0.069516
     5  Na  -0.081991   0.000973
     6  Na   0.207690   0.101207
     7  Na  -0.008989   0.331893
 Sum of Mulliken charges =  -0.00000   1.00000

 Dipole moment (field-independent basis, Debye):
    X=              1.0045    Y=              0.1330    Z=             -0.4592  Tot=              1.1125
 Quadrupole moment (field-independent basis, Debye-Ang):
   XX=            -70.6107   YY=            -67.8607   ZZ=            -64.0337
   XY=              1.2365   XZ=              3.8783   YZ=              3.7529

 Normal termination of Gaussian 16 at Tue Nov 28 20:58:13 2023.
