 Gaussian 16, Revision B.01,
 Gaussian 16:  ES64L-G16RevB.01 20-Dec-2017

 -------------------------
 #P B3LYP/6-311+g(d) force
 -------------------------

 -----
 DPGEN
 -----
 Symbolic Z-matrix:
 Charge =  0 Multiplicity = 2

                         Standard orientation:
 ---------------------------------------------------------------------
 Center     Atomic      Atomic             Coordinates (Angstroms)
 Number     Number       Type             X           Y           Z
 ---------------------------------------------------------------------
      1         11           0        3.510071   -1.224279   -0.263098
      2         11           0       -0.233555    0.026104   -1.570676
      3         11           0       -3.481441   -0.237291   -0.239179
      4         11           0       -0.217350   -0.458693    1.615885
      5         11           0       -1.108780    3.056020    0.167288
      6         11           0        2.333630    1.860072    0.157271
      7         11           0       -0.802575   -3.021933    0.132509
 ---------------------------------------------------------------------

 SCF Done:  E(UB3LYP) =  -1136.12783107     A.U. after   22 cycles

 The electronic state is 2-A.
 Alpha  occ. eigenvalues --  -38.44916 -38.44338 -38.43812 -38.43780 -38.43694
 Alpha  occ. eigenvalues --  -38.43456 -38.43071  -2.20702  -2.20114  -2.19694
 Alpha  occ. eigenvalues --   -2.19662  -2.19534  -2.19253  -2.19026  -1.14378
 Alpha  occ. eigenvalues --   -1.14352  -1.14331  -1.13787  -1.13774  -1.13745
 Alpha  occ. eigenvalues --   -1.13435  -1.13392  -1.13343  -1.13303  -1.13300
 Alpha  occ. eigenvalues --   -1.13270  -1.13213  -1.13208  -1.13158  -1.12929
 Alpha  occ. eigenvalues --   -1.12908  -1.12898  -1.12720  -1.12640  -1.12630
 Alpha  occ. eigenvalues --   -0.18145  -0.13207  -0.12229  -0.09892
 Alpha virt. eigenvalues --   -0.06540  -0.05118  -0.05101  -0.02954  -0.02568
 Alpha virt. eigenvalues --   -0.02283  -0.01802  -0.01421  -0.00954  -0.00562
 Alpha virt. eigenvalues --   -0.00048   0.00226   0.00657   0.00720   0.00761

  Beta  occ. eigenvalues --  -38.44895 -38.44326 -38.43800 -38.43735 -38.43689
  Beta  occ. eigenvalues --  -38.43453 -38.42995  -2.20665  -2.20093  -2.19643
  Beta  occ. eigenvalues --   -2.19611  -2.19528  -2.19250  -2.18886  -1.14334
  Beta  occ. eigenvalues --   -1.14329  -1.14308  -1.13775  -1.13751  -1.13731
  Beta  occ. eigenvalues --   -1.13387  -1.13350  -1.13298  -1.13271  -1.13255
  Beta  occ. eigenvalues --   -1.13239  -1.13202  -1.13200  -1.13142  -1.12922
  Beta  occ. eigenvalues --   -1.12906  -1.12885  -1.12625  -1.12539  -1.12532
  Beta  occ. eigenvalues --   -0.17539  -0.12904  -0.11953
  Beta virt. eigenvalues --   -0.06513  -0.06092  -0.05102  -0.05019  -0.02351
  Beta virt. eigenvalues --   -0.02125  -0.01867  -0.01329  -0.00985  -0.00935
  Beta virt. eigenvalues --   -0.00564   0.00108   0.00305   0.00691   0.00789

 Mulliken charges and spin densities:
               1          2
     1  Na   0.010053   0.058836
     2  Na  -0.203830   0.623174
     3  Na   0.091267   0.038903
     4  Na   0.034642   0.438463
     5  Na  -0.074882  -0.071979
     6  Na   0.038954   0.001737
     7  Na   0.103796  -0.089136
 Sum of Mulliken charges =  -0.00000   1.00000

 Dipole moment (field-independent basis, Debye):
    X=             -0.4453    Y=             -0.3038    Z=              0.0630  Tot=              0.5427
 Quadrupole moment (field-independent basis, Debye-Ang):
   XX=            -53.8263   YY=            -60.8913   ZZ=            -77.2878
   XY=             -0.8060   XZ=             -0.6540   YZ=              1.7008

 Normal termination of Gaussian 16 at Fri Dec  8 00:56:19 2023.
