 Gaussian 16, Revision B.01,
 Gaussian 16:  ES64L-G16RevB.01 20-Dec-2017

 -------------------------
 #P B3LYP/6-311+g(d) force
 -------------------------

 -----
 DPGEN
 -----
 Symbolic Z-matrix:
 Charge =  0 Multiplicity = 2

                         Standard orientation:
 ---------------------------------------------------------------------
 Center     Atomic      Atomic             Coordinates (Angstroms)
 Number     Number       Type             X           Y           Z
 ---------------------------------------------------------------------
      1         11           0       -2.609083    2.964269    0.284964
      2         11           0       -4.852337   -0.492947   -0.754960
      3         11           0       -2.590424   -1.846061    0.567632
      4         11           0        0.857605   -2.130531   -0.271266
      5         11           0        0.333500    1.343485   -0.042523
      6         11           0        3.064104   -0.366433    0.898637
      7         11           0        5.796635    0.528218   -0.682485
 ---------------------------------------------------------------------

 SCF Done:  E(UB3LYP) =  -1136.10848122     A.U. after   25 cycles

 The electronic state is 2-A.
 Alpha  occ. eigenvalues --  -38.45263 -38.45244 -38.44481 -38.44327 -38.44043
 Alpha  occ. eigenvalues --  -38.43527 -38.43392  -2.21084  -2.21049  -2.20326
 Alpha  occ. eigenvalues --   -2.20218  -2.19874  -2.19394  -2.19170  -1.14803
 Alpha  occ. eigenvalues --   -1.14720  -1.14686  -1.14678  -1.14675  -1.14670
 Alpha  occ. eigenvalues --   -1.14020  -1.13983  -1.13964  -1.13914  -1.13869
 Alpha  occ. eigenvalues --   -1.13864  -1.13568  -1.13521  -1.13516  -1.13067
 Alpha  occ. eigenvalues --   -1.13050  -1.13024  -1.12840  -1.12836  -1.12798
 Alpha  occ. eigenvalues --   -0.16926  -0.14558  -0.12157  -0.11485
 Alpha virt. eigenvalues --   -0.06175  -0.05526  -0.04836  -0.03315  -0.02987
 Alpha virt. eigenvalues --   -0.02710  -0.02242  -0.01162  -0.01041  -0.00872
 Alpha virt. eigenvalues --   -0.00518  -0.00179   0.00241   0.00294   0.00658

  Beta  occ. eigenvalues --  -38.45201 -38.45139 -38.44426 -38.44323 -38.44039
  Beta  occ. eigenvalues --  -38.43522 -38.43370  -2.20972  -2.20854  -2.20229
  Beta  occ. eigenvalues --   -2.20219  -2.19871  -2.19384  -2.19132  -1.14720
  Beta  occ. eigenvalues --   -1.14645  -1.14601  -1.14552  -1.14545  -1.14541
  Beta  occ. eigenvalues --   -1.13961  -1.13930  -1.13916  -1.13904  -1.13849
  Beta  occ. eigenvalues --   -1.13805  -1.13556  -1.13525  -1.13502  -1.13063
  Beta  occ. eigenvalues --   -1.13034  -1.13030  -1.12814  -1.12802  -1.12771
  Beta  occ. eigenvalues --   -0.16431  -0.13651  -0.11020
  Beta virt. eigenvalues --   -0.08649  -0.05739  -0.05454  -0.04672  -0.03031
  Beta virt. eigenvalues --   -0.02707  -0.02216  -0.01783  -0.01076  -0.00755
  Beta virt. eigenvalues --   -0.00502  -0.00230  -0.00058   0.00245   0.00353

 Mulliken charges and spin densities:
               1          2
     1  Na   0.346403  -0.067461
     2  Na   0.234729   0.087292
     3  Na  -0.349179   0.278412
     4  Na   0.027624  -0.098512
     5  Na  -1.191038   0.296357
     6  Na   0.904368   0.052832
     7  Na   0.027093   0.451080
 Sum of Mulliken charges =  -0.00000   1.00000

 Dipole moment (field-independent basis, Debye):
    X=              0.3208    Y=             -0.4198    Z=             -0.6061  Tot=              0.8041
 Quadrupole moment (field-independent basis, Debye-Ang):
   XX=            -50.9749   YY=            -75.6178   ZZ=            -68.4289
   XY=             -1.0566   XZ=             -0.0424   YZ=             -0.2544

 Normal termination of Gaussian 16 at Wed Nov 29 03:26:20 2023.
