 Gaussian 16, Revision B.01,
 Gaussian 16:  ES64L-G16RevB.01 20-Dec-2017

 -------------------------
 #P B3LYP/6-311+g(d) force
 -------------------------

 -----
 DPGEN
 -----
 Symbolic Z-matrix:
 Charge =  0 Multiplicity = 2

                         Standard orientation:
 ---------------------------------------------------------------------
 Center     Atomic      Atomic             Coordinates (Angstroms)
 Number     Number       Type             X           Y           Z
 ---------------------------------------------------------------------
      1         11           0       -4.043351    0.568602    0.727979
      2         11           0        2.339611    2.675966    0.361921
      3         11           0       -1.240027    1.071131   -1.440595
      4         11           0        1.715447   -0.029123   -1.160435
      5         11           0       -0.194197   -0.159419    1.645801
      6         11           0        2.690447   -1.982472    0.618906
      7         11           0       -1.267929   -2.144684   -0.753578
 ---------------------------------------------------------------------

 SCF Done:  E(UB3LYP) =  -1136.11828922     A.U. after   22 cycles

 The electronic state is 2-A.
 Alpha  occ. eigenvalues --  -38.44982 -38.44509 -38.44129 -38.43928 -38.43492
 Alpha  occ. eigenvalues --  -38.43267 -38.43153  -2.20752  -2.20400  -2.19990
 Alpha  occ. eigenvalues --   -2.19790  -2.19414  -2.19213  -2.19067  -1.14418
 Alpha  occ. eigenvalues --   -1.14412  -1.14363  -1.14127  -1.14045  -1.14004
 Alpha  occ. eigenvalues --   -1.13802  -1.13621  -1.13575  -1.13497  -1.13465
 Alpha  occ. eigenvalues --   -1.13376  -1.13155  -1.13060  -1.13015  -1.12894
 Alpha  occ. eigenvalues --   -1.12879  -1.12837  -1.12728  -1.12709  -1.12678
 Alpha  occ. eigenvalues --   -0.18638  -0.13563  -0.11348  -0.10930
 Alpha virt. eigenvalues --   -0.06779  -0.05264  -0.04139  -0.03120  -0.02572
 Alpha virt. eigenvalues --   -0.02427  -0.02151  -0.01214  -0.00866  -0.00123
 Alpha virt. eigenvalues --    0.00132   0.00165   0.00407   0.00639   0.00705

  Beta  occ. eigenvalues --  -38.44947 -38.44468 -38.44122 -38.43898 -38.43439
  Beta  occ. eigenvalues --  -38.43268 -38.43124  -2.20687  -2.20324  -2.19978
  Beta  occ. eigenvalues --   -2.19740  -2.19324  -2.19167  -2.19070  -1.14373
  Beta  occ. eigenvalues --   -1.14363  -1.14323  -1.14069  -1.13993  -1.13945
  Beta  occ. eigenvalues --   -1.13796  -1.13602  -1.13566  -1.13463  -1.13400
  Beta  occ. eigenvalues --   -1.13348  -1.13087  -1.12974  -1.12956  -1.12860
  Beta  occ. eigenvalues --   -1.12819  -1.12816  -1.12724  -1.12706  -1.12666
  Beta  occ. eigenvalues --   -0.17887  -0.13269  -0.11206
  Beta virt. eigenvalues --   -0.07112  -0.06497  -0.05156  -0.03711  -0.02908
  Beta virt. eigenvalues --   -0.02290  -0.01888  -0.01457  -0.01091  -0.00516
  Beta virt. eigenvalues --   -0.00031   0.00163   0.00242   0.00514   0.00719

 Mulliken charges and spin densities:
               1          2
     1  Na   0.191659   0.178037
     2  Na  -0.053676  -0.020626
     3  Na  -0.120268   0.172416
     4  Na   0.058054   0.164696
     5  Na  -0.525259   0.541560
     6  Na   0.366402  -0.069762
     7  Na   0.083087   0.033678
 Sum of Mulliken charges =  -0.00000   1.00000

 Dipole moment (field-independent basis, Debye):
    X=             -0.9804    Y=             -0.4004    Z=              0.3831  Tot=              1.1262
 Quadrupole moment (field-independent basis, Debye-Ang):
   XX=            -52.4524   YY=            -69.4777   ZZ=            -70.5218
   XY=             -1.1188   XZ=              0.8448   YZ=              1.8338

 Normal termination of Gaussian 16 at Thu Dec  7 21:27:17 2023.
