 Gaussian 16, Revision B.01,
 Gaussian 16:  ES64L-G16RevB.01 20-Dec-2017

 -------------------------
 #P B3LYP/6-311+g(d) force
 -------------------------

 -----
 DPGEN
 -----
 Symbolic Z-matrix:
 Charge =  0 Multiplicity = 2

                         Standard orientation:
 ---------------------------------------------------------------------
 Center     Atomic      Atomic             Coordinates (Angstroms)
 Number     Number       Type             X           Y           Z
 ---------------------------------------------------------------------
      1         11           0       -2.194559    2.003918   -0.129997
      2         11           0        1.080608    2.561351    0.249277
      3         11           0        3.066833   -0.293902   -0.321436
      4         11           0        0.057958   -0.003314   -1.645450
      5         11           0        0.767993   -2.750016    0.212279
      6         11           0        0.185109    0.045746    1.654621
      7         11           0       -2.963943   -1.563783   -0.019294
 ---------------------------------------------------------------------

 SCF Done:  E(UB3LYP) =  -1136.13610145     A.U. after   19 cycles

 The electronic state is 2-A.
 Alpha  occ. eigenvalues --  -38.44134 -38.43861 -38.43683 -38.43494 -38.43168
 Alpha  occ. eigenvalues --  -38.43006 -38.42971  -2.19913  -2.19742  -2.19546
 Alpha  occ. eigenvalues --   -2.19371  -2.19104  -2.19014  -2.19001  -1.13591
 Alpha  occ. eigenvalues --   -1.13567  -1.13557  -1.13424  -1.13398  -1.13384
 Alpha  occ. eigenvalues --   -1.13234  -1.13214  -1.13176  -1.13085  -1.13042
 Alpha  occ. eigenvalues --   -1.12981  -1.12898  -1.12778  -1.12725  -1.12716
 Alpha  occ. eigenvalues --   -1.12645  -1.12634  -1.12617  -1.12599  -1.12586
 Alpha  occ. eigenvalues --   -0.19099  -0.13111  -0.12626  -0.10463
 Alpha virt. eigenvalues --   -0.05691  -0.05226  -0.04648  -0.03009  -0.02759
 Alpha virt. eigenvalues --   -0.02115  -0.01637  -0.01197  -0.00372  -0.00261
 Alpha virt. eigenvalues --    0.00047   0.00339   0.00812   0.00878   0.00900

  Beta  occ. eigenvalues --  -38.44136 -38.43849 -38.43678 -38.43485 -38.43155
  Beta  occ. eigenvalues --  -38.42934 -38.42892  -2.19919  -2.19723  -2.19540
  Beta  occ. eigenvalues --   -2.19358  -2.19085  -2.18883  -2.18857  -1.13586
  Beta  occ. eigenvalues --   -1.13570  -1.13561  -1.13409  -1.13377  -1.13359
  Beta  occ. eigenvalues --   -1.13230  -1.13190  -1.13173  -1.13071  -1.13007
  Beta  occ. eigenvalues --   -1.12975  -1.12861  -1.12725  -1.12707  -1.12646
  Beta  occ. eigenvalues --   -1.12550  -1.12542  -1.12521  -1.12501  -1.12489
  Beta  occ. eigenvalues --   -0.18377  -0.12849  -0.12358
  Beta virt. eigenvalues --   -0.06539  -0.05665  -0.05211  -0.04639  -0.02235
  Beta virt. eigenvalues --   -0.01990  -0.01571  -0.01146  -0.01054  -0.00409
  Beta virt. eigenvalues --   -0.00301   0.00168   0.00372   0.00837   0.00887

 Mulliken charges and spin densities:
               1          2
     1  Na   0.011720  -0.099942
     2  Na   0.368332   0.003137
     3  Na   0.286093   0.028582
     4  Na  -0.306147   0.683255
     5  Na  -0.015719  -0.119852
     6  Na  -0.201852   0.634278
     7  Na  -0.142427  -0.129457
 Sum of Mulliken charges =  -0.00000   1.00000

 Dipole moment (field-independent basis, Debye):
    X=             -0.1616    Y=             -0.1798    Z=             -0.0573  Tot=              0.2485
 Quadrupole moment (field-independent basis, Debye-Ang):
   XX=            -54.2899   YY=            -61.1157   ZZ=            -76.1692
   XY=              0.1472   XZ=             -0.4125   YZ=             -0.1688

 Normal termination of Gaussian 16 at Wed Nov 29 00:12:35 2023.
