 Gaussian 16, Revision B.01,
 Gaussian 16:  ES64L-G16RevB.01 20-Dec-2017

 -------------------------
 #P B3LYP/6-311+g(d) force
 -------------------------

 -----
 DPGEN
 -----
 Symbolic Z-matrix:
 Charge =  0 Multiplicity = 2

                         Standard orientation:
 ---------------------------------------------------------------------
 Center     Atomic      Atomic             Coordinates (Angstroms)
 Number     Number       Type             X           Y           Z
 ---------------------------------------------------------------------
      1         11           0       -0.202805    1.235184   -0.366884
      2         11           0        2.615881    3.219973   -0.072200
      3         11           0        3.542731    0.522882    0.550982
      4         11           0        3.335938   -2.666399   -0.483298
      5         11           0        0.142906   -2.061600    0.115573
      6         11           0       -3.465934   -0.930110    0.513500
      7         11           0       -5.968718    0.680069   -0.257672
 ---------------------------------------------------------------------

 SCF Done:  E(UB3LYP) =  -1136.12125519     A.U. after   21 cycles

 The electronic state is 2-A.
 Alpha  occ. eigenvalues --  -38.44963 -38.44588 -38.44403 -38.43886 -38.43740
 Alpha  occ. eigenvalues --  -38.43504 -38.43488  -2.20784  -2.20415  -2.20290
 Alpha  occ. eigenvalues --   -2.19702  -2.19587  -2.19369  -2.19322  -1.14476
 Alpha  occ. eigenvalues --   -1.14471  -1.14362  -1.14080  -1.14040  -1.14037
 Alpha  occ. eigenvalues --   -1.13989  -1.13958  -1.13929  -1.13385  -1.13380
 Alpha  occ. eigenvalues --   -1.13346  -1.13284  -1.13266  -1.13201  -1.13058
 Alpha  occ. eigenvalues --   -1.13004  -1.12992  -1.12982  -1.12972  -1.12947
 Alpha  occ. eigenvalues --   -0.17002  -0.14300  -0.12400  -0.11513
 Alpha virt. eigenvalues --   -0.06013  -0.05099  -0.04579  -0.03980  -0.03065
 Alpha virt. eigenvalues --   -0.02406  -0.01758  -0.01517  -0.01026  -0.00771
 Alpha virt. eigenvalues --   -0.00569   0.00048   0.00337   0.00532   0.00736

  Beta  occ. eigenvalues --  -38.44913 -38.44500 -38.44368 -38.43887 -38.43713
  Beta  occ. eigenvalues --  -38.43501 -38.43460  -2.20692  -2.20251  -2.20226
  Beta  occ. eigenvalues --   -2.19714  -2.19541  -2.19365  -2.19271  -1.14411
  Beta  occ. eigenvalues --   -1.14410  -1.14292  -1.13973  -1.13942  -1.13928
  Beta  occ. eigenvalues --   -1.13925  -1.13907  -1.13889  -1.13396  -1.13392
  Beta  occ. eigenvalues --   -1.13297  -1.13250  -1.13238  -1.13156  -1.13049
  Beta  occ. eigenvalues --   -1.13003  -1.12986  -1.12941  -1.12934  -1.12920
  Beta  occ. eigenvalues --   -0.16370  -0.13467  -0.12209
  Beta virt. eigenvalues --   -0.08081  -0.05586  -0.04906  -0.04074  -0.03749
  Beta virt. eigenvalues --   -0.02771  -0.02108  -0.01624  -0.01208  -0.00834
  Beta virt. eigenvalues --   -0.00430  -0.00244   0.00181   0.00475   0.00653

 Mulliken charges and spin densities:
               1          2
     1  Na  -0.757927   0.111615
     2  Na   1.017154   0.030738
     3  Na  -0.589194   0.310273
     4  Na   1.124995   0.341100
     5  Na  -1.301182  -0.029094
     6  Na   0.073045  -0.145324
     7  Na   0.433109   0.380691
 Sum of Mulliken charges =  -0.00000   1.00000

 Dipole moment (field-independent basis, Debye):
    X=             -0.0651    Y=              0.6176    Z=             -0.2929  Tot=              0.6866
 Quadrupole moment (field-independent basis, Debye-Ang):
   XX=            -61.8777   YY=            -64.6263   ZZ=            -71.3431
   XY=             -2.0527   XZ=              1.3389   YZ=             -1.3880

 Normal termination of Gaussian 16 at Tue Nov 28 18:53:45 2023.
