 Gaussian 16, Revision B.01,
 Gaussian 16:  ES64L-G16RevB.01 20-Dec-2017

 -------------------------
 #P B3LYP/6-311+g(d) force
 -------------------------

 -----
 DPGEN
 -----
 Symbolic Z-matrix:
 Charge =  0 Multiplicity = 2

                         Standard orientation:
 ---------------------------------------------------------------------
 Center     Atomic      Atomic             Coordinates (Angstroms)
 Number     Number       Type             X           Y           Z
 ---------------------------------------------------------------------
      1         11           0        0.201747   -0.048720   -1.852327
      2         11           0       -2.351242    1.565351   -0.055636
      3         11           0       -0.015101   -0.093297    1.912365
      4         11           0       -3.058609   -1.465950    0.005213
      5         11           0        1.088460    2.775205   -0.075981
      6         11           0        1.403009   -2.746374   -0.142329
      7         11           0        2.731735    0.013786    0.208696
 ---------------------------------------------------------------------

 SCF Done:  E(UB3LYP) =  -1136.13452051     A.U. after   20 cycles

 The electronic state is 2-A.
 Alpha  occ. eigenvalues --  -38.44218 -38.43703 -38.43671 -38.43660 -38.43516
 Alpha  occ. eigenvalues --  -38.43391 -38.42931  -2.20027  -2.19644  -2.19588
 Alpha  occ. eigenvalues --   -2.19583  -2.19461  -2.19256  -2.18806  -1.13727
 Alpha  occ. eigenvalues --   -1.13685  -1.13665  -1.13383  -1.13328  -1.13306
 Alpha  occ. eigenvalues --   -1.13284  -1.13262  -1.13234  -1.13211  -1.13193
 Alpha  occ. eigenvalues --   -1.13190  -1.13131  -1.13087  -1.13082  -1.12913
 Alpha  occ. eigenvalues --   -1.12905  -1.12894  -1.12480  -1.12459  -1.12451
 Alpha  occ. eigenvalues --   -0.18915  -0.13446  -0.12202  -0.10939
 Alpha virt. eigenvalues --   -0.05688  -0.05117  -0.04489  -0.03466  -0.02761
 Alpha virt. eigenvalues --   -0.02665  -0.01482  -0.01117  -0.00357  -0.00075
 Alpha virt. eigenvalues --   -0.00006   0.00372   0.00810   0.00860   0.00902

  Beta  occ. eigenvalues --  -38.44220 -38.43697 -38.43658 -38.43575 -38.43435
  Beta  occ. eigenvalues --  -38.43387 -38.42927  -2.20033  -2.19626  -2.19581
  Beta  occ. eigenvalues --   -2.19428  -2.19312  -2.19252  -2.18802  -1.13733
  Beta  occ. eigenvalues --   -1.13675  -1.13670  -1.13361  -1.13301  -1.13268
  Beta  occ. eigenvalues --   -1.13264  -1.13230  -1.13210  -1.13146  -1.13091
  Beta  occ. eigenvalues --   -1.13081  -1.13037  -1.12983  -1.12978  -1.12911
  Beta  occ. eigenvalues --   -1.12893  -1.12873  -1.12481  -1.12453  -1.12428
  Beta  occ. eigenvalues --   -0.18140  -0.13218  -0.11971
  Beta virt. eigenvalues --   -0.06985  -0.05641  -0.05081  -0.04488  -0.02631
  Beta virt. eigenvalues --   -0.02015  -0.01622  -0.01384  -0.01040  -0.00411
  Beta virt. eigenvalues --   -0.00098   0.00124   0.00384   0.00840   0.00899

 Mulliken charges and spin densities:
               1          2
     1  Na  -0.287803   0.618962
     2  Na   0.090551  -0.015427
     3  Na  -0.283583   0.557082
     4  Na  -0.040096  -0.143456
     5  Na   0.039970  -0.037868
     6  Na   0.008711  -0.141076
     7  Na   0.472249   0.161783
 Sum of Mulliken charges =  -0.00000   1.00000

 Dipole moment (field-independent basis, Debye):
    X=             -0.4204    Y=             -0.2956    Z=              0.0252  Tot=              0.5145
 Quadrupole moment (field-independent basis, Debye-Ang):
   XX=            -59.0619   YY=            -62.1778   ZZ=            -73.4415
   XY=              1.2803   XZ=              0.4686   YZ=              0.1355

 Normal termination of Gaussian 16 at Tue Dec  5 13:12:30 2023.
