 Gaussian 16, Revision B.01,
 Gaussian 16:  ES64L-G16RevB.01 20-Dec-2017

 -------------------------
 #P B3LYP/6-311+g(d) force
 -------------------------

 -----
 DPGEN
 -----
 Symbolic Z-matrix:
 Charge =  0 Multiplicity = 2

                         Standard orientation:
 ---------------------------------------------------------------------
 Center     Atomic      Atomic             Coordinates (Angstroms)
 Number     Number       Type             X           Y           Z
 ---------------------------------------------------------------------
      1         11           0        0.276486    0.012819   -1.750921
      2         11           0       -0.449905   -0.192833    1.901017
      3         11           0        3.143816   -0.965348    0.162679
      4         11           0        1.789118    2.295940    0.132727
      5         11           0       -3.305831   -0.731736   -0.113623
      6         11           0       -1.486791    2.347699   -0.148599
      7         11           0        0.033107   -2.766541   -0.183281
 ---------------------------------------------------------------------

 SCF Done:  E(UB3LYP) =  -1136.13772499     A.U. after   19 cycles

 The electronic state is 2-A.
 Alpha  occ. eigenvalues --  -38.44432 -38.44243 -38.43410 -38.43357 -38.43283
 Alpha  occ. eigenvalues --  -38.43227 -38.43185  -2.20225  -2.20050  -2.19325
 Alpha  occ. eigenvalues --   -2.19224  -2.19155  -2.19154  -2.19119  -1.13898
 Alpha  occ. eigenvalues --   -1.13883  -1.13867  -1.13721  -1.13710  -1.13693
 Alpha  occ. eigenvalues --   -1.13021  -1.12987  -1.12958  -1.12935  -1.12898
 Alpha  occ. eigenvalues --   -1.12881  -1.12833  -1.12826  -1.12822  -1.12811
 Alpha  occ. eigenvalues --   -1.12793  -1.12775  -1.12752  -1.12741  -1.12718
 Alpha  occ. eigenvalues --   -0.18701  -0.13005  -0.12478  -0.10601
 Alpha virt. eigenvalues --   -0.06055  -0.04996  -0.04541  -0.03149  -0.02887
 Alpha virt. eigenvalues --   -0.02400  -0.01860  -0.01050  -0.00357  -0.00220
 Alpha virt. eigenvalues --   -0.00027   0.00337   0.00789   0.00865   0.00901

  Beta  occ. eigenvalues --  -38.44432 -38.44241 -38.43348 -38.43329 -38.43278
  Beta  occ. eigenvalues --  -38.43219 -38.43109  -2.20227  -2.20049  -2.19210
  Beta  occ. eigenvalues --   -2.19176  -2.19149  -2.19108  -2.19016  -1.13887
  Beta  occ. eigenvalues --   -1.13880  -1.13870  -1.13713  -1.13700  -1.13695
  Beta  occ. eigenvalues --   -1.12959  -1.12912  -1.12894  -1.12866  -1.12834
  Beta  occ. eigenvalues --   -1.12829  -1.12819  -1.12814  -1.12792  -1.12783
  Beta  occ. eigenvalues --   -1.12744  -1.12722  -1.12717  -1.12667  -1.12655
  Beta  occ. eigenvalues --   -0.17964  -0.12806  -0.12215
  Beta virt. eigenvalues --   -0.06707  -0.05998  -0.05009  -0.04503  -0.02406
  Beta virt. eigenvalues --   -0.02071  -0.01770  -0.01361  -0.00995  -0.00398
  Beta virt. eigenvalues --   -0.00268   0.00116   0.00358   0.00838   0.00858

 Mulliken charges and spin densities:
               1          2
     1  Na  -0.210754   0.640569
     2  Na  -0.445794   0.785182
     3  Na   0.081039  -0.048765
     4  Na   0.082042  -0.046118
     5  Na   0.170263  -0.106616
     6  Na   0.194429  -0.059578
     7  Na   0.128774  -0.164674
 Sum of Mulliken charges =  -0.00000   1.00000

 Dipole moment (field-independent basis, Debye):
    X=             -0.1102    Y=             -0.2624    Z=              0.0782  Tot=              0.2952
 Quadrupole moment (field-independent basis, Debye-Ang):
   XX=            -52.7236   YY=            -64.8502   ZZ=            -74.8877
   XY=              0.2709   XZ=              1.7750   YZ=              0.3931

 Normal termination of Gaussian 16 at Thu Dec  7 05:09:17 2023.
