 Gaussian 16, Revision B.01,
 Gaussian 16:  ES64L-G16RevB.01 20-Dec-2017

 -------------------------
 #P B3LYP/6-311+g(d) force
 -------------------------

 -----
 DPGEN
 -----
 Symbolic Z-matrix:
 Charge =  0 Multiplicity = 2

                         Standard orientation:
 ---------------------------------------------------------------------
 Center     Atomic      Atomic             Coordinates (Angstroms)
 Number     Number       Type             X           Y           Z
 ---------------------------------------------------------------------
      1         11           0       -1.843680   -0.856743    2.438160
      2         11           0       -3.999726    1.059178    0.001399
      3         11           0        3.234808    1.181052    0.234755
      4         11           0       -3.584802   -1.882990   -1.352852
      5         11           0        6.001884   -1.044449   -0.168017
      6         11           0       -0.555458    2.148585   -0.584831
      7         11           0        0.746974   -0.604633   -0.568615
 ---------------------------------------------------------------------

 SCF Done:  E(UB3LYP) =  -1136.10134074     A.U. after   32 cycles

 The electronic state is 2-A.
 Alpha  occ. eigenvalues --  -38.45291 -38.45191 -38.45040 -38.45007 -38.43946
 Alpha  occ. eigenvalues --  -38.43419 -38.43393  -2.21155  -2.20950  -2.20841
 Alpha  occ. eigenvalues --   -2.20833  -2.19762  -2.19249  -2.19166  -1.14838
 Alpha  occ. eigenvalues --   -1.14824  -1.14781  -1.14640  -1.14629  -1.14598
 Alpha  occ. eigenvalues --   -1.14507  -1.14494  -1.14475  -1.14457  -1.14450
 Alpha  occ. eigenvalues --   -1.14440  -1.13476  -1.13449  -1.13342  -1.12946
 Alpha  occ. eigenvalues --   -1.12897  -1.12871  -1.12836  -1.12834  -1.12794
 Alpha  occ. eigenvalues --   -0.17329  -0.13906  -0.11195  -0.10822
 Alpha virt. eigenvalues --   -0.07959  -0.05576  -0.04608  -0.03442  -0.03200
 Alpha virt. eigenvalues --   -0.02494  -0.02293  -0.02007  -0.01180  -0.01044
 Alpha virt. eigenvalues --   -0.00521  -0.00087   0.00052   0.00368   0.00438

  Beta  occ. eigenvalues --  -38.45279 -38.45206 -38.44966 -38.44920 -38.43947
  Beta  occ. eigenvalues --  -38.43410 -38.43372  -2.21136  -2.20980  -2.20759
  Beta  occ. eigenvalues --   -2.20618  -2.19764  -2.19210  -2.19149  -1.14831
  Beta  occ. eigenvalues --   -1.14803  -1.14757  -1.14654  -1.14641  -1.14612
  Beta  occ. eigenvalues --   -1.14435  -1.14426  -1.14403  -1.14344  -1.14305
  Beta  occ. eigenvalues --   -1.14294  -1.13478  -1.13449  -1.13341  -1.12920
  Beta  occ. eigenvalues --   -1.12872  -1.12835  -1.12825  -1.12823  -1.12783
  Beta  occ. eigenvalues --   -0.16725  -0.13701  -0.10693
  Beta virt. eigenvalues --   -0.07846  -0.07110  -0.05431  -0.04362  -0.03003
  Beta virt. eigenvalues --   -0.02816  -0.02147  -0.01789  -0.01599  -0.01002
  Beta virt. eigenvalues --   -0.00750  -0.00494   0.00001   0.00214   0.00422

 Mulliken charges and spin densities:
               1          2
     1  Na  -0.035170   0.544919
     2  Na   0.077700   0.409966
     3  Na   0.412550  -0.086933
     4  Na   0.307756  -0.090703
     5  Na   0.157666   0.029601
     6  Na   0.231844  -0.012271
     7  Na  -1.152345   0.205421
 Sum of Mulliken charges =  -0.00000   1.00000

 Dipole moment (field-independent basis, Debye):
    X=             -2.1155    Y=              0.0113    Z=             -0.0717  Tot=              2.1168
 Quadrupole moment (field-independent basis, Debye-Ang):
   XX=            -77.7541   YY=            -63.7315   ZZ=            -70.1946
   XY=             -3.4547   XZ=             -2.0582   YZ=              8.0704

 Normal termination of Gaussian 16 at Wed Nov 29 00:04:33 2023.
