 Gaussian 16, Revision B.01,
 Gaussian 16:  ES64L-G16RevB.01 20-Dec-2017

 -------------------------
 #P B3LYP/6-311+g(d) force
 -------------------------

 -----
 DPGEN
 -----
 Symbolic Z-matrix:
 Charge =  0 Multiplicity = 2

                         Standard orientation:
 ---------------------------------------------------------------------
 Center     Atomic      Atomic             Coordinates (Angstroms)
 Number     Number       Type             X           Y           Z
 ---------------------------------------------------------------------
      1         11           0       -1.900546    1.376161    1.205433
      2         11           0        2.026019    2.519561   -0.160877
      3         11           0        2.799202   -1.611941   -0.835963
      4         11           0        0.360909    0.247909   -1.609962
      5         11           0        1.053765   -0.294160    1.896811
      6         11           0       -0.959865   -2.197978    0.770728
      7         11           0       -3.379484   -0.039552   -1.266171
 ---------------------------------------------------------------------

 SCF Done:  E(UB3LYP) =  -1136.12767340     A.U. after   22 cycles

 The electronic state is 2-A.
 Alpha  occ. eigenvalues --  -38.44431 -38.44280 -38.44097 -38.43617 -38.43570
 Alpha  occ. eigenvalues --  -38.43170 -38.43008  -2.20261  -2.20106  -2.19955
 Alpha  occ. eigenvalues --   -2.19584  -2.19527  -2.19045  -2.18829  -1.13969
 Alpha  occ. eigenvalues --   -1.13909  -1.13861  -1.13795  -1.13759  -1.13737
 Alpha  occ. eigenvalues --   -1.13643  -1.13600  -1.13567  -1.13327  -1.13225
 Alpha  occ. eigenvalues --   -1.13198  -1.13190  -1.13175  -1.13164  -1.12754
 Alpha  occ. eigenvalues --   -1.12705  -1.12630  -1.12513  -1.12488  -1.12460
 Alpha  occ. eigenvalues --   -0.18617  -0.13434  -0.11702  -0.11313
 Alpha virt. eigenvalues --   -0.05808  -0.05245  -0.04329  -0.03155  -0.03025
 Alpha virt. eigenvalues --   -0.02756  -0.01761  -0.00985  -0.00664   0.00158
 Alpha virt. eigenvalues --    0.00254   0.00316   0.00507   0.00654   0.00810

  Beta  occ. eigenvalues --  -38.44403 -38.44249 -38.44072 -38.43548 -38.43525
  Beta  occ. eigenvalues --  -38.43156 -38.43010  -2.20210  -2.20048  -2.19913
  Beta  occ. eigenvalues --   -2.19462  -2.19445  -2.19026  -2.18835  -1.13920
  Beta  occ. eigenvalues --   -1.13878  -1.13829  -1.13759  -1.13712  -1.13699
  Beta  occ. eigenvalues --   -1.13605  -1.13557  -1.13537  -1.13246  -1.13157
  Beta  occ. eigenvalues --   -1.13120  -1.13110  -1.13100  -1.13096  -1.12728
  Beta  occ. eigenvalues --   -1.12670  -1.12624  -1.12514  -1.12489  -1.12458
  Beta  occ. eigenvalues --   -0.17847  -0.13150  -0.11131
  Beta virt. eigenvalues --   -0.07788  -0.05651  -0.04889  -0.03971  -0.03034
  Beta virt. eigenvalues --   -0.02219  -0.02023  -0.01597  -0.00814  -0.00403
  Beta virt. eigenvalues --    0.00251   0.00293   0.00360   0.00580   0.00781

 Mulliken charges and spin densities:
               1          2
     1  Na  -0.058782   0.024687
     2  Na  -0.009560  -0.031712
     3  Na   0.247605  -0.060694
     4  Na  -0.504778   0.511536
     5  Na   0.269128   0.435645
     6  Na  -0.142378   0.022829
     7  Na   0.198765   0.097709
 Sum of Mulliken charges =  -0.00000   1.00000

 Dipole moment (field-independent basis, Debye):
    X=             -0.1200    Y=             -0.2836    Z=             -0.1813  Tot=              0.3574
 Quadrupole moment (field-independent basis, Debye-Ang):
   XX=            -54.6040   YY=            -71.7291   ZZ=            -67.4684
   XY=             -1.0758   XZ=              1.0177   YZ=              4.1290

 Normal termination of Gaussian 16 at Wed Nov 29 16:33:20 2023.
