 Gaussian 16, Revision B.01,
 Gaussian 16:  ES64L-G16RevB.01 20-Dec-2017

 -------------------------
 #P B3LYP/6-311+g(d) force
 -------------------------

 -----
 DPGEN
 -----
 Symbolic Z-matrix:
 Charge =  0 Multiplicity = 2

                         Standard orientation:
 ---------------------------------------------------------------------
 Center     Atomic      Atomic             Coordinates (Angstroms)
 Number     Number       Type             X           Y           Z
 ---------------------------------------------------------------------
      1         11           0        0.633866   -2.129506   -1.024036
      2         11           0       -5.290375   -0.028300   -0.086591
      3         11           0       -2.257715   -1.508946    0.572770
      4         11           0       -2.433445    1.985890   -0.155517
      5         11           0        0.846360    1.892012   -0.021932
      6         11           0        2.814606   -0.774804    1.024845
      7         11           0        5.686704    0.563653   -0.309539
 ---------------------------------------------------------------------

 SCF Done:  E(UB3LYP) =  -1136.11672679     A.U. after   24 cycles

 The electronic state is 2-A.
 Alpha  occ. eigenvalues --  -38.45165 -38.44391 -38.44236 -38.44193 -38.44193
 Alpha  occ. eigenvalues --  -38.44149 -38.42939  -2.20993  -2.20203  -2.20082
 Alpha  occ. eigenvalues --   -2.20037  -2.20022  -2.19920  -2.18774  -1.14669
 Alpha  occ. eigenvalues --   -1.14633  -1.14612  -1.13866  -1.13858  -1.13832
 Alpha  occ. eigenvalues --   -1.13772  -1.13757  -1.13743  -1.13723  -1.13721
 Alpha  occ. eigenvalues --   -1.13713  -1.13684  -1.13647  -1.13612  -1.13576
 Alpha  occ. eigenvalues --   -1.13573  -1.13530  -1.12455  -1.12425  -1.12413
 Alpha  occ. eigenvalues --   -0.17079  -0.14255  -0.12090  -0.11171
 Alpha virt. eigenvalues --   -0.06075  -0.05517  -0.04953  -0.03435  -0.02984
 Alpha virt. eigenvalues --   -0.02485  -0.02079  -0.01492  -0.00963  -0.00616
 Alpha virt. eigenvalues --   -0.00252   0.00044   0.00127   0.00458   0.00685

  Beta  occ. eigenvalues --  -38.45080 -38.44352 -38.44196 -38.44188 -38.44185
  Beta  occ. eigenvalues --  -38.44102 -38.42939  -2.20842  -2.20131  -2.20030
  Beta  occ. eigenvalues --   -2.20015  -2.20007  -2.19833  -2.18774  -1.14571
  Beta  occ. eigenvalues --   -1.14525  -1.14485  -1.13811  -1.13809  -1.13790
  Beta  occ. eigenvalues --   -1.13735  -1.13734  -1.13720  -1.13719  -1.13712
  Beta  occ. eigenvalues --   -1.13689  -1.13628  -1.13602  -1.13593  -1.13517
  Beta  occ. eigenvalues --   -1.13513  -1.13477  -1.12455  -1.12425  -1.12413
  Beta  occ. eigenvalues --   -0.16399  -0.13883  -0.10877
  Beta virt. eigenvalues --   -0.08194  -0.05719  -0.05352  -0.04654  -0.03004
  Beta virt. eigenvalues --   -0.02811  -0.02042  -0.01698  -0.01301  -0.00613
  Beta virt. eigenvalues --   -0.00405  -0.00167   0.00170   0.00289   0.00489

 Mulliken charges and spin densities:
               1          2
     1  Na  -0.002173   0.026631
     2  Na   0.494919   0.148421
     3  Na  -0.562054   0.159120
     4  Na  -0.115764  -0.084600
     5  Na  -0.311848   0.397022
     6  Na   0.308734   0.134440
     7  Na   0.188186   0.218966
 Sum of Mulliken charges =  -0.00000   1.00000

 Dipole moment (field-independent basis, Debye):
    X=             -1.0208    Y=              0.0709    Z=             -0.2901  Tot=              1.0636
 Quadrupole moment (field-independent basis, Debye-Ang):
   XX=            -57.8906   YY=            -72.9185   ZZ=            -67.9243
   XY=              0.7725   XZ=             -2.1795   YZ=             -1.7805

 Normal termination of Gaussian 16 at Tue Nov 28 21:59:53 2023.
