 Gaussian 16, Revision B.01,
 Gaussian 16:  ES64L-G16RevB.01 20-Dec-2017

 -------------------------
 #P B3LYP/6-311+g(d) force
 -------------------------

 -----
 DPGEN
 -----
 Symbolic Z-matrix:
 Charge =  0 Multiplicity = 2

                         Standard orientation:
 ---------------------------------------------------------------------
 Center     Atomic      Atomic             Coordinates (Angstroms)
 Number     Number       Type             X           Y           Z
 ---------------------------------------------------------------------
      1         11           0       -1.878426    0.549031    1.441821
      2         11           0        0.603776   -0.505132   -1.125805
      3         11           0        3.483008   -0.108255   -0.418844
      4         11           0        1.106220    0.946436    1.328521
      5         11           0       -0.242023   -2.027729    0.965570
      6         11           0       -0.880304    2.048236   -0.909197
      7         11           0       -2.192251   -0.902588   -1.282066
 ---------------------------------------------------------------------

 SCF Done:  E(UB3LYP) =  -1136.09995929     A.U. after   23 cycles

 The electronic state is 2-A.
 Alpha  occ. eigenvalues --  -38.44598 -38.43896 -38.43851 -38.43544 -38.43310
 Alpha  occ. eigenvalues --  -38.43063 -38.42813  -2.20468  -2.19990  -2.19904
 Alpha  occ. eigenvalues --   -2.19845  -2.19416  -2.19114  -2.18850  -1.14197
 Alpha  occ. eigenvalues --   -1.14135  -1.14076  -1.13835  -1.13742  -1.13707
 Alpha  occ. eigenvalues --   -1.13677  -1.13618  -1.13549  -1.13478  -1.13454
 Alpha  occ. eigenvalues --   -1.13351  -1.13106  -1.13044  -1.12992  -1.12790
 Alpha  occ. eigenvalues --   -1.12733  -1.12667  -1.12550  -1.12482  -1.12441
 Alpha  occ. eigenvalues --   -0.20723  -0.13757  -0.12529  -0.11679
 Alpha virt. eigenvalues --   -0.06004  -0.04080  -0.03552  -0.03400  -0.02998
 Alpha virt. eigenvalues --   -0.02748  -0.01759  -0.00599  -0.00307   0.00284
 Alpha virt. eigenvalues --    0.00551   0.00643   0.00833   0.00959   0.01047

  Beta  occ. eigenvalues --  -38.44594 -38.43843 -38.43810 -38.43494 -38.43266
  Beta  occ. eigenvalues --  -38.43030 -38.42786  -2.20461  -2.19898  -2.19831
  Beta  occ. eigenvalues --   -2.19762  -2.19341  -2.19058  -2.18804  -1.14184
  Beta  occ. eigenvalues --   -1.14129  -1.14071  -1.13782  -1.13671  -1.13622
  Beta  occ. eigenvalues --   -1.13604  -1.13546  -1.13494  -1.13422  -1.13395
  Beta  occ. eigenvalues --   -1.13290  -1.13054  -1.12955  -1.12944  -1.12752
  Beta  occ. eigenvalues --   -1.12661  -1.12629  -1.12519  -1.12443  -1.12389
  Beta  occ. eigenvalues --   -0.19830  -0.13565  -0.11492
  Beta virt. eigenvalues --   -0.08051  -0.05870  -0.03727  -0.03389  -0.03063
  Beta virt. eigenvalues --   -0.02284  -0.01806  -0.01573  -0.00352  -0.00190
  Beta virt. eigenvalues --    0.00324   0.00600   0.00744   0.00875   0.00977

 Mulliken charges and spin densities:
               1          2
     1  Na   0.946026   0.249449
     2  Na   0.057633   0.264943
     3  Na   0.044018   0.085711
     4  Na  -0.054941   0.111439
     5  Na  -1.000056   0.305642
     6  Na  -1.011882   0.303876
     7  Na   1.019202  -0.321061
 Sum of Mulliken charges =  -0.00000   1.00000

 Dipole moment (field-independent basis, Debye):
    X=              0.4012    Y=              0.0559    Z=              0.0461  Tot=              0.4077
 Quadrupole moment (field-independent basis, Debye-Ang):
   XX=            -52.9527   YY=            -75.4373   ZZ=            -64.7654
   XY=              0.0058   XZ=             -0.1795   YZ=             -1.3863

 Normal termination of Gaussian 16 at Tue Dec  5 22:40:59 2023.
