 Gaussian 16, Revision B.01,
 Gaussian 16:  ES64L-G16RevB.01 20-Dec-2017

 -------------------------
 #P B3LYP/6-311+g(d) force
 -------------------------

 -----
 DPGEN
 -----
 Symbolic Z-matrix:
 Charge =  0 Multiplicity = 2

                         Standard orientation:
 ---------------------------------------------------------------------
 Center     Atomic      Atomic             Coordinates (Angstroms)
 Number     Number       Type             X           Y           Z
 ---------------------------------------------------------------------
      1         11           0       -2.721185   -0.078430   -0.541474
      2         11           0       -2.205236    3.938905    0.498130
      3         11           0        2.637097   -0.382521   -1.064835
      4         11           0       -2.910866   -3.026232    1.176506
      5         11           0        5.077252   -0.200975    1.137841
      6         11           0        0.389890    2.475556   -0.367407
      7         11           0       -0.266951   -2.726303   -0.838762
 ---------------------------------------------------------------------

 SCF Done:  E(UB3LYP) =  -1136.11819338     A.U. after   20 cycles

 The electronic state is 2-A.
 Alpha  occ. eigenvalues --  -38.45591 -38.44614 -38.44439 -38.44422 -38.44340
 Alpha  occ. eigenvalues --  -38.43576 -38.42710  -2.21365  -2.20421  -2.20246
 Alpha  occ. eigenvalues --   -2.20238  -2.20166  -2.19386  -2.18529  -1.15072
 Alpha  occ. eigenvalues --   -1.15059  -1.14953  -1.14117  -1.14094  -1.14085
 Alpha  occ. eigenvalues --   -1.13919  -1.13902  -1.13895  -1.13887  -1.13879
 Alpha  occ. eigenvalues --   -1.13851  -1.13848  -1.13827  -1.13758  -1.13024
 Alpha  occ. eigenvalues --   -1.13021  -1.13009  -1.12215  -1.12207  -1.12177
 Alpha  occ. eigenvalues --   -0.16484  -0.13604  -0.13104  -0.10143
 Alpha virt. eigenvalues --   -0.06528  -0.06109  -0.04407  -0.03907  -0.02856
 Alpha virt. eigenvalues --   -0.01926  -0.01799  -0.01692  -0.01617  -0.01047
 Alpha virt. eigenvalues --   -0.00202  -0.00095   0.00108   0.00364   0.00551

  Beta  occ. eigenvalues --  -38.45583 -38.44611 -38.44439 -38.44392 -38.44300
  Beta  occ. eigenvalues --  -38.43476 -38.42706  -2.21353  -2.20415  -2.20239
  Beta  occ. eigenvalues --   -2.20189  -2.20093  -2.19199  -2.18530  -1.15062
  Beta  occ. eigenvalues --   -1.15035  -1.14946  -1.14112  -1.14091  -1.14081
  Beta  occ. eigenvalues --   -1.13895  -1.13886  -1.13876  -1.13863  -1.13851
  Beta  occ. eigenvalues --   -1.13841  -1.13799  -1.13777  -1.13697  -1.12898
  Beta  occ. eigenvalues --   -1.12892  -1.12886  -1.12221  -1.12216  -1.12122
  Beta  occ. eigenvalues --   -0.16073  -0.13479  -0.12406
  Beta virt. eigenvalues --   -0.06738  -0.06417  -0.05684  -0.03873  -0.03817
  Beta virt. eigenvalues --   -0.02770  -0.01836  -0.01617  -0.01376  -0.01076
  Beta virt. eigenvalues --   -0.00775   0.00020   0.00143   0.00359   0.00541

 Mulliken charges and spin densities:
               1          2
     1  Na  -0.372316   0.104379
     2  Na   0.550984   0.033912
     3  Na  -0.088495  -0.289065
     4  Na   0.534641   0.232417
     5  Na   0.107205   0.584987
     6  Na  -0.437292   0.067969
     7  Na  -0.294727   0.265401
 Sum of Mulliken charges =  -0.00000   1.00000

 Dipole moment (field-independent basis, Debye):
    X=             -2.6830    Y=              0.0341    Z=              0.4836  Tot=              2.7264
 Quadrupole moment (field-independent basis, Debye-Ang):
   XX=            -73.0034   YY=            -56.8072   ZZ=            -69.6807
   XY=             -1.3508   XZ=             -0.5872   YZ=             -0.9035

 Normal termination of Gaussian 16 at Tue Nov 28 20:12:46 2023.
