 Gaussian 16, Revision B.01,
 Gaussian 16:  ES64L-G16RevB.01 20-Dec-2017

 -------------------------
 #P B3LYP/6-311+g(d) force
 -------------------------

 -----
 DPGEN
 -----
 Symbolic Z-matrix:
 Charge =  0 Multiplicity = 2

                         Standard orientation:
 ---------------------------------------------------------------------
 Center     Atomic      Atomic             Coordinates (Angstroms)
 Number     Number       Type             X           Y           Z
 ---------------------------------------------------------------------
      1         11           0        0.219467    2.975626   -0.264892
      2         11           0       -2.334587   -2.067625    0.279861
      3         11           0        0.217415    0.156369   -1.515107
      4         11           0        1.126261   -2.626588   -0.302561
      5         11           0        3.105819   -0.007884   -0.012264
      6         11           0       -2.583978    1.031659   -0.341169
      7         11           0        0.249603    0.538442    2.156132
 ---------------------------------------------------------------------

 SCF Done:  E(UB3LYP) =  -1136.13501058     A.U. after   19 cycles

 The electronic state is 2-A.
 Alpha  occ. eigenvalues --  -38.43951 -38.43781 -38.43604 -38.43577 -38.43528
 Alpha  occ. eigenvalues --  -38.43446 -38.43094  -2.19807  -2.19655  -2.19509
 Alpha  occ. eigenvalues --   -2.19446  -2.19413  -2.19281  -2.19148  -1.13498
 Alpha  occ. eigenvalues --   -1.13473  -1.13443  -1.13315  -1.13286  -1.13274
 Alpha  occ. eigenvalues --   -1.13238  -1.13189  -1.13169  -1.13157  -1.13125
 Alpha  occ. eigenvalues --   -1.13099  -1.13068  -1.13060  -1.13028  -1.12936
 Alpha  occ. eigenvalues --   -1.12933  -1.12922  -1.12807  -1.12772  -1.12765
 Alpha  occ. eigenvalues --   -0.18862  -0.13088  -0.12630  -0.10907
 Alpha virt. eigenvalues --   -0.05476  -0.04947  -0.04860  -0.03181  -0.03018
 Alpha virt. eigenvalues --   -0.02668  -0.01347  -0.01156  -0.00251  -0.00179
 Alpha virt. eigenvalues --    0.00003   0.00353   0.00862   0.00889   0.00914

  Beta  occ. eigenvalues --  -38.43947 -38.43681 -38.43595 -38.43571 -38.43519
  Beta  occ. eigenvalues --  -38.43444 -38.43034  -2.19802  -2.19497  -2.19469
  Beta  occ. eigenvalues --   -2.19438  -2.19402  -2.19280  -2.19040  -1.13493
  Beta  occ. eigenvalues --   -1.13458  -1.13431  -1.13230  -1.13195  -1.13175
  Beta  occ. eigenvalues --   -1.13156  -1.13153  -1.13144  -1.13127  -1.13109
  Beta  occ. eigenvalues --   -1.13081  -1.13066  -1.13035  -1.13014  -1.12934
  Beta  occ. eigenvalues --   -1.12925  -1.12918  -1.12732  -1.12694  -1.12690
  Beta  occ. eigenvalues --   -0.18144  -0.12834  -0.12408
  Beta virt. eigenvalues --   -0.06942  -0.05477  -0.04880  -0.04820  -0.02384
  Beta virt. eigenvalues --   -0.02249  -0.01582  -0.01277  -0.01092  -0.00276
  Beta virt. eigenvalues --   -0.00217   0.00153   0.00390   0.00869   0.00895

 Mulliken charges and spin densities:
               1          2
     1  Na   0.403237  -0.012394
     2  Na  -0.083469   0.017392
     3  Na  -0.292263   0.125627
     4  Na   0.132697   0.045707
     5  Na   0.253679  -0.011670
     6  Na   0.255811   0.068998
     7  Na  -0.669693   0.766340
 Sum of Mulliken charges =  -0.00000   1.00000

 Dipole moment (field-independent basis, Debye):
    X=              0.3331    Y=              0.1284    Z=              0.2708  Tot=              0.4481
 Quadrupole moment (field-independent basis, Debye-Ang):
   XX=            -59.3670   YY=            -61.1718   ZZ=            -73.7579
   XY=              0.4078   XZ=             -0.1204   YZ=             -0.9224

 Normal termination of Gaussian 16 at Thu Dec  7 05:53:43 2023.
