 Gaussian 16, Revision B.01,
 Gaussian 16:  ES64L-G16RevB.01 20-Dec-2017

 -------------------------
 #P B3LYP/6-311+g(d) force
 -------------------------

 -----
 DPGEN
 -----
 Symbolic Z-matrix:
 Charge =  0 Multiplicity = 2

                         Standard orientation:
 ---------------------------------------------------------------------
 Center     Atomic      Atomic             Coordinates (Angstroms)
 Number     Number       Type             X           Y           Z
 ---------------------------------------------------------------------
      1         11           0       -3.070072   -1.729300    0.696556
      2         11           0        3.670334    1.007266    0.584153
      3         11           0       -0.068068   -0.049807    1.581799
      4         11           0       -3.126079    1.349930   -0.317541
      5         11           0       -0.685580   -1.146833   -1.376034
      6         11           0        0.153993    2.474632   -0.612333
      7         11           0        3.125472   -1.905889   -0.556600
 ---------------------------------------------------------------------

 SCF Done:  E(UB3LYP) =  -1136.11711315     A.U. after   29 cycles

 The electronic state is 2-A.
 Alpha  occ. eigenvalues --  -38.45255 -38.45168 -38.44779 -38.44434 -38.43496
 Alpha  occ. eigenvalues --  -38.43480 -38.42447  -2.21099  -2.21031  -2.20582
 Alpha  occ. eigenvalues --   -2.20222  -2.19397  -2.19383  -2.18289  -1.14775
 Alpha  occ. eigenvalues --   -1.14773  -1.14756  -1.14732  -1.14674  -1.14633
 Alpha  occ. eigenvalues --   -1.14266  -1.14245  -1.14206  -1.13895  -1.13877
 Alpha  occ. eigenvalues --   -1.13862  -1.13126  -1.13088  -1.13052  -1.13023
 Alpha  occ. eigenvalues --   -1.13003  -1.12961  -1.11984  -1.11953  -1.11920
 Alpha  occ. eigenvalues --   -0.18290  -0.14190  -0.11422  -0.10181
 Alpha virt. eigenvalues --   -0.07444  -0.05871  -0.04176  -0.03275  -0.02958
 Alpha virt. eigenvalues --   -0.02365  -0.01876  -0.01669  -0.00692  -0.00504
 Alpha virt. eigenvalues --   -0.00086   0.00085   0.00414   0.00500   0.00614

  Beta  occ. eigenvalues --  -38.45240 -38.45138 -38.44757 -38.44432 -38.43475
  Beta  occ. eigenvalues --  -38.43413 -38.42443  -2.21075  -2.20976  -2.20539
  Beta  occ. eigenvalues --   -2.20221  -2.19348  -2.19274  -2.18284  -1.14754
  Beta  occ. eigenvalues --   -1.14740  -1.14716  -1.14704  -1.14642  -1.14586
  Beta  occ. eigenvalues --   -1.14241  -1.14211  -1.14178  -1.13896  -1.13870
  Beta  occ. eigenvalues --   -1.13848  -1.13067  -1.13029  -1.13019  -1.12985
  Beta  occ. eigenvalues --   -1.12908  -1.12891  -1.11986  -1.11942  -1.11901
  Beta  occ. eigenvalues --   -0.17680  -0.13988  -0.11150
  Beta virt. eigenvalues --   -0.07262  -0.06611  -0.05612  -0.03791  -0.03013
  Beta virt. eigenvalues --   -0.02737  -0.01786  -0.01680  -0.01005  -0.00658
  Beta virt. eigenvalues --   -0.00228  -0.00032   0.00164   0.00563   0.00629

 Mulliken charges and spin densities:
               1          2
     1  Na   0.748079   0.188316
     2  Na   0.416803   0.145930
     3  Na  -0.386420   0.231962
     4  Na   0.146559   0.103107
     5  Na  -0.424784   0.409373
     6  Na  -0.329083  -0.062152
     7  Na  -0.171155  -0.016536
 Sum of Mulliken charges =  -0.00000   1.00000

 Dipole moment (field-independent basis, Debye):
    X=             -0.1475    Y=              0.2378    Z=             -0.0268  Tot=              0.2811
 Quadrupole moment (field-independent basis, Debye-Ang):
   XX=            -48.5568   YY=            -72.3426   ZZ=            -74.0946
   XY=             -1.3607   XZ=              0.9370   YZ=             -0.8712

 Normal termination of Gaussian 16 at Fri Dec  8 00:56:46 2023.
