 Gaussian 16, Revision B.01,
 Gaussian 16:  ES64L-G16RevB.01 20-Dec-2017

 -------------------------
 #P B3LYP/6-311+g(d) force
 -------------------------

 -----
 DPGEN
 -----
 Symbolic Z-matrix:
 Charge =  0 Multiplicity = 2

                         Standard orientation:
 ---------------------------------------------------------------------
 Center     Atomic      Atomic             Coordinates (Angstroms)
 Number     Number       Type             X           Y           Z
 ---------------------------------------------------------------------
      1         11           0        0.989000    2.487945    0.404247
      2         11           0        0.255160   -1.164495   -1.245564
      3         11           0        2.850896    0.825739   -0.728146
      4         11           0       -2.396271    1.269511   -0.761161
      5         11           0       -4.466948   -1.207727    0.108941
      6         11           0        3.030830   -2.262353    0.376541
      7         11           0       -0.262667    0.051381    1.845142
 ---------------------------------------------------------------------

 SCF Done:  E(UB3LYP) =  -1136.11108215     A.U. after   26 cycles

 The electronic state is 2-A.
 Alpha  occ. eigenvalues --  -38.45161 -38.45137 -38.44340 -38.44086 -38.43751
 Alpha  occ. eigenvalues --  -38.43537 -38.42855  -2.21001  -2.20911  -2.20177
 Alpha  occ. eigenvalues --   -2.20063  -2.19573  -2.19464  -2.18815  -1.14705
 Alpha  occ. eigenvalues --   -1.14679  -1.14607  -1.14585  -1.14578  -1.14545
 Alpha  occ. eigenvalues --   -1.13882  -1.13849  -1.13845  -1.13776  -1.13708
 Alpha  occ. eigenvalues --   -1.13663  -1.13252  -1.13221  -1.13212  -1.13137
 Alpha  occ. eigenvalues --   -1.13111  -1.13061  -1.12514  -1.12447  -1.12409
 Alpha  occ. eigenvalues --   -0.18516  -0.13894  -0.11766  -0.10420
 Alpha virt. eigenvalues --   -0.07412  -0.05545  -0.03733  -0.03437  -0.03033
 Alpha virt. eigenvalues --   -0.02437  -0.02164  -0.01768  -0.00574  -0.00396
 Alpha virt. eigenvalues --   -0.00059   0.00056   0.00440   0.00536   0.00684

  Beta  occ. eigenvalues --  -38.45163 -38.45121 -38.44332 -38.44032 -38.43752
  Beta  occ. eigenvalues --  -38.43435 -38.42836  -2.20974  -2.20916  -2.20163
  Beta  occ. eigenvalues --   -2.19964  -2.19576  -2.19276  -2.18789  -1.14679
  Beta  occ. eigenvalues --   -1.14638  -1.14593  -1.14588  -1.14576  -1.14549
  Beta  occ. eigenvalues --   -1.13872  -1.13829  -1.13779  -1.13768  -1.13636
  Beta  occ. eigenvalues --   -1.13588  -1.13255  -1.13214  -1.13207  -1.13017
  Beta  occ. eigenvalues --   -1.12978  -1.12927  -1.12492  -1.12401  -1.12381
  Beta  occ. eigenvalues --   -0.17839  -0.13650  -0.11471
  Beta virt. eigenvalues --   -0.07225  -0.06647  -0.05453  -0.03560  -0.03053
  Beta virt. eigenvalues --   -0.02690  -0.02081  -0.01516  -0.01284  -0.00507
  Beta virt. eigenvalues --   -0.00216   0.00085   0.00131   0.00542   0.00634

 Mulliken charges and spin densities:
               1          2
     1  Na   0.126772   0.363030
     2  Na  -0.408233   0.262536
     3  Na   0.216989  -0.031252
     4  Na   0.225771   0.105708
     5  Na  -0.013045  -0.071768
     6  Na   0.160180  -0.051354
     7  Na  -0.308434   0.423100
 Sum of Mulliken charges =  -0.00000   1.00000

 Dipole moment (field-independent basis, Debye):
    X=             -0.9601    Y=             -0.8070    Z=              0.4832  Tot=              1.3441
 Quadrupole moment (field-independent basis, Debye-Ang):
   XX=            -56.0425   YY=            -69.5147   ZZ=            -71.6860
   XY=              0.6718   XZ=              0.9329   YZ=             -2.2073

 Normal termination of Gaussian 16 at Tue Dec  5 18:13:35 2023.
