 Gaussian 16, Revision B.01,
 Gaussian 16:  ES64L-G16RevB.01 20-Dec-2017

 -------------------------
 #P B3LYP/6-311+g(d) force
 -------------------------

 -----
 DPGEN
 -----
 Symbolic Z-matrix:
 Charge =  0 Multiplicity = 2

                         Standard orientation:
 ---------------------------------------------------------------------
 Center     Atomic      Atomic             Coordinates (Angstroms)
 Number     Number       Type             X           Y           Z
 ---------------------------------------------------------------------
      1         11           0       -3.776922   -1.146094   -0.529335
      2         11           0        0.365448   -1.422245   -1.378292
      3         11           0       -1.466222   -0.463984    1.622434
      4         11           0        2.056260   -1.996494    0.674880
      5         11           0        0.936825    1.854953    0.407703
      6         11           0        3.796125    0.691210   -0.422348
      7         11           0       -1.911514    2.482654   -0.375041
 ---------------------------------------------------------------------

 SCF Done:  E(UB3LYP) =  -1136.11348871     A.U. after   23 cycles

 The electronic state is 2-A.
 Alpha  occ. eigenvalues --  -38.45507 -38.44299 -38.44247 -38.44085 -38.43988
 Alpha  occ. eigenvalues --  -38.43705 -38.42675  -2.21383  -2.20221  -2.20080
 Alpha  occ. eigenvalues --   -2.19977  -2.19845  -2.19530  -2.18607  -1.15223
 Alpha  occ. eigenvalues --   -1.15030  -1.14960  -1.13935  -1.13836  -1.13815
 Alpha  occ. eigenvalues --   -1.13790  -1.13744  -1.13703  -1.13669  -1.13647
 Alpha  occ. eigenvalues --   -1.13591  -1.13512  -1.13496  -1.13455  -1.13196
 Alpha  occ. eigenvalues --   -1.13156  -1.13151  -1.12304  -1.12263  -1.12248
 Alpha  occ. eigenvalues --   -0.18363  -0.14189  -0.12000  -0.10174
 Alpha virt. eigenvalues --   -0.07176  -0.05647  -0.04091  -0.03563  -0.02961
 Alpha virt. eigenvalues --   -0.02380  -0.01711  -0.01333  -0.00836  -0.00697
 Alpha virt. eigenvalues --    0.00009   0.00096   0.00311   0.00586   0.00684

  Beta  occ. eigenvalues --  -38.45510 -38.44279 -38.44248 -38.44053 -38.43931
  Beta  occ. eigenvalues --  -38.43635 -38.42662  -2.21391  -2.20189  -2.20084
  Beta  occ. eigenvalues --   -2.19922  -2.19737  -2.19399  -2.18589  -1.15213
  Beta  occ. eigenvalues --   -1.15037  -1.14965  -1.13919  -1.13815  -1.13788
  Beta  occ. eigenvalues --   -1.13762  -1.13738  -1.13705  -1.13618  -1.13591
  Beta  occ. eigenvalues --   -1.13552  -1.13442  -1.13421  -1.13383  -1.13108
  Beta  occ. eigenvalues --   -1.13065  -1.13064  -1.12298  -1.12243  -1.12210
  Beta  occ. eigenvalues --   -0.17833  -0.13675  -0.11707
  Beta virt. eigenvalues --   -0.06947  -0.06653  -0.05562  -0.03637  -0.03336
  Beta virt. eigenvalues --   -0.02513  -0.02090  -0.01353  -0.01197  -0.00492
  Beta virt. eigenvalues --   -0.00276   0.00119   0.00162   0.00505   0.00640

 Mulliken charges and spin densities:
               1          2
     1  Na  -0.061633   0.525876
     2  Na  -0.472236  -0.145993
     3  Na   0.211667   0.101708
     4  Na   0.730812   0.192494
     5  Na  -0.832423   0.011698
     6  Na   0.378329   0.341515
     7  Na   0.045486  -0.027298
 Sum of Mulliken charges =  -0.00000   1.00000

 Dipole moment (field-independent basis, Debye):
    X=              0.2393    Y=             -0.4073    Z=              0.1820  Tot=              0.5063
 Quadrupole moment (field-independent basis, Debye-Ang):
   XX=            -64.9419   YY=            -73.3807   ZZ=            -64.7741
   XY=             -5.7975   XZ=              1.0989   YZ=             -2.3018

 Normal termination of Gaussian 16 at Tue Dec  5 18:38:09 2023.
