 Gaussian 16, Revision B.01,
 Gaussian 16:  ES64L-G16RevB.01 20-Dec-2017

 -------------------------
 #P B3LYP/6-311+g(d) force
 -------------------------

 -----
 DPGEN
 -----
 Symbolic Z-matrix:
 Charge =  0 Multiplicity = 2

                         Standard orientation:
 ---------------------------------------------------------------------
 Center     Atomic      Atomic             Coordinates (Angstroms)
 Number     Number       Type             X           Y           Z
 ---------------------------------------------------------------------
      1         11           0        0.708882    2.620637    1.317388
      2         11           0        3.518618   -1.607188   -0.968846
      3         11           0        0.199972   -3.258665    0.035954
      4         11           0       -2.056370    3.715581   -0.497523
      5         11           0        4.203400    1.164354    0.073584
      6         11           0       -3.836133    0.017738   -1.132808
      7         11           0       -2.738368   -2.652458    1.172252
 ---------------------------------------------------------------------

 SCF Done:  E(UB3LYP) =  -1136.10397918     A.U. after   23 cycles

 The electronic state is 2-A.
 Alpha  occ. eigenvalues --  -38.44771 -38.44747 -38.44742 -38.44626 -38.44544
 Alpha  occ. eigenvalues --  -38.44359 -38.44060  -2.20576  -2.20554  -2.20474
 Alpha  occ. eigenvalues --   -2.20405  -2.20308  -2.20136  -2.19861  -1.14360
 Alpha  occ. eigenvalues --   -1.14239  -1.14225  -1.14200  -1.14185  -1.14159
 Alpha  occ. eigenvalues --   -1.14140  -1.14128  -1.14126  -1.14090  -1.14080
 Alpha  occ. eigenvalues --   -1.14057  -1.13972  -1.13962  -1.13920  -1.13790
 Alpha  occ. eigenvalues --   -1.13767  -1.13749  -1.13517  -1.13507  -1.13489
 Alpha  occ. eigenvalues --   -0.15477  -0.13798  -0.13075  -0.10489
 Alpha virt. eigenvalues --   -0.07720  -0.05296  -0.04446  -0.03629  -0.03391
 Alpha virt. eigenvalues --   -0.02324  -0.01927  -0.01746  -0.01331  -0.01109
 Alpha virt. eigenvalues --   -0.00921  -0.00122   0.00091   0.00270   0.00661

  Beta  occ. eigenvalues --  -38.44758 -38.44757 -38.44723 -38.44637 -38.44495
  Beta  occ. eigenvalues --  -38.44258 -38.44008  -2.20554  -2.20513  -2.20508
  Beta  occ. eigenvalues --   -2.20431  -2.20217  -2.19948  -2.19764  -1.14327
  Beta  occ. eigenvalues --   -1.14226  -1.14202  -1.14185  -1.14175  -1.14165
  Beta  occ. eigenvalues --   -1.14156  -1.14127  -1.14103  -1.14101  -1.14091
  Beta  occ. eigenvalues --   -1.14046  -1.13910  -1.13902  -1.13860  -1.13661
  Beta  occ. eigenvalues --   -1.13642  -1.13625  -1.13450  -1.13442  -1.13428
  Beta  occ. eigenvalues --   -0.14995  -0.13142  -0.12580
  Beta virt. eigenvalues --   -0.07740  -0.07228  -0.04837  -0.04078  -0.03417
  Beta virt. eigenvalues --   -0.03053  -0.02178  -0.01696  -0.01538  -0.01132
  Beta virt. eigenvalues --   -0.00926  -0.00580  -0.00018   0.00255   0.00418

 Mulliken charges and spin densities:
               1          2
     1  Na  -0.532553   0.269894
     2  Na   0.262348   0.053146
     3  Na  -0.180414   0.247506
     4  Na   0.462257  -0.122571
     5  Na   0.117789   0.092155
     6  Na  -0.226030   0.535155
     7  Na   0.096603  -0.075286
 Sum of Mulliken charges =  -0.00000   1.00000

 Dipole moment (field-independent basis, Debye):
    X=              0.6564    Y=              0.2311    Z=              0.0399  Tot=              0.6971
 Quadrupole moment (field-independent basis, Debye-Ang):
   XX=            -66.1750   YY=            -67.4038   ZZ=            -68.4579
   XY=              0.0425   XZ=             -0.9050   YZ=             -0.8048

 Normal termination of Gaussian 16 at Sun Dec  3 23:56:23 2023.
