 Gaussian 16, Revision B.01,
 Gaussian 16:  ES64L-G16RevB.01 20-Dec-2017

 -------------------------
 #P B3LYP/6-311+g(d) force
 -------------------------

 -----
 DPGEN
 -----
 Symbolic Z-matrix:
 Charge =  0 Multiplicity = 2

                         Standard orientation:
 ---------------------------------------------------------------------
 Center     Atomic      Atomic             Coordinates (Angstroms)
 Number     Number       Type             X           Y           Z
 ---------------------------------------------------------------------
      1         11           0        1.284647   -1.741088   -0.638097
      2         11           0        1.795631    1.447382   -0.112219
      3         11           0       -1.587021    0.786515   -1.015423
      4         11           0       -2.302772   -2.726654   -0.706768
      5         11           0       -2.657449   -0.868448    1.801639
      6         11           0       -0.700564    4.237732    0.046403
      7         11           0        4.167528   -1.135440    0.624466
 ---------------------------------------------------------------------

 SCF Done:  E(UB3LYP) =  -1136.12613009     A.U. after   20 cycles

 The electronic state is 2-A.
 Alpha  occ. eigenvalues --  -38.44273 -38.44272 -38.44204 -38.44098 -38.43714
 Alpha  occ. eigenvalues --  -38.43615 -38.43461  -2.20116  -2.20042  -2.20028
 Alpha  occ. eigenvalues --   -2.19951  -2.19546  -2.19482  -2.19350  -1.13804
 Alpha  occ. eigenvalues --   -1.13785  -1.13784  -1.13755  -1.13744  -1.13705
 Alpha  occ. eigenvalues --   -1.13699  -1.13670  -1.13654  -1.13651  -1.13601
 Alpha  occ. eigenvalues --   -1.13526  -1.13226  -1.13195  -1.13174  -1.13124
 Alpha  occ. eigenvalues --   -1.13114  -1.13100  -1.13056  -1.13025  -1.12930
 Alpha  occ. eigenvalues --   -0.17421  -0.13820  -0.12613  -0.09892
 Alpha virt. eigenvalues --   -0.06306  -0.05490  -0.05094  -0.03489  -0.02513
 Alpha virt. eigenvalues --   -0.02050  -0.02039  -0.01560  -0.01118  -0.00623
 Alpha virt. eigenvalues --    0.00007   0.00123   0.00355   0.00614   0.00642

  Beta  occ. eigenvalues --  -38.44279 -38.44263 -38.44200 -38.44079 -38.43682
  Beta  occ. eigenvalues --  -38.43530 -38.43430  -2.20105  -2.20040  -2.20036
  Beta  occ. eigenvalues --   -2.19921  -2.19486  -2.19323  -2.19298  -1.13793
  Beta  occ. eigenvalues --   -1.13778  -1.13773  -1.13736  -1.13713  -1.13711
  Beta  occ. eigenvalues --   -1.13706  -1.13664  -1.13650  -1.13604  -1.13588
  Beta  occ. eigenvalues --   -1.13509  -1.13186  -1.13153  -1.13135  -1.13021
  Beta  occ. eigenvalues --   -1.13013  -1.13004  -1.12999  -1.12991  -1.12867
  Beta  occ. eigenvalues --   -0.16827  -0.13409  -0.12508
  Beta virt. eigenvalues --   -0.06337  -0.05997  -0.05304  -0.04880  -0.02981
  Beta virt. eigenvalues --   -0.02312  -0.01933  -0.01784  -0.01061  -0.01008
  Beta virt. eigenvalues --   -0.00306   0.00221   0.00280   0.00584   0.00668

 Mulliken charges and spin densities:
               1          2
     1  Na  -0.873580   0.014190
     2  Na  -0.588707  -0.036295
     3  Na  -0.738656   0.438401
     4  Na   0.809567   0.135707
     5  Na  -0.140650   0.303808
     6  Na   0.403690  -0.090521
     7  Na   1.128336   0.234711
 Sum of Mulliken charges =  -0.00000   1.00000

 Dipole moment (field-independent basis, Debye):
    X=              0.2526    Y=              0.1520    Z=             -0.2650  Tot=              0.3964
 Quadrupole moment (field-independent basis, Debye-Ang):
   XX=            -65.7604   YY=            -55.9798   ZZ=            -73.1828
   XY=             -0.3905   XZ=              5.5447   YZ=              2.3020

 Normal termination of Gaussian 16 at Wed Nov 29 01:11:23 2023.
