 Gaussian 16, Revision B.01,
 Gaussian 16:  ES64L-G16RevB.01 20-Dec-2017

 -------------------------
 #P B3LYP/6-311+g(d) force
 -------------------------

 -----
 DPGEN
 -----
 Symbolic Z-matrix:
 Charge =  0 Multiplicity = 2

                         Standard orientation:
 ---------------------------------------------------------------------
 Center     Atomic      Atomic             Coordinates (Angstroms)
 Number     Number       Type             X           Y           Z
 ---------------------------------------------------------------------
      1         11           0        1.095059   -1.498299   -0.112020
      2         11           0       -0.480673    0.157889   -1.899683
      3         11           0       -0.642578   -0.486478    1.968112
      4         11           0       -2.105291   -1.574751   -0.325880
      5         11           0       -2.223829    1.686957    0.192088
      6         11           0        0.906591    1.602384    0.155963
      7         11           0        3.450720    0.112298    0.021420
 ---------------------------------------------------------------------

 SCF Done:  E(UB3LYP) =  -1136.09864607     A.U. after   22 cycles

 The electronic state is 2-A.
 Alpha  occ. eigenvalues --  -38.45084 -38.44418 -38.44200 -38.43469 -38.43166
 Alpha  occ. eigenvalues --  -38.42938 -38.42810  -2.20993  -2.20565  -2.20282
 Alpha  occ. eigenvalues --   -2.19519  -2.19149  -2.19107  -2.18938  -1.14725
 Alpha  occ. eigenvalues --   -1.14668  -1.14599  -1.14318  -1.14258  -1.14154
 Alpha  occ. eigenvalues --   -1.14022  -1.13944  -1.13877  -1.13210  -1.13172
 Alpha  occ. eigenvalues --   -1.13108  -1.12853  -1.12840  -1.12808  -1.12781
 Alpha  occ. eigenvalues --   -1.12774  -1.12704  -1.12629  -1.12587  -1.12503
 Alpha  occ. eigenvalues --   -0.20818  -0.14229  -0.12202  -0.11700
 Alpha virt. eigenvalues --   -0.06330  -0.04254  -0.03865  -0.03505  -0.02741
 Alpha virt. eigenvalues --   -0.02698  -0.01916  -0.00623  -0.00199   0.00218
 Alpha virt. eigenvalues --    0.00517   0.00584   0.00799   0.00940   0.01045

  Beta  occ. eigenvalues --  -38.45092 -38.44322 -38.44110 -38.43451 -38.43154
  Beta  occ. eigenvalues --  -38.42918 -38.42791  -2.21007  -2.20392  -2.20117
  Beta  occ. eigenvalues --   -2.19493  -2.19133  -2.19079  -2.18911  -1.14735
  Beta  occ. eigenvalues --   -1.14681  -1.14598  -1.14210  -1.14129  -1.14027
  Beta  occ. eigenvalues --   -1.13921  -1.13829  -1.13752  -1.13182  -1.13112
  Beta  occ. eigenvalues --   -1.13096  -1.12846  -1.12829  -1.12780  -1.12753
  Beta  occ. eigenvalues --   -1.12695  -1.12687  -1.12608  -1.12521  -1.12493
  Beta  occ. eigenvalues --   -0.19960  -0.13988  -0.11424
  Beta virt. eigenvalues --   -0.07952  -0.06206  -0.04256  -0.03186  -0.03036
  Beta virt. eigenvalues --   -0.02045  -0.01896  -0.01714  -0.00574  -0.00012
  Beta virt. eigenvalues --    0.00253   0.00530   0.00564   0.00981   0.01029

 Mulliken charges and spin densities:
               1          2
     1  Na  -0.060865   0.116221
     2  Na   0.117628   0.476765
     3  Na  -0.010617   0.476822
     4  Na   0.282405  -0.018783
     5  Na   0.039379  -0.019657
     6  Na  -0.270183   0.115944
     7  Na  -0.097747  -0.147312
 Sum of Mulliken charges =  -0.00000   1.00000

 Dipole moment (field-independent basis, Debye):
    X=              0.4440    Y=              0.0695    Z=              0.1741  Tot=              0.4819
 Quadrupole moment (field-independent basis, Debye-Ang):
   XX=            -50.5695   YY=            -76.4124   ZZ=            -67.4077
   XY=              0.1594   XZ=             -0.0192   YZ=              1.5415

 Normal termination of Gaussian 16 at Fri Dec  8 17:58:20 2023.
