 Gaussian 16, Revision B.01,
 Gaussian 16:  ES64L-G16RevB.01 20-Dec-2017

 -------------------------
 #P B3LYP/6-311+g(d) force
 -------------------------

 -----
 DPGEN
 -----
 Symbolic Z-matrix:
 Charge =  0 Multiplicity = 2

                         Standard orientation:
 ---------------------------------------------------------------------
 Center     Atomic      Atomic             Coordinates (Angstroms)
 Number     Number       Type             X           Y           Z
 ---------------------------------------------------------------------
      1         11           0        0.290142   -1.061050   -1.100778
      2         11           0        2.381664   -0.479856    1.403704
      3         11           0       -1.303970   -0.133058    2.318555
      4         11           0       -0.287126    3.017063   -0.036111
      5         11           0       -2.735526    1.141685   -1.137993
      6         11           0       -2.671916   -2.288668   -0.448458
      7         11           0        4.326733   -0.196115   -0.998920
 ---------------------------------------------------------------------

 SCF Done:  E(UB3LYP) =  -1136.12287799     A.U. after   24 cycles

 The electronic state is 2-A.
 Alpha  occ. eigenvalues --  -38.44933 -38.44733 -38.44665 -38.44282 -38.43926
 Alpha  occ. eigenvalues --  -38.42938 -38.42558  -2.20736  -2.20553  -2.20510
 Alpha  occ. eigenvalues --   -2.20143  -2.19783  -2.18783  -2.18356  -1.14420
 Alpha  occ. eigenvalues --   -1.14382  -1.14364  -1.14239  -1.14217  -1.14184
 Alpha  occ. eigenvalues --   -1.14178  -1.14165  -1.14119  -1.13833  -1.13790
 Alpha  occ. eigenvalues --   -1.13765  -1.13470  -1.13438  -1.13394  -1.12455
 Alpha  occ. eigenvalues --   -1.12439  -1.12430  -1.12031  -1.12011  -1.12004
 Alpha  occ. eigenvalues --   -0.17724  -0.13881  -0.11360  -0.11181
 Alpha virt. eigenvalues --   -0.06698  -0.05041  -0.04396  -0.03448  -0.03032
 Alpha virt. eigenvalues --   -0.02496  -0.02352  -0.01314  -0.00784  -0.00417
 Alpha virt. eigenvalues --    0.00009   0.00169   0.00257   0.00672   0.00786

  Beta  occ. eigenvalues --  -38.44910 -38.44654 -38.44641 -38.44261 -38.43890
  Beta  occ. eigenvalues --  -38.42934 -38.42558  -2.20692  -2.20492  -2.20383
  Beta  occ. eigenvalues --   -2.20108  -2.19718  -2.18778  -2.18358  -1.14393
  Beta  occ. eigenvalues --   -1.14351  -1.14333  -1.14203  -1.14169  -1.14111
  Beta  occ. eigenvalues --   -1.14094  -1.14061  -1.14049  -1.13812  -1.13770
  Beta  occ. eigenvalues --   -1.13706  -1.13420  -1.13399  -1.13344  -1.12453
  Beta  occ. eigenvalues --   -1.12434  -1.12416  -1.12028  -1.12014  -1.11999
  Beta  occ. eigenvalues --   -0.17034  -0.13618  -0.11047
  Beta virt. eigenvalues --   -0.07488  -0.06423  -0.04516  -0.04343  -0.03308
  Beta virt. eigenvalues --   -0.02364  -0.02141  -0.01858  -0.00772  -0.00677
  Beta virt. eigenvalues --   -0.00354   0.00123   0.00275   0.00373   0.00743

 Mulliken charges and spin densities:
               1          2
     1  Na  -0.879040   0.355594
     2  Na  -0.016978   0.008702
     3  Na  -0.049398   0.432847
     4  Na  -0.321605  -0.003795
     5  Na   0.184727   0.137704
     6  Na   0.730769  -0.088872
     7  Na   0.351525   0.157820
 Sum of Mulliken charges =  -0.00000   1.00000

 Dipole moment (field-independent basis, Debye):
    X=              0.9905    Y=             -0.3085    Z=             -0.0313  Tot=              1.0379
 Quadrupole moment (field-independent basis, Debye-Ang):
   XX=            -51.5959   YY=            -77.3840   ZZ=            -66.5802
   XY=              3.0454   XZ=             -3.7834   YZ=             -0.7345

 Normal termination of Gaussian 16 at Tue Dec  5 18:04:27 2023.
