 Gaussian 16, Revision B.01,
 Gaussian 16:  ES64L-G16RevB.01 20-Dec-2017

 -------------------------
 #P B3LYP/6-311+g(d) force
 -------------------------

 -----
 DPGEN
 -----
 Symbolic Z-matrix:
 Charge =  0 Multiplicity = 2

                         Standard orientation:
 ---------------------------------------------------------------------
 Center     Atomic      Atomic             Coordinates (Angstroms)
 Number     Number       Type             X           Y           Z
 ---------------------------------------------------------------------
      1         11           0        2.291078    1.775156   -0.054440
      2         11           0        2.528757   -1.439696    0.086663
      3         11           0       -0.401287   -2.668603   -0.174498
      4         11           0        0.099607    0.409953   -1.509435
      5         11           0       -2.967811   -0.567282   -0.263763
      6         11           0       -0.321770   -0.178587    1.716364
      7         11           0       -1.228574    2.669058    0.199109
 ---------------------------------------------------------------------

 SCF Done:  E(UB3LYP) =  -1136.13442677     A.U. after   19 cycles

 The electronic state is 2-A.
 Alpha  occ. eigenvalues --  -38.43849 -38.43722 -38.43620 -38.43477 -38.43233
 Alpha  occ. eigenvalues --  -38.42917 -38.42828  -2.19726  -2.19633  -2.19501
 Alpha  occ. eigenvalues --   -2.19387  -2.19178  -2.18945  -2.18918  -1.13408
 Alpha  occ. eigenvalues --   -1.13394  -1.13388  -1.13362  -1.13289  -1.13262
 Alpha  occ. eigenvalues --   -1.13205  -1.13172  -1.13112  -1.13088  -1.13040
 Alpha  occ. eigenvalues --   -1.13030  -1.12896  -1.12835  -1.12794  -1.12661
 Alpha  occ. eigenvalues --   -1.12571  -1.12554  -1.12549  -1.12540  -1.12525
 Alpha  occ. eigenvalues --   -0.19504  -0.13232  -0.12935  -0.10519
 Alpha virt. eigenvalues --   -0.05468  -0.05100  -0.04743  -0.03012  -0.02877
 Alpha virt. eigenvalues --   -0.02027  -0.01427  -0.01161  -0.00204  -0.00083
 Alpha virt. eigenvalues --    0.00054   0.00363   0.00867   0.00906   0.00958

  Beta  occ. eigenvalues --  -38.43841 -38.43716 -38.43612 -38.43471 -38.43223
  Beta  occ. eigenvalues --  -38.42835 -38.42763  -2.19714  -2.19625  -2.19490
  Beta  occ. eigenvalues --   -2.19381  -2.19165  -2.18801  -2.18795  -1.13403
  Beta  occ. eigenvalues --   -1.13378  -1.13360  -1.13352  -1.13278  -1.13242
  Beta  occ. eigenvalues --   -1.13198  -1.13135  -1.13110  -1.13086  -1.13035
  Beta  occ. eigenvalues --   -1.13000  -1.12881  -1.12800  -1.12781  -1.12572
  Beta  occ. eigenvalues --   -1.12478  -1.12454  -1.12451  -1.12445  -1.12436
  Beta  occ. eigenvalues --   -0.18777  -0.12956  -0.12657
  Beta virt. eigenvalues --   -0.06582  -0.05450  -0.05088  -0.04727  -0.02209
  Beta virt. eigenvalues --   -0.02067  -0.01348  -0.01094  -0.01014  -0.00251
  Beta virt. eigenvalues --   -0.00133   0.00180   0.00396   0.00900   0.00907

 Mulliken charges and spin densities:
               1          2
     1  Na   0.397510  -0.024262
     2  Na   0.152484  -0.015273
     3  Na   0.250405   0.022048
     4  Na  -0.620380   0.484465
     5  Na   0.191240  -0.046944
     6  Na  -0.514222   0.680509
     7  Na   0.142964  -0.100543
 Sum of Mulliken charges =  -0.00000   1.00000

 Dipole moment (field-independent basis, Debye):
    X=             -0.1900    Y=              0.1978    Z=              0.1001  Tot=              0.2920
 Quadrupole moment (field-independent basis, Debye-Ang):
   XX=            -56.1361   YY=            -60.4915   ZZ=            -75.6665
   XY=             -0.2817   XZ=              1.0218   YZ=              1.2607

 Normal termination of Gaussian 16 at Tue Nov 28 22:56:07 2023.
