 Gaussian 16, Revision B.01,
 Gaussian 16:  ES64L-G16RevB.01 20-Dec-2017

 -------------------------
 #P B3LYP/6-311+g(d) force
 -------------------------

 -----
 DPGEN
 -----
 Symbolic Z-matrix:
 Charge =  0 Multiplicity = 2

                         Standard orientation:
 ---------------------------------------------------------------------
 Center     Atomic      Atomic             Coordinates (Angstroms)
 Number     Number       Type             X           Y           Z
 ---------------------------------------------------------------------
      1         11           0       -0.700591   -0.106301    2.656715
      2         11           0       -2.693282   -1.634895    0.114879
      3         11           0        0.172497   -1.878291   -0.160968
      4         11           0        3.692841   -1.155183   -1.337692
      5         11           0        2.779152    1.328762    0.594388
      6         11           0       -3.160837    1.065191   -1.731905
      7         11           0       -0.089779    2.380718   -0.135417
 ---------------------------------------------------------------------

 SCF Done:  E(UB3LYP) =  -1136.11791835     A.U. after   23 cycles

 The electronic state is 2-A.
 Alpha  occ. eigenvalues --  -38.45425 -38.44507 -38.44274 -38.43996 -38.43905
 Alpha  occ. eigenvalues --  -38.43760 -38.42955  -2.21256  -2.20317  -2.20075
 Alpha  occ. eigenvalues --   -2.19838  -2.19809  -2.19630  -2.18776  -1.14917
 Alpha  occ. eigenvalues --   -1.14895  -1.14850  -1.13977  -1.13967  -1.13934
 Alpha  occ. eigenvalues --   -1.13744  -1.13728  -1.13706  -1.13635  -1.13536
 Alpha  occ. eigenvalues --   -1.13501  -1.13465  -1.13450  -1.13435  -1.13306
 Alpha  occ. eigenvalues --   -1.13288  -1.13201  -1.12464  -1.12443  -1.12421
 Alpha  occ. eigenvalues --   -0.17768  -0.13881  -0.11818  -0.11531
 Alpha virt. eigenvalues --   -0.06202  -0.05660  -0.04525  -0.03375  -0.03170
 Alpha virt. eigenvalues --   -0.02666  -0.02023  -0.01111  -0.00806  -0.00281
 Alpha virt. eigenvalues --    0.00136   0.00180   0.00274   0.00438   0.00620

  Beta  occ. eigenvalues --  -38.45327 -38.44441 -38.44237 -38.43994 -38.43897
  Beta  occ. eigenvalues --  -38.43761 -38.42958  -2.21074  -2.20195  -2.20005
  Beta  occ. eigenvalues --   -2.19839  -2.19799  -2.19634  -2.18785  -1.14793
  Beta  occ. eigenvalues --   -1.14776  -1.14715  -1.13894  -1.13881  -1.13854
  Beta  occ. eigenvalues --   -1.13699  -1.13680  -1.13661  -1.13636  -1.13540
  Beta  occ. eigenvalues --   -1.13494  -1.13450  -1.13441  -1.13400  -1.13295
  Beta  occ. eigenvalues --   -1.13287  -1.13199  -1.12473  -1.12443  -1.12415
  Beta  occ. eigenvalues --   -0.17112  -0.13353  -0.11302
  Beta virt. eigenvalues --   -0.08271  -0.05771  -0.05366  -0.04026  -0.03270
  Beta virt. eigenvalues --   -0.02498  -0.02209  -0.01862  -0.00768  -0.00648
  Beta virt. eigenvalues --   -0.00108   0.00191   0.00317   0.00455   0.00569

 Mulliken charges and spin densities:
               1          2
     1  Na   0.116013   0.404879
     2  Na   0.450066   0.033927
     3  Na  -0.832188   0.126256
     4  Na   0.467525   0.138055
     5  Na   0.209394   0.035157
     6  Na   0.001283   0.271003
     7  Na  -0.412092  -0.009277
 Sum of Mulliken charges =  -0.00000   1.00000

 Dipole moment (field-independent basis, Debye):
    X=             -0.1444    Y=             -0.2102    Z=              0.5300  Tot=              0.5881
 Quadrupole moment (field-independent basis, Debye-Ang):
   XX=            -57.4987   YY=            -77.1385   ZZ=            -62.9757
   XY=              0.9177   XZ=             -0.8716   YZ=              1.5518

 Normal termination of Gaussian 16 at Mon Dec  4 04:05:40 2023.
