 Gaussian 16, Revision B.01,
 Gaussian 16:  ES64L-G16RevB.01 20-Dec-2017

 -------------------------
 #P B3LYP/6-311+g(d) force
 -------------------------

 -----
 DPGEN
 -----
 Symbolic Z-matrix:
 Charge =  0 Multiplicity = 2

                         Standard orientation:
 ---------------------------------------------------------------------
 Center     Atomic      Atomic             Coordinates (Angstroms)
 Number     Number       Type             X           Y           Z
 ---------------------------------------------------------------------
      1         11           0        2.650412    1.629006   -1.005744
      2         11           0        1.368795    0.410325    1.621373
      3         11           0       -4.000520   -0.858833   -0.798049
      4         11           0        3.059406   -2.135362    0.249569
      5         11           0       -0.994284    2.144436   -0.142520
      6         11           0       -2.206645   -0.213041    1.571508
      7         11           0        0.122837   -0.976530   -1.496137
 ---------------------------------------------------------------------

 SCF Done:  E(UB3LYP) =  -1136.12152539     A.U. after   25 cycles

 The electronic state is 2-A.
 Alpha  occ. eigenvalues --  -38.44763 -38.44682 -38.44639 -38.44007 -38.43381
 Alpha  occ. eigenvalues --  -38.43128 -38.43105  -2.20601  -2.20510  -2.20449
 Alpha  occ. eigenvalues --   -2.19928  -2.19338  -2.18990  -2.18945  -1.14303
 Alpha  occ. eigenvalues --   -1.14258  -1.14216  -1.14197  -1.14172  -1.14163
 Alpha  occ. eigenvalues --   -1.14112  -1.14095  -1.14077  -1.13605  -1.13585
 Alpha  occ. eigenvalues --   -1.13546  -1.13035  -1.13009  -1.12938  -1.12689
 Alpha  occ. eigenvalues --   -1.12663  -1.12617  -1.12604  -1.12594  -1.12580
 Alpha  occ. eigenvalues --   -0.18443  -0.14155  -0.11082  -0.11003
 Alpha virt. eigenvalues --   -0.06922  -0.05109  -0.04843  -0.03035  -0.02647
 Alpha virt. eigenvalues --   -0.02471  -0.02171  -0.01129  -0.01068  -0.00161
 Alpha virt. eigenvalues --    0.00110   0.00202   0.00300   0.00522   0.00672

  Beta  occ. eigenvalues --  -38.44734 -38.44647 -38.44628 -38.43971 -38.43328
  Beta  occ. eigenvalues --  -38.43120 -38.43097  -2.20549  -2.20448  -2.20427
  Beta  occ. eigenvalues --   -2.19863  -2.19244  -2.18980  -2.18932  -1.14264
  Beta  occ. eigenvalues --   -1.14215  -1.14172  -1.14162  -1.14148  -1.14114
  Beta  occ. eigenvalues --   -1.14080  -1.14070  -1.14056  -1.13566  -1.13540
  Beta  occ. eigenvalues --   -1.13480  -1.12970  -1.12933  -1.12868  -1.12685
  Beta  occ. eigenvalues --   -1.12618  -1.12599  -1.12595  -1.12591  -1.12573
  Beta  occ. eigenvalues --   -0.17737  -0.13962  -0.10865
  Beta virt. eigenvalues --   -0.07196  -0.06719  -0.04995  -0.04199  -0.02885
  Beta virt. eigenvalues --   -0.02485  -0.01927  -0.01469  -0.00966  -0.00629
  Beta virt. eigenvalues --   -0.00152   0.00153   0.00266   0.00413   0.00627

 Mulliken charges and spin densities:
               1          2
     1  Na   0.134723   0.193906
     2  Na   0.149690   0.287747
     3  Na   0.182655   0.074175
     4  Na   0.023123  -0.112124
     5  Na   0.020864   0.155146
     6  Na   0.111660   0.048753
     7  Na  -0.622714   0.352398
 Sum of Mulliken charges =  -0.00000   1.00000

 Dipole moment (field-independent basis, Debye):
    X=             -0.2676    Y=              0.4936    Z=             -0.5311  Tot=              0.7729
 Quadrupole moment (field-independent basis, Debye-Ang):
   XX=            -51.6510   YY=            -73.7895   ZZ=            -69.6366
   XY=              2.6653   XZ=              0.1866   YZ=             -1.6626

 Normal termination of Gaussian 16 at Fri Dec  8 05:22:34 2023.
