 Gaussian 16, Revision B.01,
 Gaussian 16:  ES64L-G16RevB.01 20-Dec-2017

 -------------------------
 #P B3LYP/6-311+g(d) force
 -------------------------

 -----
 DPGEN
 -----
 Symbolic Z-matrix:
 Charge =  0 Multiplicity = 2

                         Standard orientation:
 ---------------------------------------------------------------------
 Center     Atomic      Atomic             Coordinates (Angstroms)
 Number     Number       Type             X           Y           Z
 ---------------------------------------------------------------------
      1         11           0        0.275239    0.359626   -0.614660
      2         11           0        3.599253    1.347169   -0.567265
      3         11           0       -1.118602    3.048496   -0.255700
      4         11           0       -3.279846    0.209940   -0.020328
      5         11           0        0.060087   -0.101806    2.235442
      6         11           0       -1.368101   -2.520759   -0.983799
      7         11           0        1.831971   -2.342666    0.206311
 ---------------------------------------------------------------------

 SCF Done:  E(UB3LYP) =  -1136.12212089     A.U. after   21 cycles

 The electronic state is 2-A.
 Alpha  occ. eigenvalues --  -38.44457 -38.44265 -38.44235 -38.44025 -38.43989
 Alpha  occ. eigenvalues --  -38.43141 -38.42775  -2.20218  -2.20077  -2.20051
 Alpha  occ. eigenvalues --   -2.19930  -2.19839  -2.18998  -2.18879  -1.13884
 Alpha  occ. eigenvalues --   -1.13863  -1.13847  -1.13779  -1.13755  -1.13743
 Alpha  occ. eigenvalues --   -1.13720  -1.13700  -1.13685  -1.13656  -1.13545
 Alpha  occ. eigenvalues --   -1.13524  -1.13520  -1.13481  -1.13457  -1.12696
 Alpha  occ. eigenvalues --   -1.12645  -1.12632  -1.12627  -1.12532  -1.12455
 Alpha  occ. eigenvalues --   -0.18309  -0.12977  -0.12259  -0.10492
 Alpha virt. eigenvalues --   -0.06384  -0.05343  -0.04491  -0.03029  -0.02620
 Alpha virt. eigenvalues --   -0.02130  -0.01975  -0.01427  -0.00706  -0.00419
 Alpha virt. eigenvalues --   -0.00097   0.00237   0.00652   0.00756   0.00765

  Beta  occ. eigenvalues --  -38.44425 -38.44263 -38.44238 -38.43984 -38.43908
  Beta  occ. eigenvalues --  -38.43117 -38.42759  -2.20160  -2.20076  -2.20057
  Beta  occ. eigenvalues --   -2.19835  -2.19714  -2.18953  -2.18856  -1.13839
  Beta  occ. eigenvalues --   -1.13823  -1.13810  -1.13783  -1.13746  -1.13741
  Beta  occ. eigenvalues --   -1.13716  -1.13693  -1.13660  -1.13559  -1.13525
  Beta  occ. eigenvalues --   -1.13475  -1.13460  -1.13376  -1.13345  -1.12666
  Beta  occ. eigenvalues --   -1.12613  -1.12594  -1.12561  -1.12520  -1.12445
  Beta  occ. eigenvalues --   -0.17664  -0.12773  -0.11916
  Beta virt. eigenvalues --   -0.06815  -0.06112  -0.05271  -0.04284  -0.02428
  Beta virt. eigenvalues --   -0.02090  -0.01797  -0.01398  -0.01238  -0.00644
  Beta virt. eigenvalues --   -0.00334   0.00100   0.00319   0.00691   0.00805

 Mulliken charges and spin densities:
               1          2
     1  Na  -1.106445  -0.110454
     2  Na  -0.086965   0.255767
     3  Na  -0.171597   0.108332
     4  Na   0.676611   0.038400
     5  Na  -0.350656   0.530509
     6  Na   0.277779   0.087195
     7  Na   0.761273   0.090251
 Sum of Mulliken charges =  -0.00000   1.00000

 Dipole moment (field-independent basis, Debye):
    X=             -0.0693    Y=              0.2627    Z=              0.4936  Tot=              0.5635
 Quadrupole moment (field-independent basis, Debye-Ang):
   XX=            -55.5220   YY=            -61.3946   ZZ=            -74.3596
   XY=             -2.6226   XZ=             -0.4257   YZ=             -0.1160

 Normal termination of Gaussian 16 at Thu Dec  7 15:23:45 2023.
