 Gaussian 16, Revision B.01,
 Gaussian 16:  ES64L-G16RevB.01 20-Dec-2017

 -------------------------
 #P B3LYP/6-311+g(d) force
 -------------------------

 -----
 DPGEN
 -----
 Symbolic Z-matrix:
 Charge =  0 Multiplicity = 2

                         Standard orientation:
 ---------------------------------------------------------------------
 Center     Atomic      Atomic             Coordinates (Angstroms)
 Number     Number       Type             X           Y           Z
 ---------------------------------------------------------------------
      1         11           0        0.332526   -0.310210   -1.859066
      2         11           0       -3.393346   -0.803528   -0.465873
      3         11           0        2.921777   -1.587918   -0.513715
      4         11           0        0.699383    0.430722    1.954897
      5         11           0       -0.219044   -2.596213    0.917669
      6         11           0       -2.257641    1.960000    0.134870
      7         11           0        1.916345    2.907147   -0.168783
 ---------------------------------------------------------------------

 SCF Done:  E(UB3LYP) =  -1136.12952686     A.U. after   19 cycles

 The electronic state is 2-A.
 Alpha  occ. eigenvalues --  -38.44436 -38.44118 -38.44090 -38.43822 -38.43695
 Alpha  occ. eigenvalues --  -38.43624 -38.43567  -2.20258  -2.19961  -2.19937
 Alpha  occ. eigenvalues --   -2.19643  -2.19502  -2.19462  -2.19413  -1.13967
 Alpha  occ. eigenvalues --   -1.13902  -1.13885  -1.13653  -1.13630  -1.13612
 Alpha  occ. eigenvalues --   -1.13592  -1.13585  -1.13575  -1.13299  -1.13293
 Alpha  occ. eigenvalues --   -1.13274  -1.13197  -1.13161  -1.13144  -1.13131
 Alpha  occ. eigenvalues --   -1.13114  -1.13098  -1.13068  -1.13060  -1.13026
 Alpha  occ. eigenvalues --   -0.17949  -0.13063  -0.11997  -0.11036
 Alpha virt. eigenvalues --   -0.05910  -0.05441  -0.04444  -0.03321  -0.03040
 Alpha virt. eigenvalues --   -0.02770  -0.01719  -0.01361  -0.00574  -0.00232
 Alpha virt. eigenvalues --   -0.00040   0.00323   0.00696   0.00762   0.00782

  Beta  occ. eigenvalues --  -38.44419 -38.44117 -38.44023 -38.43820 -38.43698
  Beta  occ. eigenvalues --  -38.43546 -38.43533  -2.20231  -2.19937  -2.19839
  Beta  occ. eigenvalues --   -2.19641  -2.19469  -2.19360  -2.19355  -1.13932
  Beta  occ. eigenvalues --   -1.13882  -1.13862  -1.13654  -1.13599  -1.13578
  Beta  occ. eigenvalues --   -1.13550  -1.13502  -1.13496  -1.13299  -1.13282
  Beta  occ. eigenvalues --   -1.13273  -1.13143  -1.13122  -1.13114  -1.13109
  Beta  occ. eigenvalues --   -1.13054  -1.13040  -1.13015  -1.12992  -1.12973
  Beta  occ. eigenvalues --   -0.17227  -0.12831  -0.11831
  Beta virt. eigenvalues --   -0.07111  -0.05815  -0.05348  -0.04336  -0.02662
  Beta virt. eigenvalues --   -0.02428  -0.01791  -0.01594  -0.01304  -0.00470
  Beta virt. eigenvalues --   -0.00240   0.00078   0.00383   0.00773   0.00833

 Mulliken charges and spin densities:
               1          2
     1  Na  -0.082616   0.614904
     2  Na   0.106773  -0.006850
     3  Na   0.169631  -0.017082
     4  Na   0.263432   0.408968
     5  Na  -0.121405   0.172933
     6  Na  -0.178083  -0.045860
     7  Na  -0.157733  -0.127013
 Sum of Mulliken charges =  -0.00000   1.00000

 Dipole moment (field-independent basis, Debye):
    X=              0.3579    Y=             -0.1938    Z=             -0.1784  Tot=              0.4444
 Quadrupole moment (field-independent basis, Debye-Ang):
   XX=            -57.5971   YY=            -64.7117   ZZ=            -72.9074
   XY=              0.1576   XZ=             -0.5663   YZ=             -1.1904

 Normal termination of Gaussian 16 at Tue Dec  5 16:45:15 2023.
