 Gaussian 16, Revision B.01,
 Gaussian 16:  ES64L-G16RevB.01 20-Dec-2017

 -------------------------
 #P B3LYP/6-311+g(d) force
 -------------------------

 -----
 DPGEN
 -----
 Symbolic Z-matrix:
 Charge =  0 Multiplicity = 2

                         Standard orientation:
 ---------------------------------------------------------------------
 Center     Atomic      Atomic             Coordinates (Angstroms)
 Number     Number       Type             X           Y           Z
 ---------------------------------------------------------------------
      1         11           0        0.795380   -1.065721   -1.458369
      2         11           0       -2.595751   -1.950604   -0.594498
      3         11           0        2.547250    2.215511   -0.705758
      4         11           0       -1.901054    1.271244   -1.286085
      5         11           0       -4.023695    0.583726    1.411253
      6         11           0        1.025119    0.228927    2.010474
      7         11           0        4.152749   -1.283084    0.622983
 ---------------------------------------------------------------------

 SCF Done:  E(UB3LYP) =  -1136.11009666     A.U. after   33 cycles

 The electronic state is 2-A.
 Alpha  occ. eigenvalues --  -38.45427 -38.44975 -38.44761 -38.44575 -38.44559
 Alpha  occ. eigenvalues --  -38.43335 -38.43011  -2.21157  -2.20761  -2.20593
 Alpha  occ. eigenvalues --   -2.20395  -2.20350  -2.19148  -2.18862  -1.14871
 Alpha  occ. eigenvalues --   -1.14842  -1.14785  -1.14431  -1.14389  -1.14383
 Alpha  occ. eigenvalues --   -1.14275  -1.14260  -1.14205  -1.14090  -1.14067
 Alpha  occ. eigenvalues --   -1.14011  -1.14007  -1.13998  -1.13952  -1.12814
 Alpha  occ. eigenvalues --   -1.12794  -1.12782  -1.12571  -1.12515  -1.12482
 Alpha  occ. eigenvalues --   -0.17336  -0.14415  -0.11072  -0.10557
 Alpha virt. eigenvalues --   -0.06884  -0.06210  -0.05021  -0.03172  -0.02871
 Alpha virt. eigenvalues --   -0.02353  -0.02072  -0.01708  -0.01279  -0.00803
 Alpha virt. eigenvalues --   -0.00105  -0.00034   0.00146   0.00266   0.00357

  Beta  occ. eigenvalues --  -38.45473 -38.44914 -38.44725 -38.44576 -38.44484
  Beta  occ. eigenvalues --  -38.43297 -38.42987  -2.21246  -2.20647  -2.20530
  Beta  occ. eigenvalues --   -2.20400  -2.20209  -2.19077  -2.18821  -1.14926
  Beta  occ. eigenvalues --   -1.14891  -1.14848  -1.14350  -1.14315  -1.14303
  Beta  occ. eigenvalues --   -1.14239  -1.14222  -1.14138  -1.14094  -1.14056
  Beta  occ. eigenvalues --   -1.14005  -1.13907  -1.13903  -1.13862  -1.12761
  Beta  occ. eigenvalues --   -1.12747  -1.12738  -1.12547  -1.12474  -1.12443
  Beta  occ. eigenvalues --   -0.16860  -0.13905  -0.10324
  Beta virt. eigenvalues --   -0.07459  -0.06855  -0.05487  -0.04882  -0.02791
  Beta virt. eigenvalues --   -0.02761  -0.01951  -0.01725  -0.01268  -0.01041
  Beta virt. eigenvalues --   -0.00413   0.00010   0.00175   0.00213   0.00319

 Mulliken charges and spin densities:
               1          2
     1  Na  -0.337620   0.167964
     2  Na   0.276218  -0.015690
     3  Na   0.189203   0.303047
     4  Na  -0.005856   0.329076
     5  Na  -0.090889   0.132269
     6  Na  -0.339034  -0.256807
     7  Na   0.307977   0.340140
 Sum of Mulliken charges =  -0.00000   1.00000

 Dipole moment (field-independent basis, Debye):
    X=              0.5878    Y=              0.1690    Z=             -0.4008  Tot=              0.7312
 Quadrupole moment (field-independent basis, Debye-Ang):
   XX=            -60.3276   YY=            -65.9373   ZZ=            -75.8359
   XY=              4.4153   XZ=             -1.4740   YZ=             -0.9402

 Normal termination of Gaussian 16 at Thu Dec  7 07:01:00 2023.
