 Gaussian 16, Revision B.01,
 Gaussian 16:  ES64L-G16RevB.01 20-Dec-2017

 -------------------------
 #P B3LYP/6-311+g(d) force
 -------------------------

 -----
 DPGEN
 -----
 Symbolic Z-matrix:
 Charge =  0 Multiplicity = 2

                         Standard orientation:
 ---------------------------------------------------------------------
 Center     Atomic      Atomic             Coordinates (Angstroms)
 Number     Number       Type             X           Y           Z
 ---------------------------------------------------------------------
      1         11           0       -0.944679    2.234060   -0.975296
      2         11           0        5.098236    0.170285    0.050707
      3         11           0        1.940115    1.509591    0.434123
      4         11           0        3.102147   -1.896794   -0.230965
      5         11           0       -0.566007   -1.599235   -0.083367
      6         11           0       -3.123281    0.415933    1.291867
      7         11           0       -5.506530   -0.833841   -0.487069
 ---------------------------------------------------------------------

 SCF Done:  E(UB3LYP) =  -1136.11724659     A.U. after   20 cycles

 The electronic state is 2-A.
 Alpha  occ. eigenvalues --  -38.44756 -38.44223 -38.44199 -38.44043 -38.43858
 Alpha  occ. eigenvalues --  -38.43800 -38.43675  -2.20580  -2.20102  -2.20033
 Alpha  occ. eigenvalues --   -2.19889  -2.19738  -2.19578  -2.19497  -1.14264
 Alpha  occ. eigenvalues --   -1.14203  -1.14189  -1.13862  -1.13761  -1.13749
 Alpha  occ. eigenvalues --   -1.13728  -1.13703  -1.13652  -1.13591  -1.13566
 Alpha  occ. eigenvalues --   -1.13510  -1.13369  -1.13364  -1.13348  -1.13239
 Alpha  occ. eigenvalues --   -1.13238  -1.13212  -1.13167  -1.13147  -1.13123
 Alpha  occ. eigenvalues --   -0.17109  -0.14473  -0.11509  -0.11241
 Alpha virt. eigenvalues --   -0.05980  -0.05857  -0.04813  -0.03331  -0.03152
 Alpha virt. eigenvalues --   -0.02459  -0.01822  -0.01534  -0.00906  -0.00577
 Alpha virt. eigenvalues --   -0.00300   0.00040   0.00260   0.00525   0.00632

  Beta  occ. eigenvalues --  -38.44662 -38.44199 -38.44196 -38.44022 -38.43830
  Beta  occ. eigenvalues --  -38.43792 -38.43659  -2.20408  -2.20063  -2.20028
  Beta  occ. eigenvalues --   -2.19852  -2.19685  -2.19563  -2.19467  -1.14151
  Beta  occ. eigenvalues --   -1.14087  -1.14055  -1.13811  -1.13741  -1.13718
  Beta  occ. eigenvalues --   -1.13715  -1.13701  -1.13650  -1.13567  -1.13531
  Beta  occ. eigenvalues --   -1.13478  -1.13331  -1.13326  -1.13312  -1.13229
  Beta  occ. eigenvalues --   -1.13226  -1.13204  -1.13145  -1.13122  -1.13107
  Beta  occ. eigenvalues --   -0.16432  -0.14269  -0.11189
  Beta virt. eigenvalues --   -0.07455  -0.05779  -0.05537  -0.04361  -0.03174
  Beta virt. eigenvalues --   -0.02725  -0.02005  -0.01537  -0.01295  -0.00742
  Beta virt. eigenvalues --   -0.00276  -0.00177   0.00242   0.00415   0.00598

 Mulliken charges and spin densities:
               1          2
     1  Na   0.250854   0.048834
     2  Na   0.395335   0.174510
     3  Na  -0.664568   0.184241
     4  Na  -0.252599  -0.175822
     5  Na  -0.327722   0.600088
     6  Na   0.428538   0.152361
     7  Na   0.170162   0.015787
 Sum of Mulliken charges =  -0.00000   1.00000

 Dipole moment (field-independent basis, Debye):
    X=              0.4677    Y=              0.2017    Z=             -0.3740  Tot=              0.6319
 Quadrupole moment (field-independent basis, Debye-Ang):
   XX=            -65.0640   YY=            -70.2465   ZZ=            -66.7300
   XY=             -0.1032   XZ=              4.1240   YZ=              1.8135

 Normal termination of Gaussian 16 at Tue Nov 28 20:50:19 2023.
