 Gaussian 16, Revision B.01,
 Gaussian 16:  ES64L-G16RevB.01 20-Dec-2017

 -------------------------
 #P B3LYP/6-311+g(d) force
 -------------------------

 -----
 DPGEN
 -----
 Symbolic Z-matrix:
 Charge =  0 Multiplicity = 2

                         Standard orientation:
 ---------------------------------------------------------------------
 Center     Atomic      Atomic             Coordinates (Angstroms)
 Number     Number       Type             X           Y           Z
 ---------------------------------------------------------------------
      1         11           0        1.020265    2.254471    0.651693
      2         11           0        0.832994   -2.237365    0.832890
      3         11           0        3.256106   -0.358135   -0.215717
      4         11           0        0.573049   -0.081044   -1.976889
      5         11           0       -2.595315   -1.896075   -0.691390
      6         11           0       -1.836724    2.125415   -0.736725
      7         11           0       -1.250375    0.192734    2.136138
 ---------------------------------------------------------------------

 SCF Done:  E(UB3LYP) =  -1136.13581387     A.U. after   20 cycles

 The electronic state is 2-A.
 Alpha  occ. eigenvalues --  -38.44036 -38.44020 -38.43843 -38.43544 -38.43532
 Alpha  occ. eigenvalues --  -38.43410 -38.43186  -2.19932  -2.19911  -2.19623
 Alpha  occ. eigenvalues --   -2.19408  -2.19401  -2.19275  -2.19081  -1.13610
 Alpha  occ. eigenvalues --   -1.13595  -1.13581  -1.13558  -1.13547  -1.13520
 Alpha  occ. eigenvalues --   -1.13295  -1.13278  -1.13262  -1.13100  -1.13087
 Alpha  occ. eigenvalues --   -1.13069  -1.13067  -1.13044  -1.13042  -1.12960
 Alpha  occ. eigenvalues --   -1.12938  -1.12877  -1.12761  -1.12743  -1.12696
 Alpha  occ. eigenvalues --   -0.18538  -0.12906  -0.12117  -0.11648
 Alpha virt. eigenvalues --   -0.05313  -0.04995  -0.04427  -0.03559  -0.03370
 Alpha virt. eigenvalues --   -0.03093  -0.01326  -0.00853  -0.00363   0.00124
 Alpha virt. eigenvalues --    0.00238   0.00408   0.00676   0.00875   0.00910

  Beta  occ. eigenvalues --  -38.43963 -38.43953 -38.43833 -38.43531 -38.43531
  Beta  occ. eigenvalues --  -38.43392 -38.43172  -2.19808  -2.19777  -2.19606
  Beta  occ. eigenvalues --   -2.19402  -2.19388  -2.19245  -2.19057  -1.13531
  Beta  occ. eigenvalues --   -1.13501  -1.13486  -1.13470  -1.13455  -1.13424
  Beta  occ. eigenvalues --   -1.13276  -1.13263  -1.13251  -1.13090  -1.13086
  Beta  occ. eigenvalues --   -1.13055  -1.13045  -1.13036  -1.13025  -1.12936
  Beta  occ. eigenvalues --   -1.12900  -1.12862  -1.12745  -1.12705  -1.12681
  Beta  occ. eigenvalues --   -0.17760  -0.12719  -0.11920
  Beta virt. eigenvalues --   -0.07692  -0.05157  -0.04900  -0.04161  -0.03097
  Beta virt. eigenvalues --   -0.02652  -0.02106  -0.01238  -0.00803  -0.00117
  Beta virt. eigenvalues --    0.00158   0.00232   0.00439   0.00853   0.00899

 Mulliken charges and spin densities:
               1          2
     1  Na  -0.024434   0.206035
     2  Na  -0.188915   0.165067
     3  Na   0.463870  -0.062751
     4  Na  -0.406313   0.458402
     5  Na  -0.004230  -0.036569
     6  Na   0.205925  -0.011253
     7  Na  -0.045903   0.281069
 Sum of Mulliken charges =  -0.00000   1.00000

 Dipole moment (field-independent basis, Debye):
    X=             -0.1407    Y=             -0.0128    Z=             -0.0819  Tot=              0.1633
 Quadrupole moment (field-independent basis, Debye-Ang):
   XX=            -58.9233   YY=            -69.6483   ZZ=            -67.2827
   XY=              0.0488   XZ=              2.2328   YZ=              0.2302

 Normal termination of Gaussian 16 at Sun Dec  3 17:19:23 2023.
