 Gaussian 16, Revision B.01,
 Gaussian 16:  ES64L-G16RevB.01 20-Dec-2017

 -------------------------
 #P B3LYP/6-311+g(d) force
 -------------------------

 -----
 DPGEN
 -----
 Symbolic Z-matrix:
 Charge =  0 Multiplicity = 2

                         Standard orientation:
 ---------------------------------------------------------------------
 Center     Atomic      Atomic             Coordinates (Angstroms)
 Number     Number       Type             X           Y           Z
 ---------------------------------------------------------------------
      1         11           0        2.106766   -1.041149   -0.881085
      2         11           0       -4.506191   -1.362796   -1.182120
      3         11           0       -5.820378    0.089108    1.382731
      4         11           0       -1.534525    0.473271   -0.258853
      5         11           0        0.612270    2.663535    0.083470
      6         11           0        4.409640    1.374259   -0.244141
      7         11           0        4.732418   -2.196228    1.099998
 ---------------------------------------------------------------------

 SCF Done:  E(UB3LYP) =  -1136.11360075     A.U. after   22 cycles

 The electronic state is 2-A.
 Alpha  occ. eigenvalues --  -38.44864 -38.44805 -38.44517 -38.44092 -38.44029
 Alpha  occ. eigenvalues --  -38.43406 -38.43089  -2.20646  -2.20595  -2.20325
 Alpha  occ. eigenvalues --   -2.19870  -2.19842  -2.19219  -2.18937  -1.14331
 Alpha  occ. eigenvalues --   -1.14303  -1.14297  -1.14262  -1.14256  -1.14191
 Alpha  occ. eigenvalues --   -1.14033  -1.14010  -1.13915  -1.13539  -1.13533
 Alpha  occ. eigenvalues --   -1.13524  -1.13498  -1.13486  -1.13430  -1.12923
 Alpha  occ. eigenvalues --   -1.12891  -1.12861  -1.12616  -1.12606  -1.12533
 Alpha  occ. eigenvalues --   -0.15974  -0.14373  -0.11799  -0.10124
 Alpha virt. eigenvalues --   -0.06609  -0.05971  -0.04455  -0.03568  -0.02700
 Alpha virt. eigenvalues --   -0.02449  -0.02152  -0.01668  -0.01094  -0.00603
 Alpha virt. eigenvalues --   -0.00469  -0.00166   0.00194   0.00350   0.00449

  Beta  occ. eigenvalues --  -38.44832 -38.44815 -38.44493 -38.44067 -38.43958
  Beta  occ. eigenvalues --  -38.43403 -38.43067  -2.20615  -2.20585  -2.20283
  Beta  occ. eigenvalues --   -2.19823  -2.19710  -2.19215  -2.18896  -1.14312
  Beta  occ. eigenvalues --   -1.14282  -1.14269  -1.14257  -1.14249  -1.14177
  Beta  occ. eigenvalues --   -1.13996  -1.13970  -1.13883  -1.13507  -1.13492
  Beta  occ. eigenvalues --   -1.13459  -1.13436  -1.13408  -1.13329  -1.12909
  Beta  occ. eigenvalues --   -1.12890  -1.12854  -1.12586  -1.12574  -1.12514
  Beta  occ. eigenvalues --   -0.15450  -0.14058  -0.11658
  Beta virt. eigenvalues --   -0.06851  -0.06084  -0.05603  -0.04087  -0.03428
  Beta virt. eigenvalues --   -0.02507  -0.02193  -0.01640  -0.01469  -0.00852
  Beta virt. eigenvalues --   -0.00415  -0.00167  -0.00004   0.00365   0.00384

 Mulliken charges and spin densities:
               1          2
     1  Na  -0.413266   0.302497
     2  Na   0.309668  -0.090613
     3  Na  -0.040605   0.181302
     4  Na  -1.668874  -0.321037
     5  Na   1.378151   0.568515
     6  Na  -0.102161   0.218792
     7  Na   0.537087   0.140544
 Sum of Mulliken charges =  -0.00000   1.00000

 Dipole moment (field-independent basis, Debye):
    X=             -1.0728    Y=             -0.5963    Z=              0.4907  Tot=              1.3219
 Quadrupole moment (field-independent basis, Debye-Ang):
   XX=            -59.6844   YY=            -69.0603   ZZ=            -64.1615
   XY=             -2.8709   XZ=              0.7902   YZ=              3.9695

 Normal termination of Gaussian 16 at Sun Dec  3 21:57:27 2023.
