 Gaussian 16, Revision B.01,
 Gaussian 16:  ES64L-G16RevB.01 20-Dec-2017

 -------------------------
 #P B3LYP/6-311+g(d) force
 -------------------------

 -----
 DPGEN
 -----
 Symbolic Z-matrix:
 Charge =  0 Multiplicity = 2

                         Standard orientation:
 ---------------------------------------------------------------------
 Center     Atomic      Atomic             Coordinates (Angstroms)
 Number     Number       Type             X           Y           Z
 ---------------------------------------------------------------------
      1         11           0        0.021142   -0.236745    2.133383
      2         11           0        3.145543   -1.350769   -0.261179
      3         11           0        2.347152    1.728777    0.126344
      4         11           0        0.210703   -0.016848   -1.637184
      5         11           0       -3.165743   -0.231152   -0.189940
      6         11           0       -1.198686   -2.396387   -0.059488
      7         11           0       -1.360112    2.503124   -0.111936
 ---------------------------------------------------------------------

 SCF Done:  E(UB3LYP) =  -1136.12966146     A.U. after   21 cycles

 The electronic state is 2-A.
 Alpha  occ. eigenvalues --  -38.44530 -38.44464 -38.43895 -38.43843 -38.43544
 Alpha  occ. eigenvalues --  -38.43074 -38.42736  -2.20426  -2.20280  -2.19769
 Alpha  occ. eigenvalues --   -2.19727  -2.19525  -2.19006  -2.18597  -1.14143
 Alpha  occ. eigenvalues --   -1.14069  -1.14067  -1.13962  -1.13945  -1.13916
 Alpha  occ. eigenvalues --   -1.13468  -1.13438  -1.13396  -1.13390  -1.13350
 Alpha  occ. eigenvalues --   -1.13340  -1.13222  -1.13181  -1.13134  -1.12689
 Alpha  occ. eigenvalues --   -1.12648  -1.12645  -1.12280  -1.12258  -1.12235
 Alpha  occ. eigenvalues --   -0.18891  -0.13787  -0.11821  -0.10973
 Alpha virt. eigenvalues --   -0.06242  -0.05298  -0.03863  -0.03609  -0.02764
 Alpha virt. eigenvalues --   -0.02558  -0.01997  -0.01106  -0.00223  -0.00094
 Alpha virt. eigenvalues --   -0.00050   0.00316   0.00699   0.00855   0.00878

  Beta  occ. eigenvalues --  -38.44526 -38.44461 -38.43889 -38.43738 -38.43485
  Beta  occ. eigenvalues --  -38.43066 -38.42733  -2.20421  -2.20277  -2.19762
  Beta  occ. eigenvalues --   -2.19534  -2.19419  -2.18995  -2.18595  -1.14144
  Beta  occ. eigenvalues --   -1.14069  -1.14041  -1.13963  -1.13928  -1.13912
  Beta  occ. eigenvalues --   -1.13460  -1.13409  -1.13387  -1.13269  -1.13212
  Beta  occ. eigenvalues --   -1.13206  -1.13149  -1.13105  -1.13053  -1.12685
  Beta  occ. eigenvalues --   -1.12643  -1.12601  -1.12278  -1.12250  -1.12224
  Beta  occ. eigenvalues --   -0.18147  -0.13560  -0.11583
  Beta virt. eigenvalues --   -0.07015  -0.06164  -0.05291  -0.03862  -0.02802
  Beta virt. eigenvalues --   -0.01912  -0.01827  -0.01611  -0.01057  -0.00255
  Beta virt. eigenvalues --   -0.00114   0.00100   0.00347   0.00771   0.00878

 Mulliken charges and spin densities:
               1          2
     1  Na  -0.624688   0.624178
     2  Na   0.233272  -0.050166
     3  Na   0.134308   0.056500
     4  Na  -0.444294   0.315775
     5  Na   0.101639   0.016251
     6  Na   0.483880   0.021307
     7  Na   0.115884   0.016154
 Sum of Mulliken charges =  -0.00000   1.00000

 Dipole moment (field-independent basis, Debye):
    X=              0.4472    Y=             -0.1518    Z=              0.1644  Tot=              0.5001
 Quadrupole moment (field-independent basis, Debye-Ang):
   XX=            -52.1812   YY=            -68.7971   ZZ=            -73.3695
   XY=             -0.9564   XZ=              0.3750   YZ=              0.8245

 Normal termination of Gaussian 16 at Thu Dec  7 03:43:03 2023.
