 Gaussian 16, Revision B.01,
 Gaussian 16:  ES64L-G16RevB.01 20-Dec-2017

 -------------------------
 #P B3LYP/6-311+g(d) force
 -------------------------

 -----
 DPGEN
 -----
 Symbolic Z-matrix:
 Charge =  0 Multiplicity = 2

                         Standard orientation:
 ---------------------------------------------------------------------
 Center     Atomic      Atomic             Coordinates (Angstroms)
 Number     Number       Type             X           Y           Z
 ---------------------------------------------------------------------
      1         11           0       -1.254760   -0.005406    2.139896
      2         11           0       -2.130128    2.096850   -0.606100
      3         11           0        1.434125    2.088755    0.523536
      4         11           0        0.811916   -2.218395    0.301637
      5         11           0        4.312384   -0.366134   -0.256455
      6         11           0       -0.063861   -0.038650   -1.652740
      7         11           0       -3.109677   -1.557020   -0.449774
 ---------------------------------------------------------------------

 SCF Done:  E(UB3LYP) =  -1136.12348354     A.U. after   24 cycles

 The electronic state is 2-A.
 Alpha  occ. eigenvalues --  -38.45492 -38.44463 -38.43970 -38.43677 -38.43608
 Alpha  occ. eigenvalues --  -38.43378 -38.43296  -2.21212  -2.20261  -2.19929
 Alpha  occ. eigenvalues --   -2.19560  -2.19444  -2.19193  -2.19161  -1.14893
 Alpha  occ. eigenvalues --   -1.14879  -1.14834  -1.13940  -1.13919  -1.13893
 Alpha  occ. eigenvalues --   -1.13663  -1.13595  -1.13530  -1.13236  -1.13197
 Alpha  occ. eigenvalues --   -1.13170  -1.13162  -1.13114  -1.13008  -1.12895
 Alpha  occ. eigenvalues --   -1.12875  -1.12855  -1.12815  -1.12796  -1.12767
 Alpha  occ. eigenvalues --   -0.18303  -0.13121  -0.11504  -0.10956
 Alpha virt. eigenvalues --   -0.07145  -0.05121  -0.03763  -0.03185  -0.02773
 Alpha virt. eigenvalues --   -0.02645  -0.02528  -0.01398  -0.00609  -0.00239
 Alpha virt. eigenvalues --    0.00062   0.00115   0.00386   0.00707   0.00773

  Beta  occ. eigenvalues --  -38.45498 -38.44454 -38.43914 -38.43596 -38.43581
  Beta  occ. eigenvalues --  -38.43369 -38.43280  -2.21224  -2.20248  -2.19828
  Beta  occ. eigenvalues --   -2.19426  -2.19382  -2.19179  -2.19135  -1.14900
  Beta  occ. eigenvalues --   -1.14889  -1.14843  -1.13924  -1.13900  -1.13883
  Beta  occ. eigenvalues --   -1.13587  -1.13527  -1.13453  -1.13158  -1.13114
  Beta  occ. eigenvalues --   -1.13079  -1.13075  -1.13031  -1.12997  -1.12887
  Beta  occ. eigenvalues --   -1.12845  -1.12827  -1.12792  -1.12787  -1.12744
  Beta  occ. eigenvalues --   -0.17539  -0.12986  -0.11272
  Beta virt. eigenvalues --   -0.07064  -0.06919  -0.05089  -0.03623  -0.02736
  Beta virt. eigenvalues --   -0.02533  -0.01891  -0.01626  -0.01352  -0.00364
  Beta virt. eigenvalues --   -0.00150   0.00060   0.00132   0.00571   0.00749

 Mulliken charges and spin densities:
               1          2
     1  Na  -0.174960   0.650430
     2  Na   0.175438   0.009188
     3  Na  -0.121602   0.006285
     4  Na  -0.050834  -0.057800
     5  Na   0.071232  -0.048150
     6  Na  -0.083678   0.509112
     7  Na   0.184403  -0.069065
 Sum of Mulliken charges =  -0.00000   1.00000

 Dipole moment (field-independent basis, Debye):
    X=              0.4791    Y=             -0.1878    Z=             -0.0124  Tot=              0.5147
 Quadrupole moment (field-independent basis, Debye-Ang):
   XX=            -45.0926   YY=            -72.8475   ZZ=            -72.8395
   XY=              0.3873   XZ=              0.4917   YZ=              0.6703

 Normal termination of Gaussian 16 at Tue Dec  5 11:17:36 2023.
