 Gaussian 16, Revision B.01,
 Gaussian 16:  ES64L-G16RevB.01 20-Dec-2017

 -------------------------
 #P B3LYP/6-311+g(d) force
 -------------------------

 -----
 DPGEN
 -----
 Symbolic Z-matrix:
 Charge =  0 Multiplicity = 2

                         Standard orientation:
 ---------------------------------------------------------------------
 Center     Atomic      Atomic             Coordinates (Angstroms)
 Number     Number       Type             X           Y           Z
 ---------------------------------------------------------------------
      1         11           0        1.535663    2.184375   -0.174962
      2         11           0        4.114195   -0.462780   -0.695555
      3         11           0       -1.873466    1.938916    0.669356
      4         11           0        0.436316   -0.970008   -1.751287
      5         11           0        1.534133   -0.879830    1.796136
      6         11           0       -1.665091   -1.421681    1.254199
      7         11           0       -4.081749   -0.388993   -1.097888
 ---------------------------------------------------------------------

 SCF Done:  E(UB3LYP) =  -1136.11745968     A.U. after   33 cycles

 The electronic state is 2-A.
 Alpha  occ. eigenvalues --  -38.45973 -38.45286 -38.44969 -38.44400 -38.43610
 Alpha  occ. eigenvalues --  -38.42792 -38.42386  -2.21739  -2.21067  -2.20756
 Alpha  occ. eigenvalues --   -2.20271  -2.19495  -2.18618  -2.18219  -1.15432
 Alpha  occ. eigenvalues --   -1.15409  -1.15345  -1.14743  -1.14717  -1.14689
 Alpha  occ. eigenvalues --   -1.14418  -1.14403  -1.14377  -1.13964  -1.13901
 Alpha  occ. eigenvalues --   -1.13890  -1.13185  -1.13151  -1.13122  -1.12311
 Alpha  occ. eigenvalues --   -1.12294  -1.12235  -1.11920  -1.11898  -1.11829
 Alpha  occ. eigenvalues --   -0.17962  -0.14123  -0.11460  -0.10474
 Alpha virt. eigenvalues --   -0.07470  -0.05326  -0.04688  -0.03200  -0.03065
 Alpha virt. eigenvalues --   -0.02366  -0.02226  -0.01659  -0.00904  -0.00302
 Alpha virt. eigenvalues --   -0.00146   0.00164   0.00294   0.00510   0.00719

  Beta  occ. eigenvalues --  -38.45952 -38.45267 -38.44925 -38.44330 -38.43568
  Beta  occ. eigenvalues --  -38.42788 -38.42388  -2.21700  -2.21033  -2.20672
  Beta  occ. eigenvalues --   -2.20146  -2.19425  -2.18611  -2.18222  -1.15400
  Beta  occ. eigenvalues --   -1.15378  -1.15316  -1.14717  -1.14693  -1.14667
  Beta  occ. eigenvalues --   -1.14361  -1.14342  -1.14324  -1.13869  -1.13808
  Beta  occ. eigenvalues --   -1.13796  -1.13137  -1.13104  -1.13035  -1.12300
  Beta  occ. eigenvalues --   -1.12290  -1.12229  -1.11922  -1.11897  -1.11828
  Beta  occ. eigenvalues --   -0.17285  -0.13781  -0.10363
  Beta virt. eigenvalues --   -0.07667  -0.07189  -0.04882  -0.04464  -0.02875
  Beta virt. eigenvalues --   -0.02810  -0.01784  -0.01723  -0.01292  -0.00759
  Beta virt. eigenvalues --   -0.00206  -0.00060   0.00261   0.00341   0.00653

 Mulliken charges and spin densities:
               1          2
     1  Na  -0.307480   0.063600
     2  Na   0.791939   0.128901
     3  Na  -0.498764   0.038490
     4  Na  -0.428804   0.159158
     5  Na  -0.161664   0.190289
     6  Na   0.043051   0.166935
     7  Na   0.561721   0.252628
 Sum of Mulliken charges =  -0.00000   1.00000

 Dipole moment (field-independent basis, Debye):
    X=              0.6522    Y=             -0.7359    Z=             -0.6918  Tot=              1.2022
 Quadrupole moment (field-independent basis, Debye-Ang):
   XX=            -45.5012   YY=            -83.5106   ZZ=            -65.7206
   XY=             -0.6064   XZ=              2.0165   YZ=             -1.0808

 Normal termination of Gaussian 16 at Fri Dec  8 03:13:44 2023.
