 Gaussian 16, Revision B.01,
 Gaussian 16:  ES64L-G16RevB.01 20-Dec-2017

 -------------------------
 #P B3LYP/6-311+g(d) force
 -------------------------

 -----
 DPGEN
 -----
 Symbolic Z-matrix:
 Charge =  0 Multiplicity = 2

                         Standard orientation:
 ---------------------------------------------------------------------
 Center     Atomic      Atomic             Coordinates (Angstroms)
 Number     Number       Type             X           Y           Z
 ---------------------------------------------------------------------
      1         11           0       -4.206784   -1.429645   -0.371690
      2         11           0       -1.579088   -2.977424   -0.339757
      3         11           0        2.379315   -2.717665    0.598241
      4         11           0        4.758529   -0.508358   -0.028924
      5         11           0       -0.247970    2.786582   -0.153228
      6         11           0        2.816819    2.651177   -0.336296
      7         11           0       -3.920821    2.195333    0.631654
 ---------------------------------------------------------------------

 SCF Done:  E(UB3LYP) =  -1136.10591125     A.U. after   23 cycles

 The electronic state is 2-A.
 Alpha  occ. eigenvalues --  -38.45065 -38.45045 -38.45034 -38.44368 -38.44348
 Alpha  occ. eigenvalues --  -38.44184 -38.44055  -2.20862  -2.20829  -2.20791
 Alpha  occ. eigenvalues --   -2.20157  -2.20137  -2.19994  -2.19881  -1.14569
 Alpha  occ. eigenvalues --   -1.14528  -1.14516  -1.14495  -1.14495  -1.14475
 Alpha  occ. eigenvalues --   -1.14464  -1.14453  -1.14396  -1.13865  -1.13830
 Alpha  occ. eigenvalues --   -1.13820  -1.13786  -1.13765  -1.13762  -1.13648
 Alpha  occ. eigenvalues --   -1.13641  -1.13629  -1.13526  -1.13525  -1.13499
 Alpha  occ. eigenvalues --   -0.15612  -0.14254  -0.13212  -0.11016
 Alpha virt. eigenvalues --   -0.07774  -0.04609  -0.04531  -0.03688  -0.03643
 Alpha virt. eigenvalues --   -0.02597  -0.02347  -0.01723  -0.01069  -0.00916
 Alpha virt. eigenvalues --   -0.00707  -0.00386   0.00075   0.00463   0.00596

  Beta  occ. eigenvalues --  -38.45057 -38.45024 -38.45020 -38.44357 -38.44256
  Beta  occ. eigenvalues --  -38.44139 -38.44010  -2.20854  -2.20785  -2.20775
  Beta  occ. eigenvalues --   -2.20144  -2.19966  -2.19911  -2.19799  -1.14549
  Beta  occ. eigenvalues --   -1.14528  -1.14484  -1.14468  -1.14467  -1.14455
  Beta  occ. eigenvalues --   -1.14444  -1.14439  -1.14366  -1.13833  -1.13826
  Beta  occ. eigenvalues --   -1.13794  -1.13669  -1.13651  -1.13648  -1.13594
  Beta  occ. eigenvalues --   -1.13585  -1.13570  -1.13472  -1.13469  -1.13440
  Beta  occ. eigenvalues --   -0.15104  -0.13503  -0.12406
  Beta virt. eigenvalues --   -0.07981  -0.07860  -0.04122  -0.04035  -0.03480
  Beta virt. eigenvalues --   -0.03430  -0.02365  -0.02118  -0.01492  -0.00844
  Beta virt. eigenvalues --   -0.00551  -0.00506  -0.00185   0.00232   0.00543

 Mulliken charges and spin densities:
               1          2
     1  Na   0.141474   0.055050
     2  Na  -0.116385   0.152759
     3  Na  -0.057409   0.041379
     4  Na   0.065731   0.142703
     5  Na  -0.552633   0.195460
     6  Na  -0.021742  -0.039127
     7  Na   0.540965   0.451777
 Sum of Mulliken charges =  -0.00000   1.00000

 Dipole moment (field-independent basis, Debye):
    X=              0.5969    Y=             -0.4517    Z=              0.0289  Tot=              0.7491
 Quadrupole moment (field-independent basis, Debye-Ang):
   XX=            -52.3593   YY=            -73.1102   ZZ=            -73.9088
   XY=              2.5879   XZ=             -0.6494   YZ=             -0.3137

 Normal termination of Gaussian 16 at Sun Dec  3 20:34:37 2023.
