 Gaussian 16, Revision B.01,
 Gaussian 16:  ES64L-G16RevB.01 20-Dec-2017

 -------------------------
 #P B3LYP/6-311+g(d) force
 -------------------------

 -----
 DPGEN
 -----
 Symbolic Z-matrix:
 Charge =  0 Multiplicity = 2

                         Standard orientation:
 ---------------------------------------------------------------------
 Center     Atomic      Atomic             Coordinates (Angstroms)
 Number     Number       Type             X           Y           Z
 ---------------------------------------------------------------------
      1         11           0        0.226370   -3.068327   -0.347814
      2         11           0        2.516319   -0.872396    1.928475
      3         11           0       -3.697548    0.662762   -0.778444
      4         11           0        3.266506   -0.922421   -1.613122
      5         11           0       -3.278983   -1.966626    0.591416
      6         11           0        1.996847    2.727356   -0.071959
      7         11           0       -1.029511    3.439651    0.291449
 ---------------------------------------------------------------------

 SCF Done:  E(UB3LYP) =  -1136.10549212     A.U. after   25 cycles

 The electronic state is 2-A.
 Alpha  occ. eigenvalues --  -38.46379 -38.44680 -38.44292 -38.44266 -38.44025
 Alpha  occ. eigenvalues --  -38.43949 -38.43906  -2.22104  -2.20444  -2.20099
 Alpha  occ. eigenvalues --   -2.20057  -2.19845  -2.19761  -2.19696  -1.15784
 Alpha  occ. eigenvalues --   -1.15760  -1.15746  -1.14120  -1.14103  -1.14060
 Alpha  occ. eigenvalues --   -1.13852  -1.13761  -1.13752  -1.13737  -1.13732
 Alpha  occ. eigenvalues --   -1.13695  -1.13490  -1.13477  -1.13464  -1.13420
 Alpha  occ. eigenvalues --   -1.13402  -1.13370  -1.13360  -1.13351  -1.13330
 Alpha  occ. eigenvalues --   -0.16050  -0.13722  -0.12863  -0.09785
 Alpha virt. eigenvalues --   -0.07348  -0.06550  -0.04063  -0.03567  -0.02728
 Alpha virt. eigenvalues --   -0.02403  -0.02115  -0.01971  -0.01418  -0.01067
 Alpha virt. eigenvalues --   -0.00644   0.00018   0.00109   0.00416   0.00459

  Beta  occ. eigenvalues --  -38.46385 -38.44635 -38.44292 -38.44256 -38.43986
  Beta  occ. eigenvalues --  -38.43896 -38.43859  -2.22116  -2.20363  -2.20103
  Beta  occ. eigenvalues --   -2.20043  -2.19772  -2.19679  -2.19594  -1.15790
  Beta  occ. eigenvalues --   -1.15758  -1.15750  -1.14058  -1.14044  -1.14006
  Beta  occ. eigenvalues --   -1.13837  -1.13768  -1.13742  -1.13724  -1.13719
  Beta  occ. eigenvalues --   -1.13673  -1.13440  -1.13433  -1.13414  -1.13351
  Beta  occ. eigenvalues --   -1.13340  -1.13309  -1.13305  -1.13286  -1.13259
  Beta  occ. eigenvalues --   -0.15611  -0.13251  -0.12423
  Beta virt. eigenvalues --   -0.07049  -0.06582  -0.06404  -0.03743  -0.03336
  Beta virt. eigenvalues --   -0.02411  -0.02107  -0.01743  -0.01614  -0.01294
  Beta virt. eigenvalues --   -0.00960  -0.00253   0.00202   0.00236   0.00563

 Mulliken charges and spin densities:
               1          2
     1  Na  -0.251279   0.287955
     2  Na   0.276742   0.020672
     3  Na  -0.116601   0.178348
     4  Na   0.109733   0.485777
     5  Na   0.058546  -0.030799
     6  Na  -0.119075   0.060375
     7  Na   0.041934  -0.002328
 Sum of Mulliken charges =  -0.00000   1.00000

 Dipole moment (field-independent basis, Debye):
    X=              0.5834    Y=             -0.5250    Z=              0.9463  Tot=              1.2294
 Quadrupole moment (field-independent basis, Debye-Ang):
   XX=            -69.1010   YY=            -70.9646   ZZ=            -65.5947
   XY=             -0.8570   XZ=              4.5924   YZ=             -0.3285

 Normal termination of Gaussian 16 at Sun Dec  3 17:56:33 2023.
