 Gaussian 16, Revision B.01,
 Gaussian 16:  ES64L-G16RevB.01 20-Dec-2017

 -------------------------
 #P B3LYP/6-311+g(d) force
 -------------------------

 -----
 DPGEN
 -----
 Symbolic Z-matrix:
 Charge =  0 Multiplicity = 2

                         Standard orientation:
 ---------------------------------------------------------------------
 Center     Atomic      Atomic             Coordinates (Angstroms)
 Number     Number       Type             X           Y           Z
 ---------------------------------------------------------------------
      1         11           0        0.217984   -1.532062    0.331399
      2         11           0        6.470622   -0.303827   -0.146476
      3         11           0        3.230531   -0.186534   -0.354823
      4         11           0        0.796845    2.118358   -0.064606
      5         11           0       -2.078899    1.325897    0.934397
      6         11           0       -3.372023   -1.856860    0.174768
      7         11           0       -5.265060    0.435029   -0.874659
 ---------------------------------------------------------------------

 SCF Done:  E(UB3LYP) =  -1136.11789108     A.U. after   21 cycles

 The electronic state is 2-A.
 Alpha  occ. eigenvalues --  -38.44737 -38.44484 -38.44472 -38.44425 -38.44276
 Alpha  occ. eigenvalues --  -38.43725 -38.43210  -2.20605  -2.20344  -2.20292
 Alpha  occ. eigenvalues --   -2.20283  -2.20141  -2.19485  -2.19074  -1.14306
 Alpha  occ. eigenvalues --   -1.14273  -1.14230  -1.14024  -1.14013  -1.14007
 Alpha  occ. eigenvalues --   -1.13960  -1.13949  -1.13944  -1.13936  -1.13925
 Alpha  occ. eigenvalues --   -1.13845  -1.13811  -1.13793  -1.13751  -1.13153
 Alpha  occ. eigenvalues --   -1.13151  -1.13150  -1.12772  -1.12743  -1.12678
 Alpha  occ. eigenvalues --   -0.17537  -0.14344  -0.11853  -0.11353
 Alpha virt. eigenvalues --   -0.07022  -0.05559  -0.04393  -0.03706  -0.03157
 Alpha virt. eigenvalues --   -0.02426  -0.02081  -0.01427  -0.00970  -0.00644
 Alpha virt. eigenvalues --   -0.00250  -0.00124   0.00042   0.00252   0.00612

  Beta  occ. eigenvalues --  -38.44697 -38.44444 -38.44408 -38.44395 -38.44238
  Beta  occ. eigenvalues --  -38.43747 -38.43203  -2.20534  -2.20239  -2.20231
  Beta  occ. eigenvalues --   -2.20205  -2.20072  -2.19525  -2.19060  -1.14253
  Beta  occ. eigenvalues --   -1.14212  -1.14175  -1.13979  -1.13930  -1.13923
  Beta  occ. eigenvalues --   -1.13920  -1.13902  -1.13895  -1.13880  -1.13846
  Beta  occ. eigenvalues --   -1.13790  -1.13750  -1.13743  -1.13712  -1.13180
  Beta  occ. eigenvalues --   -1.13179  -1.13176  -1.12750  -1.12733  -1.12687
  Beta  occ. eigenvalues --   -0.16787  -0.14196  -0.11459
  Beta virt. eigenvalues --   -0.07718  -0.06772  -0.04914  -0.04162  -0.03401
  Beta virt. eigenvalues --   -0.02572  -0.02115  -0.01853  -0.01345  -0.00635
  Beta virt. eigenvalues --   -0.00534  -0.00030   0.00084   0.00239   0.00395

 Mulliken charges and spin densities:
               1          2
     1  Na   0.820613   0.803183
     2  Na  -0.322696  -0.130873
     3  Na  -0.709398  -0.339070
     4  Na   1.030977   0.427307
     5  Na  -1.039816   0.073761
     6  Na  -0.087148   0.019090
     7  Na   0.307468   0.146603
 Sum of Mulliken charges =  -0.00000   1.00000

 Dipole moment (field-independent basis, Debye):
    X=             -1.9890    Y=              0.4086    Z=             -0.0618  Tot=              2.0315
 Quadrupole moment (field-independent basis, Debye-Ang):
   XX=            -62.1278   YY=            -67.5797   ZZ=            -70.5623
   XY=              0.3889   XZ=              2.6676   YZ=             -1.2921

 Normal termination of Gaussian 16 at Tue Nov 28 20:05:20 2023.
