 Gaussian 16, Revision B.01,
 Gaussian 16:  ES64L-G16RevB.01 20-Dec-2017

 -------------------------
 #P B3LYP/6-311+g(d) force
 -------------------------

 -----
 DPGEN
 -----
 Symbolic Z-matrix:
 Charge =  0 Multiplicity = 2

                         Standard orientation:
 ---------------------------------------------------------------------
 Center     Atomic      Atomic             Coordinates (Angstroms)
 Number     Number       Type             X           Y           Z
 ---------------------------------------------------------------------
      1         11           0       -1.670021    1.722454    0.390104
      2         11           0        1.468692   -0.666856   -1.662462
      3         11           0       -4.419617   -0.469797   -0.412396
      4         11           0        1.680701    2.687194   -0.723320
      5         11           0        3.086003   -1.939014    0.151322
      6         11           0       -1.467561   -1.796221    0.345521
      7         11           0        1.321804    0.462239    1.911231
 ---------------------------------------------------------------------

 SCF Done:  E(UB3LYP) =  -1136.12182424     A.U. after   21 cycles

 The electronic state is 2-A.
 Alpha  occ. eigenvalues --  -38.44797 -38.44614 -38.44252 -38.43899 -38.43801
 Alpha  occ. eigenvalues --  -38.43412 -38.43187  -2.20593  -2.20430  -2.20133
 Alpha  occ. eigenvalues --   -2.19746  -2.19726  -2.19308  -2.19020  -1.14264
 Alpha  occ. eigenvalues --   -1.14252  -1.14231  -1.14137  -1.14113  -1.14028
 Alpha  occ. eigenvalues --   -1.14016  -1.13767  -1.13736  -1.13440  -1.13421
 Alpha  occ. eigenvalues --   -1.13385  -1.13352  -1.13323  -1.13313  -1.12985
 Alpha  occ. eigenvalues --   -1.12958  -1.12911  -1.12689  -1.12683  -1.12637
 Alpha  occ. eigenvalues --   -0.18045  -0.13981  -0.11799  -0.10578
 Alpha virt. eigenvalues --   -0.06822  -0.05505  -0.03933  -0.03450  -0.02899
 Alpha virt. eigenvalues --   -0.02489  -0.02287  -0.01370  -0.00682  -0.00256
 Alpha virt. eigenvalues --   -0.00014   0.00088   0.00392   0.00679   0.00752

  Beta  occ. eigenvalues --  -38.44789 -38.44606 -38.44245 -38.43896 -38.43747
  Beta  occ. eigenvalues --  -38.43337 -38.43161  -2.20577  -2.20417  -2.20125
  Beta  occ. eigenvalues --   -2.19722  -2.19648  -2.19169  -2.18974  -1.14253
  Beta  occ. eigenvalues --   -1.14240  -1.14222  -1.14132  -1.14086  -1.14007
  Beta  occ. eigenvalues --   -1.14003  -1.13756  -1.13717  -1.13435  -1.13399
  Beta  occ. eigenvalues --   -1.13316  -1.13315  -1.13291  -1.13250  -1.12885
  Beta  occ. eigenvalues --   -1.12866  -1.12811  -1.12656  -1.12645  -1.12601
  Beta  occ. eigenvalues --   -0.17389  -0.13751  -0.11622
  Beta virt. eigenvalues --   -0.06809  -0.06508  -0.05420  -0.03833  -0.02987
  Beta virt. eigenvalues --   -0.02534  -0.02091  -0.01524  -0.01169  -0.00457
  Beta virt. eigenvalues --   -0.00070   0.00049   0.00136   0.00603   0.00716

 Mulliken charges and spin densities:
               1          2
     1  Na  -0.326347   0.006310
     2  Na  -0.187732   0.405123
     3  Na   0.361788   0.033107
     4  Na  -0.054881   0.076650
     5  Na   0.364737  -0.017693
     6  Na  -0.329257   0.012312
     7  Na   0.171690   0.484191
 Sum of Mulliken charges =  -0.00000   1.00000

 Dipole moment (field-independent basis, Debye):
    X=             -1.1507    Y=             -0.1679    Z=              0.2057  Tot=              1.1809
 Quadrupole moment (field-independent basis, Debye-Ang):
   XX=            -50.4043   YY=            -69.9265   ZZ=            -73.7346
   XY=             -0.4728   XZ=              4.0140   YZ=             -1.4006

 Normal termination of Gaussian 16 at Tue Dec  5 19:02:44 2023.
