 Gaussian 16, Revision B.01,
 Gaussian 16:  ES64L-G16RevB.01 20-Dec-2017

 -------------------------
 #P B3LYP/6-311+g(d) force
 -------------------------

 -----
 DPGEN
 -----
 Symbolic Z-matrix:
 Charge =  0 Multiplicity = 2

                         Standard orientation:
 ---------------------------------------------------------------------
 Center     Atomic      Atomic             Coordinates (Angstroms)
 Number     Number       Type             X           Y           Z
 ---------------------------------------------------------------------
      1         11           0        2.912499    1.721517   -0.268124
      2         11           0       -2.502002   -0.417761    1.213312
      3         11           0       -0.245385   -0.567260   -1.727142
      4         11           0       -0.402659    2.291004    0.588378
      5         11           0        3.477274   -1.333636   -0.600575
      6         11           0        1.201974   -1.446234    1.638199
      7         11           0       -4.441701   -0.247629   -0.844049
 ---------------------------------------------------------------------

 SCF Done:  E(UB3LYP) =  -1136.10975832     A.U. after   27 cycles

 The electronic state is 2-A.
 Alpha  occ. eigenvalues --  -38.47293 -38.44708 -38.44323 -38.44171 -38.43987
 Alpha  occ. eigenvalues --  -38.43518 -38.42085  -2.23037  -2.20553  -2.20237
 Alpha  occ. eigenvalues --   -2.20022  -2.19850  -2.19392  -2.17924  -1.16742
 Alpha  occ. eigenvalues --   -1.16695  -1.16650  -1.14381  -1.14174  -1.14164
 Alpha  occ. eigenvalues --   -1.13889  -1.13869  -1.13846  -1.13701  -1.13691
 Alpha  occ. eigenvalues --   -1.13641  -1.13516  -1.13506  -1.13469  -1.13070
 Alpha  occ. eigenvalues --   -1.13044  -1.13024  -1.11599  -1.11591  -1.11569
 Alpha  occ. eigenvalues --   -0.18099  -0.14553  -0.11109  -0.10832
 Alpha virt. eigenvalues --   -0.07825  -0.05022  -0.04806  -0.03384  -0.03103
 Alpha virt. eigenvalues --   -0.02468  -0.02157  -0.01508  -0.01119  -0.00248
 Alpha virt. eigenvalues --   -0.00148   0.00114   0.00200   0.00526   0.00709

  Beta  occ. eigenvalues --  -38.47285 -38.44673 -38.44305 -38.44136 -38.43910
  Beta  occ. eigenvalues --  -38.43513 -38.42082  -2.23022  -2.20487  -2.20210
  Beta  occ. eigenvalues --   -2.19956  -2.19709  -2.19385  -2.17920  -1.16714
  Beta  occ. eigenvalues --   -1.16688  -1.16640  -1.14338  -1.14127  -1.14116
  Beta  occ. eigenvalues --   -1.13869  -1.13857  -1.13785  -1.13659  -1.13637
  Beta  occ. eigenvalues --   -1.13600  -1.13422  -1.13409  -1.13364  -1.13065
  Beta  occ. eigenvalues --   -1.13024  -1.13012  -1.11601  -1.11579  -1.11561
  Beta  occ. eigenvalues --   -0.17457  -0.14204  -0.10684
  Beta virt. eigenvalues --   -0.07601  -0.07393  -0.04602  -0.04361  -0.03192
  Beta virt. eigenvalues --   -0.02921  -0.01893  -0.01733  -0.01092  -0.00950
  Beta virt. eigenvalues --   -0.00161  -0.00067   0.00229   0.00288   0.00660

 Mulliken charges and spin densities:
               1          2
     1  Na  -0.138659   0.191840
     2  Na   0.196881   0.069882
     3  Na  -0.334005   0.088786
     4  Na  -0.255872   0.026846
     5  Na   0.498579   0.138551
     6  Na  -0.231207   0.280692
     7  Na   0.264283   0.203402
 Sum of Mulliken charges =  -0.00000   1.00000

 Dipole moment (field-independent basis, Debye):
    X=             -0.3847    Y=             -0.1962    Z=             -0.7346  Tot=              0.8521
 Quadrupole moment (field-independent basis, Debye-Ang):
   XX=            -57.7101   YY=            -80.1429   ZZ=            -64.2831
   XY=             -0.1648   XZ=              0.2290   YZ=              0.9751

 Normal termination of Gaussian 16 at Thu Dec  7 06:48:48 2023.
