 Gaussian 16, Revision B.01,
 Gaussian 16:  ES64L-G16RevB.01 20-Dec-2017

 -------------------------
 #P B3LYP/6-311+g(d) force
 -------------------------

 -----
 DPGEN
 -----
 Symbolic Z-matrix:
 Charge =  0 Multiplicity = 2

                         Standard orientation:
 ---------------------------------------------------------------------
 Center     Atomic      Atomic             Coordinates (Angstroms)
 Number     Number       Type             X           Y           Z
 ---------------------------------------------------------------------
      1         11           0        0.212540   -1.423140   -0.863172
      2         11           0        2.079118    1.582989   -0.207820
      3         11           0       -2.918445   -0.275213   -1.941149
      4         11           0        0.165398    0.051904    1.971724
      5         11           0       -1.390268    2.284195    0.001155
      6         11           0        4.358980   -0.901939   -0.403178
      7         11           0       -2.507323   -1.318797    1.442440
 ---------------------------------------------------------------------

 SCF Done:  E(UB3LYP) =  -1136.12075732     A.U. after   25 cycles

 The electronic state is 2-A.
 Alpha  occ. eigenvalues --  -38.44661 -38.44462 -38.44447 -38.43954 -38.43622
 Alpha  occ. eigenvalues --  -38.43435 -38.43144  -2.20547  -2.20317  -2.20202
 Alpha  occ. eigenvalues --   -2.19795  -2.19607  -2.19324  -2.19015  -1.14267
 Alpha  occ. eigenvalues --   -1.14186  -1.14150  -1.14056  -1.14011  -1.13886
 Alpha  occ. eigenvalues --   -1.13885  -1.13876  -1.13833  -1.13458  -1.13448
 Alpha  occ. eigenvalues --   -1.13407  -1.13300  -1.13272  -1.13201  -1.13023
 Alpha  occ. eigenvalues --   -1.13008  -1.12904  -1.12688  -1.12667  -1.12630
 Alpha  occ. eigenvalues --   -0.18641  -0.13650  -0.12044  -0.10997
 Alpha virt. eigenvalues --   -0.06878  -0.04781  -0.04427  -0.03311  -0.02816
 Alpha virt. eigenvalues --   -0.02667  -0.02453  -0.01192  -0.00889  -0.00019
 Alpha virt. eigenvalues --    0.00063   0.00224   0.00359   0.00645   0.00828

  Beta  occ. eigenvalues --  -38.44605 -38.44467 -38.44441 -38.43900 -38.43567
  Beta  occ. eigenvalues --  -38.43428 -38.43101  -2.20450  -2.20283  -2.20239
  Beta  occ. eigenvalues --   -2.19696  -2.19510  -2.19309  -2.18937  -1.14181
  Beta  occ. eigenvalues --   -1.14118  -1.14077  -1.14021  -1.13969  -1.13911
  Beta  occ. eigenvalues --   -1.13901  -1.13869  -1.13855  -1.13388  -1.13374
  Beta  occ. eigenvalues --   -1.13342  -1.13241  -1.13190  -1.13124  -1.13010
  Beta  occ. eigenvalues --   -1.12990  -1.12898  -1.12628  -1.12617  -1.12570
  Beta  occ. eigenvalues --   -0.17845  -0.13513  -0.10846
  Beta virt. eigenvalues --   -0.07845  -0.06703  -0.04633  -0.03933  -0.02909
  Beta virt. eigenvalues --   -0.02545  -0.02157  -0.01767  -0.01053  -0.00569
  Beta virt. eigenvalues --    0.00019   0.00099   0.00337   0.00401   0.00717

 Mulliken charges and spin densities:
               1          2
     1  Na  -0.930321   0.370301
     2  Na   0.337271  -0.044160
     3  Na   0.483452   0.066847
     4  Na   0.450100   0.287785
     5  Na  -0.618252   0.437648
     6  Na   0.125849  -0.120161
     7  Na   0.151901   0.001740
 Sum of Mulliken charges =  -0.00000   1.00000

 Dipole moment (field-independent basis, Debye):
    X=             -0.1356    Y=             -0.0508    Z=              0.3116  Tot=              0.3436
 Quadrupole moment (field-independent basis, Debye-Ang):
   XX=            -53.0479   YY=            -73.4239   ZZ=            -69.1989
   XY=             -1.1779   XZ=             -0.5600   YZ=             -5.1225

 Normal termination of Gaussian 16 at Thu Dec  7 03:07:29 2023.
