 Gaussian 16, Revision B.01,
 Gaussian 16:  ES64L-G16RevB.01 20-Dec-2017

 -------------------------
 #P B3LYP/6-311+g(d) force
 -------------------------

 -----
 DPGEN
 -----
 Symbolic Z-matrix:
 Charge =  0 Multiplicity = 2

                         Standard orientation:
 ---------------------------------------------------------------------
 Center     Atomic      Atomic             Coordinates (Angstroms)
 Number     Number       Type             X           Y           Z
 ---------------------------------------------------------------------
      1         11           0       -0.044661   -0.394656    1.692155
      2         11           0        0.822908    2.540310    0.683836
      3         11           0       -2.529483    1.989247   -0.259004
      4         11           0       -0.308147   -0.266929   -1.655694
      5         11           0       -2.885477   -1.841350   -0.103780
      6         11           0        1.536984   -2.370394    0.392112
      7         11           0        3.407876    0.343772   -0.749625
 ---------------------------------------------------------------------

 SCF Done:  E(UB3LYP) =  -1136.12903246     A.U. after   20 cycles

 The electronic state is 2-A.
 Alpha  occ. eigenvalues --  -38.44347 -38.44315 -38.44039 -38.43732 -38.43701
 Alpha  occ. eigenvalues --  -38.43283 -38.43001  -2.20148  -2.20108  -2.19849
 Alpha  occ. eigenvalues --   -2.19632  -2.19627  -2.19291  -2.18856  -1.13812
 Alpha  occ. eigenvalues --   -1.13802  -1.13793  -1.13780  -1.13765  -1.13744
 Alpha  occ. eigenvalues --   -1.13540  -1.13508  -1.13480  -1.13479  -1.13344
 Alpha  occ. eigenvalues --   -1.13287  -1.13248  -1.13230  -1.13218  -1.12949
 Alpha  occ. eigenvalues --   -1.12905  -1.12880  -1.12550  -1.12508  -1.12475
 Alpha  occ. eigenvalues --   -0.18530  -0.13228  -0.12110  -0.10665
 Alpha virt. eigenvalues --   -0.06062  -0.05547  -0.04098  -0.03328  -0.02800
 Alpha virt. eigenvalues --   -0.02321  -0.01984  -0.01302  -0.00489  -0.00100
 Alpha virt. eigenvalues --    0.00014   0.00280   0.00701   0.00720   0.00834

  Beta  occ. eigenvalues --  -38.44319 -38.44315 -38.44039 -38.43715 -38.43651
  Beta  occ. eigenvalues --  -38.43196 -38.42984  -2.20111  -2.20096  -2.19850
  Beta  occ. eigenvalues --   -2.19607  -2.19535  -2.19135  -2.18829  -1.13784
  Beta  occ. eigenvalues --   -1.13771  -1.13769  -1.13761  -1.13749  -1.13740
  Beta  occ. eigenvalues --   -1.13533  -1.13507  -1.13475  -1.13435  -1.13280
  Beta  occ. eigenvalues --   -1.13242  -1.13203  -1.13194  -1.13160  -1.12847
  Beta  occ. eigenvalues --   -1.12795  -1.12773  -1.12520  -1.12478  -1.12458
  Beta  occ. eigenvalues --   -0.17865  -0.12912  -0.11851
  Beta virt. eigenvalues --   -0.06911  -0.05903  -0.05491  -0.04038  -0.02680
  Beta virt. eigenvalues --   -0.02089  -0.01839  -0.01314  -0.01270  -0.00468
  Beta virt. eigenvalues --   -0.00067   0.00105   0.00332   0.00743   0.00800

 Mulliken charges and spin densities:
               1          2
     1  Na   0.147791   0.222448
     2  Na   0.039975   0.109285
     3  Na  -0.052338  -0.051981
     4  Na  -0.265680   0.478581
     5  Na  -0.019599  -0.066414
     6  Na   0.348722   0.117314
     7  Na  -0.198872   0.190767
 Sum of Mulliken charges =  -0.00000   1.00000

 Dipole moment (field-independent basis, Debye):
    X=             -0.3950    Y=             -0.1821    Z=             -0.2369  Tot=              0.4953
 Quadrupole moment (field-independent basis, Debye-Ang):
   XX=            -52.3476   YY=            -65.6035   ZZ=            -74.4314
   XY=              0.5571   XZ=             -1.1009   YZ=             -0.2573

 Normal termination of Gaussian 16 at Tue Dec  5 11:21:43 2023.
