 Gaussian 16, Revision B.01,
 Gaussian 16:  ES64L-G16RevB.01 20-Dec-2017

 -------------------------
 #P B3LYP/6-311+g(d) force
 -------------------------

 -----
 DPGEN
 -----
 Symbolic Z-matrix:
 Charge =  0 Multiplicity = 2

                         Standard orientation:
 ---------------------------------------------------------------------
 Center     Atomic      Atomic             Coordinates (Angstroms)
 Number     Number       Type             X           Y           Z
 ---------------------------------------------------------------------
      1         11           0        3.483640    0.433787    0.023685
      2         11           0        0.846545    2.997507    0.284274
      3         11           0       -2.163622    1.719203   -1.457396
      4         11           0        0.390203   -0.294046    0.185316
      5         11           0        2.056781   -2.581785   -0.279190
      6         11           0       -2.248753   -2.440430   -0.295741
      7         11           0       -2.364794    0.165764    1.539051
 ---------------------------------------------------------------------

 SCF Done:  E(UB3LYP) =  -1136.12088156     A.U. after   24 cycles

 The electronic state is 2-A.
 Alpha  occ. eigenvalues --  -38.44665 -38.44498 -38.43952 -38.43846 -38.43791
 Alpha  occ. eigenvalues --  -38.43217 -38.42944  -2.20480  -2.20341  -2.19869
 Alpha  occ. eigenvalues --   -2.19719  -2.19602  -2.19074  -2.19056  -1.14162
 Alpha  occ. eigenvalues --   -1.14142  -1.14122  -1.14033  -1.14007  -1.13964
 Alpha  occ. eigenvalues --   -1.13582  -1.13510  -1.13501  -1.13475  -1.13354
 Alpha  occ. eigenvalues --   -1.13312  -1.13289  -1.13271  -1.13228  -1.12754
 Alpha  occ. eigenvalues --   -1.12738  -1.12724  -1.12694  -1.12683  -1.12675
 Alpha  occ. eigenvalues --   -0.18135  -0.13924  -0.12597  -0.09568
 Alpha virt. eigenvalues --   -0.06157  -0.05979  -0.04804  -0.03087  -0.02516
 Alpha virt. eigenvalues --   -0.01956  -0.01635  -0.01313  -0.00999  -0.00757
 Alpha virt. eigenvalues --   -0.00071   0.00285   0.00578   0.00675   0.00735

  Beta  occ. eigenvalues --  -38.44665 -38.44495 -38.43904 -38.43828 -38.43785
  Beta  occ. eigenvalues --  -38.43133 -38.42931  -2.20483  -2.20335  -2.19784
  Beta  occ. eigenvalues --   -2.19686  -2.19593  -2.19037  -2.18918  -1.14160
  Beta  occ. eigenvalues --   -1.14129  -1.14123  -1.14031  -1.14004  -1.13948
  Beta  occ. eigenvalues --   -1.13528  -1.13479  -1.13439  -1.13407  -1.13326
  Beta  occ. eigenvalues --   -1.13292  -1.13286  -1.13261  -1.13205  -1.12719
  Beta  occ. eigenvalues --   -1.12691  -1.12662  -1.12625  -1.12602  -1.12580
  Beta  occ. eigenvalues --   -0.17667  -0.13595  -0.12243
  Beta virt. eigenvalues --   -0.06178  -0.05944  -0.05705  -0.04606  -0.02593
  Beta virt. eigenvalues --   -0.01952  -0.01876  -0.01391  -0.01044  -0.00812
  Beta virt. eigenvalues --   -0.00451   0.00238   0.00396   0.00652   0.00757

 Mulliken charges and spin densities:
               1          2
     1  Na   0.040679   0.010740
     2  Na   1.050908   0.066799
     3  Na   0.117683   0.368157
     4  Na  -3.610762   0.602502
     5  Na  -0.290671  -0.144891
     6  Na   1.183335   0.039186
     7  Na   1.508827   0.057506
 Sum of Mulliken charges =  -0.00000   1.00000

 Dipole moment (field-independent basis, Debye):
    X=              0.5333    Y=             -0.5098    Z=              0.1488  Tot=              0.7526
 Quadrupole moment (field-independent basis, Debye-Ang):
   XX=            -54.9802   YY=            -61.5835   ZZ=            -76.0556
   XY=              4.2775   XZ=             -0.9371   YZ=              3.8216

 Normal termination of Gaussian 16 at Thu Dec  7 14:23:34 2023.
