 Gaussian 16, Revision B.01,
 Gaussian 16:  ES64L-G16RevB.01 20-Dec-2017

 -------------------------
 #P B3LYP/6-311+g(d) force
 -------------------------

 -----
 DPGEN
 -----
 Symbolic Z-matrix:
 Charge =  0 Multiplicity = 2

                         Standard orientation:
 ---------------------------------------------------------------------
 Center     Atomic      Atomic             Coordinates (Angstroms)
 Number     Number       Type             X           Y           Z
 ---------------------------------------------------------------------
      1         11           0        2.750414   -1.577793   -0.111484
      2         11           0       -3.098763   -0.020061   -0.287292
      3         11           0       -1.282498   -2.053446    2.002279
      4         11           0       -1.671500    3.530610   -0.013250
      5         11           0       -0.777248   -2.194017   -1.720930
      6         11           0        0.032748    0.878719   -0.023849
      7         11           0        4.046848    1.435988    0.154525
 ---------------------------------------------------------------------

 SCF Done:  E(UB3LYP) =  -1136.12307113     A.U. after   22 cycles

 The electronic state is 2-A.
 Alpha  occ. eigenvalues --  -38.44943 -38.44879 -38.44423 -38.43567 -38.43509
 Alpha  occ. eigenvalues --  -38.43446 -38.43282  -2.20782  -2.20648  -2.20223
 Alpha  occ. eigenvalues --   -2.19371  -2.19363  -2.19345  -2.19133  -1.14481
 Alpha  occ. eigenvalues --   -1.14463  -1.14382  -1.14313  -1.14310  -1.14287
 Alpha  occ. eigenvalues --   -1.13900  -1.13895  -1.13845  -1.13120  -1.13078
 Alpha  occ. eigenvalues --   -1.13031  -1.13021  -1.13004  -1.12997  -1.12987
 Alpha  occ. eigenvalues --   -1.12950  -1.12940  -1.12799  -1.12780  -1.12749
 Alpha  occ. eigenvalues --   -0.17582  -0.13453  -0.12161  -0.10215
 Alpha virt. eigenvalues --   -0.06837  -0.05416  -0.04943  -0.02899  -0.02538
 Alpha virt. eigenvalues --   -0.02262  -0.02072  -0.01554  -0.01281  -0.00603
 Alpha virt. eigenvalues --   -0.00266   0.00121   0.00229   0.00546   0.00744

  Beta  occ. eigenvalues --  -38.44935 -38.44875 -38.44419 -38.43573 -38.43437
  Beta  occ. eigenvalues --  -38.43415 -38.43219  -2.20771  -2.20641  -2.20218
  Beta  occ. eigenvalues --   -2.19379  -2.19356  -2.19170  -2.19016  -1.14478
  Beta  occ. eigenvalues --   -1.14422  -1.14379  -1.14308  -1.14306  -1.14283
  Beta  occ. eigenvalues --   -1.13897  -1.13885  -1.13836  -1.13124  -1.13044
  Beta  occ. eigenvalues --   -1.13027  -1.13023  -1.13011  -1.12942  -1.12878
  Beta  occ. eigenvalues --   -1.12863  -1.12835  -1.12715  -1.12698  -1.12668
  Beta  occ. eigenvalues --   -0.17011  -0.13309  -0.11955
  Beta virt. eigenvalues --   -0.06715  -0.06220  -0.05357  -0.04699  -0.02461
  Beta virt. eigenvalues --   -0.02234  -0.01997  -0.01599  -0.01393  -0.00956
  Beta virt. eigenvalues --   -0.00528   0.00099   0.00313   0.00394   0.00571

 Mulliken charges and spin densities:
               1          2
     1  Na   1.392837   0.146696
     2  Na   1.346145   0.323840
     3  Na  -0.073120   0.382986
     4  Na  -0.102471  -0.254365
     5  Na   0.436214   0.264312
     6  Na  -2.919033   0.204640
     7  Na  -0.080572  -0.068109
 Sum of Mulliken charges =  -0.00000   1.00000

 Dipole moment (field-independent basis, Debye):
    X=              0.5601    Y=              0.4064    Z=             -0.2341  Tot=              0.7305
 Quadrupole moment (field-independent basis, Debye-Ang):
   XX=            -52.9298   YY=            -62.3719   ZZ=            -77.1148
   XY=              0.9354   XZ=              2.7722   YZ=              1.0232

 Normal termination of Gaussian 16 at Wed Dec  6 00:10:24 2023.
