 Gaussian 16, Revision B.01,
 Gaussian 16:  ES64L-G16RevB.01 20-Dec-2017

 -------------------------
 #P B3LYP/6-311+g(d) force
 -------------------------

 -----
 DPGEN
 -----
 Symbolic Z-matrix:
 Charge =  0 Multiplicity = 2

                         Standard orientation:
 ---------------------------------------------------------------------
 Center     Atomic      Atomic             Coordinates (Angstroms)
 Number     Number       Type             X           Y           Z
 ---------------------------------------------------------------------
      1         11           0       -2.372868    1.670315   -1.074304
      2         11           0       -3.518662   -0.173153    0.685427
      3         11           0        4.218472    1.018603    0.070621
      4         11           0       -1.158821   -1.988207   -0.915686
      5         11           0        0.330022    2.175956    0.319043
      6         11           0        2.443207   -1.596232   -0.694206
      7         11           0        0.058649   -1.107283    1.609106
 ---------------------------------------------------------------------

 SCF Done:  E(UB3LYP) =  -1136.11220732     A.U. after   23 cycles

 The electronic state is 2-A.
 Alpha  occ. eigenvalues --  -38.45089 -38.44220 -38.44059 -38.43995 -38.43924
 Alpha  occ. eigenvalues --  -38.43902 -38.43160  -2.20994  -2.20018  -2.19986
 Alpha  occ. eigenvalues --   -2.19866  -2.19843  -2.19802  -2.19013  -1.14778
 Alpha  occ. eigenvalues --   -1.14617  -1.14605  -1.13699  -1.13695  -1.13675
 Alpha  occ. eigenvalues --   -1.13674  -1.13641  -1.13636  -1.13604  -1.13554
 Alpha  occ. eigenvalues --   -1.13532  -1.13493  -1.13476  -1.13457  -1.13443
 Alpha  occ. eigenvalues --   -1.13410  -1.13366  -1.12702  -1.12667  -1.12618
 Alpha  occ. eigenvalues --   -0.18356  -0.14267  -0.11940  -0.10391
 Alpha virt. eigenvalues --   -0.07277  -0.05476  -0.03690  -0.03672  -0.03325
 Alpha virt. eigenvalues --   -0.02293  -0.01818  -0.01549  -0.00492  -0.00349
 Alpha virt. eigenvalues --   -0.00092  -0.00050   0.00346   0.00683   0.00771

  Beta  occ. eigenvalues --  -38.45055 -38.44171 -38.44045 -38.43979 -38.43894
  Beta  occ. eigenvalues --  -38.43868 -38.43120  -2.20936  -2.19967  -2.19930
  Beta  occ. eigenvalues --   -2.19818  -2.19796  -2.19758  -2.18940  -1.14737
  Beta  occ. eigenvalues --   -1.14570  -1.14551  -1.13653  -1.13650  -1.13635
  Beta  occ. eigenvalues --   -1.13620  -1.13614  -1.13577  -1.13572  -1.13527
  Beta  occ. eigenvalues --   -1.13509  -1.13469  -1.13441  -1.13402  -1.13397
  Beta  occ. eigenvalues --   -1.13389  -1.13317  -1.12657  -1.12603  -1.12574
  Beta  occ. eigenvalues --   -0.17804  -0.13569  -0.11754
  Beta virt. eigenvalues --   -0.07076  -0.06870  -0.05268  -0.03542  -0.03361
  Beta virt. eigenvalues --   -0.02702  -0.02111  -0.01367  -0.01197  -0.00268
  Beta virt. eigenvalues --   -0.00178  -0.00016   0.00164   0.00454   0.00737

 Mulliken charges and spin densities:
               1          2
     1  Na   0.211122   0.194350
     2  Na   0.627453   0.326124
     3  Na   0.271417   0.273646
     4  Na  -0.060080  -0.023918
     5  Na  -0.794588  -0.175495
     6  Na  -0.052976   0.157437
     7  Na  -0.202348   0.247855
 Sum of Mulliken charges =  -0.00000   1.00000

 Dipole moment (field-independent basis, Debye):
    X=             -0.5191    Y=             -0.3613    Z=              0.5787  Tot=              0.8573
 Quadrupole moment (field-independent basis, Debye-Ang):
   XX=            -65.8992   YY=            -73.5801   ZZ=            -63.7250
   XY=              2.1802   XZ=             -1.7319   YZ=              0.2117

 Normal termination of Gaussian 16 at Tue Dec  5 19:54:46 2023.
