 Gaussian 16, Revision B.01,
 Gaussian 16:  ES64L-G16RevB.01 20-Dec-2017

 -------------------------
 #P B3LYP/6-311+g(d) force
 -------------------------

 -----
 DPGEN
 -----
 Symbolic Z-matrix:
 Charge =  0 Multiplicity = 2

                         Standard orientation:
 ---------------------------------------------------------------------
 Center     Atomic      Atomic             Coordinates (Angstroms)
 Number     Number       Type             X           Y           Z
 ---------------------------------------------------------------------
      1         11           0        1.945307   -2.079486    0.411975
      2         11           0        2.844923    1.300067   -0.163931
      3         11           0        0.309896   -0.263830   -1.825718
      4         11           0       -0.470619    2.741729   -0.058452
      5         11           0       -3.014525    0.624252   -0.005535
      6         11           0       -1.507917   -2.392728   -0.258635
      7         11           0       -0.107066    0.069995    1.900296
 ---------------------------------------------------------------------

 SCF Done:  E(UB3LYP) =  -1136.14065906     A.U. after   18 cycles

 The electronic state is 2-A.
 Alpha  occ. eigenvalues --  -38.43804 -38.43746 -38.43501 -38.43451 -38.43370
 Alpha  occ. eigenvalues --  -38.43244 -38.43211  -2.19638  -2.19602  -2.19399
 Alpha  occ. eigenvalues --   -2.19386  -2.19334  -2.19133  -2.19084  -1.13320
 Alpha  occ. eigenvalues --   -1.13297  -1.13281  -1.13275  -1.13269  -1.13256
 Alpha  occ. eigenvalues --   -1.13123  -1.13081  -1.13065  -1.13026  -1.13013
 Alpha  occ. eigenvalues --   -1.13002  -1.12998  -1.12976  -1.12945  -1.12801
 Alpha  occ. eigenvalues --   -1.12787  -1.12761  -1.12756  -1.12753  -1.12706
 Alpha  occ. eigenvalues --   -0.18985  -0.13049  -0.12564  -0.10969
 Alpha virt. eigenvalues --   -0.05432  -0.05108  -0.04549  -0.03248  -0.03000
 Alpha virt. eigenvalues --   -0.02646  -0.01417  -0.01034  -0.00172  -0.00151
 Alpha virt. eigenvalues --    0.00005   0.00372   0.00837   0.00921   0.00938

  Beta  occ. eigenvalues --  -38.43800 -38.43744 -38.43487 -38.43367 -38.43293
  Beta  occ. eigenvalues --  -38.43235 -38.43206  -2.19634  -2.19602  -2.19366
  Beta  occ. eigenvalues --   -2.19244  -2.19195  -2.19121  -2.19079  -1.13309
  Beta  occ. eigenvalues --   -1.13283  -1.13279  -1.13273  -1.13269  -1.13239
  Beta  occ. eigenvalues --   -1.13086  -1.13026  -1.13000  -1.12972  -1.12929
  Beta  occ. eigenvalues --   -1.12921  -1.12897  -1.12881  -1.12854  -1.12778
  Beta  occ. eigenvalues --   -1.12756  -1.12753  -1.12746  -1.12728  -1.12701
  Beta  occ. eigenvalues --   -0.18237  -0.12810  -0.12298
  Beta virt. eigenvalues --   -0.07029  -0.05404  -0.05101  -0.04517  -0.02452
  Beta virt. eigenvalues --   -0.02197  -0.01580  -0.01338  -0.00959  -0.00208
  Beta virt. eigenvalues --   -0.00198   0.00117   0.00389   0.00896   0.00914

 Mulliken charges and spin densities:
               1          2
     1  Na   0.226132  -0.023149
     2  Na   0.094261  -0.097308
     3  Na  -0.359276   0.671140
     4  Na   0.077834  -0.106127
     5  Na   0.038983  -0.076804
     6  Na   0.274176  -0.037789
     7  Na  -0.352111   0.670038
 Sum of Mulliken charges =  -0.00000   1.00000

 Dipole moment (field-independent basis, Debye):
    X=              0.1222    Y=              0.0363    Z=              0.0319  Tot=              0.1314
 Quadrupole moment (field-independent basis, Debye-Ang):
   XX=            -57.0484   YY=            -63.8161   ZZ=            -73.1004
   XY=              0.2884   XZ=              0.7550   YZ=             -0.7835

 Normal termination of Gaussian 16 at Thu Dec  7 12:25:34 2023.
