 Gaussian 16, Revision B.01,
 Gaussian 16:  ES64L-G16RevB.01 20-Dec-2017

 -------------------------
 #P B3LYP/6-311+g(d) force
 -------------------------

 -----
 DPGEN
 -----
 Symbolic Z-matrix:
 Charge =  0 Multiplicity = 2

                         Standard orientation:
 ---------------------------------------------------------------------
 Center     Atomic      Atomic             Coordinates (Angstroms)
 Number     Number       Type             X           Y           Z
 ---------------------------------------------------------------------
      1         11           0       -1.555839   -1.612238   -0.464778
      2         11           0       -4.932377   -1.562612   -0.362260
      3         11           0       -4.599283    1.956143   -1.002647
      4         11           0       -1.492122    1.608090    1.096533
      5         11           0        0.498769   -0.473174    1.515146
      6         11           0        4.669892   -0.290242    0.162567
      7         11           0        7.410961    0.374033   -0.944560
 ---------------------------------------------------------------------

 SCF Done:  E(UB3LYP) =  -1136.11035626     A.U. after   19 cycles

 The electronic state is 2-A.
 Alpha  occ. eigenvalues --  -38.44928 -38.44846 -38.44491 -38.44288 -38.43989
 Alpha  occ. eigenvalues --  -38.43880 -38.43860  -2.20807  -2.20730  -2.20272
 Alpha  occ. eigenvalues --   -2.20088  -2.19788  -2.19784  -2.19653  -1.14501
 Alpha  occ. eigenvalues --   -1.14466  -1.14441  -1.14401  -1.14372  -1.14371
 Alpha  occ. eigenvalues --   -1.13941  -1.13925  -1.13894  -1.13757  -1.13752
 Alpha  occ. eigenvalues --   -1.13704  -1.13520  -1.13462  -1.13442  -1.13435
 Alpha  occ. eigenvalues --   -1.13435  -1.13407  -1.13311  -1.13309  -1.13245
 Alpha  occ. eigenvalues --   -0.17142  -0.13464  -0.12352  -0.11637
 Alpha virt. eigenvalues --   -0.06465  -0.05813  -0.04484  -0.03696  -0.03160
 Alpha virt. eigenvalues --   -0.02551  -0.02128  -0.01721  -0.01280  -0.01248
 Alpha virt. eigenvalues --   -0.00434  -0.00060   0.00254   0.00316   0.00426

  Beta  occ. eigenvalues --  -38.44870 -38.44784 -38.44447 -38.44256 -38.43989
  Beta  occ. eigenvalues --  -38.43876 -38.43861  -2.20701  -2.20618  -2.20190
  Beta  occ. eigenvalues --   -2.20032  -2.19785  -2.19782  -2.19653  -1.14420
  Beta  occ. eigenvalues --   -1.14395  -1.14367  -1.14326  -1.14297  -1.14277
  Beta  occ. eigenvalues --   -1.13887  -1.13860  -1.13840  -1.13718  -1.13704
  Beta  occ. eigenvalues --   -1.13663  -1.13520  -1.13449  -1.13435  -1.13435
  Beta  occ. eigenvalues --   -1.13429  -1.13404  -1.13311  -1.13309  -1.13245
  Beta  occ. eigenvalues --   -0.16429  -0.13312  -0.12242
  Beta virt. eigenvalues --   -0.07660  -0.06373  -0.05292  -0.04105  -0.03383
  Beta virt. eigenvalues --   -0.02478  -0.02407  -0.02062  -0.01625  -0.01165
  Beta virt. eigenvalues --   -0.00762  -0.00082   0.00059   0.00373   0.00465

 Mulliken charges and spin densities:
               1          2
     1  Na  -0.129061   0.420374
     2  Na   0.210482   0.018341
     3  Na   0.106382   0.130710
     4  Na   0.167028   0.227556
     5  Na  -0.617203   0.243061
     6  Na  -0.203738  -0.048474
     7  Na   0.466110   0.008433
 Sum of Mulliken charges =  -0.00000   1.00000

 Dipole moment (field-independent basis, Debye):
    X=             -1.0321    Y=              0.1141    Z=             -0.0164  Tot=              1.0385
 Quadrupole moment (field-independent basis, Debye-Ang):
   XX=            -60.9526   YY=            -69.6011   ZZ=            -69.3521
   XY=              1.5397   XZ=             -2.4109   YZ=             -1.7091

 Normal termination of Gaussian 16 at Tue Nov 28 21:51:42 2023.
