 Gaussian 16, Revision B.01,
 Gaussian 16:  ES64L-G16RevB.01 20-Dec-2017

 -------------------------
 #P B3LYP/6-311+g(d) force
 -------------------------

 -----
 DPGEN
 -----
 Symbolic Z-matrix:
 Charge =  0 Multiplicity = 2

                         Standard orientation:
 ---------------------------------------------------------------------
 Center     Atomic      Atomic             Coordinates (Angstroms)
 Number     Number       Type             X           Y           Z
 ---------------------------------------------------------------------
      1         11           0        0.042490    1.274098   -0.289312
      2         11           0        2.731574    3.415560   -0.397305
      3         11           0        3.586247    0.243696    1.018422
      4         11           0        2.991569   -2.975078   -0.765233
      5         11           0       -0.206280   -1.821829    0.330800
      6         11           0       -3.272031   -0.974437    0.155880
      7         11           0       -5.873569    0.837990   -0.053252
 ---------------------------------------------------------------------

 SCF Done:  E(UB3LYP) =  -1136.11978803     A.U. after   21 cycles

 The electronic state is 2-A.
 Alpha  occ. eigenvalues --  -38.45126 -38.44716 -38.44543 -38.43815 -38.43699
 Alpha  occ. eigenvalues --  -38.43567 -38.43556  -2.20905  -2.20552  -2.20365
 Alpha  occ. eigenvalues --   -2.19596  -2.19495  -2.19463  -2.19408  -1.14605
 Alpha  occ. eigenvalues --   -1.14569  -1.14499  -1.14262  -1.14239  -1.14130
 Alpha  occ. eigenvalues --   -1.14008  -1.13989  -1.13987  -1.13263  -1.13253
 Alpha  occ. eigenvalues --   -1.13228  -1.13170  -1.13164  -1.13160  -1.13159
 Alpha  occ. eigenvalues --   -1.13128  -1.13127  -1.13076  -1.13066  -1.12997
 Alpha  occ. eigenvalues --   -0.16837  -0.14128  -0.12162  -0.11344
 Alpha virt. eigenvalues --   -0.06143  -0.05681  -0.04353  -0.03694  -0.02773
 Alpha virt. eigenvalues --   -0.02484  -0.02131  -0.01436  -0.01140  -0.00907
 Alpha virt. eigenvalues --   -0.00525  -0.00195   0.00384   0.00482   0.00610

  Beta  occ. eigenvalues --  -38.45094 -38.44679 -38.44438 -38.43793 -38.43699
  Beta  occ. eigenvalues --  -38.43553 -38.43533  -2.20845  -2.20485  -2.20170
  Beta  occ. eigenvalues --   -2.19554  -2.19496  -2.19414  -2.19403  -1.14562
  Beta  occ. eigenvalues --   -1.14532  -1.14450  -1.14215  -1.14197  -1.14075
  Beta  occ. eigenvalues --   -1.13879  -1.13857  -1.13855  -1.13236  -1.13223
  Beta  occ. eigenvalues --   -1.13200  -1.13163  -1.13157  -1.13132  -1.13129
  Beta  occ. eigenvalues --   -1.13100  -1.13097  -1.13081  -1.13068  -1.12938
  Beta  occ. eigenvalues --   -0.16256  -0.13322  -0.11853
  Beta virt. eigenvalues --   -0.07941  -0.05836  -0.05469  -0.03906  -0.03451
  Beta virt. eigenvalues --   -0.02486  -0.02193  -0.01942  -0.01171  -0.00759
  Beta virt. eigenvalues --   -0.00602  -0.00239  -0.00065   0.00521   0.00573

 Mulliken charges and spin densities:
               1          2
     1  Na  -1.118240   0.085720
     2  Na   0.813880   0.023533
     3  Na   0.013950   0.270781
     4  Na   0.968586   0.219142
     5  Na   0.342740  -0.234623
     6  Na  -0.869615   0.247069
     7  Na  -0.151301   0.388377
 Sum of Mulliken charges =  -0.00000   1.00000

 Dipole moment (field-independent basis, Debye):
    X=              0.7646    Y=              0.6839    Z=             -0.1100  Tot=              1.0317
 Quadrupole moment (field-independent basis, Debye-Ang):
   XX=            -62.3243   YY=            -65.1474   ZZ=            -69.6672
   XY=             -0.3597   XZ=              0.9043   YZ=             -0.2268

 Normal termination of Gaussian 16 at Wed Nov 29 02:51:09 2023.
