 Gaussian 16, Revision B.01,
 Gaussian 16:  ES64L-G16RevB.01 20-Dec-2017

 -------------------------
 #P B3LYP/6-311+g(d) force
 -------------------------

 -----
 DPGEN
 -----
 Symbolic Z-matrix:
 Charge =  0 Multiplicity = 2

                         Standard orientation:
 ---------------------------------------------------------------------
 Center     Atomic      Atomic             Coordinates (Angstroms)
 Number     Number       Type             X           Y           Z
 ---------------------------------------------------------------------
      1         11           0       -0.506462   -0.005193    1.889880
      2         11           0        0.329301   -0.217213   -1.779712
      3         11           0       -2.021503   -1.960784   -0.219805
      4         11           0       -2.828875    1.364410   -0.194418
      5         11           0        0.710961    2.948498    0.001568
      6         11           0        2.916978    0.559779    0.081996
      7         11           0        1.399600   -2.689497    0.220491
 ---------------------------------------------------------------------

 SCF Done:  E(UB3LYP) =  -1136.13994172     A.U. after   19 cycles

 The electronic state is 2-A.
 Alpha  occ. eigenvalues --  -38.43823 -38.43672 -38.43599 -38.43563 -38.43479
 Alpha  occ. eigenvalues --  -38.43365 -38.43244  -2.19650  -2.19539  -2.19463
 Alpha  occ. eigenvalues --   -2.19430  -2.19331  -2.19290  -2.19201  -1.13328
 Alpha  occ. eigenvalues --   -1.13315  -1.13295  -1.13246  -1.13209  -1.13188
 Alpha  occ. eigenvalues --   -1.13173  -1.13147  -1.13099  -1.13087  -1.13080
 Alpha  occ. eigenvalues --   -1.13057  -1.13010  -1.12995  -1.12967  -1.12955
 Alpha  occ. eigenvalues --   -1.12915  -1.12901  -1.12869  -1.12832  -1.12810
 Alpha  occ. eigenvalues --   -0.18768  -0.13043  -0.12594  -0.10677
 Alpha virt. eigenvalues --   -0.05383  -0.05146  -0.04965  -0.03205  -0.02947
 Alpha virt. eigenvalues --   -0.02438  -0.01332  -0.01167  -0.00384  -0.00294
 Alpha virt. eigenvalues --   -0.00003   0.00378   0.00851   0.00890   0.00897

  Beta  occ. eigenvalues --  -38.43819 -38.43668 -38.43597 -38.43552 -38.43473
  Beta  occ. eigenvalues --  -38.43285 -38.43170  -2.19646  -2.19535  -2.19448
  Beta  occ. eigenvalues --   -2.19430  -2.19323  -2.19142  -2.19066  -1.13324
  Beta  occ. eigenvalues --   -1.13297  -1.13292  -1.13242  -1.13201  -1.13173
  Beta  occ. eigenvalues --   -1.13161  -1.13097  -1.13088  -1.13077  -1.13074
  Beta  occ. eigenvalues --   -1.13059  -1.13000  -1.12967  -1.12963  -1.12861
  Beta  occ. eigenvalues --   -1.12812  -1.12793  -1.12781  -1.12733  -1.12717
  Beta  occ. eigenvalues --   -0.18029  -0.12808  -0.12371
  Beta virt. eigenvalues --   -0.06773  -0.05374  -0.05142  -0.04878  -0.02406
  Beta virt. eigenvalues --   -0.02180  -0.01408  -0.01251  -0.01089  -0.00434
  Beta virt. eigenvalues --   -0.00350   0.00136   0.00397   0.00875   0.00887

 Mulliken charges and spin densities:
               1          2
     1  Na  -0.409748   0.751290
     2  Na  -0.221654   0.629721
     3  Na   0.324795  -0.034509
     4  Na   0.054913  -0.106133
     5  Na  -0.013861  -0.127488
     6  Na   0.112543  -0.059424
     7  Na   0.153011  -0.053456
 Sum of Mulliken charges =  -0.00000   1.00000

 Dipole moment (field-independent basis, Debye):
    X=             -0.0752    Y=              0.0735    Z=              0.0374  Tot=              0.1116
 Quadrupole moment (field-independent basis, Debye-Ang):
   XX=            -58.9054   YY=            -60.3590   ZZ=            -74.3643
   XY=             -1.1496   XZ=              1.8312   YZ=             -0.6151

 Normal termination of Gaussian 16 at Thu Dec  7 15:30:12 2023.
