 Gaussian 16, Revision B.01,
 Gaussian 16:  ES64L-G16RevB.01 20-Dec-2017

 -------------------------
 #P B3LYP/6-311+g(d) force
 -------------------------

 -----
 DPGEN
 -----
 Symbolic Z-matrix:
 Charge =  0 Multiplicity = 2

                         Standard orientation:
 ---------------------------------------------------------------------
 Center     Atomic      Atomic             Coordinates (Angstroms)
 Number     Number       Type             X           Y           Z
 ---------------------------------------------------------------------
      1         11           0        0.801461   -2.903459    0.343175
      2         11           0        1.394849    2.450322    0.105818
      3         11           0       -2.076103    2.417122   -0.175458
      4         11           0        3.116296   -0.164096   -0.644871
      5         11           0       -0.092035   -0.520122   -1.452430
      6         11           0        0.218809    0.024194    2.016382
      7         11           0       -3.363276   -1.303962   -0.192616
 ---------------------------------------------------------------------

 SCF Done:  E(UB3LYP) =  -1136.13219242     A.U. after   20 cycles

 The electronic state is 2-A.
 Alpha  occ. eigenvalues --  -38.44621 -38.44035 -38.43917 -38.43732 -38.43509
 Alpha  occ. eigenvalues --  -38.43264 -38.43099  -2.20370  -2.19821  -2.19784
 Alpha  occ. eigenvalues --   -2.19584  -2.19414  -2.19227  -2.18991  -1.14051
 Alpha  occ. eigenvalues --   -1.14015  -1.14013  -1.13507  -1.13484  -1.13470
 Alpha  occ. eigenvalues --   -1.13455  -1.13442  -1.13411  -1.13304  -1.13255
 Alpha  occ. eigenvalues --   -1.13198  -1.13091  -1.13046  -1.13021  -1.12920
 Alpha  occ. eigenvalues --   -1.12873  -1.12836  -1.12668  -1.12649  -1.12629
 Alpha  occ. eigenvalues --   -0.18433  -0.12850  -0.12451  -0.10595
 Alpha virt. eigenvalues --   -0.06137  -0.05268  -0.04580  -0.02966  -0.02900
 Alpha virt. eigenvalues --   -0.02381  -0.01864  -0.01276  -0.00633  -0.00349
 Alpha virt. eigenvalues --   -0.00026   0.00295   0.00705   0.00807   0.00868

  Beta  occ. eigenvalues --  -38.44619 -38.44036 -38.43891 -38.43720 -38.43410
  Beta  occ. eigenvalues --  -38.43223 -38.43092  -2.20368  -2.19824  -2.19739
  Beta  occ. eigenvalues --   -2.19565  -2.19231  -2.19153  -2.18982  -1.14042
  Beta  occ. eigenvalues --   -1.14015  -1.14012  -1.13504  -1.13483  -1.13455
  Beta  occ. eigenvalues --   -1.13438  -1.13404  -1.13375  -1.13291  -1.13212
  Beta  occ. eigenvalues --   -1.13187  -1.12974  -1.12920  -1.12889  -1.12860
  Beta  occ. eigenvalues --   -1.12825  -1.12775  -1.12661  -1.12633  -1.12605
  Beta  occ. eigenvalues --   -0.17732  -0.12594  -0.12218
  Beta virt. eigenvalues --   -0.06742  -0.06052  -0.05181  -0.04539  -0.02321
  Beta virt. eigenvalues --   -0.02155  -0.01799  -0.01306  -0.01214  -0.00630
  Beta virt. eigenvalues --   -0.00363   0.00125   0.00359   0.00736   0.00854

 Mulliken charges and spin densities:
               1          2
     1  Na   0.073494   0.009413
     2  Na   0.125764   0.063614
     3  Na  -0.095292  -0.049071
     4  Na   0.335336   0.145728
     5  Na  -0.270520   0.283381
     6  Na  -0.169333   0.590048
     7  Na   0.000551  -0.043112
 Sum of Mulliken charges =  -0.00000   1.00000

 Dipole moment (field-independent basis, Debye):
    X=             -0.4128    Y=             -0.3084    Z=              0.1412  Tot=              0.5343
 Quadrupole moment (field-independent basis, Debye-Ang):
   XX=            -55.5219   YY=            -62.0041   ZZ=            -75.1516
   XY=             -0.3856   XZ=             -0.9627   YZ=             -1.1025

 Normal termination of Gaussian 16 at Mon Dec  4 01:52:08 2023.
