 Gaussian 16, Revision B.01,
 Gaussian 16:  ES64L-G16RevB.01 20-Dec-2017

 -------------------------
 #P B3LYP/6-311+g(d) force
 -------------------------

 -----
 DPGEN
 -----
 Symbolic Z-matrix:
 Charge =  0 Multiplicity = 2

                         Standard orientation:
 ---------------------------------------------------------------------
 Center     Atomic      Atomic             Coordinates (Angstroms)
 Number     Number       Type             X           Y           Z
 ---------------------------------------------------------------------
      1         11           0        2.837448    2.859389   -0.524424
      2         11           0       -4.103256   -1.505912   -0.244066
      3         11           0       -1.212494   -3.396522   -0.058448
      4         11           0        2.261651   -2.305931   -0.478747
      5         11           0        4.685158   -0.711063    0.905940
      6         11           0       -3.810142    2.072726    0.787759
      7         11           0       -0.658365    2.987313   -0.388013
 ---------------------------------------------------------------------

 SCF Done:  E(UB3LYP) =  -1136.10803962     A.U. after   23 cycles

 The electronic state is 2-A.
 Alpha  occ. eigenvalues --  -38.45408 -38.44942 -38.44882 -38.44604 -38.44332
 Alpha  occ. eigenvalues --  -38.44147 -38.43765  -2.21148  -2.20711  -2.20658
 Alpha  occ. eigenvalues --   -2.20404  -2.20093  -2.19939  -2.19554  -1.14838
 Alpha  occ. eigenvalues --   -1.14819  -1.14788  -1.14373  -1.14358  -1.14346
 Alpha  occ. eigenvalues --   -1.14329  -1.14328  -1.14315  -1.14052  -1.14043
 Alpha  occ. eigenvalues --   -1.14028  -1.13784  -1.13778  -1.13732  -1.13595
 Alpha  occ. eigenvalues --   -1.13577  -1.13567  -1.13212  -1.13208  -1.13186
 Alpha  occ. eigenvalues --   -0.15421  -0.13895  -0.13240  -0.10923
 Alpha virt. eigenvalues --   -0.07683  -0.04936  -0.04528  -0.03564  -0.03354
 Alpha virt. eigenvalues --   -0.02540  -0.02229  -0.01884  -0.01259  -0.01062
 Alpha virt. eigenvalues --   -0.00570  -0.00278   0.00097   0.00278   0.00537

  Beta  occ. eigenvalues --  -38.45417 -38.44877 -38.44873 -38.44550 -38.44331
  Beta  occ. eigenvalues --  -38.44090 -38.43720  -2.21169  -2.20648  -2.20594
  Beta  occ. eigenvalues --   -2.20305  -2.20097  -2.19834  -2.19470  -1.14856
  Beta  occ. eigenvalues --   -1.14836  -1.14775  -1.14339  -1.14326  -1.14295
  Beta  occ. eigenvalues --   -1.14279  -1.14276  -1.14238  -1.13986  -1.13970
  Beta  occ. eigenvalues --   -1.13965  -1.13792  -1.13786  -1.13695  -1.13523
  Beta  occ. eigenvalues --   -1.13512  -1.13497  -1.13155  -1.13152  -1.13133
  Beta  occ. eigenvalues --   -0.14904  -0.13221  -0.12445
  Beta virt. eigenvalues --   -0.07854  -0.07770  -0.04477  -0.04075  -0.03370
  Beta virt. eigenvalues --   -0.03046  -0.02305  -0.02043  -0.01676  -0.00945
  Beta virt. eigenvalues --   -0.00768  -0.00375  -0.00045   0.00192   0.00367

 Mulliken charges and spin densities:
               1          2
     1  Na   0.070172   0.220681
     2  Na  -0.014237  -0.016260
     3  Na   0.052727   0.192929
     4  Na  -0.605305   0.074921
     5  Na   0.468446   0.206309
     6  Na   0.326243   0.328574
     7  Na  -0.298046  -0.007155
 Sum of Mulliken charges =  -0.00000   1.00000

 Dipole moment (field-independent basis, Debye):
    X=              0.4586    Y=              0.0550    Z=              0.1430  Tot=              0.4835
 Quadrupole moment (field-independent basis, Debye-Ang):
   XX=            -53.2485   YY=            -72.5858   ZZ=            -72.0366
   XY=              4.5965   XZ=              1.5175   YZ=              1.2789

 Normal termination of Gaussian 16 at Sun Dec  3 19:58:55 2023.
