 Gaussian 16, Revision B.01,
 Gaussian 16:  ES64L-G16RevB.01 20-Dec-2017

 -------------------------
 #P B3LYP/6-311+g(d) force
 -------------------------

 -----
 DPGEN
 -----
 Symbolic Z-matrix:
 Charge =  0 Multiplicity = 2

                         Standard orientation:
 ---------------------------------------------------------------------
 Center     Atomic      Atomic             Coordinates (Angstroms)
 Number     Number       Type             X           Y           Z
 ---------------------------------------------------------------------
      1         11           0       -3.568463   -0.578988    0.119174
      2         11           0        0.805547    2.299794   -0.284742
      3         11           0       -2.200925    2.477155   -0.553906
      4         11           0        3.851720   -0.069097   -0.232709
      5         11           0       -1.127536   -2.849302    0.346163
      6         11           0        1.130967    0.243817    2.257477
      7         11           0        1.108690   -1.523379   -1.651457
 ---------------------------------------------------------------------

 SCF Done:  E(UB3LYP) =  -1136.11938947     A.U. after   21 cycles

 The electronic state is 2-A.
 Alpha  occ. eigenvalues --  -38.45343 -38.45060 -38.44207 -38.44168 -38.43864
 Alpha  occ. eigenvalues --  -38.43487 -38.43334  -2.21130  -2.20836  -2.20036
 Alpha  occ. eigenvalues --   -2.20007  -2.19727  -2.19304  -2.19172  -1.14800
 Alpha  occ. eigenvalues --   -1.14793  -1.14762  -1.14512  -1.14494  -1.14485
 Alpha  occ. eigenvalues --   -1.13701  -1.13698  -1.13678  -1.13664  -1.13629
 Alpha  occ. eigenvalues --   -1.13621  -1.13434  -1.13401  -1.13364  -1.12981
 Alpha  occ. eigenvalues --   -1.12960  -1.12950  -1.12841  -1.12812  -1.12809
 Alpha  occ. eigenvalues --   -0.17438  -0.13495  -0.12438  -0.10677
 Alpha virt. eigenvalues --   -0.07102  -0.05339  -0.04439  -0.03465  -0.03184
 Alpha virt. eigenvalues --   -0.02441  -0.02297  -0.01176  -0.00590  -0.00426
 Alpha virt. eigenvalues --   -0.00250   0.00116   0.00277   0.00598   0.00774

  Beta  occ. eigenvalues --  -38.45331 -38.45061 -38.44161 -38.44062 -38.43856
  Beta  occ. eigenvalues --  -38.43484 -38.43323  -2.21112  -2.20840  -2.19950
  Beta  occ. eigenvalues --   -2.19810  -2.19716  -2.19300  -2.19151  -1.14791
  Beta  occ. eigenvalues --   -1.14766  -1.14740  -1.14511  -1.14497  -1.14485
  Beta  occ. eigenvalues --   -1.13641  -1.13639  -1.13601  -1.13550  -1.13494
  Beta  occ. eigenvalues --   -1.13487  -1.13429  -1.13362  -1.13354  -1.12977
  Beta  occ. eigenvalues --   -1.12953  -1.12943  -1.12828  -1.12797  -1.12795
  Beta  occ. eigenvalues --   -0.16829  -0.13263  -0.12195
  Beta virt. eigenvalues --   -0.07048  -0.06913  -0.05082  -0.04279  -0.02872
  Beta virt. eigenvalues --   -0.02583  -0.02205  -0.01620  -0.01130  -0.00563
  Beta virt. eigenvalues --   -0.00358  -0.00003   0.00200   0.00491   0.00694

 Mulliken charges and spin densities:
               1          2
     1  Na  -0.212960   0.005491
     2  Na   0.092130   0.292620
     3  Na   0.013596  -0.108230
     4  Na   0.574803   0.115015
     5  Na   0.220172   0.142403
     6  Na  -0.288763   0.403565
     7  Na  -0.398977   0.149136
 Sum of Mulliken charges =  -0.00000   1.00000

 Dipole moment (field-independent basis, Debye):
    X=              0.6722    Y=             -0.2780    Z=              0.1204  Tot=              0.7373
 Quadrupole moment (field-independent basis, Debye-Ang):
   XX=            -50.8816   YY=            -72.6018   ZZ=            -73.7848
   XY=              1.5966   XZ=             -0.3987   YZ=             -1.5795

 Normal termination of Gaussian 16 at Mon Dec  4 00:06:12 2023.
