 Gaussian 16, Revision B.01,
 Gaussian 16:  ES64L-G16RevB.01 20-Dec-2017

 -------------------------
 #P B3LYP/6-311+g(d) force
 -------------------------

 -----
 DPGEN
 -----
 Symbolic Z-matrix:
 Charge =  0 Multiplicity = 2

                         Standard orientation:
 ---------------------------------------------------------------------
 Center     Atomic      Atomic             Coordinates (Angstroms)
 Number     Number       Type             X           Y           Z
 ---------------------------------------------------------------------
      1         11           0       -2.774505    1.427561    0.096112
      2         11           0        3.155088    0.028893   -0.390419
      3         11           0        0.731987   -2.603591    0.463065
      4         11           0        0.341007   -0.123132   -1.621772
      5         11           0        0.392410    0.327241    2.082524
      6         11           0       -2.365576   -1.801976   -0.423695
      7         11           0        0.519589    2.745003   -0.205814
 ---------------------------------------------------------------------

 SCF Done:  E(UB3LYP) =  -1136.13652456     A.U. after   19 cycles

 The electronic state is 2-A.
 Alpha  occ. eigenvalues --  -38.44163 -38.43821 -38.43732 -38.43379 -38.43362
 Alpha  occ. eigenvalues --  -38.43275 -38.43214  -2.20019  -2.19643  -2.19636
 Alpha  occ. eigenvalues --   -2.19296  -2.19243  -2.19238  -2.19110  -1.13740
 Alpha  occ. eigenvalues --   -1.13662  -1.13640  -1.13321  -1.13310  -1.13303
 Alpha  occ. eigenvalues --   -1.13287  -1.13279  -1.13247  -1.13016  -1.12990
 Alpha  occ. eigenvalues --   -1.12950  -1.12909  -1.12904  -1.12894  -1.12886
 Alpha  occ. eigenvalues --   -1.12871  -1.12840  -1.12785  -1.12762  -1.12720
 Alpha  occ. eigenvalues --   -0.18879  -0.13018  -0.12533  -0.11063
 Alpha virt. eigenvalues --   -0.05683  -0.04869  -0.04579  -0.03165  -0.03085
 Alpha virt. eigenvalues --   -0.02757  -0.01567  -0.00922  -0.00242  -0.00144
 Alpha virt. eigenvalues --    0.00032   0.00348   0.00855   0.00889   0.00935

  Beta  occ. eigenvalues --  -38.44150 -38.43822 -38.43635 -38.43374 -38.43355
  Beta  occ. eigenvalues --  -38.43213 -38.43200  -2.20000  -2.19645  -2.19458
  Beta  occ. eigenvalues --   -2.19236  -2.19229  -2.19182  -2.19089  -1.13715
  Beta  occ. eigenvalues --   -1.13638  -1.13626  -1.13325  -1.13300  -1.13286
  Beta  occ. eigenvalues --   -1.13187  -1.13153  -1.13122  -1.12975  -1.12943
  Beta  occ. eigenvalues --   -1.12899  -1.12890  -1.12884  -1.12879  -1.12844
  Beta  occ. eigenvalues --   -1.12827  -1.12811  -1.12761  -1.12720  -1.12710
  Beta  occ. eigenvalues --   -0.18148  -0.12771  -0.12292
  Beta virt. eigenvalues --   -0.07091  -0.05645  -0.04850  -0.04525  -0.02438
  Beta virt. eigenvalues --   -0.02285  -0.01665  -0.01480  -0.00861  -0.00248
  Beta virt. eigenvalues --   -0.00146   0.00129   0.00385   0.00884   0.00902

 Mulliken charges and spin densities:
               1          2
     1  Na  -0.063483  -0.033727
     2  Na   0.350663  -0.034134
     3  Na   0.131533   0.095511
     4  Na  -0.230289   0.437616
     5  Na  -0.390909   0.629022
     6  Na   0.073552  -0.036048
     7  Na   0.128933  -0.058240
 Sum of Mulliken charges =  -0.00000   1.00000

 Dipole moment (field-independent basis, Debye):
    X=              0.2786    Y=              0.1793    Z=              0.1779  Tot=              0.3760
 Quadrupole moment (field-independent basis, Debye-Ang):
   XX=            -56.7956   YY=            -64.5850   ZZ=            -72.8130
   XY=             -0.3074   XZ=             -0.1687   YZ=             -0.5870

 Normal termination of Gaussian 16 at Thu Dec  7 12:16:03 2023.
