 Gaussian 16, Revision B.01,
 Gaussian 16:  ES64L-G16RevB.01 20-Dec-2017

 -------------------------
 #P B3LYP/6-311+g(d) force
 -------------------------

 -----
 DPGEN
 -----
 Symbolic Z-matrix:
 Charge =  0 Multiplicity = 2

                         Standard orientation:
 ---------------------------------------------------------------------
 Center     Atomic      Atomic             Coordinates (Angstroms)
 Number     Number       Type             X           Y           Z
 ---------------------------------------------------------------------
      1         11           0        0.138690    0.407290   -1.889010
      2         11           0        1.255276    2.436490    0.488279
      3         11           0       -2.533687    2.038191   -0.414890
      4         11           0       -2.852550   -1.821732    0.045683
      5         11           0       -0.384364   -0.129653    2.135589
      6         11           0        0.688628   -2.537452   -0.299242
      7         11           0        3.688007   -0.393133   -0.066409
 ---------------------------------------------------------------------

 SCF Done:  E(UB3LYP) =  -1136.13258904     A.U. after   19 cycles

 The electronic state is 2-A.
 Alpha  occ. eigenvalues --  -38.44698 -38.44081 -38.43982 -38.43960 -38.43845
 Alpha  occ. eigenvalues --  -38.43455 -38.43184  -2.20451  -2.19863  -2.19818
 Alpha  occ. eigenvalues --   -2.19772  -2.19735  -2.19293  -2.19022  -1.14127
 Alpha  occ. eigenvalues --   -1.14112  -1.14088  -1.13541  -1.13518  -1.13511
 Alpha  occ. eigenvalues --   -1.13486  -1.13462  -1.13450  -1.13432  -1.13427
 Alpha  occ. eigenvalues --   -1.13415  -1.13407  -1.13387  -1.13335  -1.12980
 Alpha  occ. eigenvalues --   -1.12971  -1.12898  -1.12725  -1.12702  -1.12622
 Alpha  occ. eigenvalues --   -0.18011  -0.12749  -0.12053  -0.10949
 Alpha virt. eigenvalues --   -0.06250  -0.05371  -0.04185  -0.03218  -0.02979
 Alpha virt. eigenvalues --   -0.02813  -0.02023  -0.01329  -0.00416  -0.00192
 Alpha virt. eigenvalues --   -0.00103   0.00282   0.00646   0.00714   0.00812

  Beta  occ. eigenvalues --  -38.44703 -38.44081 -38.43973 -38.43868 -38.43777
  Beta  occ. eigenvalues --  -38.43439 -38.43175  -2.20462  -2.19866  -2.19758
  Beta  occ. eigenvalues --   -2.19648  -2.19609  -2.19269  -2.19008  -1.14130
  Beta  occ. eigenvalues --   -1.14116  -1.14095  -1.13530  -1.13518  -1.13513
  Beta  occ. eigenvalues --   -1.13435  -1.13413  -1.13402  -1.13373  -1.13333
  Beta  occ. eigenvalues --   -1.13331  -1.13307  -1.13300  -1.13245  -1.12965
  Beta  occ. eigenvalues --   -1.12926  -1.12885  -1.12713  -1.12675  -1.12615
  Beta  occ. eigenvalues --   -0.17261  -0.12596  -0.11814
  Beta virt. eigenvalues --   -0.07040  -0.06158  -0.05356  -0.04072  -0.02556
  Beta virt. eigenvalues --   -0.02225  -0.01940  -0.01788  -0.01278  -0.00420
  Beta virt. eigenvalues --   -0.00185   0.00024   0.00306   0.00746   0.00803

 Mulliken charges and spin densities:
               1          2
     1  Na  -0.108390   0.649019
     2  Na   0.121206   0.000339
     3  Na   0.120526  -0.055525
     4  Na   0.068026  -0.083245
     5  Na  -0.234177   0.668278
     6  Na   0.011823  -0.075847
     7  Na   0.020986  -0.103019
 Sum of Mulliken charges =  -0.00000   1.00000

 Dipole moment (field-independent basis, Debye):
    X=              0.0558    Y=              0.0611    Z=              0.0422  Tot=              0.0929
 Quadrupole moment (field-independent basis, Debye-Ang):
   XX=            -51.9557   YY=            -68.2866   ZZ=            -73.0956
   XY=              0.0072   XZ=              0.8429   YZ=              0.7807

 Normal termination of Gaussian 16 at Sun Dec  3 13:44:14 2023.
