 Gaussian 16, Revision B.01,
 Gaussian 16:  ES64L-G16RevB.01 20-Dec-2017

 -------------------------
 #P B3LYP/6-311+g(d) force
 -------------------------

 -----
 DPGEN
 -----
 Symbolic Z-matrix:
 Charge =  0 Multiplicity = 2

                         Standard orientation:
 ---------------------------------------------------------------------
 Center     Atomic      Atomic             Coordinates (Angstroms)
 Number     Number       Type             X           Y           Z
 ---------------------------------------------------------------------
      1         11           0       -1.220950   -1.509844   -0.238294
      2         11           0       -4.688358   -1.225872    0.805642
      3         11           0       -2.761774    1.507297   -0.632689
      4         11           0        1.715675   -2.916025   -0.344937
      5         11           0        3.249688    2.013888    0.726781
      6         11           0       -0.267107    3.168410   -0.289213
      7         11           0        3.972826   -1.037854   -0.027290
 ---------------------------------------------------------------------

 SCF Done:  E(UB3LYP) =  -1136.11493008     A.U. after   20 cycles

 The electronic state is 2-A.
 Alpha  occ. eigenvalues --  -38.44648 -38.44645 -38.44545 -38.44494 -38.44422
 Alpha  occ. eigenvalues --  -38.43760 -38.43632  -2.20498  -2.20467  -2.20367
 Alpha  occ. eigenvalues --   -2.20355  -2.20215  -2.19629  -2.19452  -1.14216
 Alpha  occ. eigenvalues --   -1.14164  -1.14163  -1.14150  -1.14148  -1.14109
 Alpha  occ. eigenvalues --   -1.14069  -1.14036  -1.14009  -1.14001  -1.13988
 Alpha  occ. eigenvalues --   -1.13947  -1.13879  -1.13872  -1.13834  -1.13294
 Alpha  occ. eigenvalues --   -1.13268  -1.13258  -1.13128  -1.13105  -1.13083
 Alpha  occ. eigenvalues --   -0.16641  -0.14584  -0.12867  -0.11125
 Alpha virt. eigenvalues --   -0.06846  -0.05520  -0.04021  -0.03549  -0.03121
 Alpha virt. eigenvalues --   -0.02554  -0.02237  -0.01362  -0.01265  -0.00686
 Alpha virt. eigenvalues --   -0.00372   0.00047   0.00149   0.00532   0.00753

  Beta  occ. eigenvalues --  -38.44633 -38.44631 -38.44468 -38.44459 -38.44382
  Beta  occ. eigenvalues --  -38.43731 -38.43610  -2.20480  -2.20439  -2.20326
  Beta  occ. eigenvalues --   -2.20194  -2.20143  -2.19577  -2.19414  -1.14187
  Beta  occ. eigenvalues --   -1.14149  -1.14143  -1.14139  -1.14134  -1.14059
  Beta  occ. eigenvalues --   -1.14022  -1.14010  -1.13944  -1.13892  -1.13890
  Beta  occ. eigenvalues --   -1.13847  -1.13831  -1.13825  -1.13778  -1.13261
  Beta  occ. eigenvalues --   -1.13228  -1.13222  -1.13092  -1.13080  -1.13058
  Beta  occ. eigenvalues --   -0.16128  -0.13975  -0.12256
  Beta virt. eigenvalues --   -0.07729  -0.06773  -0.05036  -0.03860  -0.03158
  Beta virt. eigenvalues --   -0.02747  -0.02305  -0.01927  -0.01196  -0.00966
  Beta virt. eigenvalues --   -0.00434  -0.00045   0.00185   0.00399   0.00613

 Mulliken charges and spin densities:
               1          2
     1  Na  -1.473451   0.200480
     2  Na   1.055815   0.432360
     3  Na   0.609116   0.225654
     4  Na   0.829139  -0.133206
     5  Na   0.318456   0.220897
     6  Na  -0.418789  -0.060660
     7  Na  -0.920286   0.114476
 Sum of Mulliken charges =  -0.00000   1.00000

 Dipole moment (field-independent basis, Debye):
    X=             -0.5703    Y=             -0.3191    Z=              0.1901  Tot=              0.6806
 Quadrupole moment (field-independent basis, Debye-Ang):
   XX=            -58.4802   YY=            -68.2142   ZZ=            -71.7891
   XY=             -2.1390   XZ=             -0.8363   YZ=             -0.0904

 Normal termination of Gaussian 16 at Sun Dec  3 14:00:30 2023.
