 Gaussian 16, Revision B.01,
 Gaussian 16:  ES64L-G16RevB.01 20-Dec-2017

 -------------------------
 #P B3LYP/6-311+g(d) force
 -------------------------

 -----
 DPGEN
 -----
 Symbolic Z-matrix:
 Charge =  0 Multiplicity = 2

                         Standard orientation:
 ---------------------------------------------------------------------
 Center     Atomic      Atomic             Coordinates (Angstroms)
 Number     Number       Type             X           Y           Z
 ---------------------------------------------------------------------
      1         11           0       -3.997403   -1.365661   -0.409959
      2         11           0        1.662317    2.246365   -0.094589
      3         11           0        0.301046   -0.978691   -1.513644
      4         11           0        3.798988   -1.257774   -0.729888
      5         11           0       -1.624006   -0.106092    1.497389
      6         11           0        1.527115   -0.580316    1.960762
      7         11           0       -1.668057    2.042169   -0.710070
 ---------------------------------------------------------------------

 SCF Done:  E(UB3LYP) =  -1136.12174781     A.U. after   24 cycles

 The electronic state is 2-A.
 Alpha  occ. eigenvalues --  -38.45142 -38.44230 -38.44155 -38.44095 -38.43740
 Alpha  occ. eigenvalues --  -38.43484 -38.43437  -2.20959  -2.20006  -2.19990
 Alpha  occ. eigenvalues --   -2.19944  -2.19691  -2.19316  -2.19313  -1.14664
 Alpha  occ. eigenvalues --   -1.14614  -1.14561  -1.13701  -1.13686  -1.13668
 Alpha  occ. eigenvalues --   -1.13645  -1.13629  -1.13617  -1.13608  -1.13597
 Alpha  occ. eigenvalues --   -1.13559  -1.13400  -1.13373  -1.13278  -1.13005
 Alpha  occ. eigenvalues --   -1.13001  -1.12989  -1.12969  -1.12953  -1.12880
 Alpha  occ. eigenvalues --   -0.18349  -0.13725  -0.11490  -0.11085
 Alpha virt. eigenvalues --   -0.06800  -0.05453  -0.04428  -0.03292  -0.02553
 Alpha virt. eigenvalues --   -0.02524  -0.02335  -0.01575  -0.00782  -0.00192
 Alpha virt. eigenvalues --    0.00048   0.00239   0.00385   0.00469   0.00662

  Beta  occ. eigenvalues --  -38.45101 -38.44235 -38.44145 -38.44011 -38.43690
  Beta  occ. eigenvalues --  -38.43477 -38.43423  -2.20885  -2.20016  -2.19927
  Beta  occ. eigenvalues --   -2.19839  -2.19604  -2.19303  -2.19289  -1.14606
  Beta  occ. eigenvalues --   -1.14558  -1.14505  -1.13694  -1.13675  -1.13649
  Beta  occ. eigenvalues --   -1.13598  -1.13595  -1.13586  -1.13569  -1.13527
  Beta  occ. eigenvalues --   -1.13465  -1.13334  -1.13315  -1.13200  -1.12989
  Beta  occ. eigenvalues --   -1.12975  -1.12969  -1.12954  -1.12943  -1.12866
  Beta  occ. eigenvalues --   -0.17584  -0.13631  -0.10914
  Beta virt. eigenvalues --   -0.07390  -0.06577  -0.05398  -0.03882  -0.02926
  Beta virt. eigenvalues --   -0.02422  -0.01879  -0.01801  -0.01331  -0.00410
  Beta virt. eigenvalues --   -0.00187   0.00087   0.00324   0.00521   0.00582

 Mulliken charges and spin densities:
               1          2
     1  Na   0.276238  -0.019564
     2  Na  -0.101022   0.080393
     3  Na  -0.651883   0.386934
     4  Na   0.450038   0.076843
     5  Na  -0.061084   0.127371
     6  Na   0.070810   0.205165
     7  Na   0.016902   0.142857
 Sum of Mulliken charges =  -0.00000   1.00000

 Dipole moment (field-independent basis, Debye):
    X=              0.3204    Y=              0.0828    Z=             -0.5216  Tot=              0.6177
 Quadrupole moment (field-independent basis, Debye-Ang):
   XX=            -51.6775   YY=            -74.5365   ZZ=            -69.6859
   XY=              1.1937   XZ=              2.3141   YZ=              1.1950

 Normal termination of Gaussian 16 at Thu Dec  7 19:49:35 2023.
