 Gaussian 16, Revision B.01,
 Gaussian 16:  ES64L-G16RevB.01 20-Dec-2017

 -------------------------
 #P B3LYP/6-311+g(d) force
 -------------------------

 -----
 DPGEN
 -----
 Symbolic Z-matrix:
 Charge =  0 Multiplicity = 2

                         Standard orientation:
 ---------------------------------------------------------------------
 Center     Atomic      Atomic             Coordinates (Angstroms)
 Number     Number       Type             X           Y           Z
 ---------------------------------------------------------------------
      1         11           0        3.757276   -0.781256   -0.564620
      2         11           0       -3.959117    0.080532   -1.001268
      3         11           0        0.386032    0.039237    1.902306
      4         11           0       -2.266895   -2.420227    0.539275
      5         11           0        2.230802    2.687516   -0.272170
      6         11           0        1.300998   -2.789507   -0.589791
      7         11           0       -1.449095    3.183704   -0.013732
 ---------------------------------------------------------------------

 SCF Done:  E(UB3LYP) =  -1136.11762799     A.U. after   21 cycles

 The electronic state is 2-A.
 Alpha  occ. eigenvalues --  -38.44974 -38.44855 -38.44764 -38.44527 -38.44116
 Alpha  occ. eigenvalues --  -38.43935 -38.43726  -2.20700  -2.20607  -2.20553
 Alpha  occ. eigenvalues --   -2.20325  -2.19901  -2.19724  -2.19550  -1.14393
 Alpha  occ. eigenvalues --   -1.14369  -1.14332  -1.14296  -1.14271  -1.14234
 Alpha  occ. eigenvalues --   -1.14221  -1.14205  -1.14158  -1.14008  -1.14001
 Alpha  occ. eigenvalues --   -1.13966  -1.13584  -1.13574  -1.13548  -1.13379
 Alpha  occ. eigenvalues --   -1.13356  -1.13354  -1.13213  -1.13199  -1.13177
 Alpha  occ. eigenvalues --   -0.16616  -0.13387  -0.12734  -0.10372
 Alpha virt. eigenvalues --   -0.06917  -0.06327  -0.04171  -0.03628  -0.03204
 Alpha virt. eigenvalues --   -0.02200  -0.01875  -0.01664  -0.01474  -0.01109
 Alpha virt. eigenvalues --   -0.00220   0.00279   0.00405   0.00448   0.00568

  Beta  occ. eigenvalues --  -38.44979 -38.44854 -38.44687 -38.44523 -38.44115
  Beta  occ. eigenvalues --  -38.43869 -38.43680  -2.20713  -2.20606  -2.20411
  Beta  occ. eigenvalues --   -2.20321  -2.19903  -2.19599  -2.19465  -1.14401
  Beta  occ. eigenvalues --   -1.14379  -1.14329  -1.14294  -1.14271  -1.14224
  Beta  occ. eigenvalues --   -1.14127  -1.14112  -1.14050  -1.14007  -1.14003
  Beta  occ. eigenvalues --   -1.13935  -1.13587  -1.13578  -1.13520  -1.13294
  Beta  occ. eigenvalues --   -1.13277  -1.13268  -1.13155  -1.13141  -1.13118
  Beta  occ. eigenvalues --   -0.16062  -0.12784  -0.12560
  Beta virt. eigenvalues --   -0.07016  -0.06847  -0.05982  -0.03867  -0.03158
  Beta virt. eigenvalues --   -0.02602  -0.01996  -0.01786  -0.01393  -0.01181
  Beta virt. eigenvalues --   -0.01051   0.00090   0.00438   0.00510   0.00568

 Mulliken charges and spin densities:
               1          2
     1  Na  -0.028959   0.326554
     2  Na  -0.010854   0.296007
     3  Na   0.424194   0.093814
     4  Na  -0.164028   0.161173
     5  Na   0.061815  -0.010615
     6  Na  -0.028937   0.039741
     7  Na  -0.253232   0.093326
 Sum of Mulliken charges =  -0.00000   1.00000

 Dipole moment (field-independent basis, Debye):
    X=              0.4788    Y=              0.4613    Z=              0.1860  Tot=              0.6904
 Quadrupole moment (field-independent basis, Debye-Ang):
   XX=            -68.6234   YY=            -60.9809   ZZ=            -72.1415
   XY=              2.7702   XZ=             -0.1515   YZ=             -0.4289

 Normal termination of Gaussian 16 at Sun Dec  3 20:41:30 2023.
