 Gaussian 16, Revision B.01,
 Gaussian 16:  ES64L-G16RevB.01 20-Dec-2017

 -------------------------
 #P B3LYP/6-311+g(d) force
 -------------------------

 -----
 DPGEN
 -----
 Symbolic Z-matrix:
 Charge =  0 Multiplicity = 2

                         Standard orientation:
 ---------------------------------------------------------------------
 Center     Atomic      Atomic             Coordinates (Angstroms)
 Number     Number       Type             X           Y           Z
 ---------------------------------------------------------------------
      1         11           0       -1.383211   -2.278311   -0.245701
      2         11           0        0.406333    0.117774    2.087882
      3         11           0        2.596385   -2.098213    0.060668
      4         11           0       -0.150701    0.206708   -1.584241
      5         11           0       -3.911510    0.051066    0.040015
      6         11           0       -0.586740    2.666156    0.094450
      7         11           0        3.029444    1.334822   -0.453073
 ---------------------------------------------------------------------

 SCF Done:  E(UB3LYP) =  -1136.12558388     A.U. after   23 cycles

 The electronic state is 2-A.
 Alpha  occ. eigenvalues --  -38.45584 -38.44617 -38.43718 -38.43696 -38.43481
 Alpha  occ. eigenvalues --  -38.43400 -38.42950  -2.21326  -2.20423  -2.19660
 Alpha  occ. eigenvalues --   -2.19513  -2.19360  -2.19253  -2.18818  -1.15004
 Alpha  occ. eigenvalues --   -1.14988  -1.14956  -1.14100  -1.14079  -1.14049
 Alpha  occ. eigenvalues --   -1.13379  -1.13370  -1.13254  -1.13184  -1.13176
 Alpha  occ. eigenvalues --   -1.13158  -1.13029  -1.12987  -1.12974  -1.12962
 Alpha  occ. eigenvalues --   -1.12913  -1.12844  -1.12529  -1.12480  -1.12413
 Alpha  occ. eigenvalues --   -0.18230  -0.13231  -0.11795  -0.10531
 Alpha virt. eigenvalues --   -0.06926  -0.05208  -0.03965  -0.03204  -0.02662
 Alpha virt. eigenvalues --   -0.02502  -0.02472  -0.01345  -0.00494  -0.00207
 Alpha virt. eigenvalues --   -0.00103   0.00181   0.00612   0.00700   0.00783

  Beta  occ. eigenvalues --  -38.45590 -38.44600 -38.43717 -38.43643 -38.43391
  Beta  occ. eigenvalues --  -38.43379 -38.42942  -2.21340  -2.20394  -2.19565
  Beta  occ. eigenvalues --   -2.19513  -2.19241  -2.19171  -2.18809  -1.15009
  Beta  occ. eigenvalues --   -1.14995  -1.14966  -1.14067  -1.14056  -1.14033
  Beta  occ. eigenvalues --   -1.13312  -1.13300  -1.13187  -1.13179  -1.13163
  Beta  occ. eigenvalues --   -1.13158  -1.12947  -1.12905  -1.12888  -1.12855
  Beta  occ. eigenvalues --   -1.12840  -1.12833  -1.12522  -1.12444  -1.12410
  Beta  occ. eigenvalues --   -0.17513  -0.13059  -0.11553
  Beta virt. eigenvalues --   -0.06844  -0.06610  -0.05201  -0.03939  -0.02583
  Beta virt. eigenvalues --   -0.02454  -0.01809  -0.01456  -0.01248  -0.00502
  Beta virt. eigenvalues --   -0.00167   0.00015   0.00223   0.00718   0.00784

 Mulliken charges and spin densities:
               1          2
     1  Na   0.103902  -0.071805
     2  Na  -0.425248   0.755508
     3  Na   0.019123  -0.035464
     4  Na  -0.089150   0.475974
     5  Na   0.044404  -0.065131
     6  Na   0.092607  -0.099792
     7  Na   0.254362   0.040710
 Sum of Mulliken charges =  -0.00000   1.00000

 Dipole moment (field-independent basis, Debye):
    X=             -0.5321    Y=              0.2232    Z=              0.1517  Tot=              0.5967
 Quadrupole moment (field-independent basis, Debye-Ang):
   XX=            -46.5144   YY=            -68.8932   ZZ=            -75.6663
   XY=             -0.7596   XZ=             -1.4970   YZ=             -0.0128

 Normal termination of Gaussian 16 at Thu Dec  7 08:17:18 2023.
