 Gaussian 16, Revision B.01,
 Gaussian 16:  ES64L-G16RevB.01 20-Dec-2017

 -------------------------
 #P B3LYP/6-311+g(d) force
 -------------------------

 -----
 DPGEN
 -----
 Symbolic Z-matrix:
 Charge =  0 Multiplicity = 2

                         Standard orientation:
 ---------------------------------------------------------------------
 Center     Atomic      Atomic             Coordinates (Angstroms)
 Number     Number       Type             X           Y           Z
 ---------------------------------------------------------------------
      1         11           0       -5.013856    0.323804   -0.721577
      2         11           0        0.241907   -1.259991    1.335330
      3         11           0        4.215612    1.008821   -1.139665
      4         11           0        1.316686    2.815712    0.284408
      5         11           0       -2.562155   -2.330965   -0.580881
      6         11           0        3.863514   -2.219891    0.117499
      7         11           0       -2.061708    1.662510    0.704886
 ---------------------------------------------------------------------

 SCF Done:  E(UB3LYP) =  -1136.11294864     A.U. after   23 cycles

 The electronic state is 2-A.
 Alpha  occ. eigenvalues --  -38.45138 -38.44943 -38.44773 -38.44669 -38.44365
 Alpha  occ. eigenvalues --  -38.44114 -38.43201  -2.20901  -2.20719  -2.20583
 Alpha  occ. eigenvalues --   -2.20466  -2.20108  -2.19913  -2.18962  -1.14587
 Alpha  occ. eigenvalues --   -1.14568  -1.14534  -1.14389  -1.14360  -1.14342
 Alpha  occ. eigenvalues --   -1.14230  -1.14228  -1.14192  -1.14139  -1.14094
 Alpha  occ. eigenvalues --   -1.14091  -1.13792  -1.13770  -1.13764  -1.13609
 Alpha  occ. eigenvalues --   -1.13593  -1.13522  -1.12649  -1.12634  -1.12607
 Alpha  occ. eigenvalues --   -0.16457  -0.14109  -0.11549  -0.11436
 Alpha virt. eigenvalues --   -0.07247  -0.05147  -0.04739  -0.03723  -0.03338
 Alpha virt. eigenvalues --   -0.02361  -0.02073  -0.01785  -0.01039  -0.00731
 Alpha virt. eigenvalues --   -0.00463  -0.00136   0.00094   0.00344   0.00547

  Beta  occ. eigenvalues --  -38.45123 -38.44894 -38.44688 -38.44594 -38.44386
  Beta  occ. eigenvalues --  -38.44089 -38.43213  -2.20879  -2.20629  -2.20424
  Beta  occ. eigenvalues --   -2.20328  -2.20150  -2.19872  -2.18987  -1.14576
  Beta  occ. eigenvalues --   -1.14545  -1.14495  -1.14326  -1.14302  -1.14284
  Beta  occ. eigenvalues --   -1.14121  -1.14116  -1.14090  -1.14046  -1.14002
  Beta  occ. eigenvalues --   -1.13989  -1.13823  -1.13802  -1.13777  -1.13581
  Beta  occ. eigenvalues --   -1.13553  -1.13480  -1.12668  -1.12652  -1.12609
  Beta  occ. eigenvalues --   -0.15647  -0.13545  -0.11298
  Beta virt. eigenvalues --   -0.08068  -0.07124  -0.04662  -0.04280  -0.03512
  Beta virt. eigenvalues --   -0.02835  -0.02125  -0.01817  -0.01444  -0.00844
  Beta virt. eigenvalues --   -0.00552  -0.00380   0.00094   0.00198   0.00448

 Mulliken charges and spin densities:
               1          2
     1  Na   0.426043   0.433880
     2  Na  -0.506011   0.426749
     3  Na  -0.043370   0.255214
     4  Na  -0.049152  -0.135634
     5  Na   0.223409  -0.003132
     6  Na   0.164789  -0.087056
     7  Na  -0.215707   0.109979
 Sum of Mulliken charges =  -0.00000   1.00000

 Dipole moment (field-independent basis, Debye):
    X=             -0.5790    Y=             -0.7400    Z=             -0.5591  Tot=              1.0933
 Quadrupole moment (field-independent basis, Debye-Ang):
   XX=            -57.0420   YY=            -69.9663   ZZ=            -69.7805
   XY=              1.2199   XZ=             -0.2333   YZ=             -0.2419

 Normal termination of Gaussian 16 at Sun Dec  3 22:41:39 2023.
