 Gaussian 16, Revision B.01,
 Gaussian 16:  ES64L-G16RevB.01 20-Dec-2017

 -------------------------
 #P B3LYP/6-311+g(d) force
 -------------------------

 -----
 DPGEN
 -----
 Symbolic Z-matrix:
 Charge =  0 Multiplicity = 2

                         Standard orientation:
 ---------------------------------------------------------------------
 Center     Atomic      Atomic             Coordinates (Angstroms)
 Number     Number       Type             X           Y           Z
 ---------------------------------------------------------------------
      1         11           0        0.218159   -2.034017    0.759416
      2         11           0        3.258280   -2.784962   -0.268610
      3         11           0        3.896084    0.595993   -0.548228
      4         11           0       -0.063315    0.965699   -0.478874
      5         11           0       -3.477614    0.000890    0.811126
      6         11           0        2.203261    3.266767    0.482803
      7         11           0       -6.034855   -0.010371   -0.757632
 ---------------------------------------------------------------------

 SCF Done:  E(UB3LYP) =  -1136.12061696     A.U. after   20 cycles

 The electronic state is 2-A.
 Alpha  occ. eigenvalues --  -38.44654 -38.44600 -38.44513 -38.44135 -38.43846
 Alpha  occ. eigenvalues --  -38.43518 -38.43489  -2.20479  -2.20432  -2.20366
 Alpha  occ. eigenvalues --   -2.19967  -2.19666  -2.19341  -2.19309  -1.14164
 Alpha  occ. eigenvalues --   -1.14132  -1.14115  -1.14094  -1.14064  -1.14054
 Alpha  occ. eigenvalues --   -1.14052  -1.14047  -1.13958  -1.13654  -1.13636
 Alpha  occ. eigenvalues --   -1.13575  -1.13348  -1.13337  -1.13309  -1.13000
 Alpha  occ. eigenvalues --   -1.12999  -1.12979  -1.12975  -1.12969  -1.12950
 Alpha  occ. eigenvalues --   -0.16838  -0.14161  -0.12182  -0.11611
 Alpha virt. eigenvalues --   -0.05757  -0.05347  -0.04857  -0.03772  -0.02887
 Alpha virt. eigenvalues --   -0.02244  -0.01989  -0.01743  -0.00947  -0.00713
 Alpha virt. eigenvalues --   -0.00264   0.00060   0.00130   0.00293   0.00719

  Beta  occ. eigenvalues --  -38.44604 -38.44518 -38.44465 -38.44107 -38.43849
  Beta  occ. eigenvalues --  -38.43497 -38.43487  -2.20387  -2.20281  -2.20279
  Beta  occ. eigenvalues --   -2.19918  -2.19680  -2.19306  -2.19302  -1.14103
  Beta  occ. eigenvalues --   -1.14075  -1.14016  -1.14016  -1.14002  -1.13990
  Beta  occ. eigenvalues --   -1.13950  -1.13948  -1.13891  -1.13618  -1.13606
  Beta  occ. eigenvalues --   -1.13533  -1.13357  -1.13353  -1.13267  -1.12974
  Beta  occ. eigenvalues --   -1.12969  -1.12964  -1.12964  -1.12956  -1.12950
  Beta  occ. eigenvalues --   -0.16155  -0.13279  -0.12134
  Beta virt. eigenvalues --   -0.08171  -0.05356  -0.04945  -0.04472  -0.03564
  Beta virt. eigenvalues --   -0.02593  -0.01974  -0.01734  -0.01467  -0.00794
  Beta virt. eigenvalues --   -0.00331  -0.00086   0.00189   0.00275   0.00433

 Mulliken charges and spin densities:
               1          2
     1  Na  -0.038851   0.051177
     2  Na   0.290753   0.110991
     3  Na  -0.065971   0.351886
     4  Na  -1.245168  -0.044989
     5  Na   0.077135   0.113429
     6  Na   0.812939   0.097935
     7  Na   0.169163   0.319570
 Sum of Mulliken charges =  -0.00000   1.00000

 Dipole moment (field-independent basis, Debye):
    X=              0.0167    Y=              0.1758    Z=             -0.1404  Tot=              0.2256
 Quadrupole moment (field-independent basis, Debye-Ang):
   XX=            -59.9277   YY=            -68.0892   ZZ=            -68.4060
   XY=              0.5143   XZ=              2.3816   YZ=              1.0514

 Normal termination of Gaussian 16 at Tue Nov 28 20:11:30 2023.
