 Gaussian 16, Revision B.01,
 Gaussian 16:  ES64L-G16RevB.01 20-Dec-2017

 -------------------------
 #P B3LYP/6-311+g(d) force
 -------------------------

 -----
 DPGEN
 -----
 Symbolic Z-matrix:
 Charge =  0 Multiplicity = 2

                         Standard orientation:
 ---------------------------------------------------------------------
 Center     Atomic      Atomic             Coordinates (Angstroms)
 Number     Number       Type             X           Y           Z
 ---------------------------------------------------------------------
      1         11           0        1.486002   -1.903772   -0.573109
      2         11           0       -0.663363    0.352722    2.062528
      3         11           0       -1.937275   -1.787797   -0.644822
      4         11           0       -4.063428    0.432703    0.532351
      5         11           0       -0.772774    1.097615   -1.574280
      6         11           0        4.105934   -0.500019    0.686943
      7         11           0        1.844903    2.308549   -0.489611
 ---------------------------------------------------------------------

 SCF Done:  E(UB3LYP) =  -1136.11603275     A.U. after   44 cycles

 The electronic state is 2-A.
 Alpha  occ. eigenvalues --  -38.46344 -38.45603 -38.44659 -38.43469 -38.43104
 Alpha  occ. eigenvalues --  -38.42949 -38.42753  -2.22117  -2.21405  -2.20453
 Alpha  occ. eigenvalues --   -2.19380  -2.19034  -2.18793  -2.18587  -1.15802
 Alpha  occ. eigenvalues --   -1.15762  -1.15730  -1.15068  -1.15060  -1.15031
 Alpha  occ. eigenvalues --   -1.14120  -1.14105  -1.14087  -1.13083  -1.13045
 Alpha  occ. eigenvalues --   -1.13004  -1.12723  -1.12684  -1.12660  -1.12478
 Alpha  occ. eigenvalues --   -1.12455  -1.12441  -1.12271  -1.12235  -1.12218
 Alpha  occ. eigenvalues --   -0.18204  -0.13968  -0.11330  -0.10923
 Alpha virt. eigenvalues --   -0.07691  -0.04916  -0.04565  -0.03208  -0.03096
 Alpha virt. eigenvalues --   -0.02541  -0.02349  -0.01387  -0.00918  -0.00250
 Alpha virt. eigenvalues --   -0.00180   0.00121   0.00274   0.00588   0.00738

  Beta  occ. eigenvalues --  -38.46304 -38.45575 -38.44635 -38.43435 -38.43047
  Beta  occ. eigenvalues --  -38.42935 -38.42749  -2.22041  -2.21354  -2.20407
  Beta  occ. eigenvalues --   -2.19324  -2.18929  -2.18773  -2.18583  -1.15746
  Beta  occ. eigenvalues --   -1.15712  -1.15671  -1.15036  -1.15018  -1.14994
  Beta  occ. eigenvalues --   -1.14092  -1.14073  -1.14054  -1.13034  -1.13007
  Beta  occ. eigenvalues --   -1.12942  -1.12661  -1.12611  -1.12574  -1.12470
  Beta  occ. eigenvalues --   -1.12439  -1.12398  -1.12254  -1.12237  -1.12209
  Beta  occ. eigenvalues --   -0.17493  -0.13677  -0.10748
  Beta virt. eigenvalues --   -0.07669  -0.07261  -0.04851  -0.04045  -0.02858
  Beta virt. eigenvalues --   -0.02833  -0.01893  -0.01821  -0.01183  -0.00808
  Beta virt. eigenvalues --   -0.00156  -0.00051   0.00205   0.00399   0.00679

 Mulliken charges and spin densities:
               1          2
     1  Na  -0.593002  -0.118637
     2  Na  -0.350412   0.315221
     3  Na   0.073289   0.130245
     4  Na   0.596490   0.211303
     5  Na  -0.082838   0.291876
     6  Na   0.490878   0.217557
     7  Na  -0.134403  -0.047565
 Sum of Mulliken charges =  -0.00000   1.00000

 Dipole moment (field-independent basis, Debye):
    X=             -1.2760    Y=              0.4755    Z=              0.9917  Tot=              1.6846
 Quadrupole moment (field-independent basis, Debye-Ang):
   XX=            -47.5198   YY=            -80.0000   ZZ=            -68.3191
   XY=              1.3219   XZ=              2.7280   YZ=              1.5593

 Normal termination of Gaussian 16 at Thu Dec  7 05:24:17 2023.
