 Gaussian 16, Revision B.01,
 Gaussian 16:  ES64L-G16RevB.01 20-Dec-2017

 -------------------------
 #P B3LYP/6-311+g(d) force
 -------------------------

 -----
 DPGEN
 -----
 Symbolic Z-matrix:
 Charge =  0 Multiplicity = 2

                         Standard orientation:
 ---------------------------------------------------------------------
 Center     Atomic      Atomic             Coordinates (Angstroms)
 Number     Number       Type             X           Y           Z
 ---------------------------------------------------------------------
      1         11           0        1.126130    3.241968    0.469128
      2         11           0        4.204347    1.408317   -0.521946
      3         11           0       -2.464727   -3.110632   -0.210595
      4         11           0       -2.828662    2.993895    0.338264
      5         11           0        0.499642   -2.723952    1.206859
      6         11           0        3.475008   -1.959289   -0.486321
      7         11           0       -4.011739    0.149692   -0.795388
 ---------------------------------------------------------------------

 SCF Done:  E(UB3LYP) =  -1136.10636103     A.U. after   25 cycles

 The electronic state is 2-A.
 Alpha  occ. eigenvalues --  -38.45325 -38.45082 -38.44794 -38.44446 -38.44291
 Alpha  occ. eigenvalues --  -38.44157 -38.43970  -2.21074  -2.20858  -2.20581
 Alpha  occ. eigenvalues --   -2.20219  -2.20056  -2.19956  -2.19779  -1.14761
 Alpha  occ. eigenvalues --   -1.14740  -1.14720  -1.14535  -1.14529  -1.14503
 Alpha  occ. eigenvalues --   -1.14249  -1.14246  -1.14219  -1.13890  -1.13881
 Alpha  occ. eigenvalues --   -1.13858  -1.13720  -1.13708  -1.13666  -1.13613
 Alpha  occ. eigenvalues --   -1.13606  -1.13599  -1.13431  -1.13424  -1.13411
 Alpha  occ. eigenvalues --   -0.15548  -0.13933  -0.13282  -0.10566
 Alpha virt. eigenvalues --   -0.07962  -0.04765  -0.04695  -0.03535  -0.03516
 Alpha virt. eigenvalues --   -0.02295  -0.02152  -0.01884  -0.01317  -0.00961
 Alpha virt. eigenvalues --   -0.00772  -0.00024   0.00121   0.00224   0.00688

  Beta  occ. eigenvalues --  -38.45327 -38.45075 -38.44760 -38.44433 -38.44218
  Beta  occ. eigenvalues --  -38.44123 -38.43908  -2.21083  -2.20849  -2.20523
  Beta  occ. eigenvalues --   -2.20200  -2.19921  -2.19893  -2.19664  -1.14772
  Beta  occ. eigenvalues --   -1.14751  -1.14687  -1.14532  -1.14527  -1.14466
  Beta  occ. eigenvalues --   -1.14212  -1.14207  -1.14165  -1.13881  -1.13871
  Beta  occ. eigenvalues --   -1.13821  -1.13629  -1.13618  -1.13574  -1.13570
  Beta  occ. eigenvalues --   -1.13563  -1.13554  -1.13353  -1.13347  -1.13336
  Beta  occ. eigenvalues --   -0.15048  -0.13256  -0.12529
  Beta virt. eigenvalues --   -0.08137  -0.07434  -0.04313  -0.04289  -0.03293
  Beta virt. eigenvalues --   -0.03203  -0.02047  -0.01941  -0.01725  -0.01147
  Beta virt. eigenvalues --   -0.00698  -0.00495   0.00042   0.00213   0.00352

 Mulliken charges and spin densities:
               1          2
     1  Na  -0.138500   0.369591
     2  Na   0.211591  -0.064776
     3  Na   0.252415   0.148263
     4  Na   0.207524   0.049176
     5  Na  -0.523645   0.032234
     6  Na   0.097765   0.288953
     7  Na  -0.107150   0.176560
 Sum of Mulliken charges =  -0.00000   1.00000

 Dipole moment (field-independent basis, Debye):
    X=              0.0147    Y=             -0.3142    Z=             -0.0926  Tot=              0.3279
 Quadrupole moment (field-independent basis, Debye-Ang):
   XX=            -61.5163   YY=            -69.5474   ZZ=            -70.0968
   XY=              3.3945   XZ=              0.3544   YZ=              1.5302

 Normal termination of Gaussian 16 at Sun Dec  3 18:35:19 2023.
