 Gaussian 16, Revision B.01,
 Gaussian 16:  ES64L-G16RevB.01 20-Dec-2017

 -------------------------
 #P B3LYP/6-311+g(d) force
 -------------------------

 -----
 DPGEN
 -----
 Symbolic Z-matrix:
 Charge =  0 Multiplicity = 2

                         Standard orientation:
 ---------------------------------------------------------------------
 Center     Atomic      Atomic             Coordinates (Angstroms)
 Number     Number       Type             X           Y           Z
 ---------------------------------------------------------------------
      1         11           0       -0.279419    2.025338   -0.030531
      2         11           0        4.788291   -0.484574   -0.241466
      3         11           0        3.214739    2.955521   -0.006978
      4         11           0       -3.555174   -1.226687   -0.683425
      5         11           0        2.682986   -2.771275   -0.106941
      6         11           0       -6.222131    0.689170    0.053593
      7         11           0       -0.629292   -1.187493    1.015748
 ---------------------------------------------------------------------

 SCF Done:  E(UB3LYP) =  -1136.10789016     A.U. after   24 cycles

 The electronic state is 2-A.
 Alpha  occ. eigenvalues --  -38.45692 -38.45099 -38.44957 -38.44209 -38.44059
 Alpha  occ. eigenvalues --  -38.43907 -38.43217  -2.21484  -2.20927  -2.20738
 Alpha  occ. eigenvalues --   -2.20010  -2.19827  -2.19674  -2.19018  -1.15119
 Alpha  occ. eigenvalues --   -1.15116  -1.15103  -1.14591  -1.14581  -1.14545
 Alpha  occ. eigenvalues --   -1.14422  -1.14406  -1.14387  -1.13683  -1.13673
 Alpha  occ. eigenvalues --   -1.13646  -1.13496  -1.13480  -1.13451  -1.13373
 Alpha  occ. eigenvalues --   -1.13359  -1.13284  -1.12685  -1.12679  -1.12669
 Alpha  occ. eigenvalues --   -0.16165  -0.14211  -0.12161  -0.11422
 Alpha virt. eigenvalues --   -0.06693  -0.05582  -0.04883  -0.03472  -0.03110
 Alpha virt. eigenvalues --   -0.02732  -0.01987  -0.01526  -0.01174  -0.00886
 Alpha virt. eigenvalues --   -0.00549  -0.00247  -0.00128   0.00201   0.00615

  Beta  occ. eigenvalues --  -38.45591 -38.45028 -38.44970 -38.44183 -38.44020
  Beta  occ. eigenvalues --  -38.43918 -38.43215  -2.21295  -2.20797  -2.20769
  Beta  occ. eigenvalues --   -2.19962  -2.19754  -2.19695  -2.19015  -1.14991
  Beta  occ. eigenvalues --   -1.14988  -1.14977  -1.14510  -1.14495  -1.14462
  Beta  occ. eigenvalues --   -1.14445  -1.14424  -1.14360  -1.13653  -1.13642
  Beta  occ. eigenvalues --   -1.13605  -1.13447  -1.13427  -1.13407  -1.13383
  Beta  occ. eigenvalues --   -1.13374  -1.13293  -1.12684  -1.12678  -1.12656
  Beta  occ. eigenvalues --   -0.15496  -0.13381  -0.11392
  Beta virt. eigenvalues --   -0.08806  -0.06168  -0.05036  -0.04566  -0.03231
  Beta virt. eigenvalues --   -0.02804  -0.02450  -0.01717  -0.01161  -0.00942
  Beta virt. eigenvalues --   -0.00652  -0.00395  -0.00138   0.00064   0.00291

 Mulliken charges and spin densities:
               1          2
     1  Na  -0.260230  -0.224700
     2  Na  -0.297085   0.116959
     3  Na   0.449932   0.330052
     4  Na  -0.018273   0.052300
     5  Na   0.398172   0.010792
     6  Na   0.263253   0.361555
     7  Na  -0.535768   0.353042
 Sum of Mulliken charges =  -0.00000   1.00000

 Dipole moment (field-independent basis, Debye):
    X=             -2.1877    Y=              0.4019    Z=              0.1139  Tot=              2.2272
 Quadrupole moment (field-independent basis, Debye-Ang):
   XX=            -53.5816   YY=            -71.3474   ZZ=            -71.7439
   XY=              1.3834   XZ=             -1.2620   YZ=              0.5998

 Normal termination of Gaussian 16 at Mon Dec  4 01:28:13 2023.
