 Gaussian 16, Revision B.01,
 Gaussian 16:  ES64L-G16RevB.01 20-Dec-2017

 -------------------------
 #P B3LYP/6-311+g(d) force
 -------------------------

 -----
 DPGEN
 -----
 Symbolic Z-matrix:
 Charge =  0 Multiplicity = 2

                         Standard orientation:
 ---------------------------------------------------------------------
 Center     Atomic      Atomic             Coordinates (Angstroms)
 Number     Number       Type             X           Y           Z
 ---------------------------------------------------------------------
      1         11           0        0.128720   -0.457892    1.836409
      2         11           0       -0.232570   -2.816623   -0.087445
      3         11           0        2.701616    1.382259   -1.453384
      4         11           0       -3.589742   -0.850035   -1.249134
      5         11           0       -2.664528    1.475369    0.513751
      6         11           0        3.021563   -1.782906    0.115374
      7         11           0        0.634941    3.049827    0.324429
 ---------------------------------------------------------------------

 SCF Done:  E(UB3LYP) =  -1136.12294215     A.U. after   20 cycles

 The electronic state is 2-A.
 Alpha  occ. eigenvalues --  -38.44570 -38.44475 -38.44199 -38.44081 -38.43886
 Alpha  occ. eigenvalues --  -38.43795 -38.43666  -2.20380  -2.20305  -2.20085
 Alpha  occ. eigenvalues --   -2.19916  -2.19717  -2.19617  -2.19478  -1.14067
 Alpha  occ. eigenvalues --   -1.14066  -1.14042  -1.14017  -1.13966  -1.13897
 Alpha  occ. eigenvalues --   -1.13751  -1.13726  -1.13678  -1.13648  -1.13583
 Alpha  occ. eigenvalues --   -1.13566  -1.13354  -1.13348  -1.13325  -1.13306
 Alpha  occ. eigenvalues --   -1.13272  -1.13253  -1.13148  -1.13132  -1.13108
 Alpha  occ. eigenvalues --   -0.17363  -0.13630  -0.12738  -0.10697
 Alpha virt. eigenvalues --   -0.06426  -0.05426  -0.04523  -0.03834  -0.03328
 Alpha virt. eigenvalues --   -0.02026  -0.01739  -0.01019  -0.00876  -0.00720
 Alpha virt. eigenvalues --   -0.00129   0.00238   0.00350   0.00570   0.00634

  Beta  occ. eigenvalues --  -38.44561 -38.44471 -38.44129 -38.44075 -38.43821
  Beta  occ. eigenvalues --  -38.43750 -38.43665  -2.20367  -2.20300  -2.19956
  Beta  occ. eigenvalues --   -2.19912  -2.19595  -2.19533  -2.19479  -1.14059
  Beta  occ. eigenvalues --   -1.14049  -1.14030  -1.13990  -1.13959  -1.13893
  Beta  occ. eigenvalues --   -1.13674  -1.13642  -1.13621  -1.13590  -1.13577
  Beta  occ. eigenvalues --   -1.13537  -1.13272  -1.13270  -1.13264  -1.13246
  Beta  occ. eigenvalues --   -1.13215  -1.13196  -1.13149  -1.13126  -1.13084
  Beta  occ. eigenvalues --   -0.16799  -0.13017  -0.12514
  Beta virt. eigenvalues --   -0.07315  -0.06314  -0.05143  -0.04049  -0.03492
  Beta virt. eigenvalues --   -0.02707  -0.01692  -0.01491  -0.00906  -0.00816
  Beta virt. eigenvalues --   -0.00561   0.00108   0.00445   0.00464   0.00696

 Mulliken charges and spin densities:
               1          2
     1  Na   0.702671  -0.128020
     2  Na  -0.364570   0.245130
     3  Na  -0.191088   0.253995
     4  Na   0.168695   0.253649
     5  Na  -0.184702   0.173708
     6  Na   0.005972   0.123617
     7  Na  -0.136978   0.077920
 Sum of Mulliken charges =  -0.00000   1.00000

 Dipole moment (field-independent basis, Debye):
    X=              0.4365    Y=             -0.7232    Z=              0.1162  Tot=              0.8527
 Quadrupole moment (field-independent basis, Debye-Ang):
   XX=            -66.5490   YY=            -63.7993   ZZ=            -70.0467
   XY=             -3.5750   XZ=              0.7834   YZ=              2.4700

 Normal termination of Gaussian 16 at Sun Dec  3 23:40:32 2023.
