 Gaussian 16, Revision B.01,
 Gaussian 16:  ES64L-G16RevB.01 20-Dec-2017

 -------------------------
 #P B3LYP/6-311+g(d) force
 -------------------------

 -----
 DPGEN
 -----
 Symbolic Z-matrix:
 Charge =  0 Multiplicity = 2

                         Standard orientation:
 ---------------------------------------------------------------------
 Center     Atomic      Atomic             Coordinates (Angstroms)
 Number     Number       Type             X           Y           Z
 ---------------------------------------------------------------------
      1         11           0        3.506375    0.790367    0.089076
      2         11           0        0.931088    3.077167   -0.415111
      3         11           0       -2.266188    2.038020    0.469183
      4         11           0        4.883470   -1.516080    0.221355
      5         11           0       -4.856059   -0.161023   -0.050119
      6         11           0       -2.815284   -2.392609   -0.002014
      7         11           0        0.616597   -1.835843   -0.312370
 ---------------------------------------------------------------------

 SCF Done:  E(UB3LYP) =  -1136.11110279     A.U. after   22 cycles

 The electronic state is 2-A.
 Alpha  occ. eigenvalues --  -38.45214 -38.44716 -38.44560 -38.44537 -38.44400
 Alpha  occ. eigenvalues --  -38.44294 -38.43063  -2.20996  -2.20486  -2.20484
 Alpha  occ. eigenvalues --   -2.20399  -2.20234  -2.20153  -2.18861  -1.14672
 Alpha  occ. eigenvalues --   -1.14648  -1.14592  -1.14517  -1.14183  -1.14165
 Alpha  occ. eigenvalues --   -1.14122  -1.14111  -1.14103  -1.14004  -1.13996
 Alpha  occ. eigenvalues --   -1.13985  -1.13900  -1.13890  -1.13866  -1.13786
 Alpha  occ. eigenvalues --   -1.13781  -1.13736  -1.12528  -1.12520  -1.12505
 Alpha  occ. eigenvalues --   -0.16547  -0.14848  -0.12322  -0.11350
 Alpha virt. eigenvalues --   -0.06882  -0.05218  -0.04289  -0.03784  -0.03111
 Alpha virt. eigenvalues --   -0.02891  -0.02012  -0.01362  -0.01154  -0.00668
 Alpha virt. eigenvalues --   -0.00471   0.00093   0.00243   0.00491   0.00815

  Beta  occ. eigenvalues --  -38.45126 -38.44711 -38.44542 -38.44493 -38.44387
  Beta  occ. eigenvalues --  -38.44246 -38.43055  -2.20836  -2.20480  -2.20450
  Beta  occ. eigenvalues --   -2.20326  -2.20216  -2.20063  -2.18845  -1.14566
  Beta  occ. eigenvalues --   -1.14541  -1.14467  -1.14461  -1.14182  -1.14161
  Beta  occ. eigenvalues --   -1.14103  -1.14089  -1.14078  -1.13956  -1.13955
  Beta  occ. eigenvalues --   -1.13932  -1.13894  -1.13864  -1.13819  -1.13725
  Beta  occ. eigenvalues --   -1.13715  -1.13687  -1.12517  -1.12510  -1.12496
  Beta  occ. eigenvalues --   -0.15903  -0.14357  -0.11899
  Beta virt. eigenvalues --   -0.07732  -0.06782  -0.04691  -0.04100  -0.03515
  Beta virt. eigenvalues --   -0.02785  -0.02369  -0.01907  -0.01251  -0.00919
  Beta virt. eigenvalues --   -0.00413   0.00040   0.00259   0.00374   0.00536

 Mulliken charges and spin densities:
               1          2
     1  Na  -1.053698   0.279925
     2  Na  -0.406582   0.011406
     3  Na  -0.610815   0.101184
     4  Na   2.142995   0.103738
     5  Na   0.404647   0.210466
     6  Na  -0.310514  -0.142042
     7  Na  -0.166034   0.435323
 Sum of Mulliken charges =  -0.00000   1.00000

 Dipole moment (field-independent basis, Debye):
    X=             -0.1879    Y=             -0.9363    Z=              0.0033  Tot=              0.9549
 Quadrupole moment (field-independent basis, Debye-Ang):
   XX=            -56.8223   YY=            -68.3211   ZZ=            -72.9939
   XY=             -0.9443   XZ=             -0.1408   YZ=             -0.2925

 Normal termination of Gaussian 16 at Sun Dec  3 13:35:15 2023.
