 Gaussian 16, Revision B.01,
 Gaussian 16:  ES64L-G16RevB.01 20-Dec-2017

 -------------------------
 #P B3LYP/6-311+g(d) force
 -------------------------

 -----
 DPGEN
 -----
 Symbolic Z-matrix:
 Charge =  0 Multiplicity = 2

                         Standard orientation:
 ---------------------------------------------------------------------
 Center     Atomic      Atomic             Coordinates (Angstroms)
 Number     Number       Type             X           Y           Z
 ---------------------------------------------------------------------
      1         11           0        0.077537   -2.821024   -0.156410
      2         11           0        0.951095    2.918619    0.394022
      3         11           0        0.664264    0.168528   -1.629513
      4         11           0       -3.046683   -1.494917   -0.074925
      5         11           0       -2.197979    2.154562   -0.534037
      6         11           0        3.436406   -0.716990   -0.274941
      7         11           0        0.115360   -0.208778    2.275804
 ---------------------------------------------------------------------

 SCF Done:  E(UB3LYP) =  -1136.13298003     A.U. after   20 cycles

 The electronic state is 2-A.
 Alpha  occ. eigenvalues --  -38.44246 -38.44081 -38.43841 -38.43838 -38.43741
 Alpha  occ. eigenvalues --  -38.43737 -38.43484  -2.20039  -2.19912  -2.19665
 Alpha  occ. eigenvalues --   -2.19622  -2.19577  -2.19550  -2.19406  -1.13730
 Alpha  occ. eigenvalues --   -1.13687  -1.13677  -1.13564  -1.13544  -1.13530
 Alpha  occ. eigenvalues --   -1.13346  -1.13330  -1.13311  -1.13308  -1.13290
 Alpha  occ. eigenvalues --   -1.13279  -1.13268  -1.13250  -1.13228  -1.13204
 Alpha  occ. eigenvalues --   -1.13175  -1.13173  -1.13081  -1.13054  -1.13022
 Alpha  occ. eigenvalues --   -0.17949  -0.12656  -0.12490  -0.10842
 Alpha virt. eigenvalues --   -0.05826  -0.05264  -0.04884  -0.03182  -0.02968
 Alpha virt. eigenvalues --   -0.02770  -0.01718  -0.01191  -0.00616  -0.00401
 Alpha virt. eigenvalues --   -0.00078   0.00304   0.00743   0.00805   0.00845

  Beta  occ. eigenvalues --  -38.44243 -38.43972 -38.43839 -38.43833 -38.43732
  Beta  occ. eigenvalues --  -38.43731 -38.43436  -2.20034  -2.19711  -2.19653
  Beta  occ. eigenvalues --   -2.19625  -2.19571  -2.19534  -2.19319  -1.13718
  Beta  occ. eigenvalues --   -1.13677  -1.13676  -1.13431  -1.13405  -1.13387
  Beta  occ. eigenvalues --   -1.13339  -1.13312  -1.13309  -1.13294  -1.13286
  Beta  occ. eigenvalues --   -1.13275  -1.13261  -1.13226  -1.13206  -1.13194
  Beta  occ. eigenvalues --   -1.13174  -1.13165  -1.13021  -1.12993  -1.12956
  Beta  occ. eigenvalues --   -0.17254  -0.12466  -0.12296
  Beta virt. eigenvalues --   -0.06928  -0.05761  -0.05171  -0.04787  -0.02429
  Beta virt. eigenvalues --   -0.02318  -0.01765  -0.01615  -0.01112  -0.00621
  Beta virt. eigenvalues --   -0.00420   0.00090   0.00359   0.00804   0.00821

 Mulliken charges and spin densities:
               1          2
     1  Na   0.078798  -0.018197
     2  Na   0.022514   0.040947
     3  Na   0.123892   0.359286
     4  Na  -0.111014  -0.026621
     5  Na   0.030806   0.012897
     6  Na   0.202311  -0.051234
     7  Na  -0.347307   0.682922
 Sum of Mulliken charges =  -0.00000   1.00000

 Dipole moment (field-independent basis, Debye):
    X=              0.3683    Y=              0.0297    Z=              0.1643  Tot=              0.4043
 Quadrupole moment (field-independent basis, Debye-Ang):
   XX=            -57.1462   YY=            -63.3797   ZZ=            -74.1164
   XY=             -0.0513   XZ=              1.4286   YZ=              0.5852

 Normal termination of Gaussian 16 at Wed Nov 29 15:37:52 2023.
