 Gaussian 16, Revision B.01,
 Gaussian 16:  ES64L-G16RevB.01 20-Dec-2017

 -------------------------
 #P B3LYP/6-311+g(d) force
 -------------------------

 -----
 DPGEN
 -----
 Symbolic Z-matrix:
 Charge =  0 Multiplicity = 2

                         Standard orientation:
 ---------------------------------------------------------------------
 Center     Atomic      Atomic             Coordinates (Angstroms)
 Number     Number       Type             X           Y           Z
 ---------------------------------------------------------------------
      1         11           0        0.026829   -0.332429   -1.560456
      2         11           0       -2.867721    1.064670   -0.245129
      3         11           0       -2.737842   -2.226201   -0.136368
      4         11           0       -0.234673   -0.502462    1.874576
      5         11           0        3.018228   -2.087397    0.078536
      6         11           0        0.041210    2.984886    0.295214
      7         11           0        2.753969    1.098933   -0.306374
 ---------------------------------------------------------------------

 SCF Done:  E(UB3LYP) =  -1136.13141828     A.U. after   20 cycles

 The electronic state is 2-A.
 Alpha  occ. eigenvalues --  -38.44448 -38.44264 -38.44112 -38.44018 -38.43759
 Alpha  occ. eigenvalues --  -38.43460 -38.42676  -2.20303  -2.20060  -2.19932
 Alpha  occ. eigenvalues --   -2.19899  -2.19671  -2.19332  -2.18516  -1.13986
 Alpha  occ. eigenvalues --   -1.13969  -1.13942  -1.13758  -1.13718  -1.13704
 Alpha  occ. eigenvalues --   -1.13599  -1.13595  -1.13587  -1.13576  -1.13556
 Alpha  occ. eigenvalues --   -1.13514  -1.13379  -1.13303  -1.13285  -1.13016
 Alpha  occ. eigenvalues --   -1.12951  -1.12943  -1.12190  -1.12171  -1.12169
 Alpha  occ. eigenvalues --   -0.18345  -0.13747  -0.11890  -0.10268
 Alpha virt. eigenvalues --   -0.06209  -0.05892  -0.04319  -0.03408  -0.02488
 Alpha virt. eigenvalues --   -0.02195  -0.02055  -0.01447  -0.00850  -0.00246
 Alpha virt. eigenvalues --   -0.00009   0.00281   0.00636   0.00714   0.00842

  Beta  occ. eigenvalues --  -38.44437 -38.44267 -38.44109 -38.44010 -38.43705
  Beta  occ. eigenvalues --  -38.43367 -38.42672  -2.20288  -2.20068  -2.19930
  Beta  occ. eigenvalues --   -2.19887  -2.19573  -2.19159  -2.18512  -1.13972
  Beta  occ. eigenvalues --   -1.13947  -1.13925  -1.13766  -1.13714  -1.13704
  Beta  occ. eigenvalues --   -1.13600  -1.13582  -1.13577  -1.13562  -1.13530
  Beta  occ. eigenvalues --   -1.13513  -1.13304  -1.13234  -1.13212  -1.12899
  Beta  occ. eigenvalues --   -1.12825  -1.12823  -1.12190  -1.12170  -1.12147
  Beta  occ. eigenvalues --   -0.17640  -0.13526  -0.11712
  Beta virt. eigenvalues --   -0.06414  -0.06139  -0.05823  -0.04295  -0.02661
  Beta virt. eigenvalues --   -0.01961  -0.01784  -0.01471  -0.01099  -0.00913
  Beta virt. eigenvalues --   -0.00229   0.00151   0.00324   0.00714   0.00722

 Mulliken charges and spin densities:
               1          2
     1  Na  -0.071370   0.226736
     2  Na   0.227226   0.107258
     3  Na   0.126629   0.006528
     4  Na  -0.364335   0.627599
     5  Na   0.057396  -0.027970
     6  Na  -0.235355  -0.025259
     7  Na   0.259809   0.085109
 Sum of Mulliken charges =  -0.00000   1.00000

 Dipole moment (field-independent basis, Debye):
    X=             -0.1889    Y=             -0.5941    Z=             -0.0239  Tot=              0.6239
 Quadrupole moment (field-independent basis, Debye-Ang):
   XX=            -52.9726   YY=            -62.8957   ZZ=            -76.9488
   XY=             -0.4448   XZ=              0.5509   YZ=              0.2886

 Normal termination of Gaussian 16 at Tue Dec  5 17:35:49 2023.
