 Gaussian 16, Revision B.01,
 Gaussian 16:  ES64L-G16RevB.01 20-Dec-2017

 -------------------------
 #P B3LYP/6-311+g(d) force
 -------------------------

 -----
 DPGEN
 -----
 Symbolic Z-matrix:
 Charge =  0 Multiplicity = 2

                         Standard orientation:
 ---------------------------------------------------------------------
 Center     Atomic      Atomic             Coordinates (Angstroms)
 Number     Number       Type             X           Y           Z
 ---------------------------------------------------------------------
      1         11           0        0.170976   -1.814919   -0.774554
      2         11           0       -1.466615    2.130189    0.188585
      3         11           0       -2.416357   -0.876654    1.491220
      4         11           0       -2.752706   -0.410450   -1.671847
      5         11           0        3.725445   -0.779801   -0.016970
      6         11           0        1.911516    1.514633   -1.084303
      7         11           0        0.827741    0.237002    1.867870
 ---------------------------------------------------------------------

 SCF Done:  E(UB3LYP) =  -1136.12679249     A.U. after   24 cycles

 The electronic state is 2-A.
 Alpha  occ. eigenvalues --  -38.44825 -38.44410 -38.44110 -38.43944 -38.43576
 Alpha  occ. eigenvalues --  -38.43272 -38.42423  -2.20656  -2.20311  -2.19994
 Alpha  occ. eigenvalues --   -2.19828  -2.19513  -2.19133  -2.18307  -1.14357
 Alpha  occ. eigenvalues --   -1.14313  -1.14282  -1.13993  -1.13979  -1.13926
 Alpha  occ. eigenvalues --   -1.13670  -1.13653  -1.13603  -1.13491  -1.13478
 Alpha  occ. eigenvalues --   -1.13447  -1.13222  -1.13146  -1.13121  -1.12840
 Alpha  occ. eigenvalues --   -1.12832  -1.12721  -1.11987  -1.11972  -1.11946
 Alpha  occ. eigenvalues --   -0.18773  -0.14331  -0.11471  -0.10898
 Alpha virt. eigenvalues --   -0.06613  -0.05291  -0.04525  -0.03132  -0.02637
 Alpha virt. eigenvalues --   -0.02465  -0.02298  -0.00939  -0.00578  -0.00114
 Alpha virt. eigenvalues --    0.00197   0.00269   0.00381   0.00705   0.00779

  Beta  occ. eigenvalues --  -38.44827 -38.44371 -38.44080 -38.43902 -38.43517
  Beta  occ. eigenvalues --  -38.43259 -38.42410  -2.20663  -2.20244  -2.19936
  Beta  occ. eigenvalues --   -2.19750  -2.19408  -2.19113  -2.18287  -1.14354
  Beta  occ. eigenvalues --   -1.14316  -1.14286  -1.13941  -1.13920  -1.13876
  Beta  occ. eigenvalues --   -1.13632  -1.13611  -1.13565  -1.13433  -1.13430
  Beta  occ. eigenvalues --   -1.13388  -1.13154  -1.13053  -1.13046  -1.12829
  Beta  occ. eigenvalues --   -1.12782  -1.12713  -1.11976  -1.11939  -1.11926
  Beta  occ. eigenvalues --   -0.18044  -0.14125  -0.10704
  Beta virt. eigenvalues --   -0.07553  -0.06461  -0.04687  -0.04339  -0.02890
  Beta virt. eigenvalues --   -0.02307  -0.01958  -0.01676  -0.00626  -0.00378
  Beta virt. eigenvalues --    0.00015   0.00258   0.00354   0.00433   0.00783

 Mulliken charges and spin densities:
               1          2
     1  Na  -0.596662   0.190516
     2  Na  -0.180377   0.360036
     3  Na   0.328799   0.043458
     4  Na   0.228476   0.149090
     5  Na   0.689433  -0.054815
     6  Na  -0.215113   0.071628
     7  Na  -0.254556   0.240086
 Sum of Mulliken charges =  -0.00000   1.00000

 Dipole moment (field-independent basis, Debye):
    X=              0.7740    Y=             -0.1479    Z=              0.1138  Tot=              0.7962
 Quadrupole moment (field-independent basis, Debye-Ang):
   XX=            -48.8145   YY=            -78.1583   ZZ=            -67.3414
   XY=             -1.1620   XZ=             -0.5448   YZ=             -5.3356

 Normal termination of Gaussian 16 at Wed Dec  6 01:07:00 2023.
