 Gaussian 16, Revision B.01,
 Gaussian 16:  ES64L-G16RevB.01 20-Dec-2017

 -------------------------
 #P B3LYP/6-311+g(d) force
 -------------------------

 -----
 DPGEN
 -----
 Symbolic Z-matrix:
 Charge =  0 Multiplicity = 2

                         Standard orientation:
 ---------------------------------------------------------------------
 Center     Atomic      Atomic             Coordinates (Angstroms)
 Number     Number       Type             X           Y           Z
 ---------------------------------------------------------------------
      1         11           0       -0.423643    3.023414   -0.130561
      2         11           0       -2.849330    0.495875   -0.079458
      3         11           0        0.051212   -0.014487   -1.797100
      4         11           0        2.124328   -2.080952   -0.303782
      5         11           0       -1.396478   -2.464803    0.059909
      6         11           0        2.715883    1.328911    0.353650
      7         11           0       -0.221972   -0.287958    1.897342
 ---------------------------------------------------------------------

 SCF Done:  E(UB3LYP) =  -1136.14024647     A.U. after   18 cycles

 The electronic state is 2-A.
 Alpha  occ. eigenvalues --  -38.43714 -38.43528 -38.43512 -38.43494 -38.43479
 Alpha  occ. eigenvalues --  -38.43390 -38.43281  -2.19537  -2.19446  -2.19372
 Alpha  occ. eigenvalues --   -2.19370  -2.19355  -2.19312  -2.19250  -1.13213
 Alpha  occ. eigenvalues --   -1.13204  -1.13198  -1.13181  -1.13105  -1.13085
 Alpha  occ. eigenvalues --   -1.13073  -1.13063  -1.13046  -1.13030  -1.13025
 Alpha  occ. eigenvalues --   -1.13012  -1.13008  -1.13004  -1.12981  -1.12969
 Alpha  occ. eigenvalues --   -1.12949  -1.12911  -1.12908  -1.12865  -1.12858
 Alpha  occ. eigenvalues --   -0.18960  -0.12901  -0.12709  -0.10908
 Alpha virt. eigenvalues --   -0.05227  -0.05051  -0.04924  -0.03181  -0.03021
 Alpha virt. eigenvalues --   -0.02594  -0.01218  -0.01156  -0.00296  -0.00177
 Alpha virt. eigenvalues --    0.00004   0.00373   0.00892   0.00910   0.00923

  Beta  occ. eigenvalues --  -38.43707 -38.43526 -38.43504 -38.43473 -38.43410
  Beta  occ. eigenvalues --  -38.43381 -38.43203  -2.19528  -2.19363  -2.19361
  Beta  occ. eigenvalues --   -2.19355  -2.19304  -2.19289  -2.19108  -1.13201
  Beta  occ. eigenvalues --   -1.13184  -1.13178  -1.13136  -1.13070  -1.13052
  Beta  occ. eigenvalues --   -1.13043  -1.13024  -1.13013  -1.13002  -1.13001
  Beta  occ. eigenvalues --   -1.12998  -1.12979  -1.12975  -1.12945  -1.12934
  Beta  occ. eigenvalues --   -1.12907  -1.12884  -1.12824  -1.12768  -1.12757
  Beta  occ. eigenvalues --   -0.18212  -0.12644  -0.12453
  Beta virt. eigenvalues --   -0.06985  -0.05217  -0.05055  -0.04847  -0.02371
  Beta virt. eigenvalues --   -0.02240  -0.01542  -0.01138  -0.01078  -0.00332
  Beta virt. eigenvalues --   -0.00237   0.00126   0.00392   0.00901   0.00911

 Mulliken charges and spin densities:
               1          2
     1  Na  -0.043278  -0.105666
     2  Na   0.156871  -0.095465
     3  Na  -0.263787   0.641930
     4  Na   0.149028  -0.061361
     5  Na   0.470624  -0.036267
     6  Na  -0.059524  -0.050787
     7  Na  -0.409935   0.707616
 Sum of Mulliken charges =  -0.00000   1.00000

 Dipole moment (field-independent basis, Debye):
    X=              0.0979    Y=              0.0594    Z=              0.0478  Tot=              0.1241
 Quadrupole moment (field-independent basis, Debye-Ang):
   XX=            -59.8493   YY=            -60.6310   ZZ=            -73.4668
   XY=             -0.1778   XZ=              0.7076   YZ=              0.6956

 Normal termination of Gaussian 16 at Thu Dec  7 23:14:53 2023.
