 Gaussian 16, Revision B.01,
 Gaussian 16:  ES64L-G16RevB.01 20-Dec-2017

 -------------------------
 #P B3LYP/6-311+g(d) force
 -------------------------

 -----
 DPGEN
 -----
 Symbolic Z-matrix:
 Charge =  0 Multiplicity = 2

                         Standard orientation:
 ---------------------------------------------------------------------
 Center     Atomic      Atomic             Coordinates (Angstroms)
 Number     Number       Type             X           Y           Z
 ---------------------------------------------------------------------
      1         11           0        1.181292    2.037367    0.148264
      2         11           0       -1.566612    0.832082    1.481870
      3         11           0       -2.227040    1.432876   -1.666844
      4         11           0        3.595295   -0.670587   -1.246122
      5         11           0        2.337063   -0.413009    1.770200
      6         11           0       -3.518023   -1.641926    0.303047
      7         11           0        0.198026   -1.576804   -0.790414
 ---------------------------------------------------------------------

 SCF Done:  E(UB3LYP) =  -1136.12382827     A.U. after   24 cycles

 The electronic state is 2-A.
 Alpha  occ. eigenvalues --  -38.44499 -38.44408 -38.44382 -38.44313 -38.43843
 Alpha  occ. eigenvalues --  -38.43399 -38.42751  -2.20392  -2.20240  -2.20212
 Alpha  occ. eigenvalues --   -2.20127  -2.19647  -2.19315  -2.18640  -1.14074
 Alpha  occ. eigenvalues --   -1.14066  -1.14011  -1.13911  -1.13893  -1.13875
 Alpha  occ. eigenvalues --   -1.13858  -1.13845  -1.13840  -1.13836  -1.13819
 Alpha  occ. eigenvalues --   -1.13712  -1.13331  -1.13301  -1.13275  -1.13012
 Alpha  occ. eigenvalues --   -1.12983  -1.12930  -1.12339  -1.12303  -1.12270
 Alpha  occ. eigenvalues --   -0.18263  -0.14332  -0.11026  -0.10795
 Alpha virt. eigenvalues --   -0.06602  -0.05556  -0.05035  -0.03014  -0.02627
 Alpha virt. eigenvalues --   -0.02268  -0.02226  -0.01121  -0.01047  -0.00192
 Alpha virt. eigenvalues --    0.00121   0.00200   0.00320   0.00425   0.00551

  Beta  occ. eigenvalues --  -38.44461 -38.44358 -38.44345 -38.44306 -38.43826
  Beta  occ. eigenvalues --  -38.43379 -38.42749  -2.20322  -2.20167  -2.20122
  Beta  occ. eigenvalues --   -2.20116  -2.19617  -2.19281  -2.18641  -1.14032
  Beta  occ. eigenvalues --   -1.14016  -1.13955  -1.13836  -1.13829  -1.13828
  Beta  occ. eigenvalues --   -1.13826  -1.13815  -1.13806  -1.13799  -1.13757
  Beta  occ. eigenvalues --   -1.13705  -1.13305  -1.13276  -1.13258  -1.12993
  Beta  occ. eigenvalues --   -1.12933  -1.12905  -1.12339  -1.12280  -1.12269
  Beta  occ. eigenvalues --   -0.17657  -0.14058  -0.10772
  Beta virt. eigenvalues --   -0.07223  -0.06400  -0.04991  -0.04723  -0.02892
  Beta virt. eigenvalues --   -0.02439  -0.01763  -0.01599  -0.00972  -0.00556
  Beta virt. eigenvalues --   -0.00070   0.00190   0.00334   0.00434   0.00526

 Mulliken charges and spin densities:
               1          2
     1  Na  -0.185349   0.322375
     2  Na   0.061077   0.353089
     3  Na  -0.053254   0.091346
     4  Na   0.352559  -0.006744
     5  Na   0.402376  -0.080405
     6  Na   0.288588  -0.056196
     7  Na  -0.865997   0.376536
 Sum of Mulliken charges =  -0.00000   1.00000

 Dipole moment (field-independent basis, Debye):
    X=              0.4400    Y=              0.0295    Z=             -0.1531  Tot=              0.4668
 Quadrupole moment (field-independent basis, Debye-Ang):
   XX=            -50.9396   YY=            -76.7224   ZZ=            -67.6476
   XY=              0.2679   XZ=              0.8573   YZ=             -3.7406

 Normal termination of Gaussian 16 at Fri Dec  8 02:05:43 2023.
