 Gaussian 16, Revision B.01,
 Gaussian 16:  ES64L-G16RevB.01 20-Dec-2017

 -------------------------
 #P B3LYP/6-311+g(d) force
 -------------------------

 -----
 DPGEN
 -----
 Symbolic Z-matrix:
 Charge =  0 Multiplicity = 2

                         Standard orientation:
 ---------------------------------------------------------------------
 Center     Atomic      Atomic             Coordinates (Angstroms)
 Number     Number       Type             X           Y           Z
 ---------------------------------------------------------------------
      1         11           0       -2.671863    2.834598   -0.072053
      2         11           0       -1.673100   -2.841002    0.972343
      3         11           0        2.379103   -1.483803   -0.892701
      4         11           0        4.906241    0.301620   -0.060151
      5         11           0       -0.797787    0.154030   -0.587890
      6         11           0        1.886499    1.548768    1.008299
      7         11           0       -4.029093   -0.514212   -0.367847
 ---------------------------------------------------------------------

 SCF Done:  E(UB3LYP) =  -1136.11934995     A.U. after   23 cycles

 The electronic state is 2-A.
 Alpha  occ. eigenvalues --  -38.45124 -38.45022 -38.44063 -38.44025 -38.43489
 Alpha  occ. eigenvalues --  -38.43370 -38.42868  -2.20950  -2.20841  -2.19905
 Alpha  occ. eigenvalues --   -2.19888  -2.19265  -2.19160  -2.18839  -1.14646
 Alpha  occ. eigenvalues --   -1.14612  -1.14588  -1.14525  -1.14512  -1.14449
 Alpha  occ. eigenvalues --   -1.13586  -1.13564  -1.13542  -1.13521  -1.13503
 Alpha  occ. eigenvalues --   -1.13497  -1.12952  -1.12922  -1.12914  -1.12842
 Alpha  occ. eigenvalues --   -1.12833  -1.12801  -1.12548  -1.12518  -1.12438
 Alpha  occ. eigenvalues --   -0.17317  -0.14676  -0.11259  -0.10639
 Alpha virt. eigenvalues --   -0.07002  -0.05167  -0.04365  -0.03621  -0.03158
 Alpha virt. eigenvalues --   -0.02318  -0.01883  -0.01207  -0.01108  -0.00477
 Alpha virt. eigenvalues --   -0.00343  -0.00069   0.00388   0.00578   0.00614

  Beta  occ. eigenvalues --  -38.45105 -38.44992 -38.44009 -38.43946 -38.43500
  Beta  occ. eigenvalues --  -38.43379 -38.42827  -2.20923  -2.20790  -2.19802
  Beta  occ. eigenvalues --   -2.19741  -2.19287  -2.19178  -2.18770  -1.14626
  Beta  occ. eigenvalues --   -1.14591  -1.14533  -1.14488  -1.14459  -1.14406
  Beta  occ. eigenvalues --   -1.13518  -1.13497  -1.13438  -1.13427  -1.13421
  Beta  occ. eigenvalues --   -1.13412  -1.12968  -1.12938  -1.12915  -1.12856
  Beta  occ. eigenvalues --   -1.12846  -1.12797  -1.12505  -1.12429  -1.12393
  Beta  occ. eigenvalues --   -0.16558  -0.14119  -0.11153
  Beta virt. eigenvalues --   -0.07087  -0.06767  -0.04988  -0.03742  -0.03332
  Beta virt. eigenvalues --   -0.02876  -0.02086  -0.01560  -0.01028  -0.00615
  Beta virt. eigenvalues --   -0.00310  -0.00141   0.00084   0.00497   0.00635

 Mulliken charges and spin densities:
               1          2
     1  Na   0.465575   0.003320
     2  Na   0.100031  -0.000769
     3  Na   0.188761   0.110624
     4  Na   0.119435   0.409503
     5  Na  -1.589920   0.079250
     6  Na   0.169430   0.128849
     7  Na   0.546688   0.269222
 Sum of Mulliken charges =  -0.00000   1.00000

 Dipole moment (field-independent basis, Debye):
    X=              0.7608    Y=              0.0342    Z=              0.4251  Tot=              0.8721
 Quadrupole moment (field-independent basis, Debye-Ang):
   XX=            -64.1032   YY=            -68.3197   ZZ=            -66.9302
   XY=              0.6338   XZ=              0.2357   YZ=              2.4825

 Normal termination of Gaussian 16 at Tue Dec  5 19:58:01 2023.
