 Gaussian 16, Revision B.01,
 Gaussian 16:  ES64L-G16RevB.01 20-Dec-2017

 -------------------------
 #P B3LYP/6-311+g(d) force
 -------------------------

 -----
 DPGEN
 -----
 Symbolic Z-matrix:
 Charge =  0 Multiplicity = 2

                         Standard orientation:
 ---------------------------------------------------------------------
 Center     Atomic      Atomic             Coordinates (Angstroms)
 Number     Number       Type             X           Y           Z
 ---------------------------------------------------------------------
      1         11           0       -0.318045    0.017483   -1.457815
      2         11           0       -0.418428    3.068210   -0.124058
      3         11           0       -3.095569    0.601720   -0.212208
      4         11           0       -1.700859   -2.742273    0.190769
      5         11           0        0.058974    0.224557    2.006383
      6         11           0        2.180692   -2.091317   -0.324561
      7         11           0        3.293234    0.921619   -0.078509
 ---------------------------------------------------------------------

 SCF Done:  E(UB3LYP) =  -1136.13438577     A.U. after   20 cycles

 The electronic state is 2-A.
 Alpha  occ. eigenvalues --  -38.44394 -38.44361 -38.43742 -38.43564 -38.43515
 Alpha  occ. eigenvalues --  -38.43333 -38.43139  -2.20211  -2.20191  -2.19579
 Alpha  occ. eigenvalues --   -2.19368  -2.19340  -2.19209  -2.19125  -1.13929
 Alpha  occ. eigenvalues --   -1.13869  -1.13865  -1.13857  -1.13828  -1.13821
 Alpha  occ. eigenvalues --   -1.13262  -1.13239  -1.13210  -1.13040  -1.13034
 Alpha  occ. eigenvalues --   -1.13028  -1.13016  -1.13008  -1.12972  -1.12895
 Alpha  occ. eigenvalues --   -1.12830  -1.12818  -1.12807  -1.12770  -1.12736
 Alpha  occ. eigenvalues --   -0.18328  -0.13218  -0.12213  -0.10302
 Alpha virt. eigenvalues --   -0.05970  -0.05252  -0.04929  -0.03085  -0.02661
 Alpha virt. eigenvalues --   -0.02241  -0.01786  -0.01311  -0.00716  -0.00529
 Alpha virt. eigenvalues --   -0.00002   0.00322   0.00750   0.00797   0.00840

  Beta  occ. eigenvalues --  -38.44394 -38.44351 -38.43734 -38.43561 -38.43511
  Beta  occ. eigenvalues --  -38.43233 -38.43089  -2.20197  -2.20192  -2.19567
  Beta  occ. eigenvalues --   -2.19365  -2.19337  -2.19036  -2.19026  -1.13912
  Beta  occ. eigenvalues --   -1.13872  -1.13844  -1.13838  -1.13828  -1.13814
  Beta  occ. eigenvalues --   -1.13250  -1.13222  -1.13199  -1.13033  -1.13028
  Beta  occ. eigenvalues --   -1.13018  -1.13012  -1.12988  -1.12966  -1.12785
  Beta  occ. eigenvalues --   -1.12727  -1.12705  -1.12699  -1.12686  -1.12675
  Beta  occ. eigenvalues --   -0.17635  -0.12973  -0.12006
  Beta virt. eigenvalues --   -0.06438  -0.05914  -0.05239  -0.04872  -0.02351
  Beta virt. eigenvalues --   -0.01944  -0.01700  -0.01228  -0.01207  -0.00761
  Beta virt. eigenvalues --   -0.00559   0.00151   0.00369   0.00792   0.00805

 Mulliken charges and spin densities:
               1          2
     1  Na  -0.219750   0.334557
     2  Na   0.071920  -0.099371
     3  Na   0.390522   0.005694
     4  Na   0.017047  -0.013293
     5  Na  -0.436464   0.829011
     6  Na   0.104660   0.001935
     7  Na   0.072065  -0.058534
 Sum of Mulliken charges =  -0.00000   1.00000

 Dipole moment (field-independent basis, Debye):
    X=              0.0029    Y=              0.1876    Z=              0.1112  Tot=              0.2181
 Quadrupole moment (field-independent basis, Debye-Ang):
   XX=            -54.5535   YY=            -60.6347   ZZ=            -76.9376
   XY=              1.2262   XZ=             -0.7124   YZ=             -0.5230

 Normal termination of Gaussian 16 at Thu Dec  7 11:33:59 2023.
