 Gaussian 16, Revision B.01,
 Gaussian 16:  ES64L-G16RevB.01 20-Dec-2017

 -------------------------
 #P B3LYP/6-311+g(d) force
 -------------------------

 -----
 DPGEN
 -----
 Symbolic Z-matrix:
 Charge =  0 Multiplicity = 2

                         Standard orientation:
 ---------------------------------------------------------------------
 Center     Atomic      Atomic             Coordinates (Angstroms)
 Number     Number       Type             X           Y           Z
 ---------------------------------------------------------------------
      1         11           0        3.217015   -0.073639   -0.050268
      2         11           0        3.018754   -3.284201   -0.148180
      3         11           0       -4.116939   -1.251532   -0.183720
      4         11           0        3.215709    3.578343    0.207223
      5         11           0       -5.911379    1.263312    0.103453
      6         11           0        0.019753   -2.026713    0.450332
      7         11           0        0.557087    1.794429   -0.378839
 ---------------------------------------------------------------------

 SCF Done:  E(UB3LYP) =  -1136.11878418     A.U. after   21 cycles

 The electronic state is 2-A.
 Alpha  occ. eigenvalues --  -38.44854 -38.44690 -38.44367 -38.43880 -38.43760
 Alpha  occ. eigenvalues --  -38.43661 -38.43631  -2.20694  -2.20494  -2.20250
 Alpha  occ. eigenvalues --   -2.19708  -2.19612  -2.19471  -2.19411  -1.14396
 Alpha  occ. eigenvalues --   -1.14367  -1.14310  -1.14157  -1.14155  -1.14106
 Alpha  occ. eigenvalues --   -1.13953  -1.13941  -1.13844  -1.13390  -1.13375
 Alpha  occ. eigenvalues --   -1.13344  -1.13271  -1.13257  -1.13217  -1.13201
 Alpha  occ. eigenvalues --   -1.13115  -1.13112  -1.13081  -1.13063  -1.13004
 Alpha  occ. eigenvalues --   -0.16898  -0.13410  -0.12995  -0.10522
 Alpha virt. eigenvalues --   -0.06431  -0.05498  -0.04649  -0.03777  -0.02839
 Alpha virt. eigenvalues --   -0.02328  -0.01974  -0.01883  -0.01220  -0.00937
 Alpha virt. eigenvalues --   -0.00247  -0.00043   0.00311   0.00476   0.00580

  Beta  occ. eigenvalues --  -38.44824 -38.44683 -38.44337 -38.43832 -38.43728
  Beta  occ. eigenvalues --  -38.43642 -38.43610  -2.20639  -2.20482  -2.20197
  Beta  occ. eigenvalues --   -2.19620  -2.19553  -2.19436  -2.19374  -1.14361
  Beta  occ. eigenvalues --   -1.14331  -1.14262  -1.14147  -1.14142  -1.14094
  Beta  occ. eigenvalues --   -1.13915  -1.13890  -1.13802  -1.13332  -1.13311
  Beta  occ. eigenvalues --   -1.13286  -1.13221  -1.13215  -1.13173  -1.13170
  Beta  occ. eigenvalues --   -1.13109  -1.13078  -1.13042  -1.13040  -1.12968
  Beta  occ. eigenvalues --   -0.16324  -0.13145  -0.12544
  Beta virt. eigenvalues --   -0.07132  -0.06092  -0.05170  -0.04309  -0.03401
  Beta virt. eigenvalues --   -0.02484  -0.02190  -0.01830  -0.01785  -0.00946
  Beta virt. eigenvalues --   -0.00536   0.00030   0.00236   0.00387   0.00618

 Mulliken charges and spin densities:
               1          2
     1  Na  -1.266233   0.444486
     2  Na   1.487475   0.130607
     3  Na  -0.480781  -0.074968
     4  Na   1.534577   0.093003
     5  Na   0.214526   0.240909
     6  Na  -0.734469   0.108821
     7  Na  -0.755095   0.057142
 Sum of Mulliken charges =  -0.00000   1.00000

 Dipole moment (field-independent basis, Debye):
    X=              1.9351    Y=              1.2564    Z=              0.0565  Tot=              2.3079
 Quadrupole moment (field-independent basis, Debye-Ang):
   XX=            -72.3113   YY=            -52.7674   ZZ=            -73.4782
   XY=              1.4680   XZ=              0.3637   YZ=              1.2597

 Normal termination of Gaussian 16 at Tue Nov 28 18:58:36 2023.
