 Gaussian 16, Revision B.01,
 Gaussian 16:  ES64L-G16RevB.01 20-Dec-2017

 -------------------------
 #P B3LYP/6-311+g(d) force
 -------------------------

 -----
 DPGEN
 -----
 Symbolic Z-matrix:
 Charge =  0 Multiplicity = 2

                         Standard orientation:
 ---------------------------------------------------------------------
 Center     Atomic      Atomic             Coordinates (Angstroms)
 Number     Number       Type             X           Y           Z
 ---------------------------------------------------------------------
      1         11           0        0.207147   -0.563793    1.896158
      2         11           0        2.481797   -1.742540   -0.167143
      3         11           0       -1.729830   -2.348000   -0.110408
      4         11           0        0.183472    0.012726   -1.832097
      5         11           0       -2.827046    0.463888   -0.030175
      6         11           0       -0.709226    2.678541    0.161583
      7         11           0        2.393687    1.499179    0.082082
 ---------------------------------------------------------------------

 SCF Done:  E(UB3LYP) =  -1136.13522734     A.U. after   19 cycles

 The electronic state is 2-A.
 Alpha  occ. eigenvalues --  -38.43842 -38.43802 -38.43694 -38.43522 -38.43483
 Alpha  occ. eigenvalues --  -38.43410 -38.42925  -2.19728  -2.19721  -2.19605
 Alpha  occ. eigenvalues --   -2.19425  -2.19413  -2.19386  -2.18828  -1.13457
 Alpha  occ. eigenvalues --   -1.13428  -1.13412  -1.13395  -1.13369  -1.13367
 Alpha  occ. eigenvalues --   -1.13296  -1.13270  -1.13221  -1.13127  -1.13083
 Alpha  occ. eigenvalues --   -1.13071  -1.13051  -1.13049  -1.13040  -1.13013
 Alpha  occ. eigenvalues --   -1.13007  -1.12998  -1.12505  -1.12479  -1.12470
 Alpha  occ. eigenvalues --   -0.19254  -0.13520  -0.12429  -0.11034
 Alpha virt. eigenvalues --   -0.05463  -0.05304  -0.04324  -0.03500  -0.02931
 Alpha virt. eigenvalues --   -0.02611  -0.01371  -0.01004  -0.00148  -0.00022
 Alpha virt. eigenvalues --    0.00027   0.00377   0.00824   0.00915   0.00955

  Beta  occ. eigenvalues --  -38.43836 -38.43798 -38.43686 -38.43517 -38.43402
  Beta  occ. eigenvalues --  -38.43329 -38.42921  -2.19725  -2.19713  -2.19595
  Beta  occ. eigenvalues --   -2.19408  -2.19275  -2.19238  -2.18822  -1.13460
  Beta  occ. eigenvalues --   -1.13425  -1.13411  -1.13365  -1.13354  -1.13338
  Beta  occ. eigenvalues --   -1.13288  -1.13230  -1.13220  -1.13092  -1.13047
  Beta  occ. eigenvalues --   -1.13038  -1.12988  -1.12955  -1.12939  -1.12927
  Beta  occ. eigenvalues --   -1.12901  -1.12899  -1.12504  -1.12478  -1.12440
  Beta  occ. eigenvalues --   -0.18494  -0.13256  -0.12186
  Beta virt. eigenvalues --   -0.07088  -0.05443  -0.05273  -0.04302  -0.02629
  Beta virt. eigenvalues --   -0.02141  -0.01562  -0.01285  -0.00939  -0.00213
  Beta virt. eigenvalues --   -0.00012   0.00125   0.00399   0.00888   0.00921

 Mulliken charges and spin densities:
               1          2
     1  Na  -0.526985   0.594032
     2  Na   0.375082  -0.112487
     3  Na   0.376997  -0.086713
     4  Na  -0.457248   0.549906
     5  Na   0.020599   0.030049
     6  Na   0.009428  -0.017969
     7  Na   0.202127   0.043183
 Sum of Mulliken charges =  -0.00000   1.00000

 Dipole moment (field-independent basis, Debye):
    X=              0.2839    Y=             -0.3129    Z=              0.0259  Tot=              0.4233
 Quadrupole moment (field-independent basis, Debye-Ang):
   XX=            -57.9241   YY=            -64.4782   ZZ=            -72.7797
   XY=             -0.2044   XZ=             -0.0107   YZ=              1.2490

 Normal termination of Gaussian 16 at Fri Dec  8 07:43:53 2023.
