 Gaussian 16, Revision B.01,
 Gaussian 16:  ES64L-G16RevB.01 20-Dec-2017

 -------------------------
 #P B3LYP/6-311+g(d) force
 -------------------------

 -----
 DPGEN
 -----
 Symbolic Z-matrix:
 Charge =  0 Multiplicity = 2

                         Standard orientation:
 ---------------------------------------------------------------------
 Center     Atomic      Atomic             Coordinates (Angstroms)
 Number     Number       Type             X           Y           Z
 ---------------------------------------------------------------------
      1         11           0       -0.781095   -0.313787    1.502592
      2         11           0        1.943274   -2.015649    0.274389
      3         11           0       -4.213305   -0.207252   -0.109622
      4         11           0        1.672564    1.860292   -0.084942
      5         11           0       -1.314505    2.661719   -0.275722
      6         11           0       -1.557656   -2.001434   -0.949079
      7         11           0        4.250723    0.016112   -0.357615
 ---------------------------------------------------------------------

 SCF Done:  E(UB3LYP) =  -1136.12527444     A.U. after   20 cycles

 The electronic state is 2-A.
 Alpha  occ. eigenvalues --  -38.44357 -38.44304 -38.44219 -38.43747 -38.43588
 Alpha  occ. eigenvalues --  -38.43288 -38.43280  -2.20288  -2.20162  -2.20053
 Alpha  occ. eigenvalues --   -2.19628  -2.19454  -2.19174  -2.19128  -1.14043
 Alpha  occ. eigenvalues --   -1.13949  -1.13903  -1.13829  -1.13814  -1.13792
 Alpha  occ. eigenvalues --   -1.13705  -1.13677  -1.13659  -1.13309  -1.13294
 Alpha  occ. eigenvalues --   -1.13254  -1.13140  -1.13121  -1.13061  -1.12926
 Alpha  occ. eigenvalues --   -1.12852  -1.12826  -1.12791  -1.12766  -1.12717
 Alpha  occ. eigenvalues --   -0.17954  -0.14407  -0.12173  -0.10756
 Alpha virt. eigenvalues --   -0.06335  -0.05534  -0.04143  -0.03765  -0.02923
 Alpha virt. eigenvalues --   -0.02266  -0.01711  -0.01226  -0.00750  -0.00605
 Alpha virt. eigenvalues --   -0.00185  -0.00042   0.00522   0.00687   0.00734

  Beta  occ. eigenvalues --  -38.44313 -38.44300 -38.44138 -38.43680 -38.43574
  Beta  occ. eigenvalues --  -38.43287 -38.43272  -2.20210  -2.20160  -2.19901
  Beta  occ. eigenvalues --   -2.19503  -2.19436  -2.19164  -2.19129  -1.14009
  Beta  occ. eigenvalues --   -1.13887  -1.13846  -1.13829  -1.13796  -1.13742
  Beta  occ. eigenvalues --   -1.13600  -1.13575  -1.13566  -1.13240  -1.13209
  Beta  occ. eigenvalues --   -1.13170  -1.13128  -1.13103  -1.13009  -1.12904
  Beta  occ. eigenvalues --   -1.12840  -1.12825  -1.12791  -1.12768  -1.12694
  Beta  occ. eigenvalues --   -0.17366  -0.13648  -0.11903
  Beta virt. eigenvalues --   -0.07264  -0.06156  -0.05392  -0.03695  -0.03309
  Beta virt. eigenvalues --   -0.02578  -0.01934  -0.01406  -0.00873  -0.00607
  Beta virt. eigenvalues --   -0.00235  -0.00069   0.00132   0.00643   0.00755

 Mulliken charges and spin densities:
               1          2
     1  Na  -0.377046   0.242667
     2  Na  -0.171087   0.017040
     3  Na   0.219121   0.469726
     4  Na  -0.603687   0.007241
     5  Na  -0.020030  -0.089201
     6  Na   0.071973  -0.035774
     7  Na   0.880756   0.388301
 Sum of Mulliken charges =  -0.00000   1.00000

 Dipole moment (field-independent basis, Debye):
    X=             -0.5281    Y=             -0.4140    Z=              0.0565  Tot=              0.6734
 Quadrupole moment (field-independent basis, Debye-Ang):
   XX=            -64.4423   YY=            -71.5646   ZZ=            -65.9682
   XY=             -3.2011   XZ=             -0.7194   YZ=              0.4289

 Normal termination of Gaussian 16 at Tue Nov 28 23:55:06 2023.
