 Gaussian 16, Revision B.01,
 Gaussian 16:  ES64L-G16RevB.01 20-Dec-2017

 -------------------------
 #P B3LYP/6-311+g(d) force
 -------------------------

 -----
 DPGEN
 -----
 Symbolic Z-matrix:
 Charge =  0 Multiplicity = 2

                         Standard orientation:
 ---------------------------------------------------------------------
 Center     Atomic      Atomic             Coordinates (Angstroms)
 Number     Number       Type             X           Y           Z
 ---------------------------------------------------------------------
      1         11           0       -1.859070    2.435535   -0.168623
      2         11           0        0.455752   -0.051849   -1.614988
      3         11           0       -0.477712    0.166983    2.108497
      4         11           0        3.032034   -1.120695   -0.079782
      5         11           0       -3.044110   -0.952171   -0.544899
      6         11           0        2.106575    2.167503    0.033177
      7         11           0       -0.213470   -2.645307    0.266619
 ---------------------------------------------------------------------

 SCF Done:  E(UB3LYP) =  -1136.13669678     A.U. after   18 cycles

 The electronic state is 2-A.
 Alpha  occ. eigenvalues --  -38.44137 -38.44064 -38.43786 -38.43595 -38.43593
 Alpha  occ. eigenvalues --  -38.43371 -38.42913  -2.19959  -2.19912  -2.19624
 Alpha  occ. eigenvalues --   -2.19477  -2.19407  -2.19348  -2.18805  -1.13627
 Alpha  occ. eigenvalues --   -1.13614  -1.13612  -1.13603  -1.13570  -1.13547
 Alpha  occ. eigenvalues --   -1.13332  -1.13289  -1.13241  -1.13145  -1.13123
 Alpha  occ. eigenvalues --   -1.13096  -1.13081  -1.13059  -1.13041  -1.13036
 Alpha  occ. eigenvalues --   -1.12987  -1.12964  -1.12495  -1.12472  -1.12425
 Alpha  occ. eigenvalues --   -0.18569  -0.13238  -0.12203  -0.10766
 Alpha virt. eigenvalues --   -0.05688  -0.05486  -0.04341  -0.03334  -0.02863
 Alpha virt. eigenvalues --   -0.02553  -0.01660  -0.01140  -0.00408  -0.00238
 Alpha virt. eigenvalues --   -0.00024   0.00340   0.00746   0.00846   0.00912

  Beta  occ. eigenvalues --  -38.44123 -38.44062 -38.43783 -38.43591 -38.43495
  Beta  occ. eigenvalues --  -38.43319 -38.42902  -2.19935  -2.19912  -2.19621
  Beta  occ. eigenvalues --   -2.19403  -2.19296  -2.19253  -2.18790  -1.13606
  Beta  occ. eigenvalues --   -1.13603  -1.13590  -1.13589  -1.13565  -1.13544
  Beta  occ. eigenvalues --   -1.13324  -1.13275  -1.13239  -1.13084  -1.13064
  Beta  occ. eigenvalues --   -1.13039  -1.13023  -1.12970  -1.12968  -1.12962
  Beta  occ. eigenvalues --   -1.12921  -1.12893  -1.12488  -1.12426  -1.12420
  Beta  occ. eigenvalues --   -0.17859  -0.13002  -0.11979
  Beta virt. eigenvalues --   -0.06865  -0.05585  -0.05489  -0.04300  -0.02600
  Beta virt. eigenvalues --   -0.02081  -0.01583  -0.01491  -0.01089  -0.00449
  Beta virt. eigenvalues --   -0.00240   0.00120   0.00382   0.00829   0.00848

 Mulliken charges and spin densities:
               1          2
     1  Na   0.039799  -0.063109
     2  Na  -0.252626   0.404209
     3  Na  -0.468370   0.686550
     4  Na   0.272377  -0.022426
     5  Na   0.062430   0.043914
     6  Na   0.088594  -0.097446
     7  Na   0.257797   0.048308
 Sum of Mulliken charges =  -0.00000   1.00000

 Dipole moment (field-independent basis, Debye):
    X=              0.1143    Y=              0.1323    Z=              0.0580  Tot=              0.1842
 Quadrupole moment (field-independent basis, Debye-Ang):
   XX=            -54.6156   YY=            -65.0379   ZZ=            -73.8399
   XY=             -0.2233   XZ=              2.0931   YZ=             -0.1823

 Normal termination of Gaussian 16 at Tue Dec  5 19:33:34 2023.
