 Gaussian 16, Revision B.01,
 Gaussian 16:  ES64L-G16RevB.01 20-Dec-2017

 -------------------------
 #P B3LYP/6-311+g(d) force
 -------------------------

 -----
 DPGEN
 -----
 Symbolic Z-matrix:
 Charge =  0 Multiplicity = 2

                         Standard orientation:
 ---------------------------------------------------------------------
 Center     Atomic      Atomic             Coordinates (Angstroms)
 Number     Number       Type             X           Y           Z
 ---------------------------------------------------------------------
      1         11           0       -0.066634    3.784971   -0.144540
      2         11           0        3.266822   -1.078193   -1.185051
      3         11           0       -2.803363   -2.328309   -0.034880
      4         11           0        0.978000   -2.432389    0.909877
      5         11           0        2.313028    1.065472    1.256320
      6         11           0       -3.136490    0.887082    0.183303
      7         11           0       -0.551362    0.101366   -0.985029
 ---------------------------------------------------------------------

 SCF Done:  E(UB3LYP) =  -1136.12121528     A.U. after   22 cycles

 The electronic state is 2-A.
 Alpha  occ. eigenvalues --  -38.44632 -38.44443 -38.44229 -38.44115 -38.43936
 Alpha  occ. eigenvalues --  -38.43817 -38.43358  -2.20500  -2.20256  -2.20058
 Alpha  occ. eigenvalues --   -2.20044  -2.19685  -2.19657  -2.19221  -1.14271
 Alpha  occ. eigenvalues --   -1.14147  -1.14103  -1.13946  -1.13925  -1.13864
 Alpha  occ. eigenvalues --   -1.13751  -1.13739  -1.13718  -1.13697  -1.13692
 Alpha  occ. eigenvalues --   -1.13638  -1.13369  -1.13340  -1.13340  -1.13332
 Alpha  occ. eigenvalues --   -1.13326  -1.13269  -1.12883  -1.12861  -1.12833
 Alpha  occ. eigenvalues --   -0.17689  -0.13991  -0.12422  -0.09403
 Alpha virt. eigenvalues --   -0.06416  -0.05768  -0.05537  -0.03308  -0.02417
 Alpha virt. eigenvalues --   -0.02183  -0.01756  -0.01422  -0.01086  -0.01006
 Alpha virt. eigenvalues --   -0.00056   0.00270   0.00404   0.00543   0.00666

  Beta  occ. eigenvalues --  -38.44615 -38.44414 -38.44226 -38.44102 -38.43939
  Beta  occ. eigenvalues --  -38.43782 -38.43287  -2.20469  -2.20205  -2.20054
  Beta  occ. eigenvalues --   -2.20020  -2.19693  -2.19596  -2.19088  -1.14248
  Beta  occ. eigenvalues --   -1.14118  -1.14091  -1.13900  -1.13886  -1.13827
  Beta  occ. eigenvalues --   -1.13741  -1.13725  -1.13709  -1.13675  -1.13668
  Beta  occ. eigenvalues --   -1.13631  -1.13375  -1.13336  -1.13333  -1.13302
  Beta  occ. eigenvalues --   -1.13276  -1.13216  -1.12790  -1.12766  -1.12747
  Beta  occ. eigenvalues --   -0.17272  -0.13655  -0.12115
  Beta virt. eigenvalues --   -0.06225  -0.06113  -0.05416  -0.05251  -0.02879
  Beta virt. eigenvalues --   -0.02117  -0.01850  -0.01634  -0.01151  -0.00934
  Beta virt. eigenvalues --   -0.00548   0.00208   0.00405   0.00612   0.00623

 Mulliken charges and spin densities:
               1          2
     1  Na   0.114355  -0.022258
     2  Na   0.315811   0.380547
     3  Na   0.296559   0.055276
     4  Na  -0.225883   0.201706
     5  Na  -0.122614   0.191232
     6  Na   0.147257   0.040342
     7  Na  -0.525486   0.153155
 Sum of Mulliken charges =  -0.00000   1.00000

 Dipole moment (field-independent basis, Debye):
    X=             -1.0810    Y=              0.0835    Z=              0.4960  Tot=              1.1923
 Quadrupole moment (field-independent basis, Debye-Ang):
   XX=            -59.1268   YY=            -62.7482   ZZ=            -74.7688
   XY=              1.9618   XZ=              0.9293   YZ=              0.1147

 Normal termination of Gaussian 16 at Wed Nov 29 17:18:01 2023.
