 Gaussian 16, Revision B.01,
 Gaussian 16:  ES64L-G16RevB.01 20-Dec-2017

 -------------------------
 #P B3LYP/6-311+g(d) force
 -------------------------

 -----
 DPGEN
 -----
 Symbolic Z-matrix:
 Charge =  0 Multiplicity = 2

                         Standard orientation:
 ---------------------------------------------------------------------
 Center     Atomic      Atomic             Coordinates (Angstroms)
 Number     Number       Type             X           Y           Z
 ---------------------------------------------------------------------
      1         11           0       -2.986855    0.344502    0.137116
      2         11           0        0.161075   -0.096353   -1.814845
      3         11           0       -0.174968   -0.186676    1.885136
      4         11           0       -0.789988    2.841322   -0.279691
      5         11           0       -1.248859   -2.580424   -0.145988
      6         11           0        2.758388    1.612083    0.273514
      7         11           0        2.281208   -1.934454   -0.055241
 ---------------------------------------------------------------------

 SCF Done:  E(UB3LYP) =  -1136.14059671     A.U. after   19 cycles

 The electronic state is 2-A.
 Alpha  occ. eigenvalues --  -38.43918 -38.43695 -38.43650 -38.43446 -38.43409
 Alpha  occ. eigenvalues --  -38.43307 -38.43291  -2.19716  -2.19548  -2.19523
 Alpha  occ. eigenvalues --   -2.19378  -2.19248  -2.19244  -2.19200  -1.13391
 Alpha  occ. eigenvalues --   -1.13374  -1.13361  -1.13243  -1.13219  -1.13218
 Alpha  occ. eigenvalues --   -1.13185  -1.13176  -1.13172  -1.13059  -1.13013
 Alpha  occ. eigenvalues --   -1.12993  -1.12947  -1.12944  -1.12908  -1.12889
 Alpha  occ. eigenvalues --   -1.12878  -1.12860  -1.12857  -1.12832  -1.12817
 Alpha  occ. eigenvalues --   -0.18790  -0.12967  -0.12544  -0.10796
 Alpha virt. eigenvalues --   -0.05417  -0.05238  -0.04739  -0.03175  -0.02954
 Alpha virt. eigenvalues --   -0.02550  -0.01382  -0.01155  -0.00351  -0.00270
 Alpha virt. eigenvalues --   -0.00002   0.00372   0.00832   0.00881   0.00915

  Beta  occ. eigenvalues --  -38.43915 -38.43690 -38.43645 -38.43403 -38.43364
  Beta  occ. eigenvalues --  -38.43299 -38.43212  -2.19712  -2.19543  -2.19518
  Beta  occ. eigenvalues --   -2.19241  -2.19228  -2.19190  -2.19100  -1.13373
  Beta  occ. eigenvalues --   -1.13373  -1.13360  -1.13233  -1.13207  -1.13196
  Beta  occ. eigenvalues --   -1.13178  -1.13169  -1.13155  -1.12972  -1.12929
  Beta  occ. eigenvalues --   -1.12911  -1.12892  -1.12885  -1.12882  -1.12878
  Beta  occ. eigenvalues --   -1.12826  -1.12815  -1.12804  -1.12761  -1.12744
  Beta  occ. eigenvalues --   -0.18045  -0.12722  -0.12293
  Beta virt. eigenvalues --   -0.06892  -0.05401  -0.05212  -0.04696  -0.02381
  Beta virt. eigenvalues --   -0.02173  -0.01504  -0.01289  -0.01085  -0.00391
  Beta virt. eigenvalues --   -0.00336   0.00125   0.00390   0.00867   0.00894

 Mulliken charges and spin densities:
               1          2
     1  Na   0.206410  -0.037183
     2  Na  -0.217362   0.666358
     3  Na  -0.351946   0.738410
     4  Na   0.007596  -0.088486
     5  Na   0.290869  -0.090490
     6  Na  -0.081762  -0.077729
     7  Na   0.146194  -0.110882
 Sum of Mulliken charges =  -0.00000   1.00000

 Dipole moment (field-independent basis, Debye):
    X=              0.1820    Y=              0.0018    Z=              0.0696  Tot=              0.1948
 Quadrupole moment (field-independent basis, Debye-Ang):
   XX=            -57.7322   YY=            -61.7810   ZZ=            -74.0284
   XY=              0.2358   XZ=              0.7436   YZ=              0.2881

 Normal termination of Gaussian 16 at Thu Dec  7 10:11:03 2023.
