 Gaussian 16, Revision B.01,
 Gaussian 16:  ES64L-G16RevB.01 20-Dec-2017

 -------------------------
 #P B3LYP/6-311+g(d) force
 -------------------------

 -----
 DPGEN
 -----
 Symbolic Z-matrix:
 Charge =  0 Multiplicity = 2

                         Standard orientation:
 ---------------------------------------------------------------------
 Center     Atomic      Atomic             Coordinates (Angstroms)
 Number     Number       Type             X           Y           Z
 ---------------------------------------------------------------------
      1         11           0       -3.461687   -0.129392   -0.304128
      2         11           0        3.797095    0.182525   -0.057260
      3         11           0        1.554085    2.780028    0.397072
      4         11           0       -1.947739    2.940988   -0.008687
      5         11           0        1.645680   -2.746040   -0.243004
      6         11           0       -1.653411   -2.899746    0.630296
      7         11           0        0.065976   -0.128363   -0.414289
 ---------------------------------------------------------------------

 SCF Done:  E(UB3LYP) =  -1136.12771054     A.U. after   23 cycles

 The electronic state is 2-A.
 Alpha  occ. eigenvalues --  -38.44459 -38.44305 -38.43972 -38.43969 -38.43934
 Alpha  occ. eigenvalues --  -38.43173 -38.43003  -2.20297  -2.20139  -2.19885
 Alpha  occ. eigenvalues --   -2.19848  -2.19794  -2.19017  -2.18871  -1.13982
 Alpha  occ. eigenvalues --   -1.13967  -1.13937  -1.13835  -1.13819  -1.13760
 Alpha  occ. eigenvalues --   -1.13657  -1.13611  -1.13510  -1.13502  -1.13467
 Alpha  occ. eigenvalues --   -1.13454  -1.13450  -1.13438  -1.13426  -1.12671
 Alpha  occ. eigenvalues --   -1.12668  -1.12636  -1.12525  -1.12514  -1.12504
 Alpha  occ. eigenvalues --   -0.17595  -0.13780  -0.13644  -0.09463
 Alpha virt. eigenvalues --   -0.06714  -0.05774  -0.04348  -0.03002  -0.02621
 Alpha virt. eigenvalues --   -0.02336  -0.02019  -0.01741  -0.01287  -0.00158
 Alpha virt. eigenvalues --    0.00129   0.00408   0.00436   0.00597   0.00730

  Beta  occ. eigenvalues --  -38.44449 -38.44288 -38.43947 -38.43943 -38.43942
  Beta  occ. eigenvalues --  -38.43107 -38.42941  -2.20286  -2.20114  -2.19899
  Beta  occ. eigenvalues --   -2.19798  -2.19757  -2.18895  -2.18754  -1.13982
  Beta  occ. eigenvalues --   -1.13966  -1.13877  -1.13827  -1.13809  -1.13693
  Beta  occ. eigenvalues --   -1.13649  -1.13618  -1.13531  -1.13471  -1.13446
  Beta  occ. eigenvalues --   -1.13437  -1.13416  -1.13395  -1.13381  -1.12588
  Beta  occ. eigenvalues --   -1.12584  -1.12557  -1.12446  -1.12436  -1.12426
  Beta  occ. eigenvalues --   -0.17328  -0.13116  -0.12948
  Beta virt. eigenvalues --   -0.06772  -0.06193  -0.05509  -0.04221  -0.02497
  Beta virt. eigenvalues --   -0.02113  -0.02011  -0.01882  -0.01299  -0.01168
  Beta virt. eigenvalues --   -0.00075   0.00369   0.00524   0.00526   0.00750

 Mulliken charges and spin densities:
               1          2
     1  Na   0.409297   0.432849
     2  Na   0.721972   0.438720
     3  Na   0.286469   0.117682
     4  Na   0.807413   0.066989
     5  Na   0.843738   0.154783
     6  Na   0.746134   0.045675
     7  Na  -3.815024  -0.256698
 Sum of Mulliken charges =  -0.00000   1.00000

 Dipole moment (field-independent basis, Debye):
    X=             -0.0457    Y=             -0.3250    Z=              0.4009  Tot=              0.5181
 Quadrupole moment (field-independent basis, Debye-Ang):
   XX=            -69.4013   YY=            -58.9752   ZZ=            -70.5573
   XY=             -2.6133   XZ=             -0.7815   YZ=             -0.6254

 Normal termination of Gaussian 16 at Wed Nov 29 16:06:14 2023.
