 Gaussian 16, Revision B.01,
 Gaussian 16:  ES64L-G16RevB.01 20-Dec-2017

 -------------------------
 #P B3LYP/6-311+g(d) force
 -------------------------

 -----
 DPGEN
 -----
 Symbolic Z-matrix:
 Charge =  0 Multiplicity = 2

                         Standard orientation:
 ---------------------------------------------------------------------
 Center     Atomic      Atomic             Coordinates (Angstroms)
 Number     Number       Type             X           Y           Z
 ---------------------------------------------------------------------
      1         11           0        2.401024    0.939946    1.659917
      2         11           0        3.369204   -1.503568   -0.909777
      3         11           0       -3.155985   -1.922111    0.500389
      4         11           0        0.940239    3.059315   -0.910085
      5         11           0       -1.112120    0.629264    1.491811
      6         11           0       -2.846730    1.521775   -1.204091
      7         11           0        0.404367   -2.724621   -0.628164
 ---------------------------------------------------------------------

 SCF Done:  E(UB3LYP) =  -1136.12243993     A.U. after   20 cycles

 The electronic state is 2-A.
 Alpha  occ. eigenvalues --  -38.44738 -38.44477 -38.44336 -38.43979 -38.43977
 Alpha  occ. eigenvalues --  -38.43936 -38.43797  -2.20482  -2.20277  -2.20130
 Alpha  occ. eigenvalues --   -2.19801  -2.19792  -2.19760  -2.19605  -1.14166
 Alpha  occ. eigenvalues --   -1.14132  -1.14124  -1.13955  -1.13937  -1.13881
 Alpha  occ. eigenvalues --   -1.13808  -1.13782  -1.13767  -1.13499  -1.13481
 Alpha  occ. eigenvalues --   -1.13459  -1.13453  -1.13438  -1.13436  -1.13422
 Alpha  occ. eigenvalues --   -1.13409  -1.13397  -1.13262  -1.13238  -1.13236
 Alpha  occ. eigenvalues --   -0.16967  -0.13414  -0.12454  -0.10428
 Alpha virt. eigenvalues --   -0.06420  -0.05878  -0.04648  -0.03722  -0.03032
 Alpha virt. eigenvalues --   -0.01943  -0.01780  -0.01633  -0.00927  -0.00563
 Alpha virt. eigenvalues --   -0.00323   0.00073   0.00316   0.00465   0.00639

  Beta  occ. eigenvalues --  -38.44732 -38.44423 -38.44324 -38.43971 -38.43932
  Beta  occ. eigenvalues --  -38.43899 -38.43772  -2.20472  -2.20178  -2.20109
  Beta  occ. eigenvalues --   -2.19749  -2.19735  -2.19710  -2.19558  -1.14160
  Beta  occ. eigenvalues --   -1.14128  -1.14102  -1.13891  -1.13870  -1.13807
  Beta  occ. eigenvalues --   -1.13784  -1.13769  -1.13754  -1.13453  -1.13442
  Beta  occ. eigenvalues --   -1.13431  -1.13416  -1.13398  -1.13384  -1.13383
  Beta  occ. eigenvalues --   -1.13368  -1.13346  -1.13229  -1.13211  -1.13200
  Beta  occ. eigenvalues --   -0.16437  -0.13136  -0.12000
  Beta virt. eigenvalues --   -0.07030  -0.06315  -0.05713  -0.04015  -0.03483
  Beta virt. eigenvalues --   -0.02525  -0.01733  -0.01481  -0.01329  -0.00781
  Beta virt. eigenvalues --   -0.00304  -0.00159   0.00219   0.00378   0.00581

 Mulliken charges and spin densities:
               1          2
     1  Na   0.036424   0.185224
     2  Na   0.137796   0.119317
     3  Na   0.427140  -0.019000
     4  Na  -0.183013   0.097116
     5  Na  -0.207486   0.240735
     6  Na   0.062301   0.324940
     7  Na  -0.273162   0.051667
 Sum of Mulliken charges =  -0.00000   1.00000

 Dipole moment (field-independent basis, Debye):
    X=             -0.4030    Y=              0.2334    Z=             -0.2718  Tot=              0.5392
 Quadrupole moment (field-independent basis, Debye-Ang):
   XX=            -55.8095   YY=            -69.8125   ZZ=            -71.5264
   XY=              7.0875   XZ=              0.3238   YZ=             -2.1743

 Normal termination of Gaussian 16 at Sun Dec  3 15:00:48 2023.
