 Gaussian 16, Revision B.01,
 Gaussian 16:  ES64L-G16RevB.01 20-Dec-2017

 -------------------------
 #P B3LYP/6-311+g(d) force
 -------------------------

 -----
 DPGEN
 -----
 Symbolic Z-matrix:
 Charge =  0 Multiplicity = 2

                         Standard orientation:
 ---------------------------------------------------------------------
 Center     Atomic      Atomic             Coordinates (Angstroms)
 Number     Number       Type             X           Y           Z
 ---------------------------------------------------------------------
      1         11           0        0.399908    1.641922    2.250196
      2         11           0       -1.694004    2.539144   -1.304151
      3         11           0        4.346665    0.222971   -0.853806
      4         11           0        0.741207    0.063735   -1.088409
      5         11           0       -1.989902   -1.982360   -1.814153
      6         11           0        0.713638   -2.343895    1.508402
      7         11           0       -2.517512   -0.141517    1.301921
 ---------------------------------------------------------------------

 SCF Done:  E(UB3LYP) =  -1136.11549830     A.U. after   24 cycles

 The electronic state is 2-A.
 Alpha  occ. eigenvalues --  -38.44828 -38.44715 -38.44524 -38.44485 -38.44107
 Alpha  occ. eigenvalues --  -38.43653 -38.43167  -2.20593  -2.20523  -2.20273
 Alpha  occ. eigenvalues --   -2.20262  -2.19889  -2.19442  -2.19063  -1.14270
 Alpha  occ. eigenvalues --   -1.14250  -1.14217  -1.14207  -1.14185  -1.14142
 Alpha  occ. eigenvalues --   -1.13947  -1.13929  -1.13922  -1.13920  -1.13887
 Alpha  occ. eigenvalues --   -1.13883  -1.13576  -1.13532  -1.13506  -1.13129
 Alpha  occ. eigenvalues --   -1.13092  -1.13066  -1.12774  -1.12720  -1.12681
 Alpha  occ. eigenvalues --   -0.17567  -0.12167  -0.11911  -0.11293
 Alpha virt. eigenvalues --   -0.06498  -0.05488  -0.04506  -0.03064  -0.02945
 Alpha virt. eigenvalues --   -0.02784  -0.02041  -0.01265  -0.00967  -0.00325
 Alpha virt. eigenvalues --   -0.00180   0.00133   0.00289   0.00478   0.00612

  Beta  occ. eigenvalues --  -38.44794 -38.44699 -38.44499 -38.44441 -38.44075
  Beta  occ. eigenvalues --  -38.43633 -38.43137  -2.20533  -2.20497  -2.20216
  Beta  occ. eigenvalues --   -2.20193  -2.19830  -2.19407  -2.19010  -1.14229
  Beta  occ. eigenvalues --   -1.14197  -1.14185  -1.14171  -1.14152  -1.14130
  Beta  occ. eigenvalues --   -1.13895  -1.13889  -1.13889  -1.13859  -1.13854
  Beta  occ. eigenvalues --   -1.13836  -1.13528  -1.13492  -1.13468  -1.13098
  Beta  occ. eigenvalues --   -1.13070  -1.13041  -1.12722  -1.12687  -1.12639
  Beta  occ. eigenvalues --   -0.16779  -0.11777  -0.11119
  Beta virt. eigenvalues --   -0.08268  -0.06180  -0.05045  -0.04228  -0.02689
  Beta virt. eigenvalues --   -0.02570  -0.02182  -0.01892  -0.00990  -0.00764
  Beta virt. eigenvalues --   -0.00143  -0.00085   0.00202   0.00310   0.00530

 Mulliken charges and spin densities:
               1          2
     1  Na   0.038603   0.260036
     2  Na  -0.015894   0.188751
     3  Na   0.005351   0.038278
     4  Na  -0.446178   0.142535
     5  Na   0.156345   0.084872
     6  Na   0.012915   0.160036
     7  Na   0.248858   0.125493
 Sum of Mulliken charges =  -0.00000   1.00000

 Dipole moment (field-independent basis, Debye):
    X=             -0.2189    Y=             -0.0177    Z=              0.6654  Tot=              0.7007
 Quadrupole moment (field-independent basis, Debye-Ang):
   XX=            -59.5899   YY=            -71.0061   ZZ=            -62.7880
   XY=             -0.2309   XZ=              1.7470   YZ=             -2.8390

 Normal termination of Gaussian 16 at Tue Dec  5 13:57:10 2023.
