 Gaussian 16, Revision B.01,
 Gaussian 16:  ES64L-G16RevB.01 20-Dec-2017

 -------------------------
 #P B3LYP/6-311+g(d) force
 -------------------------

 -----
 DPGEN
 -----
 Symbolic Z-matrix:
 Charge =  0 Multiplicity = 2

                         Standard orientation:
 ---------------------------------------------------------------------
 Center     Atomic      Atomic             Coordinates (Angstroms)
 Number     Number       Type             X           Y           Z
 ---------------------------------------------------------------------
      1         11           0       -3.727948   -1.024879   -0.414679
      2         11           0       -0.845809   -0.814551    1.763134
      3         11           0        2.223933   -1.065476    1.317571
      4         11           0       -2.123855    1.735992   -0.624501
      5         11           0        3.587567   -0.072006   -1.356153
      6         11           0        0.818161    2.293886    0.800697
      7         11           0        0.067950   -1.052966   -1.486068
 ---------------------------------------------------------------------

 SCF Done:  E(UB3LYP) =  -1136.12298298     A.U. after   27 cycles

 The electronic state is 2-A.
 Alpha  occ. eigenvalues --  -38.44741 -38.44376 -38.44235 -38.44185 -38.44068
 Alpha  occ. eigenvalues --  -38.43783 -38.42117  -2.20569  -2.20204  -2.20113
 Alpha  occ. eigenvalues --   -2.20057  -2.20010  -2.19678  -2.17964  -1.14302
 Alpha  occ. eigenvalues --   -1.14258  -1.14152  -1.13931  -1.13860  -1.13845
 Alpha  occ. eigenvalues --   -1.13832  -1.13753  -1.13735  -1.13726  -1.13714
 Alpha  occ. eigenvalues --   -1.13688  -1.13679  -1.13618  -1.13589  -1.13367
 Alpha  occ. eigenvalues --   -1.13323  -1.13286  -1.11647  -1.11618  -1.11611
 Alpha  occ. eigenvalues --   -0.18610  -0.14164  -0.11708  -0.10932
 Alpha virt. eigenvalues --   -0.06872  -0.05110  -0.04494  -0.03284  -0.02831
 Alpha virt. eigenvalues --   -0.02602  -0.02248  -0.01061  -0.00802  -0.00162
 Alpha virt. eigenvalues --    0.00099   0.00265   0.00389   0.00676   0.00764

  Beta  occ. eigenvalues --  -38.44730 -38.44340 -38.44234 -38.44145 -38.43983
  Beta  occ. eigenvalues --  -38.43748 -38.42111  -2.20552  -2.20137  -2.20058
  Beta  occ. eigenvalues --   -2.20046  -2.19856  -2.19615  -2.17956  -1.14276
  Beta  occ. eigenvalues --   -1.14237  -1.14142  -1.13873  -1.13797  -1.13788
  Beta  occ. eigenvalues --   -1.13785  -1.13749  -1.13719  -1.13694  -1.13683
  Beta  occ. eigenvalues --   -1.13658  -1.13590  -1.13499  -1.13485  -1.13319
  Beta  occ. eigenvalues --   -1.13284  -1.13241  -1.11638  -1.11608  -1.11599
  Beta  occ. eigenvalues --   -0.17888  -0.13909  -0.10708
  Beta virt. eigenvalues --   -0.07775  -0.06694  -0.04510  -0.04329  -0.02962
  Beta virt. eigenvalues --   -0.02578  -0.02029  -0.01735  -0.00737  -0.00588
  Beta virt. eigenvalues --   -0.00034   0.00136   0.00366   0.00455   0.00783

 Mulliken charges and spin densities:
               1          2
     1  Na   0.912562   0.036009
     2  Na  -0.162081   0.248269
     3  Na   0.219752   0.027436
     4  Na   0.007910  -0.024896
     5  Na   0.546876   0.077972
     6  Na  -0.565236   0.248373
     7  Na  -0.959783   0.386837
 Sum of Mulliken charges =  -0.00000   1.00000

 Dipole moment (field-independent basis, Debye):
    X=             -0.1411    Y=             -0.1535    Z=             -0.1359  Tot=              0.2489
 Quadrupole moment (field-independent basis, Debye-Ang):
   XX=            -51.5231   YY=            -75.7604   ZZ=            -69.3393
   XY=              2.1945   XZ=              0.4014   YZ=             -5.4640

 Normal termination of Gaussian 16 at Fri Dec  8 02:54:14 2023.
