 Gaussian 16, Revision B.01,
 Gaussian 16:  ES64L-G16RevB.01 20-Dec-2017

 -------------------------
 #P B3LYP/6-311+g(d) force
 -------------------------

 -----
 DPGEN
 -----
 Symbolic Z-matrix:
 Charge =  0 Multiplicity = 2

                         Standard orientation:
 ---------------------------------------------------------------------
 Center     Atomic      Atomic             Coordinates (Angstroms)
 Number     Number       Type             X           Y           Z
 ---------------------------------------------------------------------
      1         11           0        1.538172   -2.388019   -0.742142
      2         11           0        3.165899    0.501075    0.374430
      3         11           0        0.660771    2.603162   -0.859522
      4         11           0       -2.707010   -1.783988    0.116109
      5         11           0       -0.812741   -0.082994   -1.824395
      6         11           0       -2.547327    1.642712    0.832664
      7         11           0        0.702235   -0.491948    2.102856
 ---------------------------------------------------------------------

 SCF Done:  E(UB3LYP) =  -1136.13091936     A.U. after   20 cycles

 The electronic state is 2-A.
 Alpha  occ. eigenvalues --  -38.44368 -38.44215 -38.44148 -38.44017 -38.43739
 Alpha  occ. eigenvalues --  -38.43569 -38.42803  -2.20223  -2.20022  -2.19995
 Alpha  occ. eigenvalues --   -2.19833  -2.19565  -2.19506  -2.18647  -1.13914
 Alpha  occ. eigenvalues --   -1.13866  -1.13849  -1.13696  -1.13680  -1.13670
 Alpha  occ. eigenvalues --   -1.13657  -1.13644  -1.13622  -1.13541  -1.13488
 Alpha  occ. eigenvalues --   -1.13462  -1.13259  -1.13223  -1.13191  -1.13178
 Alpha  occ. eigenvalues --   -1.13150  -1.13120  -1.12346  -1.12292  -1.12274
 Alpha  occ. eigenvalues --   -0.18189  -0.13345  -0.11786  -0.11303
 Alpha virt. eigenvalues --   -0.05771  -0.05433  -0.04238  -0.03660  -0.03068
 Alpha virt. eigenvalues --   -0.02905  -0.01530  -0.01024  -0.00402  -0.00115
 Alpha virt. eigenvalues --    0.00052   0.00402   0.00570   0.00735   0.00813

  Beta  occ. eigenvalues --  -38.44299 -38.44194 -38.44143 -38.44017 -38.43721
  Beta  occ. eigenvalues --  -38.43502 -38.42787  -2.20095  -2.19990  -2.19985
  Beta  occ. eigenvalues --   -2.19836  -2.19535  -2.19385  -2.18620  -1.13835
  Beta  occ. eigenvalues --   -1.13777  -1.13760  -1.13663  -1.13659  -1.13644
  Beta  occ. eigenvalues --   -1.13638  -1.13627  -1.13616  -1.13536  -1.13483
  Beta  occ. eigenvalues --   -1.13457  -1.13227  -1.13198  -1.13166  -1.13099
  Beta  occ. eigenvalues --   -1.13064  -1.13030  -1.12317  -1.12268  -1.12259
  Beta  occ. eigenvalues --   -0.17469  -0.13129  -0.11549
  Beta virt. eigenvalues --   -0.07489  -0.05675  -0.05190  -0.04025  -0.03147
  Beta virt. eigenvalues --   -0.02401  -0.01968  -0.01436  -0.00920  -0.00338
  Beta virt. eigenvalues --   -0.00044   0.00106   0.00441   0.00745   0.00826

 Mulliken charges and spin densities:
               1          2
     1  Na  -0.281787  -0.107736
     2  Na   0.286660   0.145723
     3  Na  -0.245333  -0.079620
     4  Na   0.005978  -0.055517
     5  Na   0.622342   0.430921
     6  Na  -0.226960   0.233992
     7  Na  -0.160899   0.432237
 Sum of Mulliken charges =  -0.00000   1.00000

 Dipole moment (field-independent basis, Debye):
    X=             -0.0945    Y=             -0.3247    Z=              0.4943  Tot=              0.5989
 Quadrupole moment (field-independent basis, Debye-Ang):
   XX=            -57.0184   YY=            -68.6103   ZZ=            -70.0377
   XY=              0.1444   XZ=             -2.6951   YZ=              1.6570

 Normal termination of Gaussian 16 at Wed Dec  6 00:34:27 2023.
