 Gaussian 16, Revision B.01,
 Gaussian 16:  ES64L-G16RevB.01 20-Dec-2017

 -------------------------
 #P B3LYP/6-311+g(d) force
 -------------------------

 -----
 DPGEN
 -----
 Symbolic Z-matrix:
 Charge =  0 Multiplicity = 2

                         Standard orientation:
 ---------------------------------------------------------------------
 Center     Atomic      Atomic             Coordinates (Angstroms)
 Number     Number       Type             X           Y           Z
 ---------------------------------------------------------------------
      1         11           0       -2.643257   -1.273820   -0.095335
      2         11           0       -6.009808   -1.297336   -0.045765
      3         11           0       -3.817621    1.771022    0.151612
      4         11           0       -0.531290    2.108572   -0.170615
      5         11           0        1.264073   -0.969988    0.088330
      6         11           0        4.312814   -0.146751    0.219601
      7         11           0        7.425089   -0.191699   -0.147828
 ---------------------------------------------------------------------

 SCF Done:  E(UB3LYP) =  -1136.11756646     A.U. after   21 cycles

 The electronic state is 2-A.
 Alpha  occ. eigenvalues --  -38.45052 -38.44835 -38.44318 -38.44314 -38.44035
 Alpha  occ. eigenvalues --  -38.43864 -38.43393  -2.20890  -2.20697  -2.20140
 Alpha  occ. eigenvalues --   -2.20108  -2.19833  -2.19707  -2.19228  -1.14603
 Alpha  occ. eigenvalues --   -1.14587  -1.14475  -1.14373  -1.14367  -1.14287
 Alpha  occ. eigenvalues --   -1.13815  -1.13803  -1.13775  -1.13772  -1.13765
 Alpha  occ. eigenvalues --   -1.13730  -1.13496  -1.13476  -1.13475  -1.13389
 Alpha  occ. eigenvalues --   -1.13360  -1.13324  -1.12900  -1.12888  -1.12873
 Alpha  occ. eigenvalues --   -0.16900  -0.14238  -0.12285  -0.11311
 Alpha virt. eigenvalues --   -0.06925  -0.05364  -0.04137  -0.03744  -0.03234
 Alpha virt. eigenvalues --   -0.02578  -0.02105  -0.01551  -0.01322  -0.00749
 Alpha virt. eigenvalues --   -0.00629  -0.00195   0.00133   0.00392   0.00660

  Beta  occ. eigenvalues --  -38.45031 -38.44773 -38.44301 -38.44284 -38.43993
  Beta  occ. eigenvalues --  -38.43818 -38.43399  -2.20851  -2.20586  -2.20085
  Beta  occ. eigenvalues --   -2.20082  -2.19755  -2.19619  -2.19244  -1.14565
  Beta  occ. eigenvalues --   -1.14559  -1.14448  -1.14304  -1.14295  -1.14184
  Beta  occ. eigenvalues --   -1.13781  -1.13761  -1.13756  -1.13752  -1.13717
  Beta  occ. eigenvalues --   -1.13698  -1.13446  -1.13422  -1.13422  -1.13333
  Beta  occ. eigenvalues --   -1.13299  -1.13274  -1.12906  -1.12903  -1.12860
  Beta  occ. eigenvalues --   -0.16297  -0.13931  -0.11698
  Beta virt. eigenvalues --   -0.07939  -0.06487  -0.05042  -0.03963  -0.03426
  Beta virt. eigenvalues --   -0.02623  -0.02474  -0.01819  -0.01374  -0.01165
  Beta virt. eigenvalues --   -0.00402  -0.00252   0.00029   0.00243   0.00450

 Mulliken charges and spin densities:
               1          2
     1  Na  -1.052963   0.286915
     2  Na   0.545280  -0.000436
     3  Na   0.672370   0.029246
     4  Na  -0.738474   0.372630
     5  Na  -0.018326   0.100515
     6  Na  -0.171718   0.184056
     7  Na   0.763832   0.027074
 Sum of Mulliken charges =  -0.00000   1.00000

 Dipole moment (field-independent basis, Debye):
    X=             -2.2598    Y=              0.2870    Z=             -0.1024  Tot=              2.2802
 Quadrupole moment (field-independent basis, Debye-Ang):
   XX=            -52.7783   YY=            -67.6560   ZZ=            -73.8380
   XY=              1.3948   XZ=             -1.4627   YZ=              0.1502

 Normal termination of Gaussian 16 at Tue Nov 28 21:47:09 2023.
