 Gaussian 16, Revision B.01,
 Gaussian 16:  ES64L-G16RevB.01 20-Dec-2017

 -------------------------
 #P B3LYP/6-311+g(d) force
 -------------------------

 -----
 DPGEN
 -----
 Symbolic Z-matrix:
 Charge =  0 Multiplicity = 2

                         Standard orientation:
 ---------------------------------------------------------------------
 Center     Atomic      Atomic             Coordinates (Angstroms)
 Number     Number       Type             X           Y           Z
 ---------------------------------------------------------------------
      1         11           0       -0.268480    0.033152   -1.003132
      2         11           0       -1.909239    0.481446    1.839399
      3         11           0        3.761544   -0.417969   -0.809360
      4         11           0       -2.697357   -2.346837   -0.769375
      5         11           0        0.946816   -2.124068    0.753524
      6         11           0       -1.585609    2.841281   -1.053831
      7         11           0        1.752326    1.532995    1.042774
 ---------------------------------------------------------------------

 SCF Done:  E(UB3LYP) =  -1136.12692691     A.U. after   19 cycles

 The electronic state is 2-A.
 Alpha  occ. eigenvalues --  -38.44365 -38.44033 -38.43945 -38.43944 -38.43838
 Alpha  occ. eigenvalues --  -38.43323 -38.42826  -2.20167  -2.19884  -2.19803
 Alpha  occ. eigenvalues --   -2.19787  -2.19624  -2.19154  -2.18889  -1.13839
 Alpha  occ. eigenvalues --   -1.13828  -1.13797  -1.13653  -1.13550  -1.13519
 Alpha  occ. eigenvalues --   -1.13473  -1.13466  -1.13451  -1.13437  -1.13399
 Alpha  occ. eigenvalues --   -1.13390  -1.13301  -1.13281  -1.13246  -1.12878
 Alpha  occ. eigenvalues --   -1.12793  -1.12769  -1.12612  -1.12514  -1.12495
 Alpha  occ. eigenvalues --   -0.18197  -0.13178  -0.11862  -0.10422
 Alpha virt. eigenvalues --   -0.06053  -0.05436  -0.04494  -0.03082  -0.02642
 Alpha virt. eigenvalues --   -0.02005  -0.01971  -0.01347  -0.00911  -0.00040
 Alpha virt. eigenvalues --    0.00118   0.00253   0.00506   0.00590   0.00783

  Beta  occ. eigenvalues --  -38.44355 -38.44023 -38.43926 -38.43887 -38.43824
  Beta  occ. eigenvalues --  -38.43292 -38.42793  -2.20147  -2.19869  -2.19771
  Beta  occ. eigenvalues --   -2.19683  -2.19599  -2.19098  -2.18833  -1.13825
  Beta  occ. eigenvalues --   -1.13811  -1.13785  -1.13645  -1.13513  -1.13498
  Beta  occ. eigenvalues --   -1.13449  -1.13419  -1.13401  -1.13377  -1.13346
  Beta  occ. eigenvalues --   -1.13325  -1.13274  -1.13265  -1.13231  -1.12833
  Beta  occ. eigenvalues --   -1.12756  -1.12728  -1.12534  -1.12480  -1.12459
  Beta  occ. eigenvalues --   -0.17522  -0.12965  -0.11633
  Beta virt. eigenvalues --   -0.06692  -0.05847  -0.05262  -0.04256  -0.02731
  Beta virt. eigenvalues --   -0.02164  -0.01857  -0.01300  -0.01093  -0.00489
  Beta virt. eigenvalues --   -0.00028   0.00211   0.00295   0.00640   0.00664

 Mulliken charges and spin densities:
               1          2
     1  Na  -0.842081   0.288833
     2  Na   0.121760   0.335484
     3  Na   0.323990  -0.010419
     4  Na   0.101164   0.040801
     5  Na   0.197188   0.131871
     6  Na   0.018839   0.034456
     7  Na   0.079140   0.178974
 Sum of Mulliken charges =  -0.00000   1.00000

 Dipole moment (field-independent basis, Debye):
    X=              0.4490    Y=             -0.1869    Z=              0.3738  Tot=              0.6134
 Quadrupole moment (field-independent basis, Debye-Ang):
   XX=            -52.5089   YY=            -66.2549   ZZ=            -71.1817
   XY=              0.0364   XZ=             -1.8286   YZ=              0.3945

 Normal termination of Gaussian 16 at Tue Dec  5 17:31:23 2023.
