 Gaussian 16, Revision B.01,
 Gaussian 16:  ES64L-G16RevB.01 20-Dec-2017

 -------------------------
 #P B3LYP/6-311+g(d) force
 -------------------------

 -----
 DPGEN
 -----
 Symbolic Z-matrix:
 Charge =  0 Multiplicity = 2

                         Standard orientation:
 ---------------------------------------------------------------------
 Center     Atomic      Atomic             Coordinates (Angstroms)
 Number     Number       Type             X           Y           Z
 ---------------------------------------------------------------------
      1         11           0        0.130682    1.012745   -0.617302
      2         11           0       -1.805413    3.511987    0.456695
      3         11           0       -3.428312    0.765447   -0.415521
      4         11           0       -0.511888   -1.595377    1.122936
      5         11           0        2.683855   -1.112056   -0.160086
      6         11           0       -2.675833   -3.076470   -0.320357
      7         11           0        5.606908    0.493722   -0.066364
 ---------------------------------------------------------------------

 SCF Done:  E(UB3LYP) =  -1136.12188845     A.U. after   18 cycles

 The electronic state is 2-A.
 Alpha  occ. eigenvalues --  -38.44581 -38.44210 -38.44110 -38.44086 -38.43791
 Alpha  occ. eigenvalues --  -38.43714 -38.43103  -2.20406  -2.20033  -2.20019
 Alpha  occ. eigenvalues --   -2.19896  -2.19714  -2.19543  -2.18956  -1.14105
 Alpha  occ. eigenvalues --   -1.14081  -1.14004  -1.13738  -1.13727  -1.13692
 Alpha  occ. eigenvalues --   -1.13685  -1.13671  -1.13590  -1.13529  -1.13527
 Alpha  occ. eigenvalues --   -1.13514  -1.13460  -1.13386  -1.13350  -1.13189
 Alpha  occ. eigenvalues --   -1.13173  -1.13148  -1.12645  -1.12625  -1.12608
 Alpha  occ. eigenvalues --   -0.17422  -0.13778  -0.12656  -0.10774
 Alpha virt. eigenvalues --   -0.05988  -0.05400  -0.04950  -0.03514  -0.02512
 Alpha virt. eigenvalues --   -0.02233  -0.02200  -0.01505  -0.00986  -0.00495
 Alpha virt. eigenvalues --   -0.00350  -0.00114   0.00475   0.00552   0.00573

  Beta  occ. eigenvalues --  -38.44550 -38.44209 -38.44077 -38.43976 -38.43769
  Beta  occ. eigenvalues --  -38.43698 -38.43100  -2.20349  -2.20032  -2.19960
  Beta  occ. eigenvalues --   -2.19690  -2.19679  -2.19513  -2.18960  -1.14066
  Beta  occ. eigenvalues --   -1.14044  -1.13959  -1.13711  -1.13697  -1.13687
  Beta  occ. eigenvalues --   -1.13667  -1.13651  -1.13552  -1.13437  -1.13389
  Beta  occ. eigenvalues --   -1.13386  -1.13380  -1.13363  -1.13311  -1.13168
  Beta  occ. eigenvalues --   -1.13144  -1.13125  -1.12657  -1.12636  -1.12543
  Beta  occ. eigenvalues --   -0.16923  -0.13097  -0.12307
  Beta virt. eigenvalues --   -0.07287  -0.05853  -0.05134  -0.04558  -0.03072
  Beta virt. eigenvalues --   -0.02358  -0.02061  -0.01827  -0.01288  -0.00683
  Beta virt. eigenvalues --   -0.00157  -0.00050   0.00054   0.00552   0.00626

 Mulliken charges and spin densities:
               1          2
     1  Na  -0.806117  -0.039423
     2  Na   0.284150  -0.019261
     3  Na   0.198127   0.319487
     4  Na   0.173514   0.002245
     5  Na  -0.253480   0.182936
     6  Na   0.172148   0.108335
     7  Na   0.231659   0.445681
 Sum of Mulliken charges =  -0.00000   1.00000

 Dipole moment (field-independent basis, Debye):
    X=             -1.3249    Y=              0.9192    Z=              0.1580  Tot=              1.6203
 Quadrupole moment (field-independent basis, Debye-Ang):
   XX=            -71.4606   YY=            -60.9004   ZZ=            -68.5406
   XY=             -0.0267   XZ=              1.4259   YZ=              2.8614

 Normal termination of Gaussian 16 at Wed Nov 29 00:11:56 2023.
