 Gaussian 16, Revision B.01,
 Gaussian 16:  ES64L-G16RevB.01 20-Dec-2017

 -------------------------
 #P B3LYP/6-311+g(d) force
 -------------------------

 -----
 DPGEN
 -----
 Symbolic Z-matrix:
 Charge =  0 Multiplicity = 2

                         Standard orientation:
 ---------------------------------------------------------------------
 Center     Atomic      Atomic             Coordinates (Angstroms)
 Number     Number       Type             X           Y           Z
 ---------------------------------------------------------------------
      1         11           0       -0.478652    2.865768   -0.292258
      2         11           0        2.481525    1.221180    0.573208
      3         11           0        2.789299   -1.913951   -0.248314
      4         11           0       -3.213862    0.320862   -0.052116
      5         11           0       -1.777323   -2.601289   -0.044809
      6         11           0        0.412818    0.176727   -1.760366
      7         11           0       -0.213804   -0.069297    1.824655
 ---------------------------------------------------------------------

 SCF Done:  E(UB3LYP) =  -1136.13452462     A.U. after   20 cycles

 The electronic state is 2-A.
 Alpha  occ. eigenvalues --  -38.44418 -38.43917 -38.43777 -38.43681 -38.43502
 Alpha  occ. eigenvalues --  -38.43389 -38.42845  -2.20244  -2.19731  -2.19609
 Alpha  occ. eigenvalues --   -2.19594  -2.19428  -2.19334  -2.18718  -1.13921
 Alpha  occ. eigenvalues --   -1.13911  -1.13881  -1.13425  -1.13397  -1.13375
 Alpha  occ. eigenvalues --   -1.13320  -1.13280  -1.13267  -1.13259  -1.13234
 Alpha  occ. eigenvalues --   -1.13210  -1.13105  -1.13049  -1.13045  -1.13015
 Alpha  occ. eigenvalues --   -1.12971  -1.12951  -1.12404  -1.12367  -1.12355
 Alpha  occ. eigenvalues --   -0.18620  -0.13439  -0.12087  -0.10693
 Alpha virt. eigenvalues --   -0.05900  -0.05276  -0.04489  -0.03409  -0.02686
 Alpha virt. eigenvalues --   -0.02460  -0.01706  -0.01128  -0.00529  -0.00265
 Alpha virt. eigenvalues --    0.00006   0.00346   0.00774   0.00826   0.00890

  Beta  occ. eigenvalues --  -38.44416 -38.43913 -38.43777 -38.43661 -38.43422
  Beta  occ. eigenvalues --  -38.43317 -38.42837  -2.20243  -2.19727  -2.19595
  Beta  occ. eigenvalues --   -2.19577  -2.19282  -2.19201  -2.18708  -1.13913
  Beta  occ. eigenvalues --   -1.13907  -1.13878  -1.13423  -1.13378  -1.13370
  Beta  occ. eigenvalues --   -1.13293  -1.13262  -1.13254  -1.13232  -1.13224
  Beta  occ. eigenvalues --   -1.13195  -1.13011  -1.12949  -1.12936  -1.12926
  Beta  occ. eigenvalues --   -1.12875  -1.12853  -1.12391  -1.12355  -1.12336
  Beta  occ. eigenvalues --   -0.17890  -0.13233  -0.11844
  Beta virt. eigenvalues --   -0.06775  -0.05863  -0.05206  -0.04474  -0.02646
  Beta virt. eigenvalues --   -0.01975  -0.01624  -0.01430  -0.01020  -0.00575
  Beta virt. eigenvalues --   -0.00261   0.00133   0.00374   0.00816   0.00857

 Mulliken charges and spin densities:
               1          2
     1  Na   0.087014  -0.049150
     2  Na   0.411937   0.139166
     3  Na  -0.110691  -0.111924
     4  Na   0.044201  -0.050929
     5  Na  -0.091869  -0.129218
     6  Na  -0.277866   0.708254
     7  Na  -0.062726   0.493801
 Sum of Mulliken charges =  -0.00000   1.00000

 Dipole moment (field-independent basis, Debye):
    X=             -0.2925    Y=             -0.2751    Z=              0.0190  Tot=              0.4020
 Quadrupole moment (field-independent basis, Debye-Ang):
   XX=            -55.7545   YY=            -63.0250   ZZ=            -74.8232
   XY=             -1.5516   XZ=              1.1889   YZ=              0.9471

 Normal termination of Gaussian 16 at Tue Dec  5 18:58:06 2023.
