 Gaussian 16, Revision B.01,
 Gaussian 16:  ES64L-G16RevB.01 20-Dec-2017

 -------------------------
 #P B3LYP/6-311+g(d) force
 -------------------------

 -----
 DPGEN
 -----
 Symbolic Z-matrix:
 Charge =  0 Multiplicity = 2

                         Standard orientation:
 ---------------------------------------------------------------------
 Center     Atomic      Atomic             Coordinates (Angstroms)
 Number     Number       Type             X           Y           Z
 ---------------------------------------------------------------------
      1         11           0       -0.142752    0.220790    1.865142
      2         11           0        2.025813   -2.169219   -0.377704
      3         11           0       -1.153281   -2.421290    0.357253
      4         11           0        2.607423    1.086989    0.273430
      5         11           0       -3.097698    0.270777   -0.160365
      6         11           0       -0.120194    2.913870   -0.151958
      7         11           0       -0.119311    0.098084   -1.805797
 ---------------------------------------------------------------------

 SCF Done:  E(UB3LYP) =  -1136.13944149     A.U. after   19 cycles

 The electronic state is 2-A.
 Alpha  occ. eigenvalues --  -38.43764 -38.43523 -38.43480 -38.43429 -38.43316
 Alpha  occ. eigenvalues --  -38.43310 -38.43239  -2.19609  -2.19419  -2.19402
 Alpha  occ. eigenvalues --   -2.19361  -2.19294  -2.19227  -2.19112  -1.13291
 Alpha  occ. eigenvalues --   -1.13274  -1.13250  -1.13159  -1.13104  -1.13098
 Alpha  occ. eigenvalues --   -1.13074  -1.13059  -1.13055  -1.13006  -1.12991
 Alpha  occ. eigenvalues --   -1.12971  -1.12966  -1.12923  -1.12913  -1.12895
 Alpha  occ. eigenvalues --   -1.12878  -1.12860  -1.12771  -1.12756  -1.12743
 Alpha  occ. eigenvalues --   -0.19154  -0.13002  -0.12696  -0.11046
 Alpha virt. eigenvalues --   -0.05337  -0.04862  -0.04714  -0.03252  -0.03046
 Alpha virt. eigenvalues --   -0.02660  -0.01321  -0.01069  -0.00128  -0.00058
 Alpha virt. eigenvalues --    0.00082   0.00374   0.00897   0.00916   0.00966

  Beta  occ. eigenvalues --  -38.43760 -38.43515 -38.43474 -38.43344 -38.43299
  Beta  occ. eigenvalues --  -38.43237 -38.43234  -2.19605  -2.19408  -2.19354
  Beta  occ. eigenvalues --   -2.19248  -2.19211  -2.19149  -2.19104  -1.13286
  Beta  occ. eigenvalues --   -1.13256  -1.13245  -1.13134  -1.13086  -1.13051
  Beta  occ. eigenvalues --   -1.13038  -1.13013  -1.13007  -1.12962  -1.12928
  Beta  occ. eigenvalues --   -1.12901  -1.12900  -1.12866  -1.12853  -1.12834
  Beta  occ. eigenvalues --   -1.12813  -1.12805  -1.12752  -1.12742  -1.12732
  Beta  occ. eigenvalues --   -0.18402  -0.12733  -0.12436
  Beta virt. eigenvalues --   -0.07098  -0.05331  -0.04817  -0.04705  -0.02409
  Beta virt. eigenvalues --   -0.02267  -0.01591  -0.01246  -0.00999  -0.00133
  Beta virt. eigenvalues --   -0.00073   0.00140   0.00387   0.00902   0.00922

 Mulliken charges and spin densities:
               1          2
     1  Na  -0.254951   0.542461
     2  Na   0.031967  -0.032475
     3  Na   0.216899   0.028732
     4  Na   0.190641   0.007553
     5  Na   0.066812  -0.122246
     6  Na   0.111739  -0.125748
     7  Na  -0.363106   0.701723
 Sum of Mulliken charges =  -0.00000   1.00000

 Dipole moment (field-independent basis, Debye):
    X=             -0.2041    Y=              0.2339    Z=             -0.0067  Tot=              0.3105
 Quadrupole moment (field-independent basis, Debye-Ang):
   XX=            -59.0000   YY=            -62.1624   ZZ=            -72.8880
   XY=             -0.6303   XZ=              0.1318   YZ=             -0.1788

 Normal termination of Gaussian 16 at Fri Dec  8 07:07:37 2023.
