 Gaussian 16, Revision B.01,
 Gaussian 16:  ES64L-G16RevB.01 20-Dec-2017

 -------------------------
 #P B3LYP/6-311+g(d) force
 -------------------------

 -----
 DPGEN
 -----
 Symbolic Z-matrix:
 Charge =  0 Multiplicity = 2

                         Standard orientation:
 ---------------------------------------------------------------------
 Center     Atomic      Atomic             Coordinates (Angstroms)
 Number     Number       Type             X           Y           Z
 ---------------------------------------------------------------------
      1         11           0        0.094214   -0.103435   -0.513550
      2         11           0        1.590757    3.209505   -0.211426
      3         11           0       -2.013585   -1.913147    1.442161
      4         11           0       -1.937903    2.818143    0.568967
      5         11           0        1.644388   -2.908158   -0.329092
      6         11           0       -3.491811   -0.766873   -1.166179
      7         11           0        4.113939   -0.336035    0.209119
 ---------------------------------------------------------------------

 SCF Done:  E(UB3LYP) =  -1136.11809494     A.U. after   23 cycles

 The electronic state is 2-A.
 Alpha  occ. eigenvalues --  -38.44937 -38.44846 -38.44484 -38.43854 -38.43808
 Alpha  occ. eigenvalues --  -38.43460 -38.43359  -2.20752  -2.20610  -2.20244
 Alpha  occ. eigenvalues --   -2.19711  -2.19670  -2.19251  -2.19212  -1.14440
 Alpha  occ. eigenvalues --   -1.14423  -1.14380  -1.14295  -1.14266  -1.14227
 Alpha  occ. eigenvalues --   -1.13933  -1.13914  -1.13863  -1.13444  -1.13427
 Alpha  occ. eigenvalues --   -1.13343  -1.13338  -1.13286  -1.13280  -1.12915
 Alpha  occ. eigenvalues --   -1.12894  -1.12869  -1.12866  -1.12851  -1.12828
 Alpha  occ. eigenvalues --   -0.17064  -0.13339  -0.12826  -0.09363
 Alpha virt. eigenvalues --   -0.06461  -0.06188  -0.05185  -0.02777  -0.02644
 Alpha virt. eigenvalues --   -0.02329  -0.01912  -0.01757  -0.01276  -0.00879
 Alpha virt. eigenvalues --   -0.00168   0.00094   0.00410   0.00450   0.00609

  Beta  occ. eigenvalues --  -38.44933 -38.44835 -38.44487 -38.43841 -38.43804
  Beta  occ. eigenvalues --  -38.43387 -38.43284  -2.20750  -2.20589  -2.20250
  Beta  occ. eigenvalues --   -2.19702  -2.19649  -2.19114  -2.19071  -1.14436
  Beta  occ. eigenvalues --   -1.14425  -1.14349  -1.14281  -1.14254  -1.14205
  Beta  occ. eigenvalues --   -1.13940  -1.13921  -1.13850  -1.13432  -1.13415
  Beta  occ. eigenvalues --   -1.13347  -1.13327  -1.13276  -1.13247  -1.12820
  Beta  occ. eigenvalues --   -1.12799  -1.12776  -1.12773  -1.12755  -1.12735
  Beta  occ. eigenvalues --   -0.16738  -0.12739  -0.12496
  Beta virt. eigenvalues --   -0.06421  -0.06072  -0.05848  -0.04902  -0.02582
  Beta virt. eigenvalues --   -0.02194  -0.01968  -0.01785  -0.01463  -0.01046
  Beta virt. eigenvalues --   -0.00660   0.00112   0.00325   0.00498   0.00613

 Mulliken charges and spin densities:
               1          2
     1  Na  -2.074859  -0.208225
     2  Na   0.357827   0.052467
     3  Na   0.468895   0.096538
     4  Na   0.295004   0.022080
     5  Na   0.370220   0.035032
     6  Na   0.374735   0.498157
     7  Na   0.208177   0.503953
 Sum of Mulliken charges =  -0.00000   1.00000

 Dipole moment (field-independent basis, Debye):
    X=             -0.8613    Y=              0.2129    Z=              0.9633  Tot=              1.3096
 Quadrupole moment (field-independent basis, Debye-Ang):
   XX=            -75.2180   YY=            -60.4183   ZZ=            -66.6736
   XY=             -1.5351   XZ=             -4.4182   YZ=             -0.8308

 Normal termination of Gaussian 16 at Tue Dec  5 20:05:53 2023.
