 Gaussian 16, Revision B.01,
 Gaussian 16:  ES64L-G16RevB.01 20-Dec-2017

 -------------------------
 #P B3LYP/6-311+g(d) force
 -------------------------

 -----
 DPGEN
 -----
 Symbolic Z-matrix:
 Charge =  0 Multiplicity = 2

                         Standard orientation:
 ---------------------------------------------------------------------
 Center     Atomic      Atomic             Coordinates (Angstroms)
 Number     Number       Type             X           Y           Z
 ---------------------------------------------------------------------
      1         11           0       -3.266997    0.010065    1.214742
      2         11           0       -1.797994    2.724812   -0.896101
      3         11           0        3.609450   -0.649979   -0.083802
      4         11           0        2.062621    2.050085    0.536028
      5         11           0        0.185250   -0.464983   -1.903350
      6         11           0       -1.291809   -2.773884   -0.748720
      7         11           0        0.499480   -0.896117    1.881203
 ---------------------------------------------------------------------

 SCF Done:  E(UB3LYP) =  -1136.12246271     A.U. after   21 cycles

 The electronic state is 2-A.
 Alpha  occ. eigenvalues --  -38.44940 -38.44824 -38.44517 -38.44204 -38.43844
 Alpha  occ. eigenvalues --  -38.43294 -38.43149  -2.20751  -2.20583  -2.20345
 Alpha  occ. eigenvalues --   -2.20024  -2.19738  -2.19141  -2.18909  -1.14429
 Alpha  occ. eigenvalues --   -1.14411  -1.14392  -1.14260  -1.14224  -1.14212
 Alpha  occ. eigenvalues --   -1.14033  -1.13997  -1.13950  -1.13710  -1.13692
 Alpha  occ. eigenvalues --   -1.13645  -1.13453  -1.13379  -1.13349  -1.12836
 Alpha  occ. eigenvalues --   -1.12775  -1.12759  -1.12585  -1.12562  -1.12558
 Alpha  occ. eigenvalues --   -0.17681  -0.13341  -0.11541  -0.11142
 Alpha virt. eigenvalues --   -0.06409  -0.05315  -0.04618  -0.03469  -0.02992
 Alpha virt. eigenvalues --   -0.02861  -0.02079  -0.01011  -0.00715  -0.00210
 Alpha virt. eigenvalues --   -0.00088   0.00259   0.00387   0.00690   0.00701

  Beta  occ. eigenvalues --  -38.44942 -38.44791 -38.44460 -38.44201 -38.43762
  Beta  occ. eigenvalues --  -38.43284 -38.43140  -2.20756  -2.20521  -2.20239
  Beta  occ. eigenvalues --   -2.20021  -2.19588  -2.19126  -2.18895  -1.14435
  Beta  occ. eigenvalues --   -1.14400  -1.14397  -1.14211  -1.14184  -1.14168
  Beta  occ. eigenvalues --   -1.13963  -1.13922  -1.13870  -1.13702  -1.13690
  Beta  occ. eigenvalues --   -1.13635  -1.13354  -1.13273  -1.13242  -1.12807
  Beta  occ. eigenvalues --   -1.12770  -1.12737  -1.12570  -1.12554  -1.12546
  Beta  occ. eigenvalues --   -0.17008  -0.13082  -0.11312
  Beta virt. eigenvalues --   -0.07424  -0.06186  -0.05258  -0.04251  -0.02992
  Beta virt. eigenvalues --   -0.02448  -0.01994  -0.01871  -0.00961  -0.00559
  Beta virt. eigenvalues --   -0.00174   0.00017   0.00331   0.00493   0.00749

 Mulliken charges and spin densities:
               1          2
     1  Na  -0.191890   0.113345
     2  Na  -0.056038   0.010967
     3  Na   0.251803   0.018942
     4  Na  -0.289760   0.046535
     5  Na   0.313588   0.403480
     6  Na  -0.222435   0.088665
     7  Na   0.194733   0.318067
 Sum of Mulliken charges =  -0.00000   1.00000

 Dipole moment (field-independent basis, Debye):
    X=              1.0136    Y=             -0.5737    Z=              0.4888  Tot=              1.2631
 Quadrupole moment (field-independent basis, Debye-Ang):
   XX=            -54.1816   YY=            -70.3784   ZZ=            -71.3116
   XY=              0.9288   XZ=             -2.1397   YZ=             -0.1531

 Normal termination of Gaussian 16 at Sun Dec  3 23:03:43 2023.
