 Gaussian 16, Revision B.01,
 Gaussian 16:  ES64L-G16RevB.01 20-Dec-2017

 -------------------------
 #P B3LYP/6-311+g(d) force
 -------------------------

 -----
 DPGEN
 -----
 Symbolic Z-matrix:
 Charge =  0 Multiplicity = 2

                         Standard orientation:
 ---------------------------------------------------------------------
 Center     Atomic      Atomic             Coordinates (Angstroms)
 Number     Number       Type             X           Y           Z
 ---------------------------------------------------------------------
      1         11           0        0.972896   -2.563665   -0.846763
      2         11           0        3.204466   -0.114992    0.686449
      3         11           0        1.618493    1.958803   -1.006081
      4         11           0        0.087722   -0.458229    2.062025
      5         11           0       -3.144131   -1.397901    0.206852
      6         11           0       -1.789813    2.637997    0.386851
      7         11           0       -0.949633   -0.062014   -1.489334
 ---------------------------------------------------------------------

 SCF Done:  E(UB3LYP) =  -1136.12864826     A.U. after   19 cycles

 The electronic state is 2-A.
 Alpha  occ. eigenvalues --  -38.44672 -38.44064 -38.44027 -38.43847 -38.43790
 Alpha  occ. eigenvalues --  -38.43396 -38.43021  -2.20472  -2.19921  -2.19880
 Alpha  occ. eigenvalues --   -2.19676  -2.19581  -2.19262  -2.19024  -1.14184
 Alpha  occ. eigenvalues --   -1.14120  -1.14093  -1.13602  -1.13577  -1.13568
 Alpha  occ. eigenvalues --   -1.13553  -1.13518  -1.13497  -1.13385  -1.13323
 Alpha  occ. eigenvalues --   -1.13287  -1.13258  -1.13248  -1.13215  -1.12960
 Alpha  occ. eigenvalues --   -1.12921  -1.12875  -1.12701  -1.12684  -1.12630
 Alpha  occ. eigenvalues --   -0.18344  -0.13129  -0.11914  -0.11083
 Alpha virt. eigenvalues --   -0.06196  -0.05187  -0.04177  -0.03443  -0.02942
 Alpha virt. eigenvalues --   -0.02670  -0.01808  -0.01174  -0.00512   0.00018
 Alpha virt. eigenvalues --    0.00072   0.00342   0.00500   0.00761   0.00794

  Beta  occ. eigenvalues --  -38.44672 -38.44018 -38.43981 -38.43821 -38.43789
  Beta  occ. eigenvalues --  -38.43376 -38.42969  -2.20474  -2.19866  -2.19768
  Beta  occ. eigenvalues --   -2.19631  -2.19580  -2.19228  -2.18931  -1.14182
  Beta  occ. eigenvalues --   -1.14115  -1.14093  -1.13573  -1.13530  -1.13501
  Beta  occ. eigenvalues --   -1.13481  -1.13448  -1.13417  -1.13343  -1.13282
  Beta  occ. eigenvalues --   -1.13258  -1.13252  -1.13245  -1.13210  -1.12926
  Beta  occ. eigenvalues --   -1.12894  -1.12852  -1.12642  -1.12608  -1.12557
  Beta  occ. eigenvalues --   -0.17606  -0.12953  -0.11682
  Beta virt. eigenvalues --   -0.07173  -0.06138  -0.05039  -0.03979  -0.02857
  Beta virt. eigenvalues --   -0.02307  -0.01764  -0.01617  -0.01084  -0.00378
  Beta virt. eigenvalues --    0.00030   0.00131   0.00372   0.00622   0.00787

 Mulliken charges and spin densities:
               1          2
     1  Na  -0.160391   0.118643
     2  Na   0.318927   0.064534
     3  Na  -0.186271   0.092423
     4  Na  -0.325657   0.571180
     5  Na   0.167203   0.060415
     6  Na  -0.046634   0.095863
     7  Na   0.232822  -0.003059
 Sum of Mulliken charges =  -0.00000   1.00000

 Dipole moment (field-independent basis, Debye):
    X=             -0.4042    Y=             -0.3303    Z=              0.4620  Tot=              0.6971
 Quadrupole moment (field-independent basis, Debye-Ang):
   XX=            -54.7172   YY=            -66.8319   ZZ=            -71.8631
   XY=              0.0147   XZ=             -1.9298   YZ=              1.2563

 Normal termination of Gaussian 16 at Fri Dec  8 02:22:43 2023.
