 Gaussian 16, Revision B.01,
 Gaussian 16:  ES64L-G16RevB.01 20-Dec-2017

 -------------------------
 #P B3LYP/6-311+g(d) force
 -------------------------

 -----
 DPGEN
 -----
 Symbolic Z-matrix:
 Charge =  0 Multiplicity = 2

                         Standard orientation:
 ---------------------------------------------------------------------
 Center     Atomic      Atomic             Coordinates (Angstroms)
 Number     Number       Type             X           Y           Z
 ---------------------------------------------------------------------
      1         11           0       -4.680288   -1.317234    1.468024
      2         11           0       -3.110606    0.539766   -1.017965
      3         11           0        0.275805   -0.987661   -1.274214
      4         11           0        1.911519   -3.020195   -0.156620
      5         11           0        4.015784   -0.681494    0.560105
      6         11           0        2.328825    2.719138    0.787519
      7         11           0       -0.741039    2.747679   -0.366849
 ---------------------------------------------------------------------

 SCF Done:  E(UB3LYP) =  -1136.11441176     A.U. after   19 cycles

 The electronic state is 2-A.
 Alpha  occ. eigenvalues --  -38.45010 -38.44775 -38.44770 -38.44127 -38.43957
 Alpha  occ. eigenvalues --  -38.43815 -38.43487  -2.20811  -2.20637  -2.20564
 Alpha  occ. eigenvalues --   -2.20015  -2.19773  -2.19643  -2.19270  -1.14485
 Alpha  occ. eigenvalues --   -1.14456  -1.14445  -1.14403  -1.14283  -1.14263
 Alpha  occ. eigenvalues --   -1.14197  -1.14196  -1.14175  -1.13684  -1.13637
 Alpha  occ. eigenvalues --   -1.13629  -1.13475  -1.13443  -1.13433  -1.13315
 Alpha  occ. eigenvalues --   -1.13310  -1.13270  -1.12947  -1.12934  -1.12911
 Alpha  occ. eigenvalues --   -0.16715  -0.14182  -0.12419  -0.11192
 Alpha virt. eigenvalues --   -0.06574  -0.05772  -0.04186  -0.03959  -0.02873
 Alpha virt. eigenvalues --   -0.02304  -0.01884  -0.01414  -0.01258  -0.00802
 Alpha virt. eigenvalues --   -0.00467  -0.00123   0.00105   0.00379   0.00689

  Beta  occ. eigenvalues --  -38.44969 -38.44731 -38.44657 -38.44117 -38.43966
  Beta  occ. eigenvalues --  -38.43807 -38.43489  -2.20733  -2.20556  -2.20352
  Beta  occ. eigenvalues --   -2.19999  -2.19796  -2.19627  -2.19274  -1.14433
  Beta  occ. eigenvalues --   -1.14407  -1.14385  -1.14341  -1.14227  -1.14213
  Beta  occ. eigenvalues --   -1.14053  -1.14051  -1.14036  -1.13657  -1.13626
  Beta  occ. eigenvalues --   -1.13618  -1.13493  -1.13465  -1.13403  -1.13308
  Beta  occ. eigenvalues --   -1.13302  -1.13260  -1.12950  -1.12939  -1.12906
  Beta  occ. eigenvalues --   -0.16277  -0.13673  -0.12019
  Beta virt. eigenvalues --   -0.07734  -0.06077  -0.05479  -0.03847  -0.03784
  Beta virt. eigenvalues --   -0.02466  -0.02083  -0.01537  -0.01267  -0.01028
  Beta virt. eigenvalues --   -0.00569  -0.00106   0.00082   0.00309   0.00520

 Mulliken charges and spin densities:
               1          2
     1  Na   0.011380   0.567766
     2  Na   0.290889  -0.129331
     3  Na  -1.179446   0.168954
     4  Na   0.926364   0.068203
     5  Na  -0.116646   0.225605
     6  Na   0.156717   0.121442
     7  Na  -0.089257  -0.022638
 Sum of Mulliken charges =  -0.00000   1.00000

 Dipole moment (field-independent basis, Debye):
    X=              0.5283    Y=             -0.9850    Z=              0.2821  Tot=              1.1528
 Quadrupole moment (field-independent basis, Debye-Ang):
   XX=            -64.2614   YY=            -66.1689   ZZ=            -69.6334
   XY=             -4.7426   XZ=              0.9813   YZ=             -3.2341

 Normal termination of Gaussian 16 at Sun Dec  3 13:29:52 2023.
