 Gaussian 16, Revision B.01,
 Gaussian 16:  ES64L-G16RevB.01 20-Dec-2017

 -------------------------
 #P B3LYP/6-311+g(d) force
 -------------------------

 -----
 DPGEN
 -----
 Symbolic Z-matrix:
 Charge =  0 Multiplicity = 2

                         Standard orientation:
 ---------------------------------------------------------------------
 Center     Atomic      Atomic             Coordinates (Angstroms)
 Number     Number       Type             X           Y           Z
 ---------------------------------------------------------------------
      1         11           0       -0.157351   -2.506095    0.309905
      2         11           0       -1.874878    2.287918   -0.334189
      3         11           0        3.079174   -1.193246   -0.187892
      4         11           0        0.281525    0.104805   -1.692022
      5         11           0       -3.233134   -1.090272   -0.209102
      6         11           0        2.182258    1.902677    0.157604
      7         11           0       -0.277594    0.494213    1.955697
 ---------------------------------------------------------------------

 SCF Done:  E(UB3LYP) =  -1136.13431183     A.U. after   20 cycles

 The electronic state is 2-A.
 Alpha  occ. eigenvalues --  -38.44547 -38.44134 -38.43749 -38.43515 -38.43456
 Alpha  occ. eigenvalues --  -38.43393 -38.42816  -2.20341  -2.19980  -2.19635
 Alpha  occ. eigenvalues --   -2.19428  -2.19363  -2.19319  -2.18698  -1.14012
 Alpha  occ. eigenvalues --   -1.13999  -1.13984  -1.13660  -1.13645  -1.13625
 Alpha  occ. eigenvalues --   -1.13343  -1.13311  -1.13252  -1.13122  -1.13091
 Alpha  occ. eigenvalues --   -1.13060  -1.13054  -1.13002  -1.12985  -1.12982
 Alpha  occ. eigenvalues --   -1.12933  -1.12926  -1.12395  -1.12368  -1.12311
 Alpha  occ. eigenvalues --   -0.18781  -0.13422  -0.12060  -0.10764
 Alpha virt. eigenvalues --   -0.06129  -0.05430  -0.03958  -0.03358  -0.02760
 Alpha virt. eigenvalues --   -0.02473  -0.01943  -0.01242  -0.00299  -0.00101
 Alpha virt. eigenvalues --   -0.00008   0.00317   0.00719   0.00822   0.00921

  Beta  occ. eigenvalues --  -38.44547 -38.44132 -38.43740 -38.43506 -38.43392
  Beta  occ. eigenvalues --  -38.43302 -38.42804  -2.20342  -2.19979  -2.19623
  Beta  occ. eigenvalues --   -2.19350  -2.19312  -2.19151  -2.18681  -1.14006
  Beta  occ. eigenvalues --   -1.13993  -1.13986  -1.13662  -1.13633  -1.13617
  Beta  occ. eigenvalues --   -1.13332  -1.13271  -1.13245  -1.13068  -1.13026
  Beta  occ. eigenvalues --   -1.13022  -1.12982  -1.12972  -1.12935  -1.12875
  Beta  occ. eigenvalues --   -1.12818  -1.12812  -1.12387  -1.12327  -1.12305
  Beta  occ. eigenvalues --   -0.18050  -0.13195  -0.11812
  Beta virt. eigenvalues --   -0.06848  -0.06052  -0.05426  -0.03926  -0.02608
  Beta virt. eigenvalues --   -0.01988  -0.01843  -0.01424  -0.01203  -0.00349
  Beta virt. eigenvalues --   -0.00070   0.00106   0.00344   0.00786   0.00818

 Mulliken charges and spin densities:
               1          2
     1  Na   0.126869  -0.028167
     2  Na   0.192179  -0.077487
     3  Na   0.098943  -0.006957
     4  Na  -0.416370   0.561212
     5  Na  -0.047498  -0.051194
     6  Na   0.436261  -0.061419
     7  Na  -0.390384   0.664011
 Sum of Mulliken charges =  -0.00000   1.00000

 Dipole moment (field-independent basis, Debye):
    X=             -0.1281    Y=              0.0722    Z=             -0.0120  Tot=              0.1475
 Quadrupole moment (field-independent basis, Debye-Ang):
   XX=            -50.9541   YY=            -67.7096   ZZ=            -74.1421
   XY=             -0.2805   XZ=              1.0520   YZ=             -0.3888

 Normal termination of Gaussian 16 at Thu Dec  7 12:24:26 2023.
