 Gaussian 16, Revision B.01,
 Gaussian 16:  ES64L-G16RevB.01 20-Dec-2017

 -------------------------
 #P B3LYP/6-311+g(d) force
 -------------------------

 -----
 DPGEN
 -----
 Symbolic Z-matrix:
 Charge =  0 Multiplicity = 2

                         Standard orientation:
 ---------------------------------------------------------------------
 Center     Atomic      Atomic             Coordinates (Angstroms)
 Number     Number       Type             X           Y           Z
 ---------------------------------------------------------------------
      1         11           0       -0.199532    0.014707    2.122259
      2         11           0        3.237073   -1.291755    0.188364
      3         11           0       -3.086618   -1.483394   -0.298135
      4         11           0       -1.976228    2.600479    0.199242
      5         11           0       -0.050516    0.486576   -1.498739
      6         11           0        1.993832    2.508714   -0.381842
      7         11           0        0.081989   -2.835327   -0.331149
 ---------------------------------------------------------------------

 SCF Done:  E(UB3LYP) =  -1136.13147607     A.U. after   19 cycles

 The electronic state is 2-A.
 Alpha  occ. eigenvalues --  -38.44301 -38.44201 -38.44103 -38.44071 -38.43777
 Alpha  occ. eigenvalues --  -38.43422 -38.43271  -2.20097  -2.20012  -2.19868
 Alpha  occ. eigenvalues --   -2.19856  -2.19618  -2.19261  -2.19219  -1.13782
 Alpha  occ. eigenvalues --   -1.13761  -1.13736  -1.13724  -1.13663  -1.13621
 Alpha  occ. eigenvalues --   -1.13543  -1.13527  -1.13527  -1.13514  -1.13510
 Alpha  occ. eigenvalues --   -1.13497  -1.13286  -1.13248  -1.13228  -1.12960
 Alpha  occ. eigenvalues --   -1.12933  -1.12904  -1.12881  -1.12852  -1.12847
 Alpha  occ. eigenvalues --   -0.17945  -0.12685  -0.12432  -0.10444
 Alpha virt. eigenvalues --   -0.05959  -0.05560  -0.04805  -0.02968  -0.02848
 Alpha virt. eigenvalues --   -0.02421  -0.01692  -0.01617  -0.00796  -0.00469
 Alpha virt. eigenvalues --   -0.00046   0.00296   0.00694   0.00746   0.00850

  Beta  occ. eigenvalues --  -38.44295 -38.44187 -38.44104 -38.44065 -38.43677
  Beta  occ. eigenvalues --  -38.43415 -38.43223  -2.20089  -2.19991  -2.19871
  Beta  occ. eigenvalues --   -2.19847  -2.19434  -2.19251  -2.19132  -1.13773
  Beta  occ. eigenvalues --   -1.13740  -1.13722  -1.13711  -1.13638  -1.13610
  Beta  occ. eigenvalues --   -1.13541  -1.13524  -1.13516  -1.13513  -1.13502
  Beta  occ. eigenvalues --   -1.13490  -1.13162  -1.13122  -1.13093  -1.12948
  Beta  occ. eigenvalues --   -1.12915  -1.12869  -1.12839  -1.12790  -1.12785
  Beta  occ. eigenvalues --   -0.17270  -0.12420  -0.12248
  Beta virt. eigenvalues --   -0.06637  -0.05855  -0.05487  -0.04751  -0.02262
  Beta virt. eigenvalues --   -0.02193  -0.01584  -0.01509  -0.01398  -0.00828
  Beta virt. eigenvalues --   -0.00494   0.00112   0.00346   0.00708   0.00805

 Mulliken charges and spin densities:
               1          2
     1  Na  -0.383733   0.781841
     2  Na  -0.019589  -0.001073
     3  Na   0.102723  -0.027733
     4  Na   0.082015  -0.041249
     5  Na   0.008067   0.285745
     6  Na   0.185210  -0.017555
     7  Na   0.025307   0.020024
 Sum of Mulliken charges =  -0.00000   1.00000

 Dipole moment (field-independent basis, Debye):
    X=             -0.1277    Y=              0.4293    Z=              0.1612  Tot=              0.4760
 Quadrupole moment (field-independent basis, Debye-Ang):
   XX=            -55.1950   YY=            -61.1055   ZZ=            -76.2996
   XY=             -0.5919   XZ=              0.6127   YZ=              0.8078

 Normal termination of Gaussian 16 at Thu Dec  7 04:26:11 2023.
