 Gaussian 16, Revision B.01,
 Gaussian 16:  ES64L-G16RevB.01 20-Dec-2017

 -------------------------
 #P B3LYP/6-311+g(d) force
 -------------------------

 -----
 DPGEN
 -----
 Symbolic Z-matrix:
 Charge =  0 Multiplicity = 2

                         Standard orientation:
 ---------------------------------------------------------------------
 Center     Atomic      Atomic             Coordinates (Angstroms)
 Number     Number       Type             X           Y           Z
 ---------------------------------------------------------------------
      1         11           0       -1.031545   -3.207143   -0.161432
      2         11           0        4.107003   -0.227512   -0.566063
      3         11           0        2.799919    2.702552    0.008374
      4         11           0       -0.635262    3.384817    0.205602
      5         11           0        2.725201   -2.737714    0.642552
      6         11           0       -3.980351    1.938161    0.040864
      7         11           0       -3.984965   -1.853160   -0.169897
 ---------------------------------------------------------------------

 SCF Done:  E(UB3LYP) =  -1136.10765550     A.U. after   24 cycles

 The electronic state is 2-A.
 Alpha  occ. eigenvalues --  -38.45080 -38.45044 -38.44842 -38.44705 -38.44455
 Alpha  occ. eigenvalues --  -38.44278 -38.43812  -2.20903  -2.20787  -2.20618
 Alpha  occ. eigenvalues --   -2.20491  -2.20234  -2.20094  -2.19633  -1.14592
 Alpha  occ. eigenvalues --   -1.14568  -1.14561  -1.14479  -1.14472  -1.14421
 Alpha  occ. eigenvalues --   -1.14298  -1.14289  -1.14268  -1.14157  -1.14138
 Alpha  occ. eigenvalues --   -1.14117  -1.13892  -1.13874  -1.13859  -1.13752
 Alpha  occ. eigenvalues --   -1.13738  -1.13725  -1.13286  -1.13277  -1.13268
 Alpha  occ. eigenvalues --   -0.15693  -0.14201  -0.13438  -0.10881
 Alpha virt. eigenvalues --   -0.07914  -0.04675  -0.04459  -0.03624  -0.03580
 Alpha virt. eigenvalues --   -0.02631  -0.02207  -0.02055  -0.01232  -0.00634
 Alpha virt. eigenvalues --   -0.00435  -0.00241   0.00224   0.00285   0.00460

  Beta  occ. eigenvalues --  -38.45069 -38.45046 -38.44812 -38.44681 -38.44389
  Beta  occ. eigenvalues --  -38.44230 -38.43756  -2.20890  -2.20796  -2.20568
  Beta  occ. eigenvalues --   -2.20453  -2.20112  -2.20006  -2.19529  -1.14571
  Beta  occ. eigenvalues --   -1.14559  -1.14529  -1.14491  -1.14483  -1.14387
  Beta  occ. eigenvalues --   -1.14261  -1.14259  -1.14218  -1.14135  -1.14116
  Beta  occ. eigenvalues --   -1.14066  -1.13810  -1.13794  -1.13774  -1.13691
  Beta  occ. eigenvalues --   -1.13679  -1.13665  -1.13217  -1.13207  -1.13201
  Beta  occ. eigenvalues --   -0.15160  -0.13427  -0.12655
  Beta virt. eigenvalues --   -0.08110  -0.07783  -0.04225  -0.03908  -0.03408
  Beta virt. eigenvalues --   -0.03296  -0.02409  -0.02007  -0.01825  -0.01111
  Beta virt. eigenvalues --   -0.00294  -0.00126  -0.00054   0.00242   0.00354

 Mulliken charges and spin densities:
               1          2
     1  Na  -0.419005   0.092706
     2  Na  -0.215129   0.088905
     3  Na   0.022893   0.265925
     4  Na   0.259087   0.005111
     5  Na  -0.235282   0.233824
     6  Na   0.109093   0.258472
     7  Na   0.478344   0.055057
 Sum of Mulliken charges =  -0.00000   1.00000

 Dipole moment (field-independent basis, Debye):
    X=             -0.0727    Y=             -0.4145    Z=             -0.0332  Tot=              0.4221
 Quadrupole moment (field-independent basis, Debye-Ang):
   XX=            -57.4045   YY=            -70.3616   ZZ=            -72.9535
   XY=              0.4184   XZ=             -0.9591   YZ=             -0.4442

 Normal termination of Gaussian 16 at Mon Dec  4 00:19:11 2023.
