 Gaussian 16, Revision B.01,
 Gaussian 16:  ES64L-G16RevB.01 20-Dec-2017

 -------------------------
 #P B3LYP/6-311+g(d) force
 -------------------------

 -----
 DPGEN
 -----
 Symbolic Z-matrix:
 Charge =  0 Multiplicity = 2

                         Standard orientation:
 ---------------------------------------------------------------------
 Center     Atomic      Atomic             Coordinates (Angstroms)
 Number     Number       Type             X           Y           Z
 ---------------------------------------------------------------------
      1         11           0       -2.347039    1.427812   -0.531821
      2         11           0        3.060984    0.817468    0.237846
      3         11           0       -0.363280   -1.427807   -1.370581
      4         11           0       -0.608022    0.157501    2.015091
      5         11           0        3.282971   -2.218908   -0.018421
      6         11           0       -3.804849   -1.470575    0.202802
      7         11           0        0.779236    2.714509   -0.534916
 ---------------------------------------------------------------------

 SCF Done:  E(UB3LYP) =  -1136.11877663     A.U. after   24 cycles

 The electronic state is 2-A.
 Alpha  occ. eigenvalues --  -38.45231 -38.44687 -38.44496 -38.44202 -38.44181
 Alpha  occ. eigenvalues --  -38.43873 -38.42786  -2.21015  -2.20482  -2.20365
 Alpha  occ. eigenvalues --   -2.20098  -2.20025  -2.19676  -2.18649  -1.14706
 Alpha  occ. eigenvalues --   -1.14667  -1.14647  -1.14182  -1.14150  -1.14075
 Alpha  occ. eigenvalues --   -1.14074  -1.14025  -1.14014  -1.13806  -1.13772
 Alpha  occ. eigenvalues --   -1.13718  -1.13694  -1.13662  -1.13613  -1.13361
 Alpha  occ. eigenvalues --   -1.13328  -1.13309  -1.12352  -1.12295  -1.12279
 Alpha  occ. eigenvalues --   -0.18007  -0.14009  -0.11805  -0.10261
 Alpha virt. eigenvalues --   -0.07061  -0.06155  -0.04152  -0.03435  -0.02679
 Alpha virt. eigenvalues --   -0.02530  -0.02170  -0.01574  -0.00978  -0.00307
 Alpha virt. eigenvalues --   -0.00097   0.00141   0.00427   0.00501   0.00663

  Beta  occ. eigenvalues --  -38.45232 -38.44637 -38.44496 -38.44181 -38.44089
  Beta  occ. eigenvalues --  -38.43881 -38.42778  -2.21019  -2.20392  -2.20365
  Beta  occ. eigenvalues --   -2.20065  -2.19854  -2.19693  -2.18635  -1.14711
  Beta  occ. eigenvalues --   -1.14652  -1.14648  -1.14117  -1.14081  -1.14077
  Beta  occ. eigenvalues --   -1.14024  -1.14011  -1.14005  -1.13777  -1.13711
  Beta  occ. eigenvalues --   -1.13698  -1.13578  -1.13550  -1.13490  -1.13372
  Beta  occ. eigenvalues --   -1.13335  -1.13318  -1.12343  -1.12282  -1.12258
  Beta  occ. eigenvalues --   -0.17316  -0.13914  -0.11624
  Beta virt. eigenvalues --   -0.06912  -0.06395  -0.06075  -0.03961  -0.02906
  Beta virt. eigenvalues --   -0.02520  -0.01972  -0.01548  -0.01275  -0.00856
  Beta virt. eigenvalues --   -0.00149   0.00039   0.00186   0.00546   0.00674

 Mulliken charges and spin densities:
               1          2
     1  Na   0.137345   0.305222
     2  Na  -0.127113   0.132947
     3  Na  -0.577082   0.214170
     4  Na  -0.396810   0.496404
     5  Na   0.299474  -0.117036
     6  Na   0.666962   0.053601
     7  Na  -0.002776  -0.085307
 Sum of Mulliken charges =  -0.00000   1.00000

 Dipole moment (field-independent basis, Debye):
    X=             -1.1111    Y=             -0.6504    Z=             -0.0075  Tot=              1.2875
 Quadrupole moment (field-independent basis, Debye-Ang):
   XX=            -50.2285   YY=            -67.7738   ZZ=            -77.1055
   XY=              2.6019   XZ=              0.7719   YZ=             -1.2552

 Normal termination of Gaussian 16 at Thu Dec  7 16:00:19 2023.
