 Gaussian 16, Revision B.01,
 Gaussian 16:  ES64L-G16RevB.01 20-Dec-2017

 -------------------------
 #P B3LYP/6-311+g(d) force
 -------------------------

 -----
 DPGEN
 -----
 Symbolic Z-matrix:
 Charge =  0 Multiplicity = 2

                         Standard orientation:
 ---------------------------------------------------------------------
 Center     Atomic      Atomic             Coordinates (Angstroms)
 Number     Number       Type             X           Y           Z
 ---------------------------------------------------------------------
      1         11           0        2.966417   -0.884967   -0.351518
      2         11           0       -0.088346    0.025610   -1.534520
      3         11           0        0.021236    0.035691    1.930079
      4         11           0        0.125808   -2.569909    0.220902
      5         11           0        1.972018    2.266565    0.015618
      6         11           0       -2.943031   -0.894657   -0.260201
      7         11           0       -2.054103    2.021666   -0.020360
 ---------------------------------------------------------------------

 SCF Done:  E(UB3LYP) =  -1136.13390921     A.U. after   19 cycles

 The electronic state is 2-A.
 Alpha  occ. eigenvalues --  -38.44104 -38.44062 -38.43582 -38.43444 -38.43330
 Alpha  occ. eigenvalues --  -38.43140 -38.42689  -2.19974  -2.19963  -2.19486
 Alpha  occ. eigenvalues --   -2.19298  -2.19293  -2.19199  -2.18632  -1.13675
 Alpha  occ. eigenvalues --   -1.13651  -1.13629  -1.13628  -1.13620  -1.13593
 Alpha  occ. eigenvalues --   -1.13190  -1.13145  -1.13109  -1.13004  -1.12977
 Alpha  occ. eigenvalues --   -1.12969  -1.12934  -1.12918  -1.12894  -1.12887
 Alpha  occ. eigenvalues --   -1.12835  -1.12808  -1.12327  -1.12293  -1.12241
 Alpha  occ. eigenvalues --   -0.19317  -0.13645  -0.12216  -0.10839
 Alpha virt. eigenvalues --   -0.05792  -0.05245  -0.04099  -0.03369  -0.02677
 Alpha virt. eigenvalues --   -0.02422  -0.01751  -0.01023  -0.00173  -0.00098
 Alpha virt. eigenvalues --    0.00057   0.00348   0.00772   0.00906   0.00948

  Beta  occ. eigenvalues --  -38.44095 -38.44054 -38.43576 -38.43441 -38.43232
  Beta  occ. eigenvalues --  -38.43082 -38.42678  -2.19960  -2.19951  -2.19478
  Beta  occ. eigenvalues --   -2.19292  -2.19117  -2.19094  -2.18617  -1.13670
  Beta  occ. eigenvalues --   -1.13636  -1.13618  -1.13613  -1.13601  -1.13569
  Beta  occ. eigenvalues --   -1.13181  -1.13125  -1.13092  -1.12975  -1.12948
  Beta  occ. eigenvalues --   -1.12925  -1.12888  -1.12809  -1.12793  -1.12773
  Beta  occ. eigenvalues --   -1.12761  -1.12728  -1.12317  -1.12242  -1.12235
  Beta  occ. eigenvalues --   -0.18582  -0.13358  -0.11949
  Beta virt. eigenvalues --   -0.06895  -0.05728  -0.05248  -0.04108  -0.02563
  Beta virt. eigenvalues --   -0.01881  -0.01637  -0.01359  -0.00967  -0.00222
  Beta virt. eigenvalues --   -0.00082   0.00148   0.00380   0.00832   0.00899

 Mulliken charges and spin densities:
               1          2
     1  Na   0.113482  -0.004640
     2  Na  -0.609705   0.355803
     3  Na  -0.551937   0.689118
     4  Na   0.400812   0.029050
     5  Na   0.105430  -0.061061
     6  Na   0.304330   0.026651
     7  Na   0.237587  -0.034922
 Sum of Mulliken charges =  -0.00000   1.00000

 Dipole moment (field-independent basis, Debye):
    X=              0.0382    Y=              0.0950    Z=              0.0937  Tot=              0.1388
 Quadrupole moment (field-independent basis, Debye-Ang):
   XX=            -53.4346   YY=            -65.5516   ZZ=            -74.1433
   XY=              0.1779   XZ=             -0.3373   YZ=              0.3838

 Normal termination of Gaussian 16 at Thu Dec  7 10:46:14 2023.
