 Gaussian 16, Revision B.01,
 Gaussian 16:  ES64L-G16RevB.01 20-Dec-2017

 -------------------------
 #P B3LYP/6-311+g(d) force
 -------------------------

 -----
 DPGEN
 -----
 Symbolic Z-matrix:
 Charge =  0 Multiplicity = 2

                         Standard orientation:
 ---------------------------------------------------------------------
 Center     Atomic      Atomic             Coordinates (Angstroms)
 Number     Number       Type             X           Y           Z
 ---------------------------------------------------------------------
      1         11           0       -0.843182   -3.454882   -0.030656
      2         11           0       -3.918576   -1.825079    0.089527
      3         11           0       -3.619977    1.495865    0.250978
      4         11           0       -0.830891    3.603952   -0.339956
      5         11           0        2.002488    2.565210   -0.022068
      6         11           0        4.447928   -0.121060    0.504898
      7         11           0        2.762210   -2.264005   -0.452724
 ---------------------------------------------------------------------

 SCF Done:  E(UB3LYP) =  -1136.10955015     A.U. after   22 cycles

 The electronic state is 2-A.
 Alpha  occ. eigenvalues --  -38.45251 -38.45111 -38.44695 -38.44523 -38.44178
 Alpha  occ. eigenvalues --  -38.43926 -38.43813  -2.21069  -2.20923  -2.20494
 Alpha  occ. eigenvalues --   -2.20306  -2.20043  -2.19718  -2.19642  -1.14798
 Alpha  occ. eigenvalues --   -1.14725  -1.14715  -1.14611  -1.14586  -1.14553
 Alpha  occ. eigenvalues --   -1.14157  -1.14154  -1.14127  -1.13983  -1.13972
 Alpha  occ. eigenvalues --   -1.13951  -1.13720  -1.13666  -1.13657  -1.13374
 Alpha  occ. eigenvalues --   -1.13366  -1.13338  -1.13327  -1.13291  -1.13281
 Alpha  occ. eigenvalues --   -0.15939  -0.14277  -0.13582  -0.10898
 Alpha virt. eigenvalues --   -0.07641  -0.04622  -0.04402  -0.03665  -0.03455
 Alpha virt. eigenvalues --   -0.02576  -0.02121  -0.02035  -0.01394  -0.00513
 Alpha virt. eigenvalues --   -0.00175  -0.00017   0.00099   0.00492   0.00584

  Beta  occ. eigenvalues --  -38.45236 -38.45074 -38.44641 -38.44526 -38.44135
  Beta  occ. eigenvalues --  -38.43856 -38.43800  -2.21048  -2.20860  -2.20395
  Beta  occ. eigenvalues --   -2.20317  -2.19964  -2.19624  -2.19586  -1.14757
  Beta  occ. eigenvalues --   -1.14716  -1.14685  -1.14559  -1.14547  -1.14495
  Beta  occ. eigenvalues --   -1.14090  -1.14090  -1.14058  -1.13995  -1.13982
  Beta  occ. eigenvalues --   -1.13920  -1.13665  -1.13612  -1.13605  -1.13299
  Beta  occ. eigenvalues --   -1.13284  -1.13282  -1.13276  -1.13264  -1.13253
  Beta  occ. eigenvalues --   -0.15412  -0.13697  -0.12838
  Beta virt. eigenvalues --   -0.07796  -0.07519  -0.04204  -0.04037  -0.03362
  Beta virt. eigenvalues --   -0.02954  -0.02389  -0.01990  -0.01901  -0.01231
  Beta virt. eigenvalues --   -0.00200   0.00061   0.00232   0.00320   0.00476

 Mulliken charges and spin densities:
               1          2
     1  Na  -0.215349   0.321523
     2  Na   0.125056  -0.024400
     3  Na  -0.194522   0.246428
     4  Na   0.613853  -0.128596
     5  Na  -0.379672   0.285350
     6  Na   0.578102   0.238802
     7  Na  -0.527467   0.060894
 Sum of Mulliken charges =  -0.00000   1.00000

 Dipole moment (field-independent basis, Debye):
    X=              0.5547    Y=              0.3034    Z=              0.0694  Tot=              0.6361
 Quadrupole moment (field-independent basis, Debye-Ang):
   XX=            -60.0559   YY=            -67.4397   ZZ=            -73.0387
   XY=              0.7015   XZ=              0.9059   YZ=              0.9021

 Normal termination of Gaussian 16 at Mon Dec  4 02:47:34 2023.
