 Gaussian 16, Revision B.01,
 Gaussian 16:  ES64L-G16RevB.01 20-Dec-2017

 -------------------------
 #P B3LYP/6-311+g(d) force
 -------------------------

 -----
 DPGEN
 -----
 Symbolic Z-matrix:
 Charge =  0 Multiplicity = 2

                         Standard orientation:
 ---------------------------------------------------------------------
 Center     Atomic      Atomic             Coordinates (Angstroms)
 Number     Number       Type             X           Y           Z
 ---------------------------------------------------------------------
      1         11           0       -0.569618    0.211810    1.835785
      2         11           0       -0.704795   -2.312254   -0.259668
      3         11           0       -3.272261   -0.362779   -0.076425
      4         11           0        0.545314    0.141053   -1.659929
      5         11           0        2.281895   -1.984039    0.135084
      6         11           0        2.285680    1.470099    0.429110
      7         11           0       -0.566214    2.836110   -0.403957
 ---------------------------------------------------------------------

 SCF Done:  E(UB3LYP) =  -1136.13197223     A.U. after   19 cycles

 The electronic state is 2-A.
 Alpha  occ. eigenvalues --  -38.43967 -38.43635 -38.43570 -38.43410 -38.43323
 Alpha  occ. eigenvalues --  -38.43217 -38.43158  -2.19798  -2.19572  -2.19454
 Alpha  occ. eigenvalues --   -2.19316  -2.19282  -2.19273  -2.19146  -1.13477
 Alpha  occ. eigenvalues --   -1.13466  -1.13435  -1.13335  -1.13239  -1.13215
 Alpha  occ. eigenvalues --   -1.13157  -1.13107  -1.13093  -1.13063  -1.13001
 Alpha  occ. eigenvalues --   -1.12980  -1.12954  -1.12947  -1.12914  -1.12906
 Alpha  occ. eigenvalues --   -1.12894  -1.12852  -1.12786  -1.12779  -1.12727
 Alpha  occ. eigenvalues --   -0.19347  -0.13096  -0.12838  -0.10883
 Alpha virt. eigenvalues --   -0.05512  -0.04981  -0.04510  -0.03215  -0.03054
 Alpha virt. eigenvalues --   -0.02380  -0.01439  -0.01101  -0.00134   0.00023
 Alpha virt. eigenvalues --    0.00147   0.00351   0.00839   0.00910   0.00986

  Beta  occ. eigenvalues --  -38.43967 -38.43620 -38.43557 -38.43406 -38.43247
  Beta  occ. eigenvalues --  -38.43146 -38.43145  -2.19801  -2.19550  -2.19436
  Beta  occ. eigenvalues --   -2.19312  -2.19146  -2.19141  -2.19125  -1.13481
  Beta  occ. eigenvalues --   -1.13455  -1.13434  -1.13314  -1.13210  -1.13182
  Beta  occ. eigenvalues --   -1.13130  -1.13082  -1.13075  -1.13054  -1.12979
  Beta  occ. eigenvalues --   -1.12928  -1.12923  -1.12872  -1.12827  -1.12820
  Beta  occ. eigenvalues --   -1.12789  -1.12769  -1.12748  -1.12733  -1.12703
  Beta  occ. eigenvalues --   -0.18595  -0.12852  -0.12586
  Beta virt. eigenvalues --   -0.06912  -0.05461  -0.04941  -0.04502  -0.02433
  Beta virt. eigenvalues --   -0.02266  -0.01437  -0.01278  -0.01027  -0.00144
  Beta virt. eigenvalues --    0.00129   0.00140   0.00376   0.00864   0.00910

 Mulliken charges and spin densities:
               1          2
     1  Na  -0.564376   0.576374
     2  Na   0.281203   0.031307
     3  Na   0.123110  -0.102893
     4  Na  -0.378992   0.443089
     5  Na   0.073428   0.022808
     6  Na   0.344911   0.118064
     7  Na   0.120716  -0.088749
 Sum of Mulliken charges =  -0.00000   1.00000

 Dipole moment (field-independent basis, Debye):
    X=             -0.2419    Y=              0.3160    Z=              0.1407  Tot=              0.4221
 Quadrupole moment (field-independent basis, Debye-Ang):
   XX=            -56.8424   YY=            -63.3225   ZZ=            -73.4492
   XY=             -1.5472   XZ=              2.4411   YZ=             -0.3364

 Normal termination of Gaussian 16 at Thu Dec  7 12:37:42 2023.
