 Gaussian 16, Revision B.01,
 Gaussian 16:  ES64L-G16RevB.01 20-Dec-2017

 -------------------------
 #P B3LYP/6-311+g(d) force
 -------------------------

 -----
 DPGEN
 -----
 Symbolic Z-matrix:
 Charge =  0 Multiplicity = 2

                         Standard orientation:
 ---------------------------------------------------------------------
 Center     Atomic      Atomic             Coordinates (Angstroms)
 Number     Number       Type             X           Y           Z
 ---------------------------------------------------------------------
      1         11           0       -0.578371   -1.150623   -1.516455
      2         11           0        0.103037    2.287479    0.025316
      3         11           0       -3.132402    1.450975   -0.891742
      4         11           0       -2.882526   -1.189423    1.376889
      5         11           0        3.487975    1.404531    0.633417
      6         11           0        0.621900   -1.130758    1.592434
      7         11           0        2.380387   -1.672181   -1.219859
 ---------------------------------------------------------------------

 SCF Done:  E(UB3LYP) =  -1136.12642488     A.U. after   21 cycles

 The electronic state is 2-A.
 Alpha  occ. eigenvalues --  -38.44551 -38.44137 -38.44073 -38.44029 -38.43899
 Alpha  occ. eigenvalues --  -38.43488 -38.43483  -2.20376  -2.19921  -2.19912
 Alpha  occ. eigenvalues --   -2.19896  -2.19781  -2.19417  -2.19286  -1.14041
 Alpha  occ. eigenvalues --   -1.14021  -1.14007  -1.13624  -1.13595  -1.13581
 Alpha  occ. eigenvalues --   -1.13574  -1.13562  -1.13558  -1.13549  -1.13534
 Alpha  occ. eigenvalues --   -1.13518  -1.13513  -1.13413  -1.13389  -1.13103
 Alpha  occ. eigenvalues --   -1.13058  -1.13019  -1.12983  -1.12978  -1.12893
 Alpha  occ. eigenvalues --   -0.18148  -0.13784  -0.11684  -0.11193
 Alpha virt. eigenvalues --   -0.06589  -0.05317  -0.04599  -0.03384  -0.02686
 Alpha virt. eigenvalues --   -0.02375  -0.02332  -0.01320  -0.00819  -0.00033
 Alpha virt. eigenvalues --    0.00152   0.00219   0.00458   0.00495   0.00684

  Beta  occ. eigenvalues --  -38.44501 -38.44130 -38.44054 -38.43987 -38.43867
  Beta  occ. eigenvalues --  -38.43481 -38.43441  -2.20284  -2.19907  -2.19861
  Beta  occ. eigenvalues --   -2.19836  -2.19725  -2.19335  -2.19285  -1.13970
  Beta  occ. eigenvalues --   -1.13960  -1.13940  -1.13581  -1.13576  -1.13568
  Beta  occ. eigenvalues --   -1.13548  -1.13531  -1.13523  -1.13522  -1.13515
  Beta  occ. eigenvalues --   -1.13462  -1.13450  -1.13377  -1.13346  -1.13053
  Beta  occ. eigenvalues --   -1.12988  -1.12984  -1.12969  -1.12954  -1.12883
  Beta  occ. eigenvalues --   -0.17537  -0.13531  -0.11308
  Beta virt. eigenvalues --   -0.07454  -0.06470  -0.05155  -0.03978  -0.03195
  Beta virt. eigenvalues --   -0.02251  -0.02083  -0.01603  -0.01156  -0.00476
  Beta virt. eigenvalues --    0.00021   0.00194   0.00234   0.00553   0.00625

 Mulliken charges and spin densities:
               1          2
     1  Na  -0.359505   0.380406
     2  Na  -0.677327  -0.058853
     3  Na   0.644804   0.084641
     4  Na   0.015922   0.149830
     5  Na   0.315864  -0.009710
     6  Na  -0.185204   0.403498
     7  Na   0.245446   0.050188
 Sum of Mulliken charges =  -0.00000   1.00000

 Dipole moment (field-independent basis, Debye):
    X=             -0.1543    Y=             -0.3231    Z=              0.0943  Tot=              0.3703
 Quadrupole moment (field-independent basis, Debye-Ang):
   XX=            -48.3831   YY=            -76.0517   ZZ=            -70.5304
   XY=             -1.3716   XZ=             -0.4906   YZ=             -1.1972

 Normal termination of Gaussian 16 at Fri Dec  8 18:51:02 2023.
