 Gaussian 16, Revision B.01,
 Gaussian 16:  ES64L-G16RevB.01 20-Dec-2017

 -------------------------
 #P B3LYP/6-311+g(d) force
 -------------------------

 -----
 DPGEN
 -----
 Symbolic Z-matrix:
 Charge =  0 Multiplicity = 2

                         Standard orientation:
 ---------------------------------------------------------------------
 Center     Atomic      Atomic             Coordinates (Angstroms)
 Number     Number       Type             X           Y           Z
 ---------------------------------------------------------------------
      1         11           0       -3.330057    2.725186    0.167648
      2         11           0        0.489473   -2.149038    1.625061
      3         11           0       -5.026591    0.039129   -0.842014
      4         11           0       -2.096801   -2.426203   -0.914608
      5         11           0        4.143286   -1.084033   -0.539415
      6         11           0        5.718397    1.679397   -0.748542
      7         11           0        0.102293    1.215562    1.251870
 ---------------------------------------------------------------------

 SCF Done:  E(UB3LYP) =  -1136.10882922     A.U. after   19 cycles

 The electronic state is 2-A.
 Alpha  occ. eigenvalues --  -38.45534 -38.45437 -38.44296 -38.44285 -38.44097
 Alpha  occ. eigenvalues --  -38.43840 -38.43722  -2.21311  -2.21204  -2.20076
 Alpha  occ. eigenvalues --   -2.20062  -2.19870  -2.19630  -2.19500  -1.14981
 Alpha  occ. eigenvalues --   -1.14951  -1.14919  -1.14877  -1.14848  -1.14807
 Alpha  occ. eigenvalues --   -1.13762  -1.13749  -1.13733  -1.13730  -1.13714
 Alpha  occ. eigenvalues --   -1.13662  -1.13545  -1.13540  -1.13511  -1.13306
 Alpha  occ. eigenvalues --   -1.13290  -1.13280  -1.13159  -1.13159  -1.13134
 Alpha  occ. eigenvalues --   -0.15968  -0.13397  -0.12070  -0.11686
 Alpha virt. eigenvalues --   -0.06541  -0.05700  -0.05095  -0.03489  -0.03260
 Alpha virt. eigenvalues --   -0.02375  -0.01940  -0.01597  -0.01393  -0.00995
 Alpha virt. eigenvalues --   -0.00666  -0.00251  -0.00048   0.00146   0.00440

  Beta  occ. eigenvalues --  -38.45456 -38.45359 -38.44272 -38.44271 -38.44094
  Beta  occ. eigenvalues --  -38.43845 -38.43720  -2.21166  -2.21060  -2.20038
  Beta  occ. eigenvalues --   -2.20030  -2.19866  -2.19640  -2.19495  -1.14883
  Beta  occ. eigenvalues --   -1.14858  -1.14808  -1.14779  -1.14753  -1.14700
  Beta  occ. eigenvalues --   -1.13743  -1.13724  -1.13712  -1.13691  -1.13687
  Beta  occ. eigenvalues --   -1.13636  -1.13542  -1.13538  -1.13507  -1.13309
  Beta  occ. eigenvalues --   -1.13296  -1.13281  -1.13155  -1.13155  -1.13131
  Beta  occ. eigenvalues --   -0.15172  -0.13242  -0.11786
  Beta virt. eigenvalues --   -0.08134  -0.06137  -0.04986  -0.04851  -0.03192
  Beta virt. eigenvalues --   -0.02815  -0.02294  -0.01836  -0.01317  -0.01220
  Beta virt. eigenvalues --   -0.00733  -0.00441  -0.00035   0.00198   0.00264

 Mulliken charges and spin densities:
               1          2
     1  Na   0.114489   0.072253
     2  Na  -0.142470   0.078513
     3  Na   0.039937   0.014024
     4  Na   0.114233   0.421673
     5  Na  -0.225867  -0.012334
     6  Na   0.340456  -0.006963
     7  Na  -0.240778   0.432835
 Sum of Mulliken charges =  -0.00000   1.00000

 Dipole moment (field-independent basis, Debye):
    X=             -0.7355    Y=             -0.1196    Z=              0.2082  Tot=              0.7737
 Quadrupole moment (field-independent basis, Debye-Ang):
   XX=            -72.6564   YY=            -59.9986   ZZ=            -71.9116
   XY=              3.7749   XZ=              2.9604   YZ=              1.4190

 Normal termination of Gaussian 16 at Mon Dec  4 02:30:30 2023.
