 Gaussian 16, Revision B.01,
 Gaussian 16:  ES64L-G16RevB.01 20-Dec-2017

 -------------------------
 #P B3LYP/6-311+g(d) force
 -------------------------

 -----
 DPGEN
 -----
 Symbolic Z-matrix:
 Charge =  0 Multiplicity = 2

                         Standard orientation:
 ---------------------------------------------------------------------
 Center     Atomic      Atomic             Coordinates (Angstroms)
 Number     Number       Type             X           Y           Z
 ---------------------------------------------------------------------
      1         11           0        0.156583    1.482887   -0.324667
      2         11           0        2.361326    3.627057    0.564453
      3         11           0        3.081156    0.160026   -0.591247
      4         11           0        2.773120   -3.188243    0.002943
      5         11           0       -0.208770   -1.752428    0.175183
      6         11           0       -2.976131   -1.140838    0.663568
      7         11           0       -5.187284    0.811538   -0.490234
 ---------------------------------------------------------------------

 SCF Done:  E(UB3LYP) =  -1136.11853771     A.U. after   20 cycles

 The electronic state is 2-A.
 Alpha  occ. eigenvalues --  -38.44652 -38.44538 -38.44466 -38.43981 -38.43599
 Alpha  occ. eigenvalues --  -38.43554 -38.43332  -2.20455  -2.20426  -2.20320
 Alpha  occ. eigenvalues --   -2.19809  -2.19450  -2.19426  -2.19296  -1.14173
 Alpha  occ. eigenvalues --   -1.14156  -1.14119  -1.14101  -1.14094  -1.14025
 Alpha  occ. eigenvalues --   -1.14004  -1.13967  -1.13887  -1.13474  -1.13435
 Alpha  occ. eigenvalues --   -1.13431  -1.13284  -1.13095  -1.13094  -1.13081
 Alpha  occ. eigenvalues --   -1.13077  -1.13060  -1.12963  -1.12934  -1.12837
 Alpha  occ. eigenvalues --   -0.17378  -0.14120  -0.12799  -0.10648
 Alpha virt. eigenvalues --   -0.06473  -0.05422  -0.04235  -0.03850  -0.02828
 Alpha virt. eigenvalues --   -0.02191  -0.02137  -0.01323  -0.01191  -0.00716
 Alpha virt. eigenvalues --   -0.00191   0.00036   0.00456   0.00533   0.00620

  Beta  occ. eigenvalues --  -38.44652 -38.44518 -38.44444 -38.43871 -38.43577
  Beta  occ. eigenvalues --  -38.43546 -38.43285  -2.20455  -2.20391  -2.20278
  Beta  occ. eigenvalues --   -2.19605  -2.19445  -2.19385  -2.19214  -1.14159
  Beta  occ. eigenvalues --   -1.14142  -1.14117  -1.14096  -1.14072  -1.13996
  Beta  occ. eigenvalues --   -1.13978  -1.13942  -1.13851  -1.13347  -1.13295
  Beta  occ. eigenvalues --   -1.13291  -1.13208  -1.13095  -1.13079  -1.13061
  Beta  occ. eigenvalues --   -1.13054  -1.13029  -1.12907  -1.12881  -1.12771
  Beta  occ. eigenvalues --   -0.16923  -0.13465  -0.12426
  Beta virt. eigenvalues --   -0.07095  -0.06332  -0.05144  -0.04078  -0.03263
  Beta virt. eigenvalues --   -0.02639  -0.01995  -0.01821  -0.01149  -0.00843
  Beta virt. eigenvalues --   -0.00350  -0.00008   0.00354   0.00548   0.00635

 Mulliken charges and spin densities:
               1          2
     1  Na  -1.389874  -0.053559
     2  Na   0.896564  -0.001985
     3  Na   0.274986   0.285331
     4  Na   0.719748   0.229153
     5  Na  -0.684673   0.051277
     6  Na   0.240747  -0.069352
     7  Na  -0.057497   0.559134
 Sum of Mulliken charges =  -0.00000   1.00000

 Dipole moment (field-independent basis, Debye):
    X=              1.7185    Y=              1.1640    Z=              0.2411  Tot=              2.0896
 Quadrupole moment (field-independent basis, Debye-Ang):
   XX=            -71.3435   YY=            -57.4315   ZZ=            -70.6099
   XY=              3.4486   XZ=              1.7047   YZ=             -0.0776

 Normal termination of Gaussian 16 at Tue Nov 28 19:37:08 2023.
