 Gaussian 16, Revision B.01,
 Gaussian 16:  ES64L-G16RevB.01 20-Dec-2017

 -------------------------
 #P B3LYP/6-311+g(d) force
 -------------------------

 -----
 DPGEN
 -----
 Symbolic Z-matrix:
 Charge =  0 Multiplicity = 2

                         Standard orientation:
 ---------------------------------------------------------------------
 Center     Atomic      Atomic             Coordinates (Angstroms)
 Number     Number       Type             X           Y           Z
 ---------------------------------------------------------------------
      1         11           0       -2.972787   -0.088473   -0.190746
      2         11           0       -0.173758    0.143227   -1.544679
      3         11           0       -0.322509   -0.321987    2.101302
      4         11           0       -0.928636    2.890814    0.068161
      5         11           0        2.646182    1.695963   -0.107941
      6         11           0       -0.673271   -2.688354   -0.316937
      7         11           0        2.424778   -1.631190   -0.009161
 ---------------------------------------------------------------------

 SCF Done:  E(UB3LYP) =  -1136.13789968     A.U. after   19 cycles

 The electronic state is 2-A.
 Alpha  occ. eigenvalues --  -38.43787 -38.43756 -38.43699 -38.43608 -38.43471
 Alpha  occ. eigenvalues --  -38.43250 -38.43017  -2.19673  -2.19572  -2.19527
 Alpha  occ. eigenvalues --   -2.19504  -2.19345  -2.19176  -2.19058  -1.13392
 Alpha  occ. eigenvalues --   -1.13336  -1.13297  -1.13254  -1.13241  -1.13226
 Alpha  occ. eigenvalues --   -1.13211  -1.13190  -1.13170  -1.13150  -1.13130
 Alpha  occ. eigenvalues --   -1.13121  -1.13034  -1.13002  -1.12991  -1.12910
 Alpha  occ. eigenvalues --   -1.12824  -1.12791  -1.12724  -1.12680  -1.12668
 Alpha  occ. eigenvalues --   -0.18941  -0.12979  -0.12663  -0.10830
 Alpha virt. eigenvalues --   -0.05490  -0.05052  -0.04816  -0.03078  -0.02923
 Alpha virt. eigenvalues --   -0.02620  -0.01328  -0.01131  -0.00379  -0.00206
 Alpha virt. eigenvalues --   -0.00006   0.00359   0.00868   0.00883   0.00926

  Beta  occ. eigenvalues --  -38.43777 -38.43756 -38.43697 -38.43508 -38.43468
  Beta  occ. eigenvalues --  -38.43237 -38.42955  -2.19661  -2.19575  -2.19525
  Beta  occ. eigenvalues --   -2.19342  -2.19319  -2.19159  -2.18948  -1.13378
  Beta  occ. eigenvalues --   -1.13301  -1.13290  -1.13255  -1.13232  -1.13225
  Beta  occ. eigenvalues --   -1.13208  -1.13174  -1.13152  -1.13058  -1.13027
  Beta  occ. eigenvalues --   -1.13003  -1.12994  -1.12990  -1.12970  -1.12884
  Beta  occ. eigenvalues --   -1.12786  -1.12779  -1.12652  -1.12601  -1.12588
  Beta  occ. eigenvalues --   -0.18198  -0.12747  -0.12432
  Beta virt. eigenvalues --   -0.06840  -0.05487  -0.05039  -0.04766  -0.02283
  Beta virt. eigenvalues --   -0.02166  -0.01506  -0.01254  -0.01059  -0.00421
  Beta virt. eigenvalues --   -0.00267   0.00148   0.00391   0.00879   0.00910

 Mulliken charges and spin densities:
               1          2
     1  Na   0.428299  -0.002461
     2  Na  -0.385759   0.310388
     3  Na  -0.658381   0.777381
     4  Na   0.028417  -0.054578
     5  Na   0.006134  -0.062172
     6  Na   0.475099   0.042885
     7  Na   0.106191  -0.011445
 Sum of Mulliken charges =  -0.00000   1.00000

 Dipole moment (field-independent basis, Debye):
    X=             -0.1058    Y=              0.2202    Z=              0.2413  Tot=              0.3434
 Quadrupole moment (field-independent basis, Debye-Ang):
   XX=            -58.4370   YY=            -61.0771   ZZ=            -74.1386
   XY=              0.0089   XZ=              0.3478   YZ=              1.0145

 Normal termination of Gaussian 16 at Fri Dec  8 05:36:26 2023.
