 Gaussian 16, Revision B.01,
 Gaussian 16:  ES64L-G16RevB.01 20-Dec-2017

 -------------------------
 #P B3LYP/6-311+g(d) force
 -------------------------

 -----
 DPGEN
 -----
 Symbolic Z-matrix:
 Charge =  0 Multiplicity = 2

                         Standard orientation:
 ---------------------------------------------------------------------
 Center     Atomic      Atomic             Coordinates (Angstroms)
 Number     Number       Type             X           Y           Z
 ---------------------------------------------------------------------
      1         11           0        0.191196    2.953991    0.199200
      2         11           0       -2.035520   -2.178990   -0.045126
      3         11           0       -0.143008    0.006892   -1.668218
      4         11           0        3.203883    0.793111   -0.472206
      5         11           0        2.092061   -2.474304    0.154309
      6         11           0       -3.161651    0.740263   -0.361827
      7         11           0       -0.146961    0.159035    2.193867
 ---------------------------------------------------------------------

 SCF Done:  E(UB3LYP) =  -1136.13429709     A.U. after   20 cycles

 The electronic state is 2-A.
 Alpha  occ. eigenvalues --  -38.44366 -38.44324 -38.43864 -38.43656 -38.43645
 Alpha  occ. eigenvalues --  -38.43613 -38.43041  -2.20172  -2.20159  -2.19717
 Alpha  occ. eigenvalues --   -2.19580  -2.19507  -2.19396  -2.18865  -1.13859
 Alpha  occ. eigenvalues --   -1.13842  -1.13840  -1.13814  -1.13800  -1.13791
 Alpha  occ. eigenvalues --   -1.13375  -1.13346  -1.13335  -1.13285  -1.13240
 Alpha  occ. eigenvalues --   -1.13207  -1.13167  -1.13156  -1.13136  -1.13071
 Alpha  occ. eigenvalues --   -1.13054  -1.13042  -1.12544  -1.12535  -1.12498
 Alpha  occ. eigenvalues --   -0.18214  -0.13232  -0.11935  -0.10865
 Alpha virt. eigenvalues --   -0.05915  -0.05327  -0.04543  -0.03311  -0.02825
 Alpha virt. eigenvalues --   -0.02740  -0.01808  -0.01111  -0.00484  -0.00459
 Alpha virt. eigenvalues --   -0.00057   0.00329   0.00707   0.00848   0.00859

  Beta  occ. eigenvalues --  -38.44356 -38.44315 -38.43758 -38.43640 -38.43614
  Beta  occ. eigenvalues --  -38.43603 -38.43037  -2.20158  -2.20143  -2.19523
  Beta  occ. eigenvalues --   -2.19501  -2.19484  -2.19399  -2.18861  -1.13852
  Beta  occ. eigenvalues --   -1.13820  -1.13816  -1.13805  -1.13784  -1.13783
  Beta  occ. eigenvalues --   -1.13253  -1.13229  -1.13212  -1.13193  -1.13184
  Beta  occ. eigenvalues --   -1.13161  -1.13138  -1.13123  -1.13109  -1.13066
  Beta  occ. eigenvalues --   -1.13056  -1.13040  -1.12540  -1.12513  -1.12496
  Beta  occ. eigenvalues --   -0.17498  -0.12997  -0.11729
  Beta virt. eigenvalues --   -0.06965  -0.05821  -0.05317  -0.04457  -0.02597
  Beta virt. eigenvalues --   -0.02070  -0.01731  -0.01676  -0.01044  -0.00511
  Beta virt. eigenvalues --   -0.00491   0.00097   0.00375   0.00793   0.00852

 Mulliken charges and spin densities:
               1          2
     1  Na   0.028045  -0.060375
     2  Na   0.057034   0.004483
     3  Na  -0.049300   0.324712
     4  Na   0.085032  -0.009775
     5  Na  -0.077267  -0.033229
     6  Na   0.363467   0.017213
     7  Na  -0.407012   0.756970
 Sum of Mulliken charges =  -0.00000   1.00000

 Dipole moment (field-independent basis, Debye):
    X=             -0.1168    Y=              0.0683    Z=              0.0038  Tot=              0.1353
 Quadrupole moment (field-independent basis, Debye-Ang):
   XX=            -55.2002   YY=            -65.2405   ZZ=            -73.8300
   XY=             -0.0106   XZ=             -0.1433   YZ=             -0.9610

 Normal termination of Gaussian 16 at Wed Nov 29 17:13:48 2023.
