 Gaussian 16, Revision B.01,
 Gaussian 16:  ES64L-G16RevB.01 20-Dec-2017

 -------------------------
 #P B3LYP/6-311+g(d) force
 -------------------------

 -----
 DPGEN
 -----
 Symbolic Z-matrix:
 Charge =  0 Multiplicity = 2

                         Standard orientation:
 ---------------------------------------------------------------------
 Center     Atomic      Atomic             Coordinates (Angstroms)
 Number     Number       Type             X           Y           Z
 ---------------------------------------------------------------------
      1         11           0       -0.149328    0.399864   -1.609211
      2         11           0        2.867924   -1.584472   -0.600028
      3         11           0        2.535019    2.441637   -0.145482
      4         11           0       -2.056600    2.470804    0.659191
      5         11           0        0.794111   -0.302143    1.788493
      6         11           0       -0.557963   -2.791212    0.509742
      7         11           0       -3.433162   -0.634476   -0.602705
 ---------------------------------------------------------------------

 SCF Done:  E(UB3LYP) =  -1136.12906883     A.U. after   21 cycles

 The electronic state is 2-A.
 Alpha  occ. eigenvalues --  -38.44599 -38.44336 -38.44246 -38.44191 -38.43631
 Alpha  occ. eigenvalues --  -38.43272 -38.43249  -2.20399  -2.20107  -2.20004
 Alpha  occ. eigenvalues --   -2.19981  -2.19505  -2.19169  -2.19116  -1.14080
 Alpha  occ. eigenvalues --   -1.14058  -1.14020  -1.13779  -1.13767  -1.13743
 Alpha  occ. eigenvalues --   -1.13686  -1.13657  -1.13656  -1.13649  -1.13631
 Alpha  occ. eigenvalues --   -1.13618  -1.13212  -1.13150  -1.13117  -1.12931
 Alpha  occ. eigenvalues --   -1.12820  -1.12797  -1.12765  -1.12748  -1.12712
 Alpha  occ. eigenvalues --   -0.17857  -0.13072  -0.12011  -0.10263
 Alpha virt. eigenvalues --   -0.06133  -0.05817  -0.04613  -0.03236  -0.02741
 Alpha virt. eigenvalues --   -0.02178  -0.01902  -0.01517  -0.00865  -0.00398
 Alpha virt. eigenvalues --   -0.00041   0.00310   0.00614   0.00687   0.00712

  Beta  occ. eigenvalues --  -38.44583 -38.44321 -38.44249 -38.44179 -38.43583
  Beta  occ. eigenvalues --  -38.43260 -38.43175  -2.20371  -2.20080  -2.20013
  Beta  occ. eigenvalues --   -2.19961  -2.19418  -2.19098  -2.19034  -1.14049
  Beta  occ. eigenvalues --   -1.14041  -1.13997  -1.13754  -1.13750  -1.13721
  Beta  occ. eigenvalues --   -1.13684  -1.13663  -1.13650  -1.13629  -1.13618
  Beta  occ. eigenvalues --   -1.13606  -1.13149  -1.13086  -1.13051  -1.12874
  Beta  occ. eigenvalues --   -1.12746  -1.12734  -1.12729  -1.12697  -1.12646
  Beta  occ. eigenvalues --   -0.17199  -0.12847  -0.11780
  Beta virt. eigenvalues --   -0.06607  -0.06042  -0.05649  -0.04469  -0.02653
  Beta virt. eigenvalues --   -0.02100  -0.01769  -0.01516  -0.01210  -0.00819
  Beta virt. eigenvalues --   -0.00372   0.00100   0.00360   0.00685   0.00735

 Mulliken charges and spin densities:
               1          2
     1  Na   0.073242   0.406885
     2  Na  -0.001659   0.054325
     3  Na  -0.125522  -0.061018
     4  Na  -0.254485   0.045042
     5  Na   0.320915   0.542118
     6  Na  -0.161303  -0.028961
     7  Na   0.148812   0.041609
 Sum of Mulliken charges =  -0.00000   1.00000

 Dipole moment (field-independent basis, Debye):
    X=              0.2030    Y=              0.1776    Z=             -0.1310  Tot=              0.2998
 Quadrupole moment (field-independent basis, Debye-Ang):
   XX=            -53.2528   YY=            -62.9725   ZZ=            -75.7589
   XY=             -0.0191   XZ=             -1.4768   YZ=              2.3731

 Normal termination of Gaussian 16 at Fri Dec  8 01:17:24 2023.
