 Gaussian 16, Revision B.01,
 Gaussian 16:  ES64L-G16RevB.01 20-Dec-2017

 -------------------------
 #P B3LYP/6-311+g(d) force
 -------------------------

 -----
 DPGEN
 -----
 Symbolic Z-matrix:
 Charge =  0 Multiplicity = 2

                         Standard orientation:
 ---------------------------------------------------------------------
 Center     Atomic      Atomic             Coordinates (Angstroms)
 Number     Number       Type             X           Y           Z
 ---------------------------------------------------------------------
      1         11           0        3.024510   -1.314635    0.023906
      2         11           0       -0.185337   -0.374724   -1.777510
      3         11           0       -1.271548    2.825434   -0.104191
      4         11           0        0.189523   -0.081127    1.894332
      5         11           0        2.202999    2.057071   -0.150021
      6         11           0       -3.321502   -0.371068    0.182743
      7         11           0       -0.638647   -2.740951   -0.069258
 ---------------------------------------------------------------------

 SCF Done:  E(UB3LYP) =  -1136.13615087     A.U. after   19 cycles

 The electronic state is 2-A.
 Alpha  occ. eigenvalues --  -38.44482 -38.44138 -38.43674 -38.43469 -38.43454
 Alpha  occ. eigenvalues --  -38.43444 -38.43377  -2.20271  -2.19944  -2.19504
 Alpha  occ. eigenvalues --   -2.19366  -2.19344  -2.19316  -2.19253  -1.13945
 Alpha  occ. eigenvalues --   -1.13922  -1.13917  -1.13616  -1.13607  -1.13587
 Alpha  occ. eigenvalues --   -1.13216  -1.13181  -1.13176  -1.13140  -1.13059
 Alpha  occ. eigenvalues --   -1.13007  -1.12973  -1.12965  -1.12957  -1.12953
 Alpha  occ. eigenvalues --   -1.12929  -1.12917  -1.12904  -1.12896  -1.12893
 Alpha  occ. eigenvalues --   -0.18418  -0.12989  -0.12363  -0.10506
 Alpha virt. eigenvalues --   -0.05975  -0.05245  -0.04717  -0.03152  -0.02791
 Alpha virt. eigenvalues --   -0.02407  -0.01826  -0.01141  -0.00506  -0.00463
 Alpha virt. eigenvalues --   -0.00019   0.00342   0.00756   0.00838   0.00864

  Beta  occ. eigenvalues --  -38.44480 -38.44137 -38.43670 -38.43457 -38.43453
  Beta  occ. eigenvalues --  -38.43362 -38.43301  -2.20268  -2.19944  -2.19500
  Beta  occ. eigenvalues --   -2.19349  -2.19254  -2.19192  -2.19178  -1.13926
  Beta  occ. eigenvalues --   -1.13921  -1.13918  -1.13611  -1.13596  -1.13587
  Beta  occ. eigenvalues --   -1.13176  -1.13171  -1.13155  -1.13139  -1.13001
  Beta  occ. eigenvalues --   -1.12954  -1.12927  -1.12914  -1.12910  -1.12896
  Beta  occ. eigenvalues --   -1.12873  -1.12860  -1.12842  -1.12815  -1.12811
  Beta  occ. eigenvalues --   -0.17689  -0.12784  -0.12128
  Beta virt. eigenvalues --   -0.06627  -0.05922  -0.05272  -0.04644  -0.02385
  Beta virt. eigenvalues --   -0.02037  -0.01724  -0.01370  -0.01083  -0.00559
  Beta virt. eigenvalues --   -0.00510   0.00123   0.00370   0.00809   0.00844

 Mulliken charges and spin densities:
               1          2
     1  Na   0.203344  -0.095243
     2  Na  -0.187869   0.708537
     3  Na  -0.108054  -0.124145
     4  Na  -0.275152   0.800291
     5  Na  -0.030522  -0.091343
     6  Na   0.030910  -0.075578
     7  Na   0.367342  -0.122520
 Sum of Mulliken charges =  -0.00000   1.00000

 Dipole moment (field-independent basis, Debye):
    X=             -0.0941    Y=             -0.1457    Z=              0.0848  Tot=              0.1931
 Quadrupole moment (field-independent basis, Debye-Ang):
   XX=            -53.4477   YY=            -63.5382   ZZ=            -75.6701
   XY=             -0.6101   XZ=             -0.9586   YZ=             -0.7310

 Normal termination of Gaussian 16 at Fri Dec  8 05:27:19 2023.
