 Gaussian 16, Revision B.01,
 Gaussian 16:  ES64L-G16RevB.01 20-Dec-2017

 -------------------------
 #P B3LYP/6-311+g(d) force
 -------------------------

 -----
 DPGEN
 -----
 Symbolic Z-matrix:
 Charge =  0 Multiplicity = 2

                         Standard orientation:
 ---------------------------------------------------------------------
 Center     Atomic      Atomic             Coordinates (Angstroms)
 Number     Number       Type             X           Y           Z
 ---------------------------------------------------------------------
      1         11           0        0.141545   -0.133853    1.699503
      2         11           0        3.199489    0.109385    0.334030
      3         11           0        0.564117    2.906781   -0.234326
      4         11           0        0.734368   -2.735705   -0.313490
      5         11           0        0.326630    0.015962   -1.648807
      6         11           0       -2.375715   -1.807588    0.065893
      7         11           0       -2.590433    1.645018    0.097197
 ---------------------------------------------------------------------

 SCF Done:  E(UB3LYP) =  -1136.13828884     A.U. after   19 cycles

 The electronic state is 2-A.
 Alpha  occ. eigenvalues --  -38.43963 -38.43645 -38.43632 -38.43510 -38.43495
 Alpha  occ. eigenvalues --  -38.43062 -38.42999  -2.19793  -2.19503  -2.19470
 Alpha  occ. eigenvalues --   -2.19411  -2.19382  -2.19046  -2.19010  -1.13472
 Alpha  occ. eigenvalues --   -1.13450  -1.13428  -1.13211  -1.13175  -1.13156
 Alpha  occ. eigenvalues --   -1.13145  -1.13141  -1.13137  -1.13097  -1.13088
 Alpha  occ. eigenvalues --   -1.13057  -1.13045  -1.13031  -1.12977  -1.12762
 Alpha  occ. eigenvalues --   -1.12673  -1.12665  -1.12655  -1.12642  -1.12608
 Alpha  occ. eigenvalues --   -0.18986  -0.12912  -0.12875  -0.10499
 Alpha virt. eigenvalues --   -0.05523  -0.05046  -0.04983  -0.02947  -0.02912
 Alpha virt. eigenvalues --   -0.02170  -0.01536  -0.01215  -0.00357  -0.00288
 Alpha virt. eigenvalues --    0.00039   0.00349   0.00847   0.00877   0.00901

  Beta  occ. eigenvalues --  -38.43952 -38.43637 -38.43630 -38.43506 -38.43481
  Beta  occ. eigenvalues --  -38.42988 -38.42925  -2.19777  -2.19491  -2.19470
  Beta  occ. eigenvalues --   -2.19390  -2.19378  -2.18910  -2.18875  -1.13450
  Beta  occ. eigenvalues --   -1.13427  -1.13421  -1.13199  -1.13161  -1.13145
  Beta  occ. eigenvalues --   -1.13140  -1.13129  -1.13118  -1.13086  -1.13077
  Beta  occ. eigenvalues --   -1.13032  -1.13024  -1.13017  -1.12969  -1.12672
  Beta  occ. eigenvalues --   -1.12580  -1.12572  -1.12552  -1.12539  -1.12516
  Beta  occ. eigenvalues --   -0.18283  -0.12634  -0.12612
  Beta virt. eigenvalues --   -0.06614  -0.05484  -0.05036  -0.04946  -0.02193
  Beta virt. eigenvalues --   -0.02140  -0.01430  -0.01174  -0.01112  -0.00400
  Beta virt. eigenvalues --   -0.00335   0.00162   0.00382   0.00868   0.00883

 Mulliken charges and spin densities:
               1          2
     1  Na  -0.363385   0.743557
     2  Na   0.078347  -0.073294
     3  Na   0.097356  -0.085031
     4  Na   0.400275  -0.004440
     5  Na  -0.228407   0.547750
     6  Na   0.048436  -0.055950
     7  Na  -0.032621  -0.072593
 Sum of Mulliken charges =  -0.00000   1.00000

 Dipole moment (field-independent basis, Debye):
    X=              0.2016    Y=              0.1094    Z=              0.0602  Tot=              0.2372
 Quadrupole moment (field-independent basis, Debye-Ang):
   XX=            -56.2956   YY=            -60.0518   ZZ=            -75.8615
   XY=              0.2604   XZ=              0.3355   YZ=              0.3178

 Normal termination of Gaussian 16 at Thu Dec  7 19:04:09 2023.
