 Gaussian 16, Revision B.01,
 Gaussian 16:  ES64L-G16RevB.01 20-Dec-2017

 -------------------------
 #P B3LYP/6-311+g(d) force
 -------------------------

 -----
 DPGEN
 -----
 Symbolic Z-matrix:
 Charge =  0 Multiplicity = 2

                         Standard orientation:
 ---------------------------------------------------------------------
 Center     Atomic      Atomic             Coordinates (Angstroms)
 Number     Number       Type             X           Y           Z
 ---------------------------------------------------------------------
      1         11           0        0.693208   -0.113104    2.025342
      2         11           0       -3.561209    0.023117    0.107435
      3         11           0       -0.093963   -0.202139   -1.771830
      4         11           0       -1.602451   -2.431738   -0.030920
      5         11           0        2.221038    1.629772   -0.415063
      6         11           0        3.232395   -1.553381   -0.058220
      7         11           0       -0.889017    2.647473    0.143256
 ---------------------------------------------------------------------

 SCF Done:  E(UB3LYP) =  -1136.12920393     A.U. after   21 cycles

 The electronic state is 2-A.
 Alpha  occ. eigenvalues --  -38.45077 -38.44369 -38.43861 -38.43694 -38.43584
 Alpha  occ. eigenvalues --  -38.43576 -38.42581  -2.20878  -2.20164  -2.19734
 Alpha  occ. eigenvalues --   -2.19622  -2.19501  -2.19442  -2.18433  -1.14555
 Alpha  occ. eigenvalues --   -1.14539  -1.14516  -1.13841  -1.13827  -1.13806
 Alpha  occ. eigenvalues --   -1.13408  -1.13382  -1.13340  -1.13325  -1.13316
 Alpha  occ. eigenvalues --   -1.13231  -1.13167  -1.13163  -1.13115  -1.13105
 Alpha  occ. eigenvalues --   -1.13097  -1.13073  -1.12108  -1.12095  -1.12081
 Alpha  occ. eigenvalues --   -0.18433  -0.13638  -0.11772  -0.10743
 Alpha virt. eigenvalues --   -0.06606  -0.05218  -0.04052  -0.03561  -0.02713
 Alpha virt. eigenvalues --   -0.02547  -0.02142  -0.01175  -0.00415  -0.00154
 Alpha virt. eigenvalues --   -0.00085   0.00255   0.00603   0.00709   0.00822

  Beta  occ. eigenvalues --  -38.45079 -38.44371 -38.43774 -38.43619 -38.43579
  Beta  occ. eigenvalues --  -38.43561 -38.42577  -2.20882  -2.20170  -2.19573
  Beta  occ. eigenvalues --   -2.19486  -2.19479  -2.19435  -2.18430  -1.14560
  Beta  occ. eigenvalues --   -1.14532  -1.14520  -1.13848  -1.13813  -1.13808
  Beta  occ. eigenvalues --   -1.13307  -1.13271  -1.13241  -1.13234  -1.13223
  Beta  occ. eigenvalues --   -1.13144  -1.13133  -1.13108  -1.13106  -1.13086
  Beta  occ. eigenvalues --   -1.13072  -1.13056  -1.12108  -1.12083  -1.12068
  Beta  occ. eigenvalues --   -0.17693  -0.13467  -0.11548
  Beta virt. eigenvalues --   -0.06852  -0.06474  -0.05197  -0.04041  -0.02822
  Beta virt. eigenvalues --   -0.02107  -0.01861  -0.01556  -0.01114  -0.00435
  Beta virt. eigenvalues --   -0.00152   0.00064   0.00279   0.00769   0.00817

 Mulliken charges and spin densities:
               1          2
     1  Na  -0.416250   0.673648
     2  Na  -0.046514  -0.012660
     3  Na  -0.065773   0.419780
     4  Na   0.195919  -0.082370
     5  Na   0.348664   0.139622
     6  Na   0.153826  -0.110336
     7  Na  -0.169873  -0.027685
 Sum of Mulliken charges =  -0.00000   1.00000

 Dipole moment (field-independent basis, Debye):
    X=             -0.2659    Y=             -0.3247    Z=              0.0805  Tot=              0.4273
 Quadrupole moment (field-independent basis, Debye-Ang):
   XX=            -50.7107   YY=            -68.7581   ZZ=            -74.3062
   XY=             -2.2597   XZ=             -1.7780   YZ=             -0.1517

 Normal termination of Gaussian 16 at Tue Dec  5 17:41:57 2023.
