 Gaussian 16, Revision B.01,
 Gaussian 16:  ES64L-G16RevB.01 20-Dec-2017

 -------------------------
 #P B3LYP/6-311+g(d) force
 -------------------------

 -----
 DPGEN
 -----
 Symbolic Z-matrix:
 Charge =  0 Multiplicity = 2

                         Standard orientation:
 ---------------------------------------------------------------------
 Center     Atomic      Atomic             Coordinates (Angstroms)
 Number     Number       Type             X           Y           Z
 ---------------------------------------------------------------------
      1         11           0        2.056163   -2.433859   -0.210692
      2         11           0       -0.163275    0.085102    1.987044
      3         11           0        2.901605    1.005677    0.063345
      4         11           0       -1.499080   -2.250921    0.017955
      5         11           0       -2.888303    0.662724    0.110423
      6         11           0       -0.593949   -0.118325   -1.648864
      7         11           0        0.186839    3.049603   -0.319211
 ---------------------------------------------------------------------

 SCF Done:  E(UB3LYP) =  -1136.13251722     A.U. after   22 cycles

 The electronic state is 2-A.
 Alpha  occ. eigenvalues --  -38.43905 -38.43838 -38.43597 -38.43567 -38.43565
 Alpha  occ. eigenvalues --  -38.43545 -38.43471  -2.19765  -2.19716  -2.19541
 Alpha  occ. eigenvalues --   -2.19492  -2.19485  -2.19401  -2.19369  -1.13562
 Alpha  occ. eigenvalues --   -1.13439  -1.13418  -1.13394  -1.13382  -1.13380
 Alpha  occ. eigenvalues --   -1.13361  -1.13220  -1.13140  -1.13131  -1.13127
 Alpha  occ. eigenvalues --   -1.13101  -1.13091  -1.13083  -1.13069  -1.13054
 Alpha  occ. eigenvalues --   -1.13053  -1.13044  -1.13028  -1.13019  -1.13003
 Alpha  occ. eigenvalues --   -0.18938  -0.13108  -0.12543  -0.10843
 Alpha virt. eigenvalues --   -0.05443  -0.05231  -0.04874  -0.03213  -0.02861
 Alpha virt. eigenvalues --   -0.02540  -0.01332  -0.01111  -0.00423  -0.00253
 Alpha virt. eigenvalues --   -0.00002   0.00352   0.00854   0.00883   0.00917

  Beta  occ. eigenvalues --  -38.43906 -38.43828 -38.43598 -38.43553 -38.43539
  Beta  occ. eigenvalues --  -38.43470 -38.43403  -2.19751  -2.19719  -2.19518
  Beta  occ. eigenvalues --   -2.19404  -2.19373  -2.19362  -2.19311  -1.13540
  Beta  occ. eigenvalues --   -1.13400  -1.13385  -1.13380  -1.13379  -1.13367
  Beta  occ. eigenvalues --   -1.13362  -1.13160  -1.13118  -1.13067  -1.13059
  Beta  occ. eigenvalues --   -1.13053  -1.13046  -1.13033  -1.13025  -1.13014
  Beta  occ. eigenvalues --   -1.13004  -1.12995  -1.12977  -1.12967  -1.12956
  Beta  occ. eigenvalues --   -0.18180  -0.12889  -0.12302
  Beta virt. eigenvalues --   -0.06869  -0.05409  -0.05215  -0.04809  -0.02410
  Beta virt. eigenvalues --   -0.02125  -0.01494  -0.01250  -0.01046  -0.00451
  Beta virt. eigenvalues --   -0.00312   0.00140   0.00391   0.00881   0.00886

 Mulliken charges and spin densities:
               1          2
     1  Na  -0.172189  -0.108635
     2  Na  -0.404247   0.673606
     3  Na  -0.058203  -0.071498
     4  Na   0.484102   0.062866
     5  Na   0.568599  -0.007313
     6  Na  -0.340697   0.564403
     7  Na  -0.077364  -0.113430
 Sum of Mulliken charges =  -0.00000   1.00000

 Dipole moment (field-independent basis, Debye):
    X=              0.0476    Y=              0.1690    Z=              0.1663  Tot=              0.2418
 Quadrupole moment (field-independent basis, Debye-Ang):
   XX=            -58.4573   YY=            -61.7213   ZZ=            -74.1136
   XY=             -0.8959   XZ=             -0.7693   YZ=             -0.3494

 Normal termination of Gaussian 16 at Wed Dec  6 01:12:45 2023.
