 Gaussian 16, Revision B.01,
 Gaussian 16:  ES64L-G16RevB.01 20-Dec-2017

 -------------------------
 #P B3LYP/6-311+g(d) force
 -------------------------

 -----
 DPGEN
 -----
 Symbolic Z-matrix:
 Charge =  0 Multiplicity = 2

                         Standard orientation:
 ---------------------------------------------------------------------
 Center     Atomic      Atomic             Coordinates (Angstroms)
 Number     Number       Type             X           Y           Z
 ---------------------------------------------------------------------
      1         11           0       -1.660027    2.496454   -0.277178
      2         11           0       -0.383950    0.073831    1.867231
      3         11           0        0.049057   -0.883187   -1.677537
      4         11           0       -3.386564   -0.496827   -0.397161
      5         11           0        2.133156    2.137121    0.276312
      6         11           0        3.169066   -0.570183   -0.521666
      7         11           0        0.079262   -2.757208    0.729998
 ---------------------------------------------------------------------

 SCF Done:  E(UB3LYP) =  -1136.13006849     A.U. after   20 cycles

 The electronic state is 2-A.
 Alpha  occ. eigenvalues --  -38.44725 -38.44155 -38.43688 -38.43655 -38.43477
 Alpha  occ. eigenvalues --  -38.43476 -38.43280  -2.20521  -2.20016  -2.19609
 Alpha  occ. eigenvalues --   -2.19468  -2.19414  -2.19322  -2.19177  -1.14195
 Alpha  occ. eigenvalues --   -1.14168  -1.14157  -1.13729  -1.13683  -1.13637
 Alpha  occ. eigenvalues --   -1.13328  -1.13263  -1.13220  -1.13157  -1.13144
 Alpha  occ. eigenvalues --   -1.13121  -1.13100  -1.13055  -1.13030  -1.12994
 Alpha  occ. eigenvalues --   -1.12977  -1.12954  -1.12836  -1.12825  -1.12775
 Alpha  occ. eigenvalues --   -0.18430  -0.13336  -0.12229  -0.10867
 Alpha virt. eigenvalues --   -0.06150  -0.05055  -0.04460  -0.03325  -0.02985
 Alpha virt. eigenvalues --   -0.02486  -0.01984  -0.00956  -0.00516  -0.00221
 Alpha virt. eigenvalues --   -0.00017   0.00324   0.00757   0.00829   0.00855

  Beta  occ. eigenvalues --  -38.44708 -38.44141 -38.43652 -38.43642 -38.43474
  Beta  occ. eigenvalues --  -38.43388 -38.43255  -2.20492  -2.19993  -2.19523
  Beta  occ. eigenvalues --   -2.19466  -2.19322  -2.19251  -2.19136  -1.14160
  Beta  occ. eigenvalues --   -1.14152  -1.14138  -1.13718  -1.13653  -1.13621
  Beta  occ. eigenvalues --   -1.13271  -1.13206  -1.13153  -1.13146  -1.13138
  Beta  occ. eigenvalues --   -1.13090  -1.13019  -1.13002  -1.12967  -1.12960
  Beta  occ. eigenvalues --   -1.12928  -1.12915  -1.12805  -1.12762  -1.12746
  Beta  occ. eigenvalues --   -0.17754  -0.13054  -0.11990
  Beta virt. eigenvalues --   -0.07052  -0.06019  -0.04964  -0.04367  -0.02694
  Beta virt. eigenvalues --   -0.02292  -0.01823  -0.01504  -0.00896  -0.00468
  Beta virt. eigenvalues --   -0.00231   0.00114   0.00391   0.00808   0.00864

 Mulliken charges and spin densities:
               1          2
     1  Na  -0.210326  -0.009260
     2  Na   0.147039   0.505968
     3  Na  -0.110210   0.503043
     4  Na   0.110996   0.080645
     5  Na  -0.181858  -0.048429
     6  Na   0.227811   0.038435
     7  Na   0.016547  -0.070401
 Sum of Mulliken charges =  -0.00000   1.00000

 Dipole moment (field-independent basis, Debye):
    X=             -0.4980    Y=             -0.2148    Z=             -0.1516  Tot=              0.5632
 Quadrupole moment (field-independent basis, Debye-Ang):
   XX=            -55.5261   YY=            -65.9075   ZZ=            -73.3675
   XY=              0.1255   XZ=              0.6056   YZ=             -1.1871

 Normal termination of Gaussian 16 at Sun Dec  3 19:10:45 2023.
