 Gaussian 16, Revision B.01,
 Gaussian 16:  ES64L-G16RevB.01 20-Dec-2017

 -------------------------
 #P B3LYP/6-311+g(d) force
 -------------------------

 -----
 DPGEN
 -----
 Symbolic Z-matrix:
 Charge =  0 Multiplicity = 2

                         Standard orientation:
 ---------------------------------------------------------------------
 Center     Atomic      Atomic             Coordinates (Angstroms)
 Number     Number       Type             X           Y           Z
 ---------------------------------------------------------------------
      1         11           0        5.065741   -0.620584   -0.114226
      2         11           0       -1.719638   -2.800029    0.250991
      3         11           0       -0.928475    3.453070    0.105890
      4         11           0       -3.939311   -1.232535   -1.401867
      5         11           0        2.440034   -1.576075    0.685944
      6         11           0        1.797410    1.786877   -1.064055
      7         11           0       -2.715761    0.989276    1.537323
 ---------------------------------------------------------------------

 SCF Done:  E(UB3LYP) =  -1136.10826205     A.U. after   25 cycles

 The electronic state is 2-A.
 Alpha  occ. eigenvalues --  -38.45653 -38.44693 -38.44282 -38.44110 -38.44094
 Alpha  occ. eigenvalues --  -38.44016 -38.43055  -2.21418  -2.20520  -2.20074
 Alpha  occ. eigenvalues --   -2.19947  -2.19912  -2.19826  -2.18854  -1.15094
 Alpha  occ. eigenvalues --   -1.15087  -1.15060  -1.14264  -1.14178  -1.14162
 Alpha  occ. eigenvalues --   -1.13748  -1.13736  -1.13675  -1.13597  -1.13586
 Alpha  occ. eigenvalues --   -1.13575  -1.13563  -1.13554  -1.13523  -1.13494
 Alpha  occ. eigenvalues --   -1.13475  -1.13456  -1.12529  -1.12523  -1.12511
 Alpha  occ. eigenvalues --   -0.16032  -0.14250  -0.12517  -0.09826
 Alpha virt. eigenvalues --   -0.07463  -0.05122  -0.04883  -0.03573  -0.02929
 Alpha virt. eigenvalues --   -0.02798  -0.01728  -0.01568  -0.01095  -0.00923
 Alpha virt. eigenvalues --   -0.00501  -0.00135   0.00294   0.00308   0.00495

  Beta  occ. eigenvalues --  -38.45669 -38.44688 -38.44224 -38.44048 -38.44042
  Beta  occ. eigenvalues --  -38.43976 -38.43064  -2.21450  -2.20517  -2.19968
  Beta  occ. eigenvalues --   -2.19851  -2.19798  -2.19751  -2.18875  -1.15115
  Beta  occ. eigenvalues --   -1.15108  -1.15072  -1.14233  -1.14178  -1.14154
  Beta  occ. eigenvalues --   -1.13675  -1.13666  -1.13602  -1.13533  -1.13510
  Beta  occ. eigenvalues --   -1.13501  -1.13491  -1.13487  -1.13450  -1.13445
  Beta  occ. eigenvalues --   -1.13423  -1.13402  -1.12549  -1.12542  -1.12489
  Beta  occ. eigenvalues --   -0.15557  -0.13864  -0.12056
  Beta virt. eigenvalues --   -0.07098  -0.06651  -0.04882  -0.04498  -0.03401
  Beta virt. eigenvalues --   -0.02616  -0.02459  -0.01517  -0.01334  -0.00816
  Beta virt. eigenvalues --   -0.00701  -0.00266   0.00124   0.00362   0.00451

 Mulliken charges and spin densities:
               1          2
     1  Na   1.106918   0.273661
     2  Na  -0.419306   0.199338
     3  Na   0.414033  -0.123297
     4  Na   0.430724  -0.076359
     5  Na  -0.664935   0.046221
     6  Na  -0.492682   0.236959
     7  Na  -0.374750   0.443478
 Sum of Mulliken charges =  -0.00000   1.00000

 Dipole moment (field-independent basis, Debye):
    X=             -0.3979    Y=             -0.6579    Z=             -0.8668  Tot=              1.1586
 Quadrupole moment (field-independent basis, Debye-Ang):
   XX=            -60.9397   YY=            -74.5459   ZZ=            -65.6415
   XY=              4.8486   XZ=              3.7022   YZ=             -3.0734

 Normal termination of Gaussian 16 at Sun Dec  3 13:11:51 2023.
