 Gaussian 16, Revision B.01,
 Gaussian 16:  ES64L-G16RevB.01 20-Dec-2017

 -------------------------
 #P B3LYP/6-311+g(d) force
 -------------------------

 -----
 DPGEN
 -----
 Symbolic Z-matrix:
 Charge =  0 Multiplicity = 2

                         Standard orientation:
 ---------------------------------------------------------------------
 Center     Atomic      Atomic             Coordinates (Angstroms)
 Number     Number       Type             X           Y           Z
 ---------------------------------------------------------------------
      1         11           0       -1.433154   -1.281166   -1.132534
      2         11           0       -1.724768    2.230189   -0.557636
      3         11           0       -3.837448   -0.696577    0.560735
      4         11           0        1.650745   -2.642591   -0.704446
      5         11           0        1.604684    2.753523   -0.463331
      6         11           0       -0.064150   -0.171499    1.878253
      7         11           0        3.804091   -0.191878    0.418958
 ---------------------------------------------------------------------

 SCF Done:  E(UB3LYP) =  -1136.12006408     A.U. after   24 cycles

 The electronic state is 2-A.
 Alpha  occ. eigenvalues --  -38.45312 -38.45094 -38.45078 -38.43590 -38.43512
 Alpha  occ. eigenvalues --  -38.43420 -38.43406  -2.21104  -2.20928  -2.20847
 Alpha  occ. eigenvalues --   -2.19437  -2.19427  -2.19227  -2.19204  -1.14805
 Alpha  occ. eigenvalues --   -1.14757  -1.14706  -1.14638  -1.14566  -1.14547
 Alpha  occ. eigenvalues --   -1.14523  -1.14495  -1.14487  -1.13129  -1.13116
 Alpha  occ. eigenvalues --   -1.13101  -1.13096  -1.13069  -1.13038  -1.12890
 Alpha  occ. eigenvalues --   -1.12889  -1.12879  -1.12862  -1.12859  -1.12848
 Alpha  occ. eigenvalues --   -0.17748  -0.13741  -0.12122  -0.10096
 Alpha virt. eigenvalues --   -0.07314  -0.05598  -0.04726  -0.03360  -0.02780
 Alpha virt. eigenvalues --   -0.02554  -0.01883  -0.01374  -0.01011  -0.00464
 Alpha virt. eigenvalues --   -0.00251   0.00070   0.00316   0.00598   0.00727

  Beta  occ. eigenvalues --  -38.45260 -38.45075 -38.45069 -38.43567 -38.43473
  Beta  occ. eigenvalues --  -38.43419 -38.43379  -2.21007  -2.20892  -2.20829
  Beta  occ. eigenvalues --   -2.19386  -2.19368  -2.19205  -2.19179  -1.14731
  Beta  occ. eigenvalues --   -1.14696  -1.14630  -1.14615  -1.14539  -1.14516
  Beta  occ. eigenvalues --   -1.14506  -1.14488  -1.14473  -1.13093  -1.13076
  Beta  occ. eigenvalues --   -1.13064  -1.13031  -1.13025  -1.12998  -1.12879
  Beta  occ. eigenvalues --   -1.12864  -1.12859  -1.12853  -1.12833  -1.12813
  Beta  occ. eigenvalues --   -0.17183  -0.13598  -0.11701
  Beta virt. eigenvalues --   -0.07090  -0.06559  -0.05609  -0.04263  -0.02944
  Beta virt. eigenvalues --   -0.02563  -0.01998  -0.01371  -0.01195  -0.00824
  Beta virt. eigenvalues --   -0.00322  -0.00098   0.00137   0.00500   0.00719

 Mulliken charges and spin densities:
               1          2
     1  Na  -0.398206   0.215768
     2  Na  -0.033656   0.120181
     3  Na   0.881066   0.206378
     4  Na  -0.059646   0.022230
     5  Na  -0.206691  -0.058524
     6  Na  -0.351170   0.396969
     7  Na   0.168303   0.096998
 Sum of Mulliken charges =  -0.00000   1.00000

 Dipole moment (field-independent basis, Debye):
    X=             -0.2499    Y=             -0.0931    Z=              0.4137  Tot=              0.4922
 Quadrupole moment (field-independent basis, Debye-Ang):
   XX=            -46.4686   YY=            -73.7770   ZZ=            -74.8602
   XY=              0.4175   XZ=             -0.6975   YZ=             -0.4987

 Normal termination of Gaussian 16 at Mon Dec  4 00:10:06 2023.
