 Gaussian 16, Revision B.01,
 Gaussian 16:  ES64L-G16RevB.01 20-Dec-2017

 -------------------------
 #P B3LYP/6-311+g(d) force
 -------------------------

 -----
 DPGEN
 -----
 Symbolic Z-matrix:
 Charge =  0 Multiplicity = 2

                         Standard orientation:
 ---------------------------------------------------------------------
 Center     Atomic      Atomic             Coordinates (Angstroms)
 Number     Number       Type             X           Y           Z
 ---------------------------------------------------------------------
      1         11           0       -3.386136   -0.225389   -0.031682
      2         11           0       -0.365445    0.188569   -1.373718
      3         11           0        0.525217   -0.462413    2.232906
      4         11           0       -1.138537    2.611647    0.272424
      5         11           0       -0.520377   -2.790516   -0.399645
      6         11           0        2.270845    2.045877   -0.439441
      7         11           0        2.614433   -1.367774   -0.260843
 ---------------------------------------------------------------------

 SCF Done:  E(UB3LYP) =  -1136.13554571     A.U. after   19 cycles

 The electronic state is 2-A.
 Alpha  occ. eigenvalues --  -38.44257 -38.43725 -38.43698 -38.43589 -38.43500
 Alpha  occ. eigenvalues --  -38.43452 -38.42938  -2.20057  -2.19589  -2.19571
 Alpha  occ. eigenvalues --   -2.19453  -2.19347  -2.19316  -2.18987  -1.13736
 Alpha  occ. eigenvalues --   -1.13713  -1.13696  -1.13284  -1.13245  -1.13231
 Alpha  occ. eigenvalues --   -1.13220  -1.13207  -1.13204  -1.13187  -1.13107
 Alpha  occ. eigenvalues --   -1.13067  -1.13044  -1.13027  -1.12994  -1.12979
 Alpha  occ. eigenvalues --   -1.12970  -1.12926  -1.12666  -1.12634  -1.12592
 Alpha  occ. eigenvalues --   -0.18624  -0.12993  -0.12540  -0.10717
 Alpha virt. eigenvalues --   -0.05752  -0.05067  -0.04689  -0.03190  -0.02819
 Alpha virt. eigenvalues --   -0.02548  -0.01633  -0.01075  -0.00351  -0.00332
 Alpha virt. eigenvalues --   -0.00031   0.00332   0.00792   0.00863   0.00893

  Beta  occ. eigenvalues --  -38.44259 -38.43690 -38.43619 -38.43584 -38.43490
  Beta  occ. eigenvalues --  -38.43441 -38.42894  -2.20062  -2.19561  -2.19445
  Beta  occ. eigenvalues --   -2.19394  -2.19332  -2.19300  -2.18907  -1.13732
  Beta  occ. eigenvalues --   -1.13714  -1.13700  -1.13254  -1.13216  -1.13203
  Beta  occ. eigenvalues --   -1.13198  -1.13106  -1.13085  -1.13078  -1.13064
  Beta  occ. eigenvalues --   -1.13063  -1.13025  -1.13009  -1.12978  -1.12970
  Beta  occ. eigenvalues --   -1.12940  -1.12918  -1.12604  -1.12578  -1.12532
  Beta  occ. eigenvalues --   -0.17923  -0.12791  -0.12308
  Beta virt. eigenvalues --   -0.06757  -0.05710  -0.05037  -0.04614  -0.02428
  Beta virt. eigenvalues --   -0.02113  -0.01580  -0.01438  -0.01015  -0.00391
  Beta virt. eigenvalues --   -0.00337   0.00150   0.00378   0.00856   0.00865

 Mulliken charges and spin densities:
               1          2
     1  Na   0.108332  -0.018145
     2  Na  -0.291712   0.142414
     3  Na  -0.710497   0.724586
     4  Na   0.102402   0.071053
     5  Na   0.192164  -0.028826
     6  Na   0.172769   0.032755
     7  Na   0.426541   0.076162
 Sum of Mulliken charges =  -0.00000   1.00000

 Dipole moment (field-independent basis, Debye):
    X=             -0.2887    Y=             -0.0606    Z=              0.2482  Tot=              0.3855
 Quadrupole moment (field-independent basis, Debye-Ang):
   XX=            -55.5290   YY=            -63.0746   ZZ=            -74.4512
   XY=              0.4642   XZ=             -1.9729   YZ=              1.2660

 Normal termination of Gaussian 16 at Thu Dec  7 18:32:32 2023.
