 Gaussian 16, Revision B.01,
 Gaussian 16:  ES64L-G16RevB.01 20-Dec-2017

 -------------------------
 #P B3LYP/6-311+g(d) force
 -------------------------

 -----
 DPGEN
 -----
 Symbolic Z-matrix:
 Charge =  0 Multiplicity = 2

                         Standard orientation:
 ---------------------------------------------------------------------
 Center     Atomic      Atomic             Coordinates (Angstroms)
 Number     Number       Type             X           Y           Z
 ---------------------------------------------------------------------
      1         11           0       -0.166985    0.087663   -2.089889
      2         11           0       -3.062258   -0.990913   -0.049588
      3         11           0        3.120922   -1.153926   -0.824465
      4         11           0        2.311746    2.111301    0.979479
      5         11           0        0.230889   -2.399429    0.570201
      6         11           0       -1.659885    2.178540   -0.871353
      7         11           0       -0.774428    0.166762    2.285614
 ---------------------------------------------------------------------

 SCF Done:  E(UB3LYP) =  -1136.12487396     A.U. after   22 cycles

 The electronic state is 2-A.
 Alpha  occ. eigenvalues --  -38.44676 -38.44528 -38.44264 -38.44226 -38.44026
 Alpha  occ. eigenvalues --  -38.43205 -38.42811  -2.20433  -2.20394  -2.20140
 Alpha  occ. eigenvalues --   -2.20094  -2.19820  -2.19082  -2.18676  -1.14104
 Alpha  occ. eigenvalues --   -1.14073  -1.14072  -1.14063  -1.14035  -1.14000
 Alpha  occ. eigenvalues --   -1.13893  -1.13789  -1.13775  -1.13753  -1.13736
 Alpha  occ. eigenvalues --   -1.13714  -1.13490  -1.13477  -1.13457  -1.12804
 Alpha  occ. eigenvalues --   -1.12716  -1.12682  -1.12379  -1.12359  -1.12282
 Alpha  occ. eigenvalues --   -0.18171  -0.12985  -0.11981  -0.11637
 Alpha virt. eigenvalues --   -0.05819  -0.05335  -0.04143  -0.03496  -0.03332
 Alpha virt. eigenvalues --   -0.03258  -0.01638  -0.00981  -0.00357  -0.00034
 Alpha virt. eigenvalues --    0.00146   0.00357   0.00560   0.00581   0.00771

  Beta  occ. eigenvalues --  -38.44629 -38.44448 -38.44263 -38.44166 -38.44014
  Beta  occ. eigenvalues --  -38.43204 -38.42806  -2.20348  -2.20246  -2.20094
  Beta  occ. eigenvalues --   -2.20029  -2.19800  -2.19083  -2.18670  -1.14034
  Beta  occ. eigenvalues --   -1.14017  -1.14009  -1.13974  -1.13938  -1.13887
  Beta  occ. eigenvalues --   -1.13818  -1.13773  -1.13754  -1.13712  -1.13698
  Beta  occ. eigenvalues --   -1.13661  -1.13471  -1.13460  -1.13445  -1.12793
  Beta  occ. eigenvalues --   -1.12711  -1.12678  -1.12372  -1.12341  -1.12275
  Beta  occ. eigenvalues --   -0.17438  -0.12732  -0.11387
  Beta virt. eigenvalues --   -0.08110  -0.05680  -0.04971  -0.03871  -0.03106
  Beta virt. eigenvalues --   -0.02675  -0.02446  -0.01550  -0.00735  -0.00260
  Beta virt. eigenvalues --    0.00050   0.00169   0.00384   0.00687   0.00778

 Mulliken charges and spin densities:
               1          2
     1  Na  -0.196536   0.387250
     2  Na   0.305923  -0.089664
     3  Na   0.407276   0.061742
     4  Na  -0.265522   0.090622
     5  Na  -0.380534  -0.170012
     6  Na   0.109626  -0.027737
     7  Na   0.019766   0.747798
 Sum of Mulliken charges =  -0.00000   1.00000

 Dipole moment (field-independent basis, Debye):
    X=             -0.0983    Y=              0.0611    Z=              0.1827  Tot=              0.2163
 Quadrupole moment (field-independent basis, Debye-Ang):
   XX=            -56.6771   YY=            -70.8238   ZZ=            -69.0985
   XY=              1.3071   XZ=             -0.2317   YZ=              5.4421

 Normal termination of Gaussian 16 at Sun Dec  3 23:28:13 2023.
