 Gaussian 16, Revision B.01,
 Gaussian 16:  ES64L-G16RevB.01 20-Dec-2017

 -------------------------
 #P B3LYP/6-311+g(d) force
 -------------------------

 -----
 DPGEN
 -----
 Symbolic Z-matrix:
 Charge =  0 Multiplicity = 2

                         Standard orientation:
 ---------------------------------------------------------------------
 Center     Atomic      Atomic             Coordinates (Angstroms)
 Number     Number       Type             X           Y           Z
 ---------------------------------------------------------------------
      1         11           0        0.176730   -2.500899   -0.230428
      2         11           0        0.290275    0.007794   -1.670994
      3         11           0       -0.251548   -0.312288    1.827449
      4         11           0       -2.062082    2.271368   -0.196563
      5         11           0       -2.940371   -1.224788   -0.008657
      6         11           0        3.284691   -0.672524    0.075877
      7         11           0        1.502306    2.431338    0.203316
 ---------------------------------------------------------------------

 SCF Done:  E(UB3LYP) =  -1136.13416118     A.U. after   19 cycles

 The electronic state is 2-A.
 Alpha  occ. eigenvalues --  -38.44342 -38.44064 -38.43556 -38.43442 -38.43321
 Alpha  occ. eigenvalues --  -38.43192 -38.43139  -2.20152  -2.19910  -2.19377
 Alpha  occ. eigenvalues --   -2.19295  -2.19283  -2.19207  -2.19112  -1.13823
 Alpha  occ. eigenvalues --   -1.13807  -1.13798  -1.13585  -1.13568  -1.13556
 Alpha  occ. eigenvalues --   -1.13095  -1.13055  -1.13045  -1.13025  -1.13016
 Alpha  occ. eigenvalues --   -1.12992  -1.12969  -1.12914  -1.12908  -1.12881
 Alpha  occ. eigenvalues --   -1.12841  -1.12789  -1.12743  -1.12705  -1.12673
 Alpha  occ. eigenvalues --   -0.18964  -0.13152  -0.12452  -0.10583
 Alpha virt. eigenvalues --   -0.05901  -0.05245  -0.04365  -0.03125  -0.02775
 Alpha virt. eigenvalues --   -0.02295  -0.01875  -0.01108  -0.00285  -0.00148
 Alpha virt. eigenvalues --    0.00000   0.00327   0.00762   0.00878   0.00897

  Beta  occ. eigenvalues --  -38.44341 -38.44061 -38.43552 -38.43436 -38.43239
  Beta  occ. eigenvalues --  -38.43122 -38.43116  -2.20153  -2.19908  -2.19373
  Beta  occ. eigenvalues --   -2.19286  -2.19134  -2.19097  -2.19060  -1.13814
  Beta  occ. eigenvalues --   -1.13803  -1.13798  -1.13577  -1.13562  -1.13546
  Beta  occ. eigenvalues --   -1.13046  -1.13033  -1.13028  -1.13022  -1.12988
  Beta  occ. eigenvalues --   -1.12941  -1.12916  -1.12906  -1.12815  -1.12773
  Beta  occ. eigenvalues --   -1.12747  -1.12702  -1.12689  -1.12661  -1.12624
  Beta  occ. eigenvalues --   -0.18227  -0.12930  -0.12184
  Beta virt. eigenvalues --   -0.06653  -0.05856  -0.05249  -0.04347  -0.02362
  Beta virt. eigenvalues --   -0.01984  -0.01786  -0.01248  -0.01063  -0.00326
  Beta virt. eigenvalues --   -0.00185   0.00135   0.00355   0.00811   0.00872

 Mulliken charges and spin densities:
               1          2
     1  Na   0.486791  -0.097364
     2  Na  -0.325962   0.632839
     3  Na  -0.486086   0.788875
     4  Na  -0.027661  -0.102918
     5  Na   0.242987  -0.060057
     6  Na   0.126543  -0.072310
     7  Na  -0.016611  -0.089064
 Sum of Mulliken charges =  -0.00000   1.00000

 Dipole moment (field-independent basis, Debye):
    X=              0.0963    Y=              0.0396    Z=              0.1213  Tot=              0.1599
 Quadrupole moment (field-independent basis, Debye-Ang):
   XX=            -51.5426   YY=            -65.1373   ZZ=            -75.2799
   XY=             -0.0410   XZ=              1.2533   YZ=              0.5144

 Normal termination of Gaussian 16 at Fri Dec  8 06:39:38 2023.
