 Gaussian 16, Revision B.01,
 Gaussian 16:  ES64L-G16RevB.01 20-Dec-2017

 -------------------------
 #P B3LYP/6-311+g(d) force
 -------------------------

 -----
 DPGEN
 -----
 Symbolic Z-matrix:
 Charge =  0 Multiplicity = 2

                         Standard orientation:
 ---------------------------------------------------------------------
 Center     Atomic      Atomic             Coordinates (Angstroms)
 Number     Number       Type             X           Y           Z
 ---------------------------------------------------------------------
      1         11           0        0.293343   -1.557822    0.112144
      2         11           0        6.608981   -0.347278   -0.165471
      3         11           0        3.197400   -0.080074   -0.148356
      4         11           0        0.782908    2.085186   -0.099812
      5         11           0       -2.231178    1.335918    0.912767
      6         11           0       -3.492910   -1.831727    0.298070
      7         11           0       -5.158544    0.395798   -0.909341
 ---------------------------------------------------------------------

 SCF Done:  E(UB3LYP) =  -1136.11516497     A.U. after   24 cycles

 The electronic state is 2-A.
 Alpha  occ. eigenvalues --  -38.44805 -38.44705 -38.44702 -38.44571 -38.44277
 Alpha  occ. eigenvalues --  -38.43613 -38.43169  -2.20667  -2.20573  -2.20545
 Alpha  occ. eigenvalues --   -2.20420  -2.20139  -2.19352  -2.19038  -1.14364
 Alpha  occ. eigenvalues --   -1.14351  -1.14332  -1.14292  -1.14234  -1.14219
 Alpha  occ. eigenvalues --   -1.14186  -1.14179  -1.14100  -1.14089  -1.14078
 Alpha  occ. eigenvalues --   -1.14025  -1.13818  -1.13795  -1.13755  -1.13028
 Alpha  occ. eigenvalues --   -1.13027  -1.13005  -1.12746  -1.12709  -1.12631
 Alpha  occ. eigenvalues --   -0.17577  -0.14572  -0.11749  -0.11135
 Alpha virt. eigenvalues --   -0.07065  -0.05730  -0.04676  -0.03625  -0.03133
 Alpha virt. eigenvalues --   -0.02328  -0.02237  -0.01324  -0.00994  -0.00671
 Alpha virt. eigenvalues --   -0.00226  -0.00169  -0.00008   0.00174   0.00557

  Beta  occ. eigenvalues --  -38.44759 -38.44678 -38.44670 -38.44498 -38.44244
  Beta  occ. eigenvalues --  -38.43644 -38.43159  -2.20587  -2.20518  -2.20494
  Beta  occ. eigenvalues --   -2.20285  -2.20079  -2.19411  -2.19018  -1.14309
  Beta  occ. eigenvalues --   -1.14300  -1.14273  -1.14235  -1.14194  -1.14174
  Beta  occ. eigenvalues --   -1.14151  -1.14136  -1.14049  -1.13999  -1.13973
  Beta  occ. eigenvalues --   -1.13933  -1.13762  -1.13748  -1.13723  -1.13068
  Beta  occ. eigenvalues --   -1.13067  -1.13043  -1.12719  -1.12694  -1.12640
  Beta  occ. eigenvalues --   -0.16816  -0.14420  -0.11292
  Beta virt. eigenvalues --   -0.07681  -0.06781  -0.05029  -0.04430  -0.03302
  Beta virt. eigenvalues --   -0.02575  -0.02214  -0.01758  -0.01245  -0.00671
  Beta virt. eigenvalues --   -0.00577  -0.00059   0.00019   0.00213   0.00343

 Mulliken charges and spin densities:
               1          2
     1  Na   1.614657   0.833027
     2  Na  -1.259197  -0.064560
     3  Na  -1.122381  -0.493474
     4  Na   1.464196   0.490225
     5  Na  -1.027375   0.210691
     6  Na  -0.081906  -0.074026
     7  Na   0.412007   0.098117
 Sum of Mulliken charges =  -0.00000   1.00000

 Dipole moment (field-independent basis, Debye):
    X=             -2.8172    Y=              0.3030    Z=             -0.1935  Tot=              2.8401
 Quadrupole moment (field-independent basis, Debye-Ang):
   XX=            -63.8975   YY=            -67.7768   ZZ=            -70.1374
   XY=              0.7167   XZ=              2.1906   YZ=             -1.4479

 Normal termination of Gaussian 16 at Tue Nov 28 20:42:27 2023.
