 Gaussian 16, Revision B.01,
 Gaussian 16:  ES64L-G16RevB.01 20-Dec-2017

 -------------------------
 #P B3LYP/6-311+g(d) force
 -------------------------

 -----
 DPGEN
 -----
 Symbolic Z-matrix:
 Charge =  0 Multiplicity = 2

                         Standard orientation:
 ---------------------------------------------------------------------
 Center     Atomic      Atomic             Coordinates (Angstroms)
 Number     Number       Type             X           Y           Z
 ---------------------------------------------------------------------
      1         11           0        3.936119   -1.766165    0.300675
      2         11           0        0.355430    2.602400   -0.603548
      3         11           0       -3.292859    1.299442    0.302651
      4         11           0       -0.237618   -1.324083   -0.260116
      5         11           0       -4.107889   -1.960855   -0.486999
      6         11           0        0.650707    0.568294    1.979868
      7         11           0        2.696111    0.580966   -1.232532
 ---------------------------------------------------------------------

 SCF Done:  E(UB3LYP) =  -1136.11531463     A.U. after   23 cycles

 The electronic state is 2-A.
 Alpha  occ. eigenvalues --  -38.45371 -38.45185 -38.44302 -38.44007 -38.43838
 Alpha  occ. eigenvalues --  -38.43563 -38.42796  -2.21131  -2.21018  -2.20106
 Alpha  occ. eigenvalues --   -2.19916  -2.19613  -2.19498  -2.18680  -1.14827
 Alpha  occ. eigenvalues --   -1.14787  -1.14763  -1.14749  -1.14697  -1.14591
 Alpha  occ. eigenvalues --   -1.13818  -1.13762  -1.13728  -1.13613  -1.13543
 Alpha  occ. eigenvalues --   -1.13504  -1.13282  -1.13275  -1.13248  -1.13178
 Alpha  occ. eigenvalues --   -1.13145  -1.13122  -1.12360  -1.12340  -1.12302
 Alpha  occ. eigenvalues --   -0.17978  -0.13855  -0.11635  -0.10637
 Alpha virt. eigenvalues --   -0.07076  -0.05855  -0.04158  -0.03395  -0.02818
 Alpha virt. eigenvalues --   -0.02427  -0.02062  -0.01687  -0.00930  -0.00549
 Alpha virt. eigenvalues --   -0.00246  -0.00007   0.00411   0.00537   0.00600

  Beta  occ. eigenvalues --  -38.45364 -38.45159 -38.44291 -38.43923 -38.43832
  Beta  occ. eigenvalues --  -38.43509 -38.42769  -2.21118  -2.20976  -2.20087
  Beta  occ. eigenvalues --   -2.19764  -2.19603  -2.19400  -2.18633  -1.14815
  Beta  occ. eigenvalues --   -1.14778  -1.14739  -1.14699  -1.14670  -1.14571
  Beta  occ. eigenvalues --   -1.13798  -1.13749  -1.13709  -1.13502  -1.13437
  Beta  occ. eigenvalues --   -1.13400  -1.13276  -1.13265  -1.13243  -1.13110
  Beta  occ. eigenvalues --   -1.13076  -1.13043  -1.12328  -1.12307  -1.12256
  Beta  occ. eigenvalues --   -0.17297  -0.13541  -0.11423
  Beta virt. eigenvalues --   -0.07025  -0.06715  -0.05671  -0.03981  -0.02876
  Beta virt. eigenvalues --   -0.02651  -0.01936  -0.01798  -0.01254  -0.00751
  Beta virt. eigenvalues --   -0.00323  -0.00022   0.00078   0.00517   0.00639

 Mulliken charges and spin densities:
               1          2
     1  Na   0.462260   0.007927
     2  Na   0.005786   0.117991
     3  Na  -0.002825   0.087893
     4  Na  -1.254657   0.070278
     5  Na   0.622054   0.094944
     6  Na   0.200464   0.331370
     7  Na  -0.033082   0.289596
 Sum of Mulliken charges =  -0.00000   1.00000

 Dipole moment (field-independent basis, Debye):
    X=             -0.4895    Y=             -0.0512    Z=              0.9650  Tot=              1.0832
 Quadrupole moment (field-independent basis, Debye-Ang):
   XX=            -61.5357   YY=            -67.1249   ZZ=            -70.6679
   XY=             -4.3111   XZ=              2.7945   YZ=              2.3733

 Normal termination of Gaussian 16 at Tue Dec  5 21:09:13 2023.
