 Gaussian 16, Revision B.01,
 Gaussian 16:  ES64L-G16RevB.01 20-Dec-2017

 -------------------------
 #P B3LYP/6-311+g(d) force
 -------------------------

 -----
 DPGEN
 -----
 Symbolic Z-matrix:
 Charge =  0 Multiplicity = 2

                         Standard orientation:
 ---------------------------------------------------------------------
 Center     Atomic      Atomic             Coordinates (Angstroms)
 Number     Number       Type             X           Y           Z
 ---------------------------------------------------------------------
      1         11           0        2.956691    1.317942   -1.157026
      2         11           0        1.370257    0.577858    1.394211
      3         11           0       -3.740355   -1.064154   -1.088156
      4         11           0       -0.227077   -0.743143   -1.466156
      5         11           0        3.166001   -2.155790    0.462497
      6         11           0       -1.160767    2.388925    0.024082
      7         11           0       -2.364750   -0.321638    1.830550
 ---------------------------------------------------------------------

 SCF Done:  E(UB3LYP) =  -1136.12099211     A.U. after   24 cycles

 The electronic state is 2-A.
 Alpha  occ. eigenvalues --  -38.45261 -38.44521 -38.44421 -38.43799 -38.43657
 Alpha  occ. eigenvalues --  -38.43330 -38.43185  -2.21085  -2.20359  -2.20266
 Alpha  occ. eigenvalues --   -2.19608  -2.19460  -2.19282  -2.19018  -1.14791
 Alpha  occ. eigenvalues --   -1.14737  -1.14675  -1.14063  -1.14023  -1.13961
 Alpha  occ. eigenvalues --   -1.13944  -1.13915  -1.13885  -1.13276  -1.13265
 Alpha  occ. eigenvalues --   -1.13249  -1.13137  -1.13116  -1.13086  -1.12989
 Alpha  occ. eigenvalues --   -1.12974  -1.12866  -1.12702  -1.12681  -1.12651
 Alpha  occ. eigenvalues --   -0.18067  -0.14116  -0.10976  -0.10873
 Alpha virt. eigenvalues --   -0.06624  -0.05511  -0.05075  -0.02989  -0.02558
 Alpha virt. eigenvalues --   -0.02471  -0.02111  -0.01206  -0.01157  -0.00225
 Alpha virt. eigenvalues --    0.00094   0.00163   0.00254   0.00360   0.00528

  Beta  occ. eigenvalues --  -38.45228 -38.44476 -38.44380 -38.43794 -38.43627
  Beta  occ. eigenvalues --  -38.43302 -38.43194  -2.21025  -2.20277  -2.20189
  Beta  occ. eigenvalues --   -2.19599  -2.19405  -2.19232  -2.19037  -1.14751
  Beta  occ. eigenvalues --   -1.14691  -1.14632  -1.14000  -1.13960  -1.13901
  Beta  occ. eigenvalues --   -1.13888  -1.13866  -1.13828  -1.13265  -1.13260
  Beta  occ. eigenvalues --   -1.13240  -1.13091  -1.13079  -1.13053  -1.12957
  Beta  occ. eigenvalues --   -1.12914  -1.12832  -1.12714  -1.12676  -1.12659
  Beta  occ. eigenvalues --   -0.17427  -0.13899  -0.10686
  Beta virt. eigenvalues --   -0.07280  -0.06424  -0.05197  -0.04544  -0.02790
  Beta virt. eigenvalues --   -0.02386  -0.01981  -0.01494  -0.01062  -0.00691
  Beta virt. eigenvalues --   -0.00197   0.00180   0.00230   0.00369   0.00478

 Mulliken charges and spin densities:
               1          2
     1  Na   0.317972   0.153717
     2  Na   0.055725   0.405823
     3  Na   0.161781  -0.007838
     4  Na  -0.606042   0.343022
     5  Na   0.042567  -0.059637
     6  Na   0.093063   0.077552
     7  Na  -0.065065   0.087360
 Sum of Mulliken charges =  -0.00000   1.00000

 Dipole moment (field-independent basis, Debye):
    X=              0.2267    Y=              0.5775    Z=             -0.3206  Tot=              0.6984
 Quadrupole moment (field-independent basis, Debye-Ang):
   XX=            -53.8050   YY=            -72.2958   ZZ=            -69.5132
   XY=              0.9231   XZ=             -3.4659   YZ=             -3.9743

 Normal termination of Gaussian 16 at Thu Dec  7 09:05:48 2023.
