 Gaussian 16, Revision B.01,
 Gaussian 16:  ES64L-G16RevB.01 20-Dec-2017

 -------------------------
 #P B3LYP/6-311+g(d) force
 -------------------------

 -----
 DPGEN
 -----
 Symbolic Z-matrix:
 Charge =  0 Multiplicity = 2

                         Standard orientation:
 ---------------------------------------------------------------------
 Center     Atomic      Atomic             Coordinates (Angstroms)
 Number     Number       Type             X           Y           Z
 ---------------------------------------------------------------------
      1         11           0       -1.849446    2.724146   -0.231586
      2         11           0        1.488735    1.345441   -0.954637
      3         11           0        4.945742    0.062542   -0.260238
      4         11           0       -0.867621    0.468859    2.054230
      5         11           0       -1.325614   -1.998545   -0.936777
      6         11           0        1.784269   -1.742292    0.703721
      7         11           0       -4.176065   -0.860151   -0.374713
 ---------------------------------------------------------------------

 SCF Done:  E(UB3LYP) =  -1136.11926513     A.U. after   23 cycles

 The electronic state is 2-A.
 Alpha  occ. eigenvalues --  -38.45162 -38.44711 -38.44636 -38.43961 -38.43684
 Alpha  occ. eigenvalues --  -38.43415 -38.43210  -2.20981  -2.20499  -2.20419
 Alpha  occ. eigenvalues --   -2.19784  -2.19529  -2.19247  -2.19013  -1.14649
 Alpha  occ. eigenvalues --   -1.14637  -1.14602  -1.14214  -1.14192  -1.14094
 Alpha  occ. eigenvalues --   -1.14075  -1.14069  -1.14021  -1.13460  -1.13427
 Alpha  occ. eigenvalues --   -1.13402  -1.13220  -1.13205  -1.13135  -1.12927
 Alpha  occ. eigenvalues --   -1.12908  -1.12893  -1.12692  -1.12672  -1.12648
 Alpha  occ. eigenvalues --   -0.17417  -0.13765  -0.11579  -0.10965
 Alpha virt. eigenvalues --   -0.07212  -0.05172  -0.04429  -0.03369  -0.03081
 Alpha virt. eigenvalues --   -0.02516  -0.01909  -0.01635  -0.01162  -0.00665
 Alpha virt. eigenvalues --   -0.00423   0.00036   0.00367   0.00556   0.00696

  Beta  occ. eigenvalues --  -38.45121 -38.44713 -38.44569 -38.43898 -38.43651
  Beta  occ. eigenvalues --  -38.43418 -38.43207  -2.20907  -2.20504  -2.20293
  Beta  occ. eigenvalues --   -2.19666  -2.19473  -2.19258  -2.19007  -1.14591
  Beta  occ. eigenvalues --   -1.14589  -1.14543  -1.14218  -1.14187  -1.14090
  Beta  occ. eigenvalues --   -1.13988  -1.13982  -1.13942  -1.13385  -1.13347
  Beta  occ. eigenvalues --   -1.13320  -1.13188  -1.13162  -1.13076  -1.12940
  Beta  occ. eigenvalues --   -1.12919  -1.12860  -1.12688  -1.12669  -1.12639
  Beta  occ. eigenvalues --   -0.16872  -0.13092  -0.11379
  Beta virt. eigenvalues --   -0.07547  -0.06922  -0.04925  -0.03819  -0.03245
  Beta virt. eigenvalues --   -0.02825  -0.02229  -0.01551  -0.01337  -0.00740
  Beta virt. eigenvalues --   -0.00380  -0.00245   0.00104   0.00473   0.00631

 Mulliken charges and spin densities:
               1          2
     1  Na   0.191388   0.174073
     2  Na  -0.477680  -0.021819
     3  Na   0.382226   0.311440
     4  Na   0.024190   0.088876
     5  Na  -0.212762   0.008887
     6  Na  -0.008974   0.167836
     7  Na   0.101613   0.270706
 Sum of Mulliken charges =  -0.00000   1.00000

 Dipole moment (field-independent basis, Debye):
    X=              0.5604    Y=              0.2544    Z=              0.8096  Tot=              1.0170
 Quadrupole moment (field-independent basis, Debye-Ang):
   XX=            -59.4839   YY=            -76.8167   ZZ=            -64.3197
   XY=             -5.1237   XZ=             -1.4183   YZ=             -2.4351

 Normal termination of Gaussian 16 at Mon Dec  4 05:08:09 2023.
