 Gaussian 16, Revision B.01,
 Gaussian 16:  ES64L-G16RevB.01 20-Dec-2017

 -------------------------
 #P B3LYP/6-311+g(d) force
 -------------------------

 -----
 DPGEN
 -----
 Symbolic Z-matrix:
 Charge =  0 Multiplicity = 2

                         Standard orientation:
 ---------------------------------------------------------------------
 Center     Atomic      Atomic             Coordinates (Angstroms)
 Number     Number       Type             X           Y           Z
 ---------------------------------------------------------------------
      1         11           0        0.234859   -1.474748    1.237692
      2         11           0        5.587964   -0.014199    0.032286
      3         11           0        2.891182   -1.029969   -0.779273
      4         11           0        1.607979    2.020041    0.050657
      5         11           0       -1.841386    1.771337    0.073679
      6         11           0       -2.856895   -1.351334   -0.586479
      7         11           0       -5.623702    0.078872   -0.028563
 ---------------------------------------------------------------------

 SCF Done:  E(UB3LYP) =  -1136.11763765     A.U. after   21 cycles

 The electronic state is 2-A.
 Alpha  occ. eigenvalues --  -38.44505 -38.44494 -38.44281 -38.44071 -38.43951
 Alpha  occ. eigenvalues --  -38.43716 -38.43617  -2.20335  -2.20323  -2.20144
 Alpha  occ. eigenvalues --   -2.19918  -2.19848  -2.19514  -2.19427  -1.14037
 Alpha  occ. eigenvalues --   -1.14012  -1.14009  -1.13973  -1.13962  -1.13893
 Alpha  occ. eigenvalues --   -1.13825  -1.13811  -1.13771  -1.13613  -1.13571
 Alpha  occ. eigenvalues --   -1.13541  -1.13519  -1.13515  -1.13483  -1.13181
 Alpha  occ. eigenvalues --   -1.13174  -1.13147  -1.13084  -1.13076  -1.13059
 Alpha  occ. eigenvalues --   -0.17180  -0.14355  -0.11633  -0.11235
 Alpha virt. eigenvalues --   -0.05986  -0.05432  -0.05243  -0.03331  -0.03003
 Alpha virt. eigenvalues --   -0.02356  -0.02192  -0.01285  -0.00970  -0.00596
 Alpha virt. eigenvalues --   -0.00205  -0.00020   0.00180   0.00481   0.00668

  Beta  occ. eigenvalues --  -38.44461 -38.44438 -38.44265 -38.44000 -38.43939
  Beta  occ. eigenvalues --  -38.43715 -38.43621  -2.20255  -2.20222  -2.20115
  Beta  occ. eigenvalues --   -2.19828  -2.19788  -2.19512  -2.19435  -1.13986
  Beta  occ. eigenvalues --   -1.13953  -1.13944  -1.13906  -1.13885  -1.13824
  Beta  occ. eigenvalues --   -1.13805  -1.13788  -1.13731  -1.13542  -1.13528
  Beta  occ. eigenvalues --   -1.13495  -1.13472  -1.13452  -1.13427  -1.13179
  Beta  occ. eigenvalues --   -1.13172  -1.13144  -1.13088  -1.13082  -1.13061
  Beta  occ. eigenvalues --   -0.16515  -0.14220  -0.11072
  Beta virt. eigenvalues --   -0.07619  -0.05881  -0.05133  -0.04728  -0.02915
  Beta virt. eigenvalues --   -0.02554  -0.02178  -0.01865  -0.01051  -0.00638
  Beta virt. eigenvalues --   -0.00428  -0.00059   0.00195   0.00362   0.00485

 Mulliken charges and spin densities:
               1          2
     1  Na  -0.058597   0.590570
     2  Na   0.470169  -0.055749
     3  Na  -0.326179   0.006470
     4  Na  -0.242973   0.234517
     5  Na  -0.142867   0.247375
     6  Na  -0.219539  -0.000036
     7  Na   0.519985  -0.023147
 Sum of Mulliken charges =  -0.00000   1.00000

 Dipole moment (field-independent basis, Debye):
    X=             -0.3365    Y=              0.3292    Z=              0.4523  Tot=              0.6528
 Quadrupole moment (field-independent basis, Debye-Ang):
   XX=            -64.4427   YY=            -68.5336   ZZ=            -69.1442
   XY=              0.7022   XZ=              1.2128   YZ=              1.5005

 Normal termination of Gaussian 16 at Wed Nov 29 01:03:37 2023.
