 Gaussian 16, Revision B.01,
 Gaussian 16:  ES64L-G16RevB.01 20-Dec-2017

 -------------------------
 #P B3LYP/6-311+g(d) force
 -------------------------

 -----
 DPGEN
 -----
 Symbolic Z-matrix:
 Charge =  0 Multiplicity = 2

                         Standard orientation:
 ---------------------------------------------------------------------
 Center     Atomic      Atomic             Coordinates (Angstroms)
 Number     Number       Type             X           Y           Z
 ---------------------------------------------------------------------
      1         11           0       -1.007073    0.080388    1.981291
      2         11           0       -0.630648    2.945446   -0.544257
      3         11           0       -2.165170   -2.540554    0.744541
      4         11           0       -3.021910    0.376650   -1.459727
      5         11           0        1.984873    2.357046    0.649760
      6         11           0        3.860950   -1.370993   -0.379586
      7         11           0        0.978977   -1.847983   -0.992021
 ---------------------------------------------------------------------

 SCF Done:  E(UB3LYP) =  -1136.12125159     A.U. after   19 cycles

 The electronic state is 2-A.
 Alpha  occ. eigenvalues --  -38.44614 -38.44426 -38.44277 -38.44186 -38.43805
 Alpha  occ. eigenvalues --  -38.43732 -38.43691  -2.20460  -2.20235  -2.20103
 Alpha  occ. eigenvalues --   -2.20029  -2.19637  -2.19586  -2.19502  -1.14138
 Alpha  occ. eigenvalues --   -1.14116  -1.14093  -1.13895  -1.13881  -1.13855
 Alpha  occ. eigenvalues --   -1.13843  -1.13750  -1.13721  -1.13699  -1.13679
 Alpha  occ. eigenvalues --   -1.13653  -1.13396  -1.13303  -1.13295  -1.13256
 Alpha  occ. eigenvalues --   -1.13228  -1.13224  -1.13147  -1.13131  -1.13103
 Alpha  occ. eigenvalues --   -0.17411  -0.13168  -0.12821  -0.10965
 Alpha virt. eigenvalues --   -0.06127  -0.05621  -0.04771  -0.03398  -0.03173
 Alpha virt. eigenvalues --   -0.02447  -0.01681  -0.01513  -0.00855  -0.00424
 Alpha virt. eigenvalues --   -0.00248   0.00199   0.00458   0.00553   0.00724

  Beta  occ. eigenvalues --  -38.44551 -38.44340 -38.44266 -38.44168 -38.43797
  Beta  occ. eigenvalues --  -38.43725 -38.43687  -2.20347  -2.20081  -2.20075
  Beta  occ. eigenvalues --   -2.20000  -2.19622  -2.19576  -2.19494  -1.14062
  Beta  occ. eigenvalues --   -1.14039  -1.14003  -1.13846  -1.13784  -1.13771
  Beta  occ. eigenvalues --   -1.13733  -1.13728  -1.13706  -1.13663  -1.13660
  Beta  occ. eigenvalues --   -1.13630  -1.13389  -1.13292  -1.13277  -1.13252
  Beta  occ. eigenvalues --   -1.13225  -1.13187  -1.13142  -1.13125  -1.13096
  Beta  occ. eigenvalues --   -0.16820  -0.12968  -0.12418
  Beta virt. eigenvalues --   -0.07271  -0.05902  -0.05479  -0.04432  -0.02991
  Beta virt. eigenvalues --   -0.02559  -0.01982  -0.01520  -0.01232  -0.00674
  Beta virt. eigenvalues --   -0.00302  -0.00001   0.00321   0.00540   0.00624

 Mulliken charges and spin densities:
               1          2
     1  Na  -0.361829   0.316929
     2  Na  -0.079222   0.038541
     3  Na   0.905953   0.121070
     4  Na  -0.080099   0.425324
     5  Na   0.084746   0.031994
     6  Na   0.379358  -0.064092
     7  Na  -0.848908   0.130233
 Sum of Mulliken charges =  -0.00000   1.00000

 Dipole moment (field-independent basis, Debye):
    X=             -0.2910    Y=             -0.1569    Z=              0.4978  Tot=              0.5976
 Quadrupole moment (field-independent basis, Debye-Ang):
   XX=            -60.2675   YY=            -67.0157   ZZ=            -71.7671
   XY=              5.9344   XZ=              2.4305   YZ=             -0.1914

 Normal termination of Gaussian 16 at Sun Dec  3 16:54:48 2023.
