 Gaussian 16, Revision B.01,
 Gaussian 16:  ES64L-G16RevB.01 20-Dec-2017

 -------------------------
 #P B3LYP/6-311+g(d) force
 -------------------------

 -----
 DPGEN
 -----
 Symbolic Z-matrix:
 Charge =  0 Multiplicity = 2

                         Standard orientation:
 ---------------------------------------------------------------------
 Center     Atomic      Atomic             Coordinates (Angstroms)
 Number     Number       Type             X           Y           Z
 ---------------------------------------------------------------------
      1         11           0        0.168469   -0.127918    1.869897
      2         11           0       -1.544090    2.467417    0.193143
      3         11           0       -0.602358   -2.670060   -0.202356
      4         11           0        2.965048   -1.245346    0.094659
      5         11           0       -3.114091   -0.576983    0.021513
      6         11           0        2.103256    1.956104   -0.146852
      7         11           0        0.023765    0.196786   -1.830005
 ---------------------------------------------------------------------

 SCF Done:  E(UB3LYP) =  -1136.13929802     A.U. after   19 cycles

 The electronic state is 2-A.
 Alpha  occ. eigenvalues --  -38.44112 -38.44068 -38.43553 -38.43425 -38.43342
 Alpha  occ. eigenvalues --  -38.43196 -38.43052  -2.19956  -2.19899  -2.19441
 Alpha  occ. eigenvalues --   -2.19361  -2.19300  -2.19053  -2.18933  -1.13621
 Alpha  occ. eigenvalues --   -1.13619  -1.13609  -1.13573  -1.13563  -1.13541
 Alpha  occ. eigenvalues --   -1.13164  -1.13113  -1.13060  -1.13042  -1.12995
 Alpha  occ. eigenvalues --   -1.12975  -1.12970  -1.12933  -1.12913  -1.12722
 Alpha  occ. eigenvalues --   -1.12720  -1.12686  -1.12616  -1.12600  -1.12556
 Alpha  occ. eigenvalues --   -0.18894  -0.13289  -0.12286  -0.10819
 Alpha virt. eigenvalues --   -0.05793  -0.05185  -0.04338  -0.03309  -0.02834
 Alpha virt. eigenvalues --   -0.02545  -0.01668  -0.01053  -0.00225  -0.00202
 Alpha virt. eigenvalues --   -0.00015   0.00360   0.00780   0.00903   0.00920

  Beta  occ. eigenvalues --  -38.44111 -38.44065 -38.43545 -38.43344 -38.43260
  Beta  occ. eigenvalues --  -38.43191 -38.43044  -2.19956  -2.19897  -2.19429
  Beta  occ. eigenvalues --   -2.19213  -2.19152  -2.19046  -2.18923  -1.13624
  Beta  occ. eigenvalues --   -1.13614  -1.13597  -1.13572  -1.13545  -1.13539
  Beta  occ. eigenvalues --   -1.13143  -1.13075  -1.13058  -1.12947  -1.12893
  Beta  occ. eigenvalues --   -1.12874  -1.12866  -1.12830  -1.12811  -1.12715
  Beta  occ. eigenvalues --   -1.12693  -1.12680  -1.12609  -1.12565  -1.12550
  Beta  occ. eigenvalues --   -0.18146  -0.13053  -0.12027
  Beta virt. eigenvalues --   -0.06897  -0.05745  -0.05193  -0.04323  -0.02499
  Beta virt. eigenvalues --   -0.02036  -0.01579  -0.01484  -0.00996  -0.00280
  Beta virt. eigenvalues --   -0.00249   0.00116   0.00377   0.00841   0.00893

 Mulliken charges and spin densities:
               1          2
     1  Na  -0.416574   0.757120
     2  Na   0.113701  -0.092141
     3  Na   0.134230  -0.108905
     4  Na   0.145360  -0.087009
     5  Na   0.053714  -0.070210
     6  Na   0.273223  -0.069613
     7  Na  -0.303653   0.670758
 Sum of Mulliken charges =  -0.00000   1.00000

 Dipole moment (field-independent basis, Debye):
    X=              0.0915    Y=             -0.0593    Z=              0.0524  Tot=              0.1210
 Quadrupole moment (field-independent basis, Debye-Ang):
   XX=            -54.2671   YY=            -65.1596   ZZ=            -73.9649
   XY=             -0.6636   XZ=             -0.3093   YZ=              0.6481

 Normal termination of Gaussian 16 at Fri Dec  8 02:49:30 2023.
