 Gaussian 16, Revision B.01,
 Gaussian 16:  ES64L-G16RevB.01 20-Dec-2017

 -------------------------
 #P B3LYP/6-311+g(d) force
 -------------------------

 -----
 DPGEN
 -----
 Symbolic Z-matrix:
 Charge =  0 Multiplicity = 2

                         Standard orientation:
 ---------------------------------------------------------------------
 Center     Atomic      Atomic             Coordinates (Angstroms)
 Number     Number       Type             X           Y           Z
 ---------------------------------------------------------------------
      1         11           0       -0.159750   -0.104188    1.841771
      2         11           0       -0.104015   -0.098917   -1.750953
      3         11           0       -1.954451    1.929918   -0.027556
      4         11           0        1.264513    2.252311    0.023817
      5         11           0        2.943339   -0.270220   -0.054472
      6         11           0       -2.648747   -1.250613   -0.063468
      7         11           0        0.659111   -2.458289    0.030861
 ---------------------------------------------------------------------

 SCF Done:  E(UB3LYP) =  -1136.13236325     A.U. after   19 cycles

 The electronic state is 2-A.
 Alpha  occ. eigenvalues --  -38.43838 -38.43705 -38.43373 -38.43285 -38.43276
 Alpha  occ. eigenvalues --  -38.43037 -38.42998  -2.19761  -2.19616  -2.19408
 Alpha  occ. eigenvalues --   -2.19352  -2.19220  -2.19011  -2.18965  -1.13467
 Alpha  occ. eigenvalues --   -1.13432  -1.13402  -1.13322  -1.13289  -1.13254
 Alpha  occ. eigenvalues --   -1.13115  -1.13081  -1.13047  -1.13029  -1.13014
 Alpha  occ. eigenvalues --   -1.12964  -1.12881  -1.12865  -1.12853  -1.12682
 Alpha  occ. eigenvalues --   -1.12664  -1.12637  -1.12609  -1.12608  -1.12593
 Alpha  occ. eigenvalues --   -0.19920  -0.13495  -0.12644  -0.11215
 Alpha virt. eigenvalues --   -0.05470  -0.04862  -0.04232  -0.03365  -0.02934
 Alpha virt. eigenvalues --   -0.02606  -0.01428  -0.00829  -0.00016   0.00159
 Alpha virt. eigenvalues --    0.00213   0.00370   0.00879   0.00996   0.01011

  Beta  occ. eigenvalues --  -38.43835 -38.43699 -38.43285 -38.43268 -38.43204
  Beta  occ. eigenvalues --  -38.43026 -38.42990  -2.19759  -2.19609  -2.19246
  Beta  occ. eigenvalues --   -2.19211  -2.19203  -2.18996  -2.18956  -1.13469
  Beta  occ. eigenvalues --   -1.13433  -1.13371  -1.13315  -1.13255  -1.13247
  Beta  occ. eigenvalues --   -1.13026  -1.12990  -1.12948  -1.12935  -1.12904
  Beta  occ. eigenvalues --   -1.12867  -1.12860  -1.12836  -1.12809  -1.12665
  Beta  occ. eigenvalues --   -1.12631  -1.12607  -1.12605  -1.12593  -1.12563
  Beta  occ. eigenvalues --   -0.19146  -0.13208  -0.12339
  Beta virt. eigenvalues --   -0.07201  -0.05455  -0.04869  -0.04244  -0.02493
  Beta virt. eigenvalues --   -0.02070  -0.01512  -0.01348  -0.00779   0.00096
  Beta virt. eigenvalues --    0.00121   0.00160   0.00386   0.00927   0.00993

 Mulliken charges and spin densities:
               1          2
     1  Na  -0.772566   0.667001
     2  Na  -0.782952   0.610772
     3  Na   0.274915  -0.048353
     4  Na   0.331544  -0.028178
     5  Na   0.057437  -0.044629
     6  Na   0.366011  -0.086035
     7  Na   0.525612  -0.070578
 Sum of Mulliken charges =  -0.00000   1.00000

 Dipole moment (field-independent basis, Debye):
    X=             -0.1385    Y=             -0.1131    Z=              0.0492  Tot=              0.1855
 Quadrupole moment (field-independent basis, Debye-Ang):
   XX=            -56.2275   YY=            -65.9748   ZZ=            -72.3036
   XY=              0.1332   XZ=              0.0766   YZ=              0.0412

 Normal termination of Gaussian 16 at Fri Dec  8 20:00:19 2023.
