 Gaussian 16, Revision B.01,
 Gaussian 16:  ES64L-G16RevB.01 20-Dec-2017

 -------------------------
 #P B3LYP/6-311+g(d) force
 -------------------------

 -----
 DPGEN
 -----
 Symbolic Z-matrix:
 Charge =  0 Multiplicity = 2

                         Standard orientation:
 ---------------------------------------------------------------------
 Center     Atomic      Atomic             Coordinates (Angstroms)
 Number     Number       Type             X           Y           Z
 ---------------------------------------------------------------------
      1         11           0        2.048144   -2.187445   -0.230141
      2         11           0       -1.696382   -2.304591    0.410363
      3         11           0       -2.921168    0.547876   -0.194298
      4         11           0       -0.269172   -0.166378   -1.605845
      5         11           0       -0.466170    2.812882    0.056169
      6         11           0        0.335277    0.157803    1.689193
      7         11           0        2.969472    1.139853   -0.125441
 ---------------------------------------------------------------------

 SCF Done:  E(UB3LYP) =  -1136.13642972     A.U. after   19 cycles

 The electronic state is 2-A.
 Alpha  occ. eigenvalues --  -38.44228 -38.43826 -38.43666 -38.43347 -38.43177
 Alpha  occ. eigenvalues --  -38.42992 -38.42923  -2.20058  -2.19749  -2.19520
 Alpha  occ. eigenvalues --   -2.19246  -2.19060  -2.19024  -2.18924  -1.13739
 Alpha  occ. eigenvalues --   -1.13717  -1.13694  -1.13468  -1.13409  -1.13383
 Alpha  occ. eigenvalues --   -1.13205  -1.13187  -1.13148  -1.12938  -1.12904
 Alpha  occ. eigenvalues --   -1.12878  -1.12789  -1.12738  -1.12707  -1.12685
 Alpha  occ. eigenvalues --   -1.12650  -1.12623  -1.12594  -1.12539  -1.12533
 Alpha  occ. eigenvalues --   -0.19166  -0.13411  -0.12499  -0.10479
 Alpha virt. eigenvalues --   -0.05718  -0.05216  -0.04546  -0.03199  -0.02715
 Alpha virt. eigenvalues --   -0.02081  -0.01607  -0.01145  -0.00282  -0.00250
 Alpha virt. eigenvalues --    0.00050   0.00359   0.00806   0.00882   0.00917

  Beta  occ. eigenvalues --  -38.44225 -38.43817 -38.43658 -38.43334 -38.43171
  Beta  occ. eigenvalues --  -38.42923 -38.42846  -2.20055  -2.19737  -2.19510
  Beta  occ. eigenvalues --   -2.19226  -2.19053  -2.18899  -2.18784  -1.13730
  Beta  occ. eigenvalues --   -1.13707  -1.13691  -1.13457  -1.13394  -1.13358
  Beta  occ. eigenvalues --   -1.13195  -1.13162  -1.13141  -1.12926  -1.12869
  Beta  occ. eigenvalues --   -1.12858  -1.12770  -1.12701  -1.12681  -1.12631
  Beta  occ. eigenvalues --   -1.12558  -1.12541  -1.12500  -1.12441  -1.12430
  Beta  occ. eigenvalues --   -0.18451  -0.13145  -0.12228
  Beta virt. eigenvalues --   -0.06579  -0.05686  -0.05198  -0.04528  -0.02399
  Beta virt. eigenvalues --   -0.01947  -0.01521  -0.01091  -0.01064  -0.00323
  Beta virt. eigenvalues --   -0.00287   0.00172   0.00389   0.00846   0.00886

 Mulliken charges and spin densities:
               1          2
     1  Na   0.054464  -0.050355
     2  Na   0.135945   0.007015
     3  Na   0.386811   0.041483
     4  Na  -0.351083   0.568695
     5  Na   0.083725  -0.124535
     6  Na  -0.311078   0.665174
     7  Na   0.001217  -0.107476
 Sum of Mulliken charges =  -0.00000   1.00000

 Dipole moment (field-independent basis, Debye):
    X=              0.3672    Y=              0.0322    Z=              0.0060  Tot=              0.3686
 Quadrupole moment (field-independent basis, Debye-Ang):
   XX=            -54.4264   YY=            -61.8509   ZZ=            -75.7898
   XY=              0.3380   XZ=             -1.2186   YZ=             -0.8420

 Normal termination of Gaussian 16 at Tue Nov 28 21:38:59 2023.
