 Gaussian 16, Revision B.01,
 Gaussian 16:  ES64L-G16RevB.01 20-Dec-2017

 -------------------------
 #P B3LYP/6-311+g(d) force
 -------------------------

 -----
 DPGEN
 -----
 Symbolic Z-matrix:
 Charge =  0 Multiplicity = 2

                         Standard orientation:
 ---------------------------------------------------------------------
 Center     Atomic      Atomic             Coordinates (Angstroms)
 Number     Number       Type             X           Y           Z
 ---------------------------------------------------------------------
      1         11           0       -0.119706    0.004688    1.800887
      2         11           0       -2.803903   -1.705827    0.118418
      3         11           0       -2.438487    2.079667   -0.040973
      4         11           0        1.639180    2.796809   -0.258377
      5         11           0       -0.571305    0.051027   -1.377791
      6         11           0        1.060831   -2.837943   -0.399115
      7         11           0        3.233390   -0.388421    0.156949
 ---------------------------------------------------------------------

 SCF Done:  E(UB3LYP) =  -1136.13180729     A.U. after   19 cycles

 The electronic state is 2-A.
 Alpha  occ. eigenvalues --  -38.44438 -38.44370 -38.44132 -38.43918 -38.43494
 Alpha  occ. eigenvalues --  -38.43047 -38.42900  -2.20261  -2.20207  -2.19945
 Alpha  occ. eigenvalues --   -2.19700  -2.19326  -2.18970  -2.18917  -1.13952
 Alpha  occ. eigenvalues --   -1.13926  -1.13920  -1.13890  -1.13862  -1.13817
 Alpha  occ. eigenvalues --   -1.13616  -1.13611  -1.13594  -1.13378  -1.13357
 Alpha  occ. eigenvalues --   -1.13339  -1.13007  -1.12984  -1.12962  -1.12726
 Alpha  occ. eigenvalues --   -1.12588  -1.12580  -1.12570  -1.12555  -1.12527
 Alpha  occ. eigenvalues --   -0.18429  -0.13232  -0.12325  -0.09961
 Alpha virt. eigenvalues --   -0.05997  -0.05738  -0.04785  -0.03005  -0.02521
 Alpha virt. eigenvalues --   -0.01882  -0.01794  -0.01523  -0.00805  -0.00582
 Alpha virt. eigenvalues --    0.00027   0.00321   0.00739   0.00756   0.00838

  Beta  occ. eigenvalues --  -38.44432 -38.44362 -38.44131 -38.43917 -38.43485
  Beta  occ. eigenvalues --  -38.42959 -38.42847  -2.20253  -2.20196  -2.19946
  Beta  occ. eigenvalues --   -2.19699  -2.19311  -2.18823  -2.18806  -1.13943
  Beta  occ. eigenvalues --   -1.13913  -1.13897  -1.13883  -1.13835  -1.13811
  Beta  occ. eigenvalues --   -1.13615  -1.13600  -1.13595  -1.13369  -1.13353
  Beta  occ. eigenvalues --   -1.13340  -1.12994  -1.12958  -1.12954  -1.12627
  Beta  occ. eigenvalues --   -1.12497  -1.12481  -1.12472  -1.12459  -1.12448
  Beta  occ. eigenvalues --   -0.17741  -0.13023  -0.12077
  Beta virt. eigenvalues --   -0.06141  -0.05987  -0.05671  -0.04728  -0.02266
  Beta virt. eigenvalues --   -0.01851  -0.01711  -0.01455  -0.00913  -0.00823
  Beta virt. eigenvalues --   -0.00611   0.00178   0.00374   0.00744   0.00810

 Mulliken charges and spin densities:
               1          2
     1  Na  -0.221278   0.722367
     2  Na   0.269288  -0.017904
     3  Na   0.259198  -0.056148
     4  Na  -0.030817  -0.068207
     5  Na  -0.404678   0.441979
     6  Na   0.074976  -0.012183
     7  Na   0.053312  -0.009904
 Sum of Mulliken charges =  -0.00000   1.00000

 Dipole moment (field-independent basis, Debye):
    X=             -0.3894    Y=              0.1047    Z=              0.1618  Tot=              0.4345
 Quadrupole moment (field-independent basis, Debye-Ang):
   XX=            -52.2812   YY=            -59.5419   ZZ=            -78.6663
   XY=              0.6262   XZ=             -0.7793   YZ=              0.0587

 Normal termination of Gaussian 16 at Fri Dec  8 01:17:03 2023.
