 Gaussian 16, Revision B.01,
 Gaussian 16:  ES64L-G16RevB.01 20-Dec-2017

 -------------------------
 #P B3LYP/6-311+g(d) force
 -------------------------

 -----
 DPGEN
 -----
 Symbolic Z-matrix:
 Charge =  0 Multiplicity = 2

                         Standard orientation:
 ---------------------------------------------------------------------
 Center     Atomic      Atomic             Coordinates (Angstroms)
 Number     Number       Type             X           Y           Z
 ---------------------------------------------------------------------
      1         11           0       -2.064347    2.264289    0.055498
      2         11           0        1.602134    2.348579   -0.362928
      3         11           0       -2.867736   -1.468030    0.215728
      4         11           0        0.820750   -2.716528   -0.250695
      5         11           0       -0.634363   -0.124780   -1.892998
      6         11           0        3.088983   -0.372851    0.065114
      7         11           0        0.054580    0.069321    2.170281
 ---------------------------------------------------------------------

 SCF Done:  E(UB3LYP) =  -1136.13686946     A.U. after   19 cycles

 The electronic state is 2-A.
 Alpha  occ. eigenvalues --  -38.44258 -38.44051 -38.43763 -38.43751 -38.43617
 Alpha  occ. eigenvalues --  -38.43364 -38.43318  -2.20060  -2.19904  -2.19612
 Alpha  occ. eigenvalues --   -2.19582  -2.19530  -2.19217  -2.19163  -1.13744
 Alpha  occ. eigenvalues --   -1.13722  -1.13695  -1.13564  -1.13533  -1.13527
 Alpha  occ. eigenvalues --   -1.13312  -1.13278  -1.13273  -1.13264  -1.13250
 Alpha  occ. eigenvalues --   -1.13214  -1.13199  -1.13160  -1.13152  -1.12890
 Alpha  occ. eigenvalues --   -1.12874  -1.12849  -1.12845  -1.12824  -1.12790
 Alpha  occ. eigenvalues --   -0.18408  -0.13051  -0.12226  -0.11059
 Alpha virt. eigenvalues --   -0.05746  -0.05288  -0.04410  -0.03424  -0.03013
 Alpha virt. eigenvalues --   -0.02916  -0.01477  -0.01100  -0.00339  -0.00207
 Alpha virt. eigenvalues --   -0.00070   0.00384   0.00767   0.00857   0.00864

  Beta  occ. eigenvalues --  -38.44255 -38.43956 -38.43760 -38.43750 -38.43548
  Beta  occ. eigenvalues --  -38.43357 -38.43313  -2.20058  -2.19729  -2.19614
  Beta  occ. eigenvalues --   -2.19579  -2.19403  -2.19207  -2.19156  -1.13732
  Beta  occ. eigenvalues --   -1.13710  -1.13695  -1.13449  -1.13409  -1.13400
  Beta  occ. eigenvalues --   -1.13316  -1.13276  -1.13263  -1.13245  -1.13232
  Beta  occ. eigenvalues --   -1.13214  -1.13117  -1.13073  -1.13062  -1.12883
  Beta  occ. eigenvalues --   -1.12848  -1.12846  -1.12836  -1.12800  -1.12790
  Beta  occ. eigenvalues --   -0.17657  -0.12865  -0.12002
  Beta virt. eigenvalues --   -0.07145  -0.05721  -0.05207  -0.04339  -0.02662
  Beta virt. eigenvalues --   -0.02228  -0.01881  -0.01385  -0.01036  -0.00385
  Beta virt. eigenvalues --   -0.00253   0.00083   0.00409   0.00841   0.00876

 Mulliken charges and spin densities:
               1          2
     1  Na   0.133111  -0.074232
     2  Na   0.084200  -0.037217
     3  Na   0.147241  -0.099565
     4  Na   0.131973  -0.075829
     5  Na  -0.094529   0.547938
     6  Na   0.065249  -0.011745
     7  Na  -0.467245   0.750650
 Sum of Mulliken charges =  -0.00000   1.00000

 Dipole moment (field-independent basis, Debye):
    X=             -0.4844    Y=             -0.0631    Z=              0.1782  Tot=              0.5200
 Quadrupole moment (field-independent basis, Debye-Ang):
   XX=            -57.6424   YY=            -65.4186   ZZ=            -72.1116
   XY=              0.1350   XZ=             -1.2203   YZ=             -0.5336

 Normal termination of Gaussian 16 at Thu Dec  7 12:51:16 2023.
