 Gaussian 16, Revision B.01,
 Gaussian 16:  ES64L-G16RevB.01 20-Dec-2017

 -------------------------
 #P B3LYP/6-311+g(d) force
 -------------------------

 -----
 DPGEN
 -----
 Symbolic Z-matrix:
 Charge =  0 Multiplicity = 2

                         Standard orientation:
 ---------------------------------------------------------------------
 Center     Atomic      Atomic             Coordinates (Angstroms)
 Number     Number       Type             X           Y           Z
 ---------------------------------------------------------------------
      1         11           0       -2.594073   -1.712656   -0.069896
      2         11           0        0.123342    0.266230   -1.505809
      3         11           0        0.882520   -2.786576   -0.459863
      4         11           0        1.499628    2.783977   -0.188435
      5         11           0       -2.663436    1.831573   -0.233818
      6         11           0       -0.379449    0.032783    2.172229
      7         11           0        3.131468   -0.415331    0.285593
 ---------------------------------------------------------------------

 SCF Done:  E(UB3LYP) =  -1136.13621048     A.U. after   19 cycles

 The electronic state is 2-A.
 Alpha  occ. eigenvalues --  -38.44211 -38.44127 -38.43947 -38.43770 -38.43712
 Alpha  occ. eigenvalues --  -38.43151 -38.43036  -2.20015  -2.19951  -2.19769
 Alpha  occ. eigenvalues --   -2.19619  -2.19530  -2.19017  -2.19002  -1.13697
 Alpha  occ. eigenvalues --   -1.13674  -1.13652  -1.13622  -1.13618  -1.13593
 Alpha  occ. eigenvalues --   -1.13445  -1.13435  -1.13404  -1.13278  -1.13246
 Alpha  occ. eigenvalues --   -1.13242  -1.13233  -1.13182  -1.13156  -1.12736
 Alpha  occ. eigenvalues --   -1.12698  -1.12655  -1.12647  -1.12632  -1.12621
 Alpha  occ. eigenvalues --   -0.18323  -0.13062  -0.12265  -0.10609
 Alpha virt. eigenvalues --   -0.05818  -0.05450  -0.04599  -0.03246  -0.02727
 Alpha virt. eigenvalues --   -0.02554  -0.01614  -0.01278  -0.00589  -0.00418
 Alpha virt. eigenvalues --   -0.00017   0.00344   0.00766   0.00799   0.00874

  Beta  occ. eigenvalues --  -38.44207 -38.44124 -38.43943 -38.43709 -38.43668
  Beta  occ. eigenvalues --  -38.43142 -38.42982  -2.20010  -2.19947  -2.19765
  Beta  occ. eigenvalues --   -2.19529  -2.19430  -2.18988  -2.18920  -1.13684
  Beta  occ. eigenvalues --   -1.13662  -1.13649  -1.13620  -1.13598  -1.13593
  Beta  occ. eigenvalues --   -1.13436  -1.13419  -1.13403  -1.13235  -1.13172
  Beta  occ. eigenvalues --   -1.13156  -1.13151  -1.13114  -1.13098  -1.12703
  Beta  occ. eigenvalues --   -1.12636  -1.12632  -1.12624  -1.12577  -1.12561
  Beta  occ. eigenvalues --   -0.17621  -0.12875  -0.12032
  Beta virt. eigenvalues --   -0.06698  -0.05802  -0.05369  -0.04565  -0.02479
  Beta virt. eigenvalues --   -0.02026  -0.01525  -0.01473  -0.01202  -0.00634
  Beta virt. eigenvalues --   -0.00443   0.00142   0.00380   0.00790   0.00849

 Mulliken charges and spin densities:
               1          2
     1  Na   0.191824   0.014904
     2  Na  -0.095067   0.272004
     3  Na   0.103904   0.013320
     4  Na   0.118057  -0.056618
     5  Na   0.112260  -0.071343
     6  Na  -0.512045   0.754550
     7  Na   0.081067   0.073182
 Sum of Mulliken charges =  -0.00000   1.00000

 Dipole moment (field-independent basis, Debye):
    X=             -0.1859    Y=              0.2517    Z=              0.1961  Tot=              0.3693
 Quadrupole moment (field-independent basis, Debye-Ang):
   XX=            -55.2981   YY=            -62.2439   ZZ=            -75.4247
   XY=             -0.0412   XZ=              1.4705   YZ=              0.4818

 Normal termination of Gaussian 16 at Wed Dec  6 00:03:07 2023.
