 Gaussian 16, Revision B.01,
 Gaussian 16:  ES64L-G16RevB.01 20-Dec-2017

 -------------------------
 #P B3LYP/6-311+g(d) force
 -------------------------

 -----
 DPGEN
 -----
 Symbolic Z-matrix:
 Charge =  0 Multiplicity = 2

                         Standard orientation:
 ---------------------------------------------------------------------
 Center     Atomic      Atomic             Coordinates (Angstroms)
 Number     Number       Type             X           Y           Z
 ---------------------------------------------------------------------
      1         11           0       -2.277548   -1.463637   -0.133691
      2         11           0       -3.004596    1.505339   -0.219352
      3         11           0        3.251576    0.837516    0.001417
      4         11           0        0.992296   -2.946340    0.041050
      5         11           0        0.563995    2.928422    0.003916
      6         11           0       -0.051269   -0.330893    2.032302
      7         11           0        0.525547   -0.530407   -1.725642
 ---------------------------------------------------------------------

 SCF Done:  E(UB3LYP) =  -1136.13236908     A.U. after   19 cycles

 The electronic state is 2-A.
 Alpha  occ. eigenvalues --  -38.44318 -38.43896 -38.43751 -38.43689 -38.43650
 Alpha  occ. eigenvalues --  -38.43582 -38.43468  -2.20116  -2.19692  -2.19571
 Alpha  occ. eigenvalues --   -2.19562  -2.19540  -2.19504  -2.19411  -1.13790
 Alpha  occ. eigenvalues --   -1.13772  -1.13762  -1.13371  -1.13363  -1.13339
 Alpha  occ. eigenvalues --   -1.13331  -1.13322  -1.13257  -1.13227  -1.13220
 Alpha  occ. eigenvalues --   -1.13201  -1.13194  -1.13180  -1.13169  -1.13143
 Alpha  occ. eigenvalues --   -1.13130  -1.13080  -1.13061  -1.13029  -1.13011
 Alpha  occ. eigenvalues --   -0.18431  -0.12995  -0.12566  -0.10690
 Alpha virt. eigenvalues --   -0.05787  -0.05224  -0.04902  -0.03151  -0.02957
 Alpha virt. eigenvalues --   -0.02565  -0.01560  -0.01282  -0.00514  -0.00327
 Alpha virt. eigenvalues --   -0.00027   0.00340   0.00790   0.00843   0.00904

  Beta  occ. eigenvalues --  -38.44317 -38.43895 -38.43751 -38.43682 -38.43571
  Beta  occ. eigenvalues --  -38.43552 -38.43403  -2.20117  -2.19692  -2.19570
  Beta  occ. eigenvalues --   -2.19554  -2.19489  -2.19361  -2.19292  -1.13780
  Beta  occ. eigenvalues --   -1.13767  -1.13766  -1.13363  -1.13355  -1.13338
  Beta  occ. eigenvalues --   -1.13326  -1.13308  -1.13217  -1.13211  -1.13196
  Beta  occ. eigenvalues --   -1.13191  -1.13169  -1.13137  -1.13078  -1.13068
  Beta  occ. eigenvalues --   -1.13031  -1.13020  -1.12984  -1.12950  -1.12929
  Beta  occ. eigenvalues --   -0.17702  -0.12791  -0.12355
  Beta virt. eigenvalues --   -0.06774  -0.05778  -0.05152  -0.04817  -0.02401
  Beta virt. eigenvalues --   -0.02213  -0.01541  -0.01476  -0.01230  -0.00539
  Beta virt. eigenvalues --   -0.00368   0.00138   0.00382   0.00807   0.00849

 Mulliken charges and spin densities:
               1          2
     1  Na   0.387743   0.150909
     2  Na  -0.332490  -0.112881
     3  Na   0.051800  -0.148283
     4  Na   0.484907  -0.091987
     5  Na  -0.111181  -0.028668
     6  Na  -0.371138   0.690366
     7  Na  -0.109641   0.540544
 Sum of Mulliken charges =  -0.00000   1.00000

 Dipole moment (field-independent basis, Debye):
    X=              0.5579    Y=              0.0580    Z=              0.1082  Tot=              0.5712
 Quadrupole moment (field-independent basis, Debye-Ang):
   XX=            -58.5259   YY=            -61.3321   ZZ=            -74.8159
   XY=             -1.5673   XZ=              1.1296   YZ=             -0.5130

 Normal termination of Gaussian 16 at Tue Dec  5 18:42:22 2023.
