 Gaussian 16, Revision B.01,
 Gaussian 16:  ES64L-G16RevB.01 20-Dec-2017

 -------------------------
 #P B3LYP/6-311+g(d) force
 -------------------------

 -----
 DPGEN
 -----
 Symbolic Z-matrix:
 Charge =  0 Multiplicity = 2

                         Standard orientation:
 ---------------------------------------------------------------------
 Center     Atomic      Atomic             Coordinates (Angstroms)
 Number     Number       Type             X           Y           Z
 ---------------------------------------------------------------------
      1         11           0        0.278282    0.494041    1.797939
      2         11           0        3.217170   -0.280986   -0.332922
      3         11           0       -2.415733    1.739697   -0.698173
      4         11           0        0.624431   -2.792150    0.144572
      5         11           0       -2.618572   -1.558311    0.578594
      6         11           0        0.935468    2.804518    0.290208
      7         11           0       -0.021046   -0.406809   -1.780218
 ---------------------------------------------------------------------

 SCF Done:  E(UB3LYP) =  -1136.13525535     A.U. after   18 cycles

 The electronic state is 2-A.
 Alpha  occ. eigenvalues --  -38.44082 -38.43694 -38.43632 -38.43620 -38.43544
 Alpha  occ. eigenvalues --  -38.43464 -38.43439  -2.19889  -2.19525  -2.19518
 Alpha  occ. eigenvalues --   -2.19480  -2.19470  -2.19385  -2.19335  -1.13571
 Alpha  occ. eigenvalues --   -1.13545  -1.13524  -1.13448  -1.13202  -1.13189
 Alpha  occ. eigenvalues --   -1.13184  -1.13170  -1.13162  -1.13131  -1.13128
 Alpha  occ. eigenvalues --   -1.13111  -1.13106  -1.13091  -1.13064  -1.13041
 Alpha  occ. eigenvalues --   -1.13023  -1.12994  -1.12991  -1.12959  -1.12940
 Alpha  occ. eigenvalues --   -0.18620  -0.12801  -0.12692  -0.10853
 Alpha virt. eigenvalues --   -0.05554  -0.04960  -0.04802  -0.03220  -0.03159
 Alpha virt. eigenvalues --   -0.02466  -0.01532  -0.01087  -0.00368  -0.00190
 Alpha virt. eigenvalues --    0.00027   0.00350   0.00836   0.00877   0.00899

  Beta  occ. eigenvalues --  -38.44076 -38.43681 -38.43612 -38.43612 -38.43472
  Beta  occ. eigenvalues --  -38.43459 -38.43370  -2.19880  -2.19504  -2.19490
  Beta  occ. eigenvalues --   -2.19436  -2.19366  -2.19328  -2.19259  -1.13552
  Beta  occ. eigenvalues --   -1.13542  -1.13514  -1.13396  -1.13183  -1.13173
  Beta  occ. eigenvalues --   -1.13153  -1.13131  -1.13116  -1.13104  -1.13092
  Beta  occ. eigenvalues --   -1.13086  -1.13066  -1.13042  -1.12999  -1.12982
  Beta  occ. eigenvalues --   -1.12959  -1.12952  -1.12935  -1.12909  -1.12882
  Beta  occ. eigenvalues --   -0.17926  -0.12541  -0.12404
  Beta virt. eigenvalues --   -0.07029  -0.05525  -0.04872  -0.04713  -0.02508
  Beta virt. eigenvalues --   -0.02406  -0.01508  -0.01415  -0.00982  -0.00341
  Beta virt. eigenvalues --   -0.00226   0.00129   0.00386   0.00861   0.00896

 Mulliken charges and spin densities:
               1          2
     1  Na  -0.138211   0.506836
     2  Na  -0.026164  -0.084421
     3  Na   0.018111   0.067843
     4  Na   0.064692  -0.034497
     5  Na  -0.025630   0.066881
     6  Na   0.176573  -0.048325
     7  Na  -0.069372   0.525684
 Sum of Mulliken charges =  -0.00000   1.00000

 Dipole moment (field-independent basis, Debye):
    X=              0.1965    Y=             -0.0554    Z=             -0.0532  Tot=              0.2110
 Quadrupole moment (field-independent basis, Debye-Ang):
   XX=            -57.2745   YY=            -62.8915   ZZ=            -73.5372
   XY=             -0.0621   XZ=             -0.9938   YZ=             -2.4190

 Normal termination of Gaussian 16 at Thu Dec  7 03:55:21 2023.
