 Gaussian 16, Revision B.01,
 Gaussian 16:  ES64L-G16RevB.01 20-Dec-2017

 -------------------------
 #P B3LYP/6-311+g(d) force
 -------------------------

 -----
 DPGEN
 -----
 Symbolic Z-matrix:
 Charge =  0 Multiplicity = 2

                         Standard orientation:
 ---------------------------------------------------------------------
 Center     Atomic      Atomic             Coordinates (Angstroms)
 Number     Number       Type             X           Y           Z
 ---------------------------------------------------------------------
      1         11           0       -0.083852   -0.207941   -1.828412
      2         11           0        0.159128    0.010490    2.075934
      3         11           0       -0.125988   -2.778191   -0.370574
      4         11           0       -3.319603   -0.301761    0.215967
      5         11           0       -1.394752    2.026356   -0.034850
      6         11           0        2.791586   -1.238845    0.308720
      7         11           0        1.973481    2.489891   -0.366786
 ---------------------------------------------------------------------

 SCF Done:  E(UB3LYP) =  -1136.13272227     A.U. after   19 cycles

 The electronic state is 2-A.
 Alpha  occ. eigenvalues --  -38.44073 -38.44038 -38.44034 -38.43672 -38.43358
 Alpha  occ. eigenvalues --  -38.43334 -38.43081  -2.19926  -2.19906  -2.19876
 Alpha  occ. eigenvalues --   -2.19649  -2.19221  -2.19173  -2.19046  -1.13624
 Alpha  occ. eigenvalues --   -1.13606  -1.13593  -1.13557  -1.13546  -1.13537
 Alpha  occ. eigenvalues --   -1.13531  -1.13517  -1.13505  -1.13386  -1.13328
 Alpha  occ. eigenvalues --   -1.13238  -1.12909  -1.12861  -1.12842  -1.12840
 Alpha  occ. eigenvalues --   -1.12823  -1.12817  -1.12734  -1.12713  -1.12649
 Alpha  occ. eigenvalues --   -0.18803  -0.13052  -0.12322  -0.11198
 Alpha virt. eigenvalues --   -0.05690  -0.04914  -0.04382  -0.03399  -0.03052
 Alpha virt. eigenvalues --   -0.02809  -0.01620  -0.01058  -0.00217  -0.00036
 Alpha virt. eigenvalues --    0.00095   0.00350   0.00787   0.00897   0.00919

  Beta  occ. eigenvalues --  -38.44072 -38.44031 -38.43945 -38.43594 -38.43354
  Beta  occ. eigenvalues --  -38.43323 -38.43071  -2.19906  -2.19865  -2.19762
  Beta  occ. eigenvalues --   -2.19506  -2.19205  -2.19167  -2.19031  -1.13626
  Beta  occ. eigenvalues --   -1.13556  -1.13544  -1.13531  -1.13517  -1.13508
  Beta  occ. eigenvalues --   -1.13487  -1.13440  -1.13413  -1.13289  -1.13231
  Beta  occ. eigenvalues --   -1.13139  -1.12879  -1.12841  -1.12832  -1.12825
  Beta  occ. eigenvalues --   -1.12816  -1.12810  -1.12726  -1.12671  -1.12638
  Beta  occ. eigenvalues --   -0.18043  -0.12811  -0.12064
  Beta virt. eigenvalues --   -0.07273  -0.05603  -0.04887  -0.04359  -0.02596
  Beta virt. eigenvalues --   -0.02249  -0.01815  -0.01514  -0.00986  -0.00231
  Beta virt. eigenvalues --    0.00047   0.00091   0.00367   0.00832   0.00915

 Mulliken charges and spin densities:
               1          2
     1  Na  -0.252350   0.516838
     2  Na  -0.430301   0.603858
     3  Na   0.228342  -0.060074
     4  Na   0.099998  -0.069958
     5  Na   0.212538   0.076459
     6  Na   0.101704  -0.010805
     7  Na   0.040068  -0.056318
 Sum of Mulliken charges =  -0.00000   1.00000

 Dipole moment (field-independent basis, Debye):
    X=              0.1231    Y=             -0.2978    Z=              0.2450  Tot=              0.4048
 Quadrupole moment (field-independent basis, Debye-Ang):
   XX=            -56.2637   YY=            -66.2266   ZZ=            -71.9724
   XY=              1.4971   XZ=             -0.6196   YZ=             -0.8645

 Normal termination of Gaussian 16 at Tue Dec  5 22:28:08 2023.
