 Gaussian 16, Revision B.01,
 Gaussian 16:  ES64L-G16RevB.01 20-Dec-2017

 -------------------------
 #P B3LYP/6-311+g(d) force
 -------------------------

 -----
 DPGEN
 -----
 Symbolic Z-matrix:
 Charge =  0 Multiplicity = 2

                         Standard orientation:
 ---------------------------------------------------------------------
 Center     Atomic      Atomic             Coordinates (Angstroms)
 Number     Number       Type             X           Y           Z
 ---------------------------------------------------------------------
      1         11           0       -3.415368   -2.714446   -0.292428
      2         11           0        1.831187    3.356220   -0.061643
      3         11           0       -2.145902    3.344100   -0.517245
      4         11           0        3.546319   -2.557442    0.486770
      5         11           0       -0.092162   -3.350032   -0.475711
      6         11           0       -3.768275    0.928152    0.927359
      7         11           0        4.044201    0.993448   -0.067101
 ---------------------------------------------------------------------

 SCF Done:  E(UB3LYP) =  -1136.10801678     A.U. after   21 cycles

 The electronic state is 2-A.
 Alpha  occ. eigenvalues --  -38.45128 -38.45114 -38.44674 -38.44553 -38.44450
 Alpha  occ. eigenvalues --  -38.44175 -38.44155  -2.20888  -2.20871  -2.20456
 Alpha  occ. eigenvalues --   -2.20332  -2.20242  -2.19963  -2.19946  -1.14562
 Alpha  occ. eigenvalues --   -1.14560  -1.14557  -1.14552  -1.14523  -1.14502
 Alpha  occ. eigenvalues --   -1.14149  -1.14134  -1.14104  -1.13996  -1.13991
 Alpha  occ. eigenvalues --   -1.13971  -1.13899  -1.13892  -1.13859  -1.13615
 Alpha  occ. eigenvalues --   -1.13603  -1.13597  -1.13592  -1.13590  -1.13582
 Alpha  occ. eigenvalues --   -0.15348  -0.13929  -0.13466  -0.11046
 Alpha virt. eigenvalues --   -0.07631  -0.04840  -0.04569  -0.03518  -0.03406
 Alpha virt. eigenvalues --   -0.02477  -0.02279  -0.02055  -0.01522  -0.00801
 Alpha virt. eigenvalues --   -0.00458  -0.00215   0.00022   0.00308   0.00407

  Beta  occ. eigenvalues --  -38.45123 -38.45091 -38.44666 -38.44533 -38.44396
  Beta  occ. eigenvalues --  -38.44108 -38.44101  -2.20867  -2.20850  -2.20447
  Beta  occ. eigenvalues --   -2.20298  -2.20144  -2.19860  -2.19824  -1.14564
  Beta  occ. eigenvalues --   -1.14555  -1.14535  -1.14531  -1.14481  -1.14461
  Beta  occ. eigenvalues --   -1.14135  -1.14132  -1.14065  -1.13975  -1.13969
  Beta  occ. eigenvalues --   -1.13935  -1.13834  -1.13828  -1.13786  -1.13545
  Beta  occ. eigenvalues --   -1.13533  -1.13522  -1.13521  -1.13506  -1.13499
  Beta  occ. eigenvalues --   -0.14802  -0.13131  -0.12671
  Beta virt. eigenvalues --   -0.07964  -0.07842  -0.04424  -0.04062  -0.03291
  Beta virt. eigenvalues --   -0.03111  -0.02229  -0.02063  -0.01848  -0.01342
  Beta virt. eigenvalues --   -0.00448  -0.00277   0.00047   0.00143   0.00298

 Mulliken charges and spin densities:
               1          2
     1  Na   0.229303   0.180877
     2  Na  -0.007297   0.206411
     3  Na  -0.102375   0.064748
     4  Na   0.170436   0.339681
     5  Na  -0.189449   0.081337
     6  Na  -0.141612   0.107906
     7  Na   0.040994   0.019040
 Sum of Mulliken charges =  -0.00000   1.00000

 Dipole moment (field-independent basis, Debye):
    X=             -0.5897    Y=              0.2383    Z=              0.0394  Tot=              0.6373
 Quadrupole moment (field-independent basis, Debye-Ang):
   XX=            -60.8802   YY=            -67.5792   ZZ=            -71.9669
   XY=             -0.2062   XZ=             -1.0985   YZ=             -1.3261

 Normal termination of Gaussian 16 at Sun Dec  3 15:23:18 2023.
