 Gaussian 16, Revision B.01,
 Gaussian 16:  ES64L-G16RevB.01 20-Dec-2017

 -------------------------
 #P B3LYP/6-311+g(d) force
 -------------------------

 -----
 DPGEN
 -----
 Symbolic Z-matrix:
 Charge =  0 Multiplicity = 2

                         Standard orientation:
 ---------------------------------------------------------------------
 Center     Atomic      Atomic             Coordinates (Angstroms)
 Number     Number       Type             X           Y           Z
 ---------------------------------------------------------------------
      1         11           0       -2.086649   -2.455400    0.085982
      2         11           0       -2.943521    1.173493    0.005969
      3         11           0       -0.037740   -0.466563   -1.661051
      4         11           0        2.975286    1.253546    0.140397
      5         11           0        2.145989   -2.324340   -0.247745
      6         11           0        0.091825   -0.081353    2.074280
      7         11           0       -0.145191    2.900617   -0.397832
 ---------------------------------------------------------------------

 SCF Done:  E(UB3LYP) =  -1136.13680553     A.U. after   19 cycles

 The electronic state is 2-A.
 Alpha  occ. eigenvalues --  -38.44060 -38.44053 -38.44018 -38.43958 -38.43692
 Alpha  occ. eigenvalues --  -38.43253 -38.43205  -2.19872  -2.19859  -2.19820
 Alpha  occ. eigenvalues --   -2.19776  -2.19548  -2.19190  -2.19048  -1.13577
 Alpha  occ. eigenvalues --   -1.13534  -1.13528  -1.13519  -1.13512  -1.13505
 Alpha  occ. eigenvalues --   -1.13482  -1.13481  -1.13457  -1.13450  -1.13447
 Alpha  occ. eigenvalues --   -1.13411  -1.13215  -1.13177  -1.13162  -1.12871
 Alpha  occ. eigenvalues --   -1.12829  -1.12817  -1.12719  -1.12709  -1.12687
 Alpha  occ. eigenvalues --   -0.18230  -0.12857  -0.12424  -0.10592
 Alpha virt. eigenvalues --   -0.05827  -0.05443  -0.04697  -0.03114  -0.02903
 Alpha virt. eigenvalues --   -0.02534  -0.01558  -0.01384  -0.00624  -0.00416
 Alpha virt. eigenvalues --   -0.00021   0.00351   0.00762   0.00788   0.00882

  Beta  occ. eigenvalues --  -38.44058 -38.44046 -38.44015 -38.43957 -38.43597
  Beta  occ. eigenvalues --  -38.43197 -38.43192  -2.19861  -2.19857  -2.19818
  Beta  occ. eigenvalues --   -2.19776  -2.19372  -2.19078  -2.19036  -1.13561
  Beta  occ. eigenvalues --   -1.13521  -1.13515  -1.13511  -1.13506  -1.13498
  Beta  occ. eigenvalues --   -1.13479  -1.13468  -1.13458  -1.13451  -1.13429
  Beta  occ. eigenvalues --   -1.13410  -1.13097  -1.13056  -1.13034  -1.12793
  Beta  occ. eigenvalues --   -1.12750  -1.12739  -1.12703  -1.12692  -1.12674
  Beta  occ. eigenvalues --   -0.17519  -0.12652  -0.12195
  Beta virt. eigenvalues --   -0.06716  -0.05830  -0.05359  -0.04646  -0.02361
  Beta virt. eigenvalues --   -0.02167  -0.01488  -0.01459  -0.01308  -0.00687
  Beta virt. eigenvalues --   -0.00445   0.00126   0.00381   0.00770   0.00842

 Mulliken charges and spin densities:
               1          2
     1  Na   0.107183  -0.107580
     2  Na   0.066766  -0.026737
     3  Na  -0.016397   0.494157
     4  Na   0.064323  -0.004686
     5  Na   0.165158  -0.116269
     6  Na  -0.389058   0.776940
     7  Na   0.002024  -0.015825
 Sum of Mulliken charges =  -0.00000   1.00000

 Dipole moment (field-independent basis, Debye):
    X=              0.0545    Y=             -0.3569    Z=              0.1422  Tot=              0.3881
 Quadrupole moment (field-independent basis, Debye-Ang):
   XX=            -55.9260   YY=            -61.9064   ZZ=            -75.3879
   XY=              0.5166   XZ=             -0.2853   YZ=             -0.7829

 Normal termination of Gaussian 16 at Thu Dec  7 17:26:15 2023.
