 Gaussian 16, Revision B.01,
 Gaussian 16:  ES64L-G16RevB.01 20-Dec-2017

 -------------------------
 #P B3LYP/6-311+g(d) force
 -------------------------

 -----
 DPGEN
 -----
 Symbolic Z-matrix:
 Charge =  0 Multiplicity = 2

                         Standard orientation:
 ---------------------------------------------------------------------
 Center     Atomic      Atomic             Coordinates (Angstroms)
 Number     Number       Type             X           Y           Z
 ---------------------------------------------------------------------
      1         11           0       -2.141048   -1.000702    1.560590
      2         11           0       -1.958906    1.723940   -1.270568
      3         11           0       -0.258983    1.730333    2.075156
      4         11           0       -2.511474   -1.702664   -1.889956
      5         11           0        0.944825   -1.708019    1.107585
      6         11           0        4.120697   -1.169049   -0.667780
      7         11           0        1.804891    2.126161   -0.915028
 ---------------------------------------------------------------------

 SCF Done:  E(UB3LYP) =  -1136.12186497     A.U. after   22 cycles

 The electronic state is 2-A.
 Alpha  occ. eigenvalues --  -38.44794 -38.44523 -38.44064 -38.44063 -38.44003
 Alpha  occ. eigenvalues --  -38.43886 -38.43667  -2.20594  -2.20366  -2.19868
 Alpha  occ. eigenvalues --   -2.19816  -2.19769  -2.19766  -2.19474  -1.14252
 Alpha  occ. eigenvalues --   -1.14237  -1.14212  -1.14042  -1.14027  -1.13966
 Alpha  occ. eigenvalues --   -1.13561  -1.13531  -1.13486  -1.13481  -1.13480
 Alpha  occ. eigenvalues --   -1.13470  -1.13461  -1.13447  -1.13438  -1.13421
 Alpha  occ. eigenvalues --   -1.13392  -1.13370  -1.13160  -1.13153  -1.13090
 Alpha  occ. eigenvalues --   -0.17578  -0.13011  -0.12133  -0.11485
 Alpha virt. eigenvalues --   -0.05908  -0.05270  -0.04991  -0.03462  -0.03269
 Alpha virt. eigenvalues --   -0.02927  -0.01581  -0.01017  -0.00731  -0.00305
 Alpha virt. eigenvalues --   -0.00212   0.00151   0.00322   0.00424   0.00640

  Beta  occ. eigenvalues --  -38.44732 -38.44462 -38.44044 -38.44036 -38.43996
  Beta  occ. eigenvalues --  -38.43858 -38.43658  -2.20477  -2.20257  -2.19819
  Beta  occ. eigenvalues --   -2.19779  -2.19752  -2.19722  -2.19461  -1.14171
  Beta  occ. eigenvalues --   -1.14154  -1.14137  -1.13963  -1.13956  -1.13880
  Beta  occ. eigenvalues --   -1.13522  -1.13503  -1.13461  -1.13450  -1.13447
  Beta  occ. eigenvalues --   -1.13443  -1.13435  -1.13429  -1.13422  -1.13389
  Beta  occ. eigenvalues --   -1.13358  -1.13333  -1.13152  -1.13136  -1.13071
  Beta  occ. eigenvalues --   -0.16775  -0.12479  -0.11429
  Beta virt. eigenvalues --   -0.08433  -0.05645  -0.04996  -0.04401  -0.03274
  Beta virt. eigenvalues --   -0.02764  -0.02365  -0.01430  -0.00847  -0.00459
  Beta virt. eigenvalues --   -0.00177  -0.00027   0.00197   0.00390   0.00602

 Mulliken charges and spin densities:
               1          2
     1  Na   0.545137  -0.127211
     2  Na  -0.338117   0.268070
     3  Na   0.148819   0.337915
     4  Na   0.145444   0.365173
     5  Na  -0.696536   0.029459
     6  Na   0.305031   0.103608
     7  Na  -0.109778   0.022986
 Sum of Mulliken charges =  -0.00000   1.00000

 Dipole moment (field-independent basis, Debye):
    X=             -0.5518    Y=              0.1336    Z=             -0.3718  Tot=              0.6787
 Quadrupole moment (field-independent basis, Debye-Ang):
   XX=            -61.9604   YY=            -72.5443   ZZ=            -62.8705
   XY=              1.4895   XZ=             -1.6885   YZ=              3.8293

 Normal termination of Gaussian 16 at Sun Dec  3 12:52:59 2023.
