 Gaussian 16, Revision B.01,
 Gaussian 16:  ES64L-G16RevB.01 20-Dec-2017

 -------------------------
 #P B3LYP/6-311+g(d) force
 -------------------------

 -----
 DPGEN
 -----
 Symbolic Z-matrix:
 Charge =  0 Multiplicity = 2

                         Standard orientation:
 ---------------------------------------------------------------------
 Center     Atomic      Atomic             Coordinates (Angstroms)
 Number     Number       Type             X           Y           Z
 ---------------------------------------------------------------------
      1         11           0       -0.284423   -0.316698   -1.886439
      2         11           0       -2.983251   -1.589530    0.139386
      3         11           0        3.287428    0.273166    0.225351
      4         11           0        1.394166   -2.294245   -0.457433
      5         11           0        0.191772   -0.219096    2.374776
      6         11           0        0.888016    2.321429   -0.492602
      7         11           0       -2.493708    1.824973    0.096960
 ---------------------------------------------------------------------

 SCF Done:  E(UB3LYP) =  -1136.12778994     A.U. after   21 cycles

 The electronic state is 2-A.
 Alpha  occ. eigenvalues --  -38.44841 -38.44566 -38.44335 -38.43934 -38.43770
 Alpha  occ. eigenvalues --  -38.43247 -38.42576  -2.20654  -2.20410  -2.20117
 Alpha  occ. eigenvalues --   -2.19888  -2.19593  -2.19136  -2.18469  -1.14306
 Alpha  occ. eigenvalues --   -1.14287  -1.14271  -1.14080  -1.14068  -1.14062
 Alpha  occ. eigenvalues --   -1.13791  -1.13780  -1.13760  -1.13609  -1.13543
 Alpha  occ. eigenvalues --   -1.13489  -1.13265  -1.13257  -1.13234  -1.12842
 Alpha  occ. eigenvalues --   -1.12774  -1.12749  -1.12171  -1.12120  -1.12100
 Alpha  occ. eigenvalues --   -0.18486  -0.13355  -0.11648  -0.11500
 Alpha virt. eigenvalues --   -0.06264  -0.05252  -0.03855  -0.03510  -0.03324
 Alpha virt. eigenvalues --   -0.02880  -0.01894  -0.00994  -0.00293  -0.00113
 Alpha virt. eigenvalues --    0.00066   0.00338   0.00507   0.00689   0.00839

  Beta  occ. eigenvalues --  -38.44741 -38.44565 -38.44337 -38.43858 -38.43770
  Beta  occ. eigenvalues --  -38.43234 -38.42564  -2.20469  -2.20410  -2.20122
  Beta  occ. eigenvalues --   -2.19752  -2.19594  -2.19116  -2.18452  -1.14183
  Beta  occ. eigenvalues --   -1.14159  -1.14137  -1.14084  -1.14069  -1.14042
  Beta  occ. eigenvalues --   -1.13790  -1.13777  -1.13765  -1.13518  -1.13443
  Beta  occ. eigenvalues --   -1.13392  -1.13259  -1.13253  -1.13235  -1.12815
  Beta  occ. eigenvalues --   -1.12744  -1.12738  -1.12152  -1.12094  -1.12090
  Beta  occ. eigenvalues --   -0.17714  -0.13204  -0.11407
  Beta virt. eigenvalues --   -0.07530  -0.06076  -0.05267  -0.03616  -0.02968
  Beta virt. eigenvalues --   -0.02262  -0.02135  -0.01740  -0.00934  -0.00305
  Beta virt. eigenvalues --    0.00017   0.00059   0.00361   0.00755   0.00782

 Mulliken charges and spin densities:
               1          2
     1  Na   0.176273   0.264587
     2  Na   0.030905  -0.058172
     3  Na   0.119639   0.081680
     4  Na   0.202020  -0.006712
     5  Na  -0.494890   0.638723
     6  Na  -0.004086   0.065807
     7  Na  -0.029862   0.014088
 Sum of Mulliken charges =  -0.00000   1.00000

 Dipole moment (field-independent basis, Debye):
    X=             -0.1579    Y=             -0.2277    Z=              0.5786  Tot=              0.6415
 Quadrupole moment (field-independent basis, Debye-Ang):
   XX=            -53.5225   YY=            -71.9863   ZZ=            -70.0482
   XY=              0.5118   XZ=             -0.3291   YZ=             -0.2113

 Normal termination of Gaussian 16 at Fri Dec  8 03:30:24 2023.
