 Gaussian 16, Revision B.01,
 Gaussian 16:  ES64L-G16RevB.01 20-Dec-2017

 -------------------------
 #P B3LYP/6-311+g(d) force
 -------------------------

 -----
 DPGEN
 -----
 Symbolic Z-matrix:
 Charge =  0 Multiplicity = 2

                         Standard orientation:
 ---------------------------------------------------------------------
 Center     Atomic      Atomic             Coordinates (Angstroms)
 Number     Number       Type             X           Y           Z
 ---------------------------------------------------------------------
      1         11           0       -1.400793    2.631413    0.082657
      2         11           0       -3.099691   -0.651004   -0.456305
      3         11           0       -0.616859   -2.598799    0.242775
      4         11           0        2.845330   -1.582175   -0.261961
      5         11           0        2.398076    1.866286    0.247055
      6         11           0       -0.329122   -0.044152    1.927076
      7         11           0        0.203059    0.378431   -1.781297
 ---------------------------------------------------------------------

 SCF Done:  E(UB3LYP) =  -1136.13737082     A.U. after   20 cycles

 The electronic state is 2-A.
 Alpha  occ. eigenvalues --  -38.44103 -38.44001 -38.43871 -38.43469 -38.43434
 Alpha  occ. eigenvalues --  -38.43432 -38.43052  -2.19942  -2.19829  -2.19678
 Alpha  occ. eigenvalues --   -2.19405  -2.19364  -2.19275  -2.18954  -1.13620
 Alpha  occ. eigenvalues --   -1.13600  -1.13580  -1.13517  -1.13502  -1.13456
 Alpha  occ. eigenvalues --   -1.13353  -1.13328  -1.13323  -1.13111  -1.13070
 Alpha  occ. eigenvalues --   -1.13041  -1.13016  -1.13013  -1.12989  -1.12940
 Alpha  occ. eigenvalues --   -1.12923  -1.12897  -1.12646  -1.12608  -1.12569
 Alpha  occ. eigenvalues --   -0.18645  -0.13079  -0.12351  -0.10786
 Alpha virt. eigenvalues --   -0.05656  -0.05396  -0.04406  -0.03286  -0.02908
 Alpha virt. eigenvalues --   -0.02546  -0.01605  -0.01187  -0.00339  -0.00217
 Alpha virt. eigenvalues --   -0.00003   0.00357   0.00774   0.00850   0.00917

  Beta  occ. eigenvalues --  -38.44092 -38.43996 -38.43870 -38.43426 -38.43380
  Beta  occ. eigenvalues --  -38.43368 -38.43043  -2.19925  -2.19824  -2.19677
  Beta  occ. eigenvalues --   -2.19269  -2.19245  -2.19240  -2.18942  -1.13609
  Beta  occ. eigenvalues --   -1.13574  -1.13566  -1.13510  -1.13485  -1.13452
  Beta  occ. eigenvalues --   -1.13341  -1.13328  -1.13321  -1.13010  -1.12994
  Beta  occ. eigenvalues --   -1.12955  -1.12946  -1.12910  -1.12903  -1.12893
  Beta  occ. eigenvalues --   -1.12887  -1.12872  -1.12627  -1.12575  -1.12563
  Beta  occ. eigenvalues --   -0.17911  -0.12855  -0.12101
  Beta virt. eigenvalues --   -0.06899  -0.05592  -0.05372  -0.04371  -0.02532
  Beta virt. eigenvalues --   -0.02129  -0.01555  -0.01450  -0.01131  -0.00391
  Beta virt. eigenvalues --   -0.00223   0.00118   0.00382   0.00823   0.00862

 Mulliken charges and spin densities:
               1          2
     1  Na   0.110956  -0.092479
     2  Na   0.063865   0.003932
     3  Na   0.225546  -0.003759
     4  Na  -0.026310  -0.073889
     5  Na   0.110606  -0.082687
     6  Na  -0.209529   0.634700
     7  Na  -0.275134   0.614182
 Sum of Mulliken charges =  -0.00000   1.00000

 Dipole moment (field-independent basis, Debye):
    X=              0.0817    Y=              0.2360    Z=             -0.0625  Tot=              0.2574
 Quadrupole moment (field-independent basis, Debye-Ang):
   XX=            -55.2451   YY=            -64.2813   ZZ=            -73.8733
   XY=             -0.3133   XZ=              1.3847   YZ=              1.3108

 Normal termination of Gaussian 16 at Thu Dec  7 17:27:34 2023.
