 Gaussian 16, Revision B.01,
 Gaussian 16:  ES64L-G16RevB.01 20-Dec-2017

 -------------------------
 #P B3LYP/6-311+g(d) force
 -------------------------

 -----
 DPGEN
 -----
 Symbolic Z-matrix:
 Charge =  0 Multiplicity = 2

                         Standard orientation:
 ---------------------------------------------------------------------
 Center     Atomic      Atomic             Coordinates (Angstroms)
 Number     Number       Type             X           Y           Z
 ---------------------------------------------------------------------
      1         11           0        3.069976   -1.127878    0.218994
      2         11           0       -1.140485    2.805492    0.054094
      3         11           0       -3.062598   -0.820987    0.190890
      4         11           0       -0.110277   -2.559399   -0.390837
      5         11           0       -0.277918   -0.228870    1.928789
      6         11           0       -0.433800   -0.010642   -1.833868
      7         11           0        1.955102    1.942283   -0.168063
 ---------------------------------------------------------------------

 SCF Done:  E(UB3LYP) =  -1136.13586833     A.U. after   19 cycles

 The electronic state is 2-A.
 Alpha  occ. eigenvalues --  -38.44105 -38.43676 -38.43664 -38.43519 -38.43400
 Alpha  occ. eigenvalues --  -38.43384 -38.43354  -2.19954  -2.19589  -2.19500
 Alpha  occ. eigenvalues --   -2.19495  -2.19335  -2.19265  -2.19204  -1.13636
 Alpha  occ. eigenvalues --   -1.13621  -1.13589  -1.13307  -1.13266  -1.13225
 Alpha  occ. eigenvalues --   -1.13204  -1.13183  -1.13155  -1.13143  -1.13138
 Alpha  occ. eigenvalues --   -1.13107  -1.12988  -1.12976  -1.12964  -1.12934
 Alpha  occ. eigenvalues --   -1.12914  -1.12911  -1.12866  -1.12849  -1.12817
 Alpha  occ. eigenvalues --   -0.18903  -0.13023  -0.12542  -0.11017
 Alpha virt. eigenvalues --   -0.05652  -0.04927  -0.04597  -0.03249  -0.02982
 Alpha virt. eigenvalues --   -0.02737  -0.01579  -0.01031  -0.00170  -0.00093
 Alpha virt. eigenvalues --    0.00008   0.00347   0.00824   0.00896   0.00929

  Beta  occ. eigenvalues --  -38.44097 -38.43676 -38.43581 -38.43436 -38.43382
  Beta  occ. eigenvalues --  -38.43380 -38.43352  -2.19945  -2.19500  -2.19436
  Beta  occ. eigenvalues --   -2.19350  -2.19306  -2.19261  -2.19203  -1.13624
  Beta  occ. eigenvalues --   -1.13596  -1.13582  -1.13227  -1.13188  -1.13168
  Beta  occ. eigenvalues --   -1.13146  -1.13144  -1.13118  -1.13086  -1.13039
  Beta  occ. eigenvalues --   -1.13006  -1.12965  -1.12953  -1.12921  -1.12909
  Beta  occ. eigenvalues --   -1.12902  -1.12887  -1.12850  -1.12843  -1.12817
  Beta  occ. eigenvalues --   -0.18150  -0.12784  -0.12308
  Beta virt. eigenvalues --   -0.07055  -0.05596  -0.04932  -0.04555  -0.02453
  Beta virt. eigenvalues --   -0.02213  -0.01659  -0.01488  -0.00984  -0.00162
  Beta virt. eigenvalues --   -0.00139   0.00114   0.00372   0.00858   0.00905

 Mulliken charges and spin densities:
               1          2
     1  Na  -0.074021  -0.069631
     2  Na   0.045939  -0.120494
     3  Na   0.261498  -0.102249
     4  Na   0.389254   0.013739
     5  Na  -0.484379   0.803592
     6  Na  -0.164682   0.504679
     7  Na   0.026391  -0.029636
 Sum of Mulliken charges =  -0.00000   1.00000

 Dipole moment (field-independent basis, Debye):
    X=             -0.3835    Y=             -0.0567    Z=              0.1611  Tot=              0.4198
 Quadrupole moment (field-independent basis, Debye-Ang):
   XX=            -56.5095   YY=            -64.7063   ZZ=            -73.0602
   XY=             -0.6762   XZ=             -0.2096   YZ=              0.2192

 Normal termination of Gaussian 16 at Fri Dec  8 05:51:34 2023.
