 Gaussian 16, Revision B.01,
 Gaussian 16:  ES64L-G16RevB.01 20-Dec-2017

 -------------------------
 #P B3LYP/6-311+g(d) force
 -------------------------

 -----
 DPGEN
 -----
 Symbolic Z-matrix:
 Charge =  0 Multiplicity = 2

                         Standard orientation:
 ---------------------------------------------------------------------
 Center     Atomic      Atomic             Coordinates (Angstroms)
 Number     Number       Type             X           Y           Z
 ---------------------------------------------------------------------
      1         11           0       -0.035971   -0.101271   -1.658836
      2         11           0       -2.071817   -2.160257   -0.269386
      3         11           0        0.722866    2.870492   -0.040663
      4         11           0        1.212703   -2.414862    0.261457
      5         11           0       -2.677156    1.502648   -0.215053
      6         11           0        2.998078    0.140507   -0.379855
      7         11           0       -0.148703    0.162744    2.302336
 ---------------------------------------------------------------------

 SCF Done:  E(UB3LYP) =  -1136.13842171     A.U. after   19 cycles

 The electronic state is 2-A.
 Alpha  occ. eigenvalues --  -38.44145 -38.43799 -38.43553 -38.43485 -38.43467
 Alpha  occ. eigenvalues --  -38.43255 -38.43190  -2.19997  -2.19618  -2.19383
 Alpha  occ. eigenvalues --   -2.19345  -2.19337  -2.19263  -2.19109  -1.13649
 Alpha  occ. eigenvalues --   -1.13621  -1.13619  -1.13306  -1.13281  -1.13250
 Alpha  occ. eigenvalues --   -1.13084  -1.13071  -1.13059  -1.13052  -1.13021
 Alpha  occ. eigenvalues --   -1.13006  -1.13001  -1.12978  -1.12964  -1.12933
 Alpha  occ. eigenvalues --   -1.12895  -1.12865  -1.12772  -1.12759  -1.12729
 Alpha  occ. eigenvalues --   -0.18755  -0.12756  -0.12608  -0.11216
 Alpha virt. eigenvalues --   -0.05374  -0.04914  -0.04705  -0.03259  -0.03081
 Alpha virt. eigenvalues --   -0.03001  -0.01247  -0.01098  -0.00228  -0.00144
 Alpha virt. eigenvalues --   -0.00009   0.00367   0.00834   0.00918   0.00928

  Beta  occ. eigenvalues --  -38.44036 -38.43796 -38.43550 -38.43480 -38.43461
  Beta  occ. eigenvalues --  -38.43196 -38.43182  -2.19797  -2.19615  -2.19381
  Beta  occ. eigenvalues --   -2.19339  -2.19329  -2.19155  -2.19098  -1.13516
  Beta  occ. eigenvalues --   -1.13482  -1.13474  -1.13295  -1.13271  -1.13249
  Beta  occ. eigenvalues --   -1.13070  -1.13059  -1.13046  -1.13037  -1.13019
  Beta  occ. eigenvalues --   -1.12988  -1.12978  -1.12976  -1.12958  -1.12877
  Beta  occ. eigenvalues --   -1.12827  -1.12792  -1.12756  -1.12728  -1.12715
  Beta  occ. eigenvalues --   -0.18012  -0.12527  -0.12386
  Beta virt. eigenvalues --   -0.07208  -0.05396  -0.04860  -0.04646  -0.02422
  Beta virt. eigenvalues --   -0.02313  -0.01910  -0.01169  -0.01035  -0.00274
  Beta virt. eigenvalues --   -0.00148   0.00109   0.00392   0.00870   0.00932

 Mulliken charges and spin densities:
               1          2
     1  Na  -0.260435   0.260578
     2  Na   0.223587  -0.017409
     3  Na   0.106754  -0.021608
     4  Na   0.297239   0.157230
     5  Na   0.100712  -0.060003
     6  Na   0.183297  -0.003334
     7  Na  -0.651154   0.684547
 Sum of Mulliken charges =  -0.00000   1.00000

 Dipole moment (field-independent basis, Debye):
    X=             -0.2334    Y=              0.2374    Z=              0.2410  Tot=              0.4110
 Quadrupole moment (field-independent basis, Debye-Ang):
   XX=            -60.0143   YY=            -62.8164   ZZ=            -71.9239
   XY=              0.3596   XZ=              0.0555   YZ=             -0.4557

 Normal termination of Gaussian 16 at Thu Dec  7 17:35:48 2023.
