 Gaussian 16, Revision B.01,
 Gaussian 16:  ES64L-G16RevB.01 20-Dec-2017

 -------------------------
 #P B3LYP/6-311+g(d) force
 -------------------------

 -----
 DPGEN
 -----
 Symbolic Z-matrix:
 Charge =  0 Multiplicity = 2

                         Standard orientation:
 ---------------------------------------------------------------------
 Center     Atomic      Atomic             Coordinates (Angstroms)
 Number     Number       Type             X           Y           Z
 ---------------------------------------------------------------------
      1         11           0       -0.417328   -0.365976   -1.951601
      2         11           0        0.680668    0.575456    2.383172
      3         11           0       -2.578239    1.285226    0.862530
      4         11           0        0.429119    3.197989   -0.471680
      5         11           0        2.679845    0.297803   -1.208685
      6         11           0       -2.938417   -2.223235   -0.472265
      7         11           0        2.144351   -2.767263    0.858528
 ---------------------------------------------------------------------

 SCF Done:  E(UB3LYP) =  -1136.12523836     A.U. after   21 cycles

 The electronic state is 2-A.
 Alpha  occ. eigenvalues --  -38.45025 -38.44355 -38.44185 -38.44089 -38.43932
 Alpha  occ. eigenvalues --  -38.43741 -38.43485  -2.20816  -2.20107  -2.20031
 Alpha  occ. eigenvalues --   -2.19875  -2.19759  -2.19523  -2.19257  -1.14487
 Alpha  occ. eigenvalues --   -1.14458  -1.14418  -1.13772  -1.13762  -1.13738
 Alpha  occ. eigenvalues --   -1.13714  -1.13680  -1.13670  -1.13572  -1.13545
 Alpha  occ. eigenvalues --   -1.13480  -1.13455  -1.13409  -1.13366  -1.13206
 Alpha  occ. eigenvalues --   -1.13181  -1.13164  -1.12930  -1.12917  -1.12895
 Alpha  occ. eigenvalues --   -0.17355  -0.12527  -0.11819  -0.11787
 Alpha virt. eigenvalues --   -0.05634  -0.05340  -0.04975  -0.03424  -0.03280
 Alpha virt. eigenvalues --   -0.03145  -0.01388  -0.01287  -0.00629  -0.00236
 Alpha virt. eigenvalues --   -0.00151   0.00347   0.00492   0.00603   0.00667

  Beta  occ. eigenvalues --  -38.44942 -38.44328 -38.44130 -38.44077 -38.43908
  Beta  occ. eigenvalues --  -38.43740 -38.43487  -2.20661  -2.20057  -2.19931
  Beta  occ. eigenvalues --   -2.19855  -2.19718  -2.19523  -2.19260  -1.14381
  Beta  occ. eigenvalues --   -1.14355  -1.14301  -1.13735  -1.13722  -1.13709
  Beta  occ. eigenvalues --   -1.13651  -1.13615  -1.13588  -1.13548  -1.13533
  Beta  occ. eigenvalues --   -1.13466  -1.13413  -1.13384  -1.13328  -1.13205
  Beta  occ. eigenvalues --   -1.13180  -1.13152  -1.12926  -1.12921  -1.12898
  Beta  occ. eigenvalues --   -0.16588  -0.12307  -0.11627
  Beta virt. eigenvalues --   -0.07963  -0.05352  -0.05065  -0.04748  -0.02934
  Beta virt. eigenvalues --   -0.02752  -0.02400  -0.01225  -0.01178  -0.00542
  Beta virt. eigenvalues --   -0.00156  -0.00044   0.00399   0.00661   0.00752

 Mulliken charges and spin densities:
               1          2
     1  Na  -0.071637   0.314855
     2  Na  -0.109088   0.521145
     3  Na  -0.157627   0.049827
     4  Na   0.005614  -0.021984
     5  Na   0.306417   0.001289
     6  Na   0.184742  -0.051590
     7  Na  -0.158420   0.186458
 Sum of Mulliken charges =  -0.00000   1.00000

 Dipole moment (field-independent basis, Debye):
    X=              0.2409    Y=              0.1032    Z=              0.4270  Tot=              0.5010
 Quadrupole moment (field-independent basis, Debye-Ang):
   XX=            -65.5550   YY=            -63.0537   ZZ=            -68.4535
   XY=             -0.0277   XZ=             -1.9177   YZ=             -2.9092

 Normal termination of Gaussian 16 at Sun Dec  3 20:05:53 2023.
