 Gaussian 16, Revision B.01,
 Gaussian 16:  ES64L-G16RevB.01 20-Dec-2017

 -------------------------
 #P B3LYP/6-311+g(d) force
 -------------------------

 -----
 DPGEN
 -----
 Symbolic Z-matrix:
 Charge =  0 Multiplicity = 2

                         Standard orientation:
 ---------------------------------------------------------------------
 Center     Atomic      Atomic             Coordinates (Angstroms)
 Number     Number       Type             X           Y           Z
 ---------------------------------------------------------------------
      1         11           0        1.658466   -0.131327    1.320135
      2         11           0       -0.288371   -2.786907   -0.424346
      3         11           0       -1.846637   -0.017530    1.067941
      4         11           0        1.635285    2.567544   -0.797226
      5         11           0       -1.450781    3.312036   -0.140915
      6         11           0       -3.601459   -1.527677   -0.634122
      7         11           0        3.893497   -1.416138   -0.391468
 ---------------------------------------------------------------------

 SCF Done:  E(UB3LYP) =  -1136.11592502     A.U. after   21 cycles

 The electronic state is 2-A.
 Alpha  occ. eigenvalues --  -38.45419 -38.44467 -38.44457 -38.44259 -38.43964
 Alpha  occ. eigenvalues --  -38.43410 -38.43221  -2.21191  -2.20267  -2.20259
 Alpha  occ. eigenvalues --   -2.20052  -2.19835  -2.19356  -2.19142  -1.14890
 Alpha  occ. eigenvalues --   -1.14873  -1.14798  -1.13958  -1.13938  -1.13929
 Alpha  occ. eigenvalues --   -1.13909  -1.13900  -1.13898  -1.13715  -1.13710
 Alpha  occ. eigenvalues --   -1.13686  -1.13616  -1.13461  -1.13437  -1.13026
 Alpha  occ. eigenvalues --   -1.13009  -1.12963  -1.12815  -1.12793  -1.12781
 Alpha  occ. eigenvalues --   -0.17427  -0.13721  -0.12850  -0.09700
 Alpha virt. eigenvalues --   -0.06765  -0.06250  -0.04211  -0.03658  -0.02859
 Alpha virt. eigenvalues --   -0.02170  -0.01882  -0.01279  -0.01224  -0.00914
 Alpha virt. eigenvalues --   -0.00046   0.00304   0.00376   0.00540   0.00635

  Beta  occ. eigenvalues --  -38.45419 -38.44442 -38.44435 -38.44260 -38.43921
  Beta  occ. eigenvalues --  -38.43371 -38.43174  -2.21194  -2.20221  -2.20219
  Beta  occ. eigenvalues --   -2.20054  -2.19755  -2.19291  -2.19061  -1.14896
  Beta  occ. eigenvalues --   -1.14855  -1.14795  -1.13927  -1.13908  -1.13899
  Beta  occ. eigenvalues --   -1.13878  -1.13872  -1.13864  -1.13717  -1.13700
  Beta  occ. eigenvalues --   -1.13685  -1.13562  -1.13405  -1.13382  -1.12977
  Beta  occ. eigenvalues --   -1.12935  -1.12916  -1.12766  -1.12737  -1.12686
  Beta  occ. eigenvalues --   -0.16791  -0.13376  -0.12689
  Beta virt. eigenvalues --   -0.06551  -0.06163  -0.06093  -0.04021  -0.03179
  Beta virt. eigenvalues --   -0.02429  -0.02045  -0.01642  -0.01081  -0.00838
  Beta virt. eigenvalues --   -0.00681   0.00174   0.00409   0.00445   0.00708

 Mulliken charges and spin densities:
               1          2
     1  Na   0.159190   0.110127
     2  Na  -0.215756   0.016845
     3  Na  -0.187386   0.147301
     4  Na  -0.196072   0.203493
     5  Na   0.124841  -0.017891
     6  Na   0.199296   0.309414
     7  Na   0.115887   0.230711
 Sum of Mulliken charges =  -0.00000   1.00000

 Dipole moment (field-independent basis, Debye):
    X=              0.0940    Y=             -0.4928    Z=             -0.3344  Tot=              0.6030
 Quadrupole moment (field-independent basis, Debye-Ang):
   XX=            -61.1049   YY=            -63.6609   ZZ=            -73.7006
   XY=             -5.6985   XZ=             -1.3149   YZ=              2.2906

 Normal termination of Gaussian 16 at Tue Nov 28 22:08:15 2023.
