 Gaussian 16, Revision B.01,
 Gaussian 16:  ES64L-G16RevB.01 20-Dec-2017

 -------------------------
 #P B3LYP/6-311+g(d) force
 -------------------------

 -----
 DPGEN
 -----
 Symbolic Z-matrix:
 Charge =  0 Multiplicity = 2

                         Standard orientation:
 ---------------------------------------------------------------------
 Center     Atomic      Atomic             Coordinates (Angstroms)
 Number     Number       Type             X           Y           Z
 ---------------------------------------------------------------------
      1         11           0       -0.169561    0.053773    2.127479
      2         11           0       -2.405277    1.416540   -0.196521
      3         11           0        0.092861    0.291798   -1.609189
      4         11           0        3.131863   -0.060515   -0.470764
      5         11           0       -2.187760   -1.897751   -0.466654
      6         11           0        0.905363   -2.555161    0.372071
      7         11           0        0.632512    2.751317    0.243577
 ---------------------------------------------------------------------

 SCF Done:  E(UB3LYP) =  -1136.13707580     A.U. after   19 cycles

 The electronic state is 2-A.
 Alpha  occ. eigenvalues --  -38.43898 -38.43676 -38.43435 -38.43418 -38.43311
 Alpha  occ. eigenvalues --  -38.43248 -38.43205  -2.19816  -2.19509  -2.19346
 Alpha  occ. eigenvalues --   -2.19332  -2.19254  -2.19198  -2.19139  -1.13480
 Alpha  occ. eigenvalues --   -1.13452  -1.13436  -1.13211  -1.13159  -1.13148
 Alpha  occ. eigenvalues --   -1.13137  -1.13061  -1.13010  -1.12998  -1.12987
 Alpha  occ. eigenvalues --   -1.12932  -1.12922  -1.12887  -1.12867  -1.12853
 Alpha  occ. eigenvalues --   -1.12840  -1.12825  -1.12818  -1.12786  -1.12745
 Alpha  occ. eigenvalues --   -0.19176  -0.12875  -0.12744  -0.11298
 Alpha virt. eigenvalues --   -0.05190  -0.04813  -0.04689  -0.03272  -0.03115
 Alpha virt. eigenvalues --   -0.02874  -0.01252  -0.01008  -0.00152   0.00053
 Alpha virt. eigenvalues --    0.00097   0.00362   0.00899   0.00931   0.00974

  Beta  occ. eigenvalues --  -38.43797 -38.43668 -38.43427 -38.43409 -38.43303
  Beta  occ. eigenvalues --  -38.43239 -38.43143  -2.19630  -2.19497  -2.19334
  Beta  occ. eigenvalues --   -2.19322  -2.19185  -2.19143  -2.19127  -1.13359
  Beta  occ. eigenvalues --   -1.13315  -1.13307  -1.13191  -1.13146  -1.13141
  Beta  occ. eigenvalues --   -1.13114  -1.13041  -1.12992  -1.12969  -1.12964
  Beta  occ. eigenvalues --   -1.12914  -1.12907  -1.12840  -1.12829  -1.12826
  Beta  occ. eigenvalues --   -1.12803  -1.12784  -1.12761  -1.12758  -1.12740
  Beta  occ. eigenvalues --   -0.18427  -0.12609  -0.12473
  Beta virt. eigenvalues --   -0.07318  -0.05162  -0.04776  -0.04648  -0.02428
  Beta virt. eigenvalues --   -0.02372  -0.01788  -0.01161  -0.00947  -0.00088
  Beta virt. eigenvalues --    0.00029   0.00134   0.00388   0.00921   0.00942

 Mulliken charges and spin densities:
               1          2
     1  Na  -0.515202   0.574283
     2  Na   0.379002   0.019798
     3  Na  -0.492978   0.343595
     4  Na   0.049997  -0.048500
     5  Na   0.075933  -0.002504
     6  Na   0.224756   0.082321
     7  Na   0.278493   0.031007
 Sum of Mulliken charges =  -0.00000   1.00000

 Dipole moment (field-independent basis, Debye):
    X=              0.1020    Y=              0.1346    Z=              0.2355  Tot=              0.2898
 Quadrupole moment (field-independent basis, Debye-Ang):
   XX=            -59.9096   YY=            -63.0618   ZZ=            -71.6260
   XY=              0.3916   XZ=              0.3999   YZ=              0.6342

 Normal termination of Gaussian 16 at Thu Dec  7 18:15:19 2023.
