 Gaussian 16, Revision B.01,
 Gaussian 16:  ES64L-G16RevB.01 20-Dec-2017

 -------------------------
 #P B3LYP/6-311+g(d) force
 -------------------------

 -----
 DPGEN
 -----
 Symbolic Z-matrix:
 Charge =  0 Multiplicity = 2

                         Standard orientation:
 ---------------------------------------------------------------------
 Center     Atomic      Atomic             Coordinates (Angstroms)
 Number     Number       Type             X           Y           Z
 ---------------------------------------------------------------------
      1         11           0       -2.774040    1.556606   -0.530828
      2         11           0       -0.977892   -0.430837    2.126066
      3         11           0        0.036215    0.444949   -1.597628
      4         11           0        0.728329    2.494705    0.806405
      5         11           0        3.860065    0.132246   -0.537640
      6         11           0        2.030510   -2.155261    0.279516
      7         11           0       -2.903187   -2.042408   -0.545890
 ---------------------------------------------------------------------

 SCF Done:  E(UB3LYP) =  -1136.12513402     A.U. after   21 cycles

 The electronic state is 2-A.
 Alpha  occ. eigenvalues --  -38.44754 -38.44463 -38.44131 -38.43910 -38.43789
 Alpha  occ. eigenvalues --  -38.43777 -38.42998  -2.20565  -2.20306  -2.20025
 Alpha  occ. eigenvalues --   -2.19731  -2.19640  -2.19559  -2.18835  -1.14265
 Alpha  occ. eigenvalues --   -1.14221  -1.14187  -1.14021  -1.13963  -1.13909
 Alpha  occ. eigenvalues --   -1.13719  -1.13667  -1.13649  -1.13397  -1.13393
 Alpha  occ. eigenvalues --   -1.13376  -1.13304  -1.13277  -1.13255  -1.13231
 Alpha  occ. eigenvalues --   -1.13213  -1.13200  -1.12522  -1.12495  -1.12456
 Alpha  occ. eigenvalues --   -0.17925  -0.13666  -0.11382  -0.10951
 Alpha virt. eigenvalues --   -0.06362  -0.05630  -0.04200  -0.03275  -0.02939
 Alpha virt. eigenvalues --   -0.02526  -0.02263  -0.01256  -0.00741  -0.00250
 Alpha virt. eigenvalues --    0.00003   0.00232   0.00490   0.00660   0.00735

  Beta  occ. eigenvalues --  -38.44746 -38.44442 -38.44096 -38.43907 -38.43773
  Beta  occ. eigenvalues --  -38.43694 -38.42980  -2.20551  -2.20270  -2.19961
  Beta  occ. eigenvalues --   -2.19728  -2.19554  -2.19464  -2.18805  -1.14259
  Beta  occ. eigenvalues --   -1.14206  -1.14179  -1.13986  -1.13933  -1.13881
  Beta  occ. eigenvalues --   -1.13670  -1.13625  -1.13596  -1.13395  -1.13393
  Beta  occ. eigenvalues --   -1.13357  -1.13230  -1.13209  -1.13196  -1.13186
  Beta  occ. eigenvalues --   -1.13155  -1.13114  -1.12505  -1.12450  -1.12439
  Beta  occ. eigenvalues --   -0.17238  -0.13430  -0.11209
  Beta virt. eigenvalues --   -0.07081  -0.06152  -0.05594  -0.03932  -0.02898
  Beta virt. eigenvalues --   -0.02183  -0.02134  -0.01627  -0.01201  -0.00628
  Beta virt. eigenvalues --   -0.00121   0.00054   0.00289   0.00665   0.00739

 Mulliken charges and spin densities:
               1          2
     1  Na   0.424462   0.118096
     2  Na  -0.123805   0.609886
     3  Na  -0.044504   0.258651
     4  Na  -0.208510   0.059823
     5  Na   0.294941   0.032136
     6  Na  -0.182124  -0.036660
     7  Na  -0.160460  -0.041931
 Sum of Mulliken charges =  -0.00000   1.00000

 Dipole moment (field-independent basis, Debye):
    X=              0.2495    Y=              0.3658    Z=             -0.1911  Tot=              0.4823
 Quadrupole moment (field-independent basis, Debye-Ang):
   XX=            -52.9946   YY=            -69.9392   ZZ=            -72.1366
   XY=              0.9197   XZ=              0.1578   YZ=              1.3805

 Normal termination of Gaussian 16 at Tue Dec  5 18:29:08 2023.
