 Gaussian 16, Revision B.01,
 Gaussian 16:  ES64L-G16RevB.01 20-Dec-2017

 -------------------------
 #P B3LYP/6-311+g(d) force
 -------------------------

 -----
 DPGEN
 -----
 Symbolic Z-matrix:
 Charge =  0 Multiplicity = 2

                         Standard orientation:
 ---------------------------------------------------------------------
 Center     Atomic      Atomic             Coordinates (Angstroms)
 Number     Number       Type             X           Y           Z
 ---------------------------------------------------------------------
      1         11           0       -0.061790    0.541007    2.106796
      2         11           0        2.103497   -2.038364    0.089622
      3         11           0       -0.825092    3.083142   -0.069820
      4         11           0       -1.325284   -2.571418    0.189181
      5         11           0        0.371002   -0.047901   -1.465951
      6         11           0       -3.133801   -0.084450   -0.519360
      7         11           0        2.871470    1.117985   -0.330468
 ---------------------------------------------------------------------

 SCF Done:  E(UB3LYP) =  -1136.13322117     A.U. after   19 cycles

 The electronic state is 2-A.
 Alpha  occ. eigenvalues --  -38.44122 -38.44047 -38.43743 -38.43594 -38.43576
 Alpha  occ. eigenvalues --  -38.43232 -38.43201  -2.20001  -2.19876  -2.19541
 Alpha  occ. eigenvalues --   -2.19493  -2.19446  -2.19232  -2.19107  -1.13748
 Alpha  occ. eigenvalues --   -1.13652  -1.13610  -1.13560  -1.13542  -1.13502
 Alpha  occ. eigenvalues --   -1.13237  -1.13226  -1.13207  -1.13181  -1.13140
 Alpha  occ. eigenvalues --   -1.13121  -1.13106  -1.13073  -1.13056  -1.12905
 Alpha  occ. eigenvalues --   -1.12877  -1.12839  -1.12772  -1.12760  -1.12754
 Alpha  occ. eigenvalues --   -0.18660  -0.13153  -0.12475  -0.10674
 Alpha virt. eigenvalues --   -0.05751  -0.05105  -0.04748  -0.03177  -0.02950
 Alpha virt. eigenvalues --   -0.02442  -0.01516  -0.01217  -0.00481  -0.00251
 Alpha virt. eigenvalues --   -0.00011   0.00341   0.00814   0.00840   0.00910

  Beta  occ. eigenvalues --  -38.44111 -38.44034 -38.43743 -38.43588 -38.43479
  Beta  occ. eigenvalues --  -38.43228 -38.43150  -2.19983  -2.19853  -2.19543
  Beta  occ. eigenvalues --   -2.19486  -2.19267  -2.19141  -2.19102  -1.13728
  Beta  occ. eigenvalues --   -1.13630  -1.13594  -1.13548  -1.13512  -1.13488
  Beta  occ. eigenvalues --   -1.13226  -1.13213  -1.13198  -1.13185  -1.13129
  Beta  occ. eigenvalues --   -1.13100  -1.12991  -1.12951  -1.12928  -1.12839
  Beta  occ. eigenvalues --   -1.12820  -1.12777  -1.12766  -1.12751  -1.12727
  Beta  occ. eigenvalues --   -0.17962  -0.12884  -0.12253
  Beta virt. eigenvalues --   -0.06803  -0.05697  -0.05031  -0.04703  -0.02425
  Beta virt. eigenvalues --   -0.02201  -0.01453  -0.01407  -0.01135  -0.00486
  Beta virt. eigenvalues --   -0.00292   0.00144   0.00385   0.00824   0.00884

 Mulliken charges and spin densities:
               1          2
     1  Na  -0.566478   0.682681
     2  Na   0.279118   0.123191
     3  Na   0.085235  -0.080189
     4  Na   0.119503   0.068975
     5  Na  -0.541610   0.153994
     6  Na   0.115674   0.050641
     7  Na   0.508557   0.000707
 Sum of Mulliken charges =  -0.00000   1.00000

 Dipole moment (field-independent basis, Debye):
    X=              0.1068    Y=              0.3219    Z=              0.1569  Tot=              0.3737
 Quadrupole moment (field-independent basis, Debye-Ang):
   XX=            -57.4788   YY=            -61.5621   ZZ=            -74.6148
   XY=             -0.4221   XZ=              1.1534   YZ=             -1.7221

 Normal termination of Gaussian 16 at Thu Dec  7 23:00:19 2023.
