 Gaussian 16, Revision B.01,
 Gaussian 16:  ES64L-G16RevB.01 20-Dec-2017

 -------------------------
 #P B3LYP/6-311+g(d) force
 -------------------------

 -----
 DPGEN
 -----
 Symbolic Z-matrix:
 Charge =  0 Multiplicity = 2

                         Standard orientation:
 ---------------------------------------------------------------------
 Center     Atomic      Atomic             Coordinates (Angstroms)
 Number     Number       Type             X           Y           Z
 ---------------------------------------------------------------------
      1         11           0        1.662787   -1.584400   -0.460578
      2         11           0       -1.080321   -1.823020   -0.363374
      3         11           0        4.283441   -0.328323    0.165847
      4         11           0        2.007121    2.013576    0.076931
      5         11           0       -1.844158    1.457555   -1.538859
      6         11           0       -0.798067    0.535265    1.643011
      7         11           0       -4.230803   -0.270652    0.477022
 ---------------------------------------------------------------------

 SCF Done:  E(UB3LYP) =  -1136.10732720     A.U. after   27 cycles

 The electronic state is 2-A.
 Alpha  occ. eigenvalues --  -38.45687 -38.45643 -38.44483 -38.44026 -38.43191
 Alpha  occ. eigenvalues --  -38.42907 -38.42755  -2.21535  -2.21485  -2.20325
 Alpha  occ. eigenvalues --   -2.19918  -2.19027  -2.18893  -2.18745  -1.15232
 Alpha  occ. eigenvalues --   -1.15180  -1.15178  -1.15170  -1.15120  -1.15111
 Alpha  occ. eigenvalues --   -1.13987  -1.13954  -1.13934  -1.13619  -1.13538
 Alpha  occ. eigenvalues --   -1.13534  -1.12846  -1.12722  -1.12704  -1.12657
 Alpha  occ. eigenvalues --   -1.12532  -1.12494  -1.12399  -1.12369  -1.12265
 Alpha  occ. eigenvalues --   -0.18560  -0.14798  -0.11120  -0.10841
 Alpha virt. eigenvalues --   -0.07733  -0.05142  -0.04323  -0.03496  -0.03124
 Alpha virt. eigenvalues --   -0.02155  -0.01693  -0.01589  -0.01174  -0.00674
 Alpha virt. eigenvalues --   -0.00097   0.00164   0.00287   0.00618   0.00780

  Beta  occ. eigenvalues --  -38.45683 -38.45615 -38.44397 -38.43951 -38.43188
  Beta  occ. eigenvalues --  -38.42896 -38.42737  -2.21487  -2.21480  -2.20163
  Beta  occ. eigenvalues --   -2.19778  -2.19027  -2.18881  -2.18719  -1.15200
  Beta  occ. eigenvalues --   -1.15174  -1.15150  -1.15130  -1.15109  -1.15079
  Beta  occ. eigenvalues --   -1.13874  -1.13842  -1.13830  -1.13529  -1.13442
  Beta  occ. eigenvalues --   -1.13441  -1.12786  -1.12725  -1.12708  -1.12623
  Beta  occ. eigenvalues --   -1.12529  -1.12495  -1.12385  -1.12350  -1.12222
  Beta  occ. eigenvalues --   -0.17968  -0.14019  -0.10885
  Beta virt. eigenvalues --   -0.07577  -0.07328  -0.04893  -0.03599  -0.03244
  Beta virt. eigenvalues --   -0.02935  -0.02049  -0.01551  -0.01074  -0.00613
  Beta virt. eigenvalues --   -0.00238   0.00008   0.00232   0.00399   0.00720

 Mulliken charges and spin densities:
               1          2
     1  Na  -0.314359   0.029169
     2  Na  -0.594961   0.035005
     3  Na   0.552287   0.277288
     4  Na  -0.052845   0.051886
     5  Na   0.007489   0.109181
     6  Na  -0.121660  -0.052380
     7  Na   0.524050   0.549851
 Sum of Mulliken charges =  -0.00000   1.00000

 Dipole moment (field-independent basis, Debye):
    X=             -1.0349    Y=              0.7473    Z=              0.2486  Tot=              1.3005
 Quadrupole moment (field-independent basis, Debye-Ang):
   XX=            -64.3463   YY=            -80.9588   ZZ=            -59.1120
   XY=              0.2930   XZ=              0.7105   YZ=             -2.2449

 Normal termination of Gaussian 16 at Fri Dec  8 18:37:34 2023.
