 Gaussian 16, Revision B.01,
 Gaussian 16:  ES64L-G16RevB.01 20-Dec-2017

 -------------------------
 #P B3LYP/6-311+g(d) force
 -------------------------

 -----
 DPGEN
 -----
 Symbolic Z-matrix:
 Charge =  0 Multiplicity = 2

                         Standard orientation:
 ---------------------------------------------------------------------
 Center     Atomic      Atomic             Coordinates (Angstroms)
 Number     Number       Type             X           Y           Z
 ---------------------------------------------------------------------
      1         11           0       -5.059544   -0.217737    0.023403
      2         11           0        0.544213    3.418488   -0.335927
      3         11           0        3.988177   -1.260812   -0.805763
      4         11           0       -2.286852   -2.288930    0.713146
      5         11           0        3.540346    1.607469    1.219032
      6         11           0        1.519873   -3.102942   -0.265092
      7         11           0       -2.246213    1.844464   -0.548798
 ---------------------------------------------------------------------

 SCF Done:  E(UB3LYP) =  -1136.11097634     A.U. after   23 cycles

 The electronic state is 2-A.
 Alpha  occ. eigenvalues --  -38.45650 -38.44951 -38.44610 -38.44584 -38.44204
 Alpha  occ. eigenvalues --  -38.43784 -38.43366  -2.21390  -2.20716  -2.20420
 Alpha  occ. eigenvalues --   -2.20384  -2.20019  -2.19584  -2.19168  -1.15086
 Alpha  occ. eigenvalues --   -1.15071  -1.15000  -1.14387  -1.14368  -1.14339
 Alpha  occ. eigenvalues --   -1.14104  -1.14101  -1.14075  -1.14054  -1.14040
 Alpha  occ. eigenvalues --   -1.14026  -1.13674  -1.13669  -1.13632  -1.13249
 Alpha  occ. eigenvalues --   -1.13241  -1.13218  -1.12844  -1.12830  -1.12800
 Alpha  occ. eigenvalues --   -0.15760  -0.14169  -0.12889  -0.10720
 Alpha virt. eigenvalues --   -0.07527  -0.04889  -0.04547  -0.03624  -0.03295
 Alpha virt. eigenvalues --   -0.02533  -0.02246  -0.01341  -0.01082  -0.00879
 Alpha virt. eigenvalues --   -0.00631  -0.00532   0.00295   0.00447   0.00519

  Beta  occ. eigenvalues --  -38.45631 -38.44907 -38.44591 -38.44570 -38.44149
  Beta  occ. eigenvalues --  -38.43754 -38.43343  -2.21361  -2.20635  -2.20398
  Beta  occ. eigenvalues --   -2.20353  -2.19915  -2.19527  -2.19130  -1.15070
  Beta  occ. eigenvalues --   -1.15053  -1.14946  -1.14331  -1.14314  -1.14281
  Beta  occ. eigenvalues --   -1.14088  -1.14065  -1.14061  -1.14056  -1.14018
  Beta  occ. eigenvalues --   -1.13962  -1.13601  -1.13598  -1.13567  -1.13213
  Beta  occ. eigenvalues --   -1.13203  -1.13178  -1.12809  -1.12808  -1.12766
  Beta  occ. eigenvalues --   -0.15223  -0.13740  -0.12241
  Beta virt. eigenvalues --   -0.07525  -0.07332  -0.04490  -0.04162  -0.03426
  Beta virt. eigenvalues --   -0.02897  -0.02382  -0.01909  -0.01265  -0.00847
  Beta virt. eigenvalues --   -0.00642  -0.00363  -0.00260   0.00393   0.00500

 Mulliken charges and spin densities:
               1          2
     1  Na   1.186239   0.351228
     2  Na  -0.241569  -0.190352
     3  Na  -0.051692   0.041340
     4  Na  -0.080530   0.129431
     5  Na  -0.171027   0.233643
     6  Na  -0.113007   0.111539
     7  Na  -0.528414   0.323171
 Sum of Mulliken charges =  -0.00000   1.00000

 Dipole moment (field-independent basis, Debye):
    X=             -0.4920    Y=             -0.2814    Z=              0.2798  Tot=              0.6321
 Quadrupole moment (field-independent basis, Debye-Ang):
   XX=            -58.1620   YY=            -71.3473   ZZ=            -69.4153
   XY=              1.3882   XZ=             -0.5740   YZ=             -0.1322

 Normal termination of Gaussian 16 at Sun Dec  3 20:49:50 2023.
