 Gaussian 16, Revision B.01,
 Gaussian 16:  ES64L-G16RevB.01 20-Dec-2017

 -------------------------
 #P B3LYP/6-311+g(d) force
 -------------------------

 -----
 DPGEN
 -----
 Symbolic Z-matrix:
 Charge =  0 Multiplicity = 2

                         Standard orientation:
 ---------------------------------------------------------------------
 Center     Atomic      Atomic             Coordinates (Angstroms)
 Number     Number       Type             X           Y           Z
 ---------------------------------------------------------------------
      1         11           0       -0.835555   -1.594270    0.633257
      2         11           0       -0.799251    1.528030    0.866357
      3         11           0       -3.010353    0.068433   -0.272343
      4         11           0       -0.483253   -0.097671   -1.652943
      5         11           0        1.227747   -0.153573    1.701357
      6         11           0        2.031515   -1.410274   -0.625843
      7         11           0        1.869150    1.659326   -0.649843
 ---------------------------------------------------------------------

 SCF Done:  E(UB3LYP) =  -1136.08156081     A.U. after   22 cycles

 The electronic state is 2-A.
 Alpha  occ. eigenvalues --  -38.44633 -38.44556 -38.44216 -38.43547 -38.43246
 Alpha  occ. eigenvalues --  -38.43224 -38.43104  -2.20865  -2.20587  -2.20458
 Alpha  occ. eigenvalues --   -2.19633  -2.19452  -2.19299  -2.19284  -1.14689
 Alpha  occ. eigenvalues --   -1.14587  -1.14484  -1.14465  -1.14269  -1.14231
 Alpha  occ. eigenvalues --   -1.14207  -1.14059  -1.14016  -1.13331  -1.13292
 Alpha  occ. eigenvalues --   -1.13247  -1.13156  -1.13092  -1.13048  -1.13002
 Alpha  occ. eigenvalues --   -1.12953  -1.12932  -1.12919  -1.12909  -1.12796
 Alpha  occ. eigenvalues --   -0.21503  -0.14372  -0.12679  -0.11909
 Alpha virt. eigenvalues --   -0.05774  -0.04205  -0.04049  -0.03624  -0.02854
 Alpha virt. eigenvalues --   -0.02721  -0.01440  -0.00355  -0.00286   0.00291
 Alpha virt. eigenvalues --    0.00673   0.00891   0.00912   0.01046   0.01081

  Beta  occ. eigenvalues --  -38.44551 -38.44551 -38.44139 -38.43529 -38.43226
  Beta  occ. eigenvalues --  -38.43193 -38.43069  -2.20720  -2.20580  -2.20320
  Beta  occ. eigenvalues --   -2.19605  -2.19403  -2.19259  -2.19235  -1.14585
  Beta  occ. eigenvalues --   -1.14478  -1.14448  -1.14363  -1.14236  -1.14217
  Beta  occ. eigenvalues --   -1.14144  -1.13962  -1.13930  -1.13316  -1.13242
  Beta  occ. eigenvalues --   -1.13216  -1.13120  -1.13026  -1.13010  -1.12967
  Beta  occ. eigenvalues --   -1.12902  -1.12891  -1.12879  -1.12852  -1.12755
  Beta  occ. eigenvalues --   -0.20652  -0.14105  -0.11642
  Beta virt. eigenvalues --   -0.08277  -0.05691  -0.04059  -0.03410  -0.03217
  Beta virt. eigenvalues --   -0.02073  -0.01843  -0.01360  -0.00331  -0.00052
  Beta virt. eigenvalues --    0.00324   0.00720   0.00883   0.01056   0.01076

 Mulliken charges and spin densities:
               1          2
     1  Na  -0.745366   0.224086
     2  Na  -0.698158   0.187622
     3  Na   1.055067  -0.014043
     4  Na  -0.070881   0.355045
     5  Na   0.838927   0.180452
     6  Na  -0.128837   0.001465
     7  Na  -0.250753   0.065372
 Sum of Mulliken charges =  -0.00000   1.00000

 Dipole moment (field-independent basis, Debye):
    X=             -0.1807    Y=              0.1522    Z=             -0.3148  Tot=              0.3936
 Quadrupole moment (field-independent basis, Debye-Ang):
   XX=            -54.9914   YY=            -75.4440   ZZ=            -65.9261
   XY=             -0.1434   XZ=             -0.8830   YZ=             -0.5307

 Normal termination of Gaussian 16 at Fri Dec  8 17:12:39 2023.
