 Gaussian 16, Revision B.01,
 Gaussian 16:  ES64L-G16RevB.01 20-Dec-2017

 -------------------------
 #P B3LYP/6-311+g(d) force
 -------------------------

 -----
 DPGEN
 -----
 Symbolic Z-matrix:
 Charge =  0 Multiplicity = 2

                         Standard orientation:
 ---------------------------------------------------------------------
 Center     Atomic      Atomic             Coordinates (Angstroms)
 Number     Number       Type             X           Y           Z
 ---------------------------------------------------------------------
      1         11           0       -2.293742   -1.506365    0.401857
      2         11           0       -5.906372   -0.403175   -0.244396
      3         11           0       -2.856034    2.332857   -0.104586
      4         11           0        0.212054    1.248272   -0.176009
      5         11           0        0.688439   -2.206370   -0.256289
      6         11           0        3.450004    0.462460    0.967844
      7         11           0        6.705652    0.072322   -0.588421
 ---------------------------------------------------------------------

 SCF Done:  E(UB3LYP) =  -1136.11203605     A.U. after   24 cycles

 The electronic state is 2-A.
 Alpha  occ. eigenvalues --  -38.44802 -38.44652 -38.44483 -38.44426 -38.44358
 Alpha  occ. eigenvalues --  -38.44235 -38.44077  -2.20610  -2.20499  -2.20365
 Alpha  occ. eigenvalues --   -2.20184  -2.20088  -2.20075  -2.19857  -1.14306
 Alpha  occ. eigenvalues --   -1.14280  -1.14210  -1.14195  -1.14164  -1.14129
 Alpha  occ. eigenvalues --   -1.14044  -1.14022  -1.13976  -1.13848  -1.13842
 Alpha  occ. eigenvalues --   -1.13794  -1.13756  -1.13756  -1.13744  -1.13743
 Alpha  occ. eigenvalues --   -1.13713  -1.13700  -1.13550  -1.13527  -1.13457
 Alpha  occ. eigenvalues --   -0.17185  -0.13560  -0.12292  -0.11358
 Alpha virt. eigenvalues --   -0.07147  -0.05279  -0.04686  -0.03565  -0.03425
 Alpha virt. eigenvalues --   -0.02435  -0.02176  -0.01365  -0.01193  -0.00803
 Alpha virt. eigenvalues --   -0.00607  -0.00290  -0.00089   0.00174   0.00455

  Beta  occ. eigenvalues --  -38.44746 -38.44606 -38.44426 -38.44386 -38.44379
  Beta  occ. eigenvalues --  -38.44200 -38.44064  -2.20513  -2.20417  -2.20264
  Beta  occ. eigenvalues --   -2.20129  -2.20097  -2.20025  -2.19831  -1.14227
  Beta  occ. eigenvalues --   -1.14219  -1.14140  -1.14127  -1.14104  -1.14057
  Beta  occ. eigenvalues --   -1.13979  -1.13950  -1.13886  -1.13794  -1.13793
  Beta  occ. eigenvalues --   -1.13789  -1.13777  -1.13748  -1.13741  -1.13702
  Beta  occ. eigenvalues --   -1.13687  -1.13659  -1.13528  -1.13509  -1.13451
  Beta  occ. eigenvalues --   -0.16409  -0.13341  -0.11343
  Beta virt. eigenvalues --   -0.08201  -0.06791  -0.04936  -0.04413  -0.03228
  Beta virt. eigenvalues --   -0.02804  -0.02322  -0.01843  -0.01253  -0.00898
  Beta virt. eigenvalues --   -0.00542  -0.00372  -0.00133   0.00027   0.00322

 Mulliken charges and spin densities:
               1          2
     1  Na  -0.454255   0.290623
     2  Na   0.016649   0.265440
     3  Na   0.393278  -0.144117
     4  Na  -0.968741   0.714025
     5  Na   0.651378   0.029090
     6  Na   0.128001   0.000079
     7  Na   0.233689  -0.155140
 Sum of Mulliken charges =  -0.00000   1.00000

 Dipole moment (field-independent basis, Debye):
    X=             -0.8177    Y=             -0.3622    Z=             -0.3427  Tot=              0.9577
 Quadrupole moment (field-independent basis, Debye-Ang):
   XX=            -63.4831   YY=            -66.8243   ZZ=            -71.2149
   XY=             -3.7159   XZ=             -3.0439   YZ=              0.7476

 Normal termination of Gaussian 16 at Tue Nov 28 20:20:08 2023.
