 Gaussian 16, Revision B.01,
 Gaussian 16:  ES64L-G16RevB.01 20-Dec-2017

 -------------------------
 #P B3LYP/6-311+g(d) force
 -------------------------

 -----
 DPGEN
 -----
 Symbolic Z-matrix:
 Charge =  0 Multiplicity = 2

                         Standard orientation:
 ---------------------------------------------------------------------
 Center     Atomic      Atomic             Coordinates (Angstroms)
 Number     Number       Type             X           Y           Z
 ---------------------------------------------------------------------
      1         11           0        2.427409   -1.687687   -1.572192
      2         11           0        2.422537   -2.447020    1.851818
      3         11           0        2.483311    1.893958   -1.438015
      4         11           0        0.647620    3.410190    1.247377
      5         11           0       -0.224763    0.015891    0.478929
      6         11           0       -3.363115   -2.030020   -0.285217
      7         11           0       -4.392998    0.844688   -0.282699
 ---------------------------------------------------------------------

 SCF Done:  E(UB3LYP) =  -1136.11767359     A.U. after   19 cycles

 The electronic state is 2-A.
 Alpha  occ. eigenvalues --  -38.45428 -38.44969 -38.44140 -38.43812 -38.43695
 Alpha  occ. eigenvalues --  -38.43498 -38.42977  -2.21217  -2.20777  -2.19949
 Alpha  occ. eigenvalues --   -2.19596  -2.19505  -2.19317  -2.18770  -1.14906
 Alpha  occ. eigenvalues --   -1.14874  -1.14856  -1.14431  -1.14427  -1.14410
 Alpha  occ. eigenvalues --   -1.13672  -1.13592  -1.13577  -1.13255  -1.13250
 Alpha  occ. eigenvalues --   -1.13215  -1.13186  -1.13170  -1.13111  -1.12999
 Alpha  occ. eigenvalues --   -1.12977  -1.12929  -1.12434  -1.12431  -1.12397
 Alpha  occ. eigenvalues --   -0.16327  -0.13952  -0.11764  -0.10348
 Alpha virt. eigenvalues --   -0.06431  -0.05568  -0.04590  -0.03408  -0.03112
 Alpha virt. eigenvalues --   -0.02266  -0.01920  -0.01637  -0.00815  -0.00764
 Alpha virt. eigenvalues --   -0.00319   0.00075   0.00320   0.00367   0.00569

  Beta  occ. eigenvalues --  -38.45424 -38.44966 -38.44118 -38.43766 -38.43646
  Beta  occ. eigenvalues --  -38.43462 -38.42954  -2.21210  -2.20772  -2.19912
  Beta  occ. eigenvalues --   -2.19509  -2.19415  -2.19253  -2.18727  -1.14900
  Beta  occ. eigenvalues --   -1.14870  -1.14850  -1.14428  -1.14420  -1.14407
  Beta  occ. eigenvalues --   -1.13626  -1.13573  -1.13551  -1.13196  -1.13186
  Beta  occ. eigenvalues --   -1.13162  -1.13127  -1.13111  -1.13029  -1.12959
  Beta  occ. eigenvalues --   -1.12935  -1.12859  -1.12405  -1.12394  -1.12374
  Beta  occ. eigenvalues --   -0.15838  -0.13588  -0.11536
  Beta virt. eigenvalues --   -0.06684  -0.06331  -0.05412  -0.04116  -0.03132
  Beta virt. eigenvalues --   -0.02822  -0.02110  -0.01524  -0.01333  -0.00649
  Beta virt. eigenvalues --   -0.00558  -0.00106   0.00231   0.00437   0.00528

 Mulliken charges and spin densities:
               1          2
     1  Na   0.341543   0.159227
     2  Na   0.514363   0.157094
     3  Na   0.156461   0.197978
     4  Na   0.636325   0.100156
     5  Na  -2.287232   0.382275
     6  Na   0.436589  -0.033086
     7  Na   0.201951   0.036356
 Sum of Mulliken charges =  -0.00000   1.00000

 Dipole moment (field-independent basis, Debye):
    X=             -2.1809    Y=             -0.2746    Z=             -0.0031  Tot=              2.1981
 Quadrupole moment (field-independent basis, Debye-Ang):
   XX=            -58.5280   YY=            -63.3569   ZZ=            -71.4545
   XY=             -2.5261   XZ=              2.2881   YZ=              1.0957

 Normal termination of Gaussian 16 at Tue Dec  5 17:24:31 2023.
