 Gaussian 16, Revision B.01,
 Gaussian 16:  ES64L-G16RevB.01 20-Dec-2017

 -------------------------
 #P B3LYP/6-311+g(d) force
 -------------------------

 -----
 DPGEN
 -----
 Symbolic Z-matrix:
 Charge =  0 Multiplicity = 2

                         Standard orientation:
 ---------------------------------------------------------------------
 Center     Atomic      Atomic             Coordinates (Angstroms)
 Number     Number       Type             X           Y           Z
 ---------------------------------------------------------------------
      1         11           0       -2.845657    2.603940   -0.432376
      2         11           0       -4.768498   -0.801752   -0.605578
      3         11           0        0.938490   -1.407288   -0.142650
      4         11           0       -2.311755   -2.481599    0.875683
      5         11           0        0.054622    2.014770    0.617546
      6         11           0        4.988766   -1.170728   -0.728012
      7         11           0        3.944031    1.242658    0.415387
 ---------------------------------------------------------------------

 SCF Done:  E(UB3LYP) =  -1136.11135204     A.U. after   23 cycles

 The electronic state is 2-A.
 Alpha  occ. eigenvalues --  -38.45495 -38.45060 -38.45001 -38.44304 -38.44100
 Alpha  occ. eigenvalues --  -38.43494 -38.42848  -2.21337  -2.20863  -2.20848
 Alpha  occ. eigenvalues --   -2.20091  -2.19890  -2.19281  -2.18674  -1.15109
 Alpha  occ. eigenvalues --   -1.14991  -1.14954  -1.14542  -1.14523  -1.14496
 Alpha  occ. eigenvalues --   -1.14477  -1.14458  -1.14448  -1.13754  -1.13737
 Alpha  occ. eigenvalues --   -1.13725  -1.13567  -1.13558  -1.13520  -1.12955
 Alpha  occ. eigenvalues --   -1.12946  -1.12933  -1.12346  -1.12336  -1.12322
 Alpha  occ. eigenvalues --   -0.16620  -0.14433  -0.11638  -0.11416
 Alpha virt. eigenvalues --   -0.06972  -0.05510  -0.04163  -0.03925  -0.03229
 Alpha virt. eigenvalues --   -0.02688  -0.01995  -0.01401  -0.01042  -0.00614
 Alpha virt. eigenvalues --   -0.00191  -0.00107   0.00031   0.00371   0.00631

  Beta  occ. eigenvalues --  -38.45478 -38.44982 -38.44962 -38.44257 -38.44085
  Beta  occ. eigenvalues --  -38.43492 -38.42837  -2.21308  -2.20777  -2.20720
  Beta  occ. eigenvalues --   -2.20003  -2.19861  -2.19281  -2.18653  -1.15073
  Beta  occ. eigenvalues --   -1.14975  -1.14921  -1.14445  -1.14440  -1.14429
  Beta  occ. eigenvalues --   -1.14421  -1.14409  -1.14349  -1.13695  -1.13683
  Beta  occ. eigenvalues --   -1.13659  -1.13552  -1.13540  -1.13492  -1.12959
  Beta  occ. eigenvalues --   -1.12949  -1.12906  -1.12336  -1.12324  -1.12298
  Beta  occ. eigenvalues --   -0.15925  -0.13813  -0.11527
  Beta virt. eigenvalues --   -0.07982  -0.06740  -0.04883  -0.03789  -0.03500
  Beta virt. eigenvalues --   -0.02990  -0.02531  -0.01715  -0.01116  -0.00756
  Beta virt. eigenvalues --   -0.00391  -0.00132   0.00081   0.00144   0.00518

 Mulliken charges and spin densities:
               1          2
     1  Na   0.983798   0.382430
     2  Na  -0.126818   0.167374
     3  Na  -1.109417   0.283554
     4  Na   0.687228  -0.032776
     5  Na  -0.883096  -0.162307
     6  Na   0.375530   0.282430
     7  Na   0.072775   0.079296
 Sum of Mulliken charges =  -0.00000   1.00000

 Dipole moment (field-independent basis, Debye):
    X=              1.8840    Y=             -0.2824    Z=             -0.3685  Tot=              1.9403
 Quadrupole moment (field-independent basis, Debye-Ang):
   XX=            -56.1123   YY=            -70.7799   ZZ=            -70.1706
   XY=             -3.1576   XZ=              1.4752   YZ=              1.6095

 Normal termination of Gaussian 16 at Mon Dec  4 02:27:23 2023.
