 Gaussian 16, Revision B.01,
 Gaussian 16:  ES64L-G16RevB.01 20-Dec-2017

 -------------------------
 #P B3LYP/6-311+g(d) force
 -------------------------

 -----
 DPGEN
 -----
 Symbolic Z-matrix:
 Charge =  0 Multiplicity = 2

                         Standard orientation:
 ---------------------------------------------------------------------
 Center     Atomic      Atomic             Coordinates (Angstroms)
 Number     Number       Type             X           Y           Z
 ---------------------------------------------------------------------
      1         11           0        1.847695   -1.369391   -1.090350
      2         11           0        3.675243   -0.512262    1.026854
      3         11           0        0.267160    0.277134    1.627578
      4         11           0        1.568346    2.348082   -0.876784
      5         11           0       -3.495146   -0.938955    1.086104
      6         11           0       -1.407295   -2.045984   -1.314392
      7         11           0       -2.456004    2.241376   -0.459011
 ---------------------------------------------------------------------

 SCF Done:  E(UB3LYP) =  -1136.11985849     A.U. after   24 cycles

 The electronic state is 2-A.
 Alpha  occ. eigenvalues --  -38.44973 -38.44701 -38.44508 -38.44362 -38.43773
 Alpha  occ. eigenvalues --  -38.43529 -38.43297  -2.20802  -2.20571  -2.20252
 Alpha  occ. eigenvalues --   -2.20167  -2.19574  -2.19455  -2.19127  -1.14510
 Alpha  occ. eigenvalues --   -1.14457  -1.14422  -1.14296  -1.14205  -1.14176
 Alpha  occ. eigenvalues --   -1.13942  -1.13911  -1.13891  -1.13835  -1.13817
 Alpha  occ. eigenvalues --   -1.13799  -1.13248  -1.13239  -1.13188  -1.13146
 Alpha  occ. eigenvalues --   -1.13114  -1.13075  -1.12799  -1.12783  -1.12758
 Alpha  occ. eigenvalues --   -0.17848  -0.14045  -0.11541  -0.10622
 Alpha virt. eigenvalues --   -0.06688  -0.05849  -0.04772  -0.03395  -0.02703
 Alpha virt. eigenvalues --   -0.02555  -0.01971  -0.01202  -0.00814  -0.00639
 Alpha virt. eigenvalues --    0.00132   0.00157   0.00251   0.00322   0.00640

  Beta  occ. eigenvalues --  -38.44945 -38.44663 -38.44513 -38.44341 -38.43740
  Beta  occ. eigenvalues --  -38.43496 -38.43263  -2.20752  -2.20501  -2.20264
  Beta  occ. eigenvalues --   -2.20127  -2.19513  -2.19400  -2.19068  -1.14469
  Beta  occ. eigenvalues --   -1.14424  -1.14377  -1.14253  -1.14147  -1.14129
  Beta  occ. eigenvalues --   -1.13948  -1.13920  -1.13891  -1.13806  -1.13795
  Beta  occ. eigenvalues --   -1.13772  -1.13203  -1.13194  -1.13147  -1.13095
  Beta  occ. eigenvalues --   -1.13054  -1.13038  -1.12758  -1.12743  -1.12703
  Beta  occ. eigenvalues --   -0.17244  -0.13820  -0.11125
  Beta virt. eigenvalues --   -0.07123  -0.06494  -0.05725  -0.04142  -0.03172
  Beta virt. eigenvalues --   -0.02367  -0.02182  -0.01360  -0.01087  -0.00542
  Beta virt. eigenvalues --   -0.00416   0.00175   0.00207   0.00391   0.00486

 Mulliken charges and spin densities:
               1          2
     1  Na  -0.319027   0.161583
     2  Na   0.940490   0.216849
     3  Na  -0.815214   0.172014
     4  Na  -0.079515   0.235720
     5  Na   0.481693   0.098981
     6  Na  -0.185895   0.120059
     7  Na  -0.022532  -0.005205
 Sum of Mulliken charges =  -0.00000   1.00000

 Dipole moment (field-independent basis, Debye):
    X=              0.0432    Y=              0.4409    Z=              0.4086  Tot=              0.6027
 Quadrupole moment (field-independent basis, Debye-Ang):
   XX=            -49.8492   YY=            -76.0931   ZZ=            -70.0999
   XY=              0.1746   XZ=             -0.2594   YZ=             -2.3717

 Normal termination of Gaussian 16 at Thu Dec  7 12:26:27 2023.
