 Gaussian 16, Revision B.01,
 Gaussian 16:  ES64L-G16RevB.01 20-Dec-2017

 -------------------------
 #P B3LYP/6-311+g(d) force
 -------------------------

 -----
 DPGEN
 -----
 Symbolic Z-matrix:
 Charge =  0 Multiplicity = 2

                         Standard orientation:
 ---------------------------------------------------------------------
 Center     Atomic      Atomic             Coordinates (Angstroms)
 Number     Number       Type             X           Y           Z
 ---------------------------------------------------------------------
      1         11           0       -3.044519   -1.939552   -0.906497
      2         11           0        3.120733    0.351645    0.915395
      3         11           0       -2.461970    2.617458    0.035090
      4         11           0        0.668305   -2.574769   -0.310515
      5         11           0        0.606356    2.732823   -0.841280
      6         11           0        6.104566   -0.578922    0.064811
      7         11           0       -4.993472   -0.608684    1.042996
 ---------------------------------------------------------------------

 SCF Done:  E(UB3LYP) =  -1136.10760261     A.U. after   19 cycles

 The electronic state is 2-A.
 Alpha  occ. eigenvalues --  -38.45413 -38.44929 -38.44493 -38.44365 -38.44322
 Alpha  occ. eigenvalues --  -38.44202 -38.43310  -2.21181  -2.20721  -2.20307
 Alpha  occ. eigenvalues --   -2.20145  -2.20116  -2.19967  -2.19104  -1.14833
 Alpha  occ. eigenvalues --   -1.14819  -1.14780  -1.14367  -1.14362  -1.14352
 Alpha  occ. eigenvalues --   -1.14025  -1.13951  -1.13936  -1.13830  -1.13816
 Alpha  occ. eigenvalues --   -1.13789  -1.13784  -1.13776  -1.13741  -1.13653
 Alpha  occ. eigenvalues --   -1.13644  -1.13599  -1.12770  -1.12762  -1.12744
 Alpha  occ. eigenvalues --   -0.15641  -0.13978  -0.12172  -0.11568
 Alpha virt. eigenvalues --   -0.06533  -0.05970  -0.04176  -0.03612  -0.03161
 Alpha virt. eigenvalues --   -0.02756  -0.01819  -0.01611  -0.01310  -0.01017
 Alpha virt. eigenvalues --   -0.00443  -0.00286  -0.00105   0.00318   0.00526

  Beta  occ. eigenvalues --  -38.45304 -38.44860 -38.44452 -38.44374 -38.44327
  Beta  occ. eigenvalues --  -38.44211 -38.43305  -2.20979  -2.20593  -2.20230
  Beta  occ. eigenvalues --   -2.20167  -2.20130  -2.19984  -2.19093  -1.14696
  Beta  occ. eigenvalues --   -1.14681  -1.14641  -1.14279  -1.14275  -1.14269
  Beta  occ. eigenvalues --   -1.13987  -1.13898  -1.13881  -1.13847  -1.13830
  Beta  occ. eigenvalues --   -1.13797  -1.13785  -1.13778  -1.13710  -1.13664
  Beta  occ. eigenvalues --   -1.13655  -1.13608  -1.12762  -1.12754  -1.12741
  Beta  occ. eigenvalues --   -0.15056  -0.13487  -0.11788
  Beta virt. eigenvalues --   -0.08171  -0.06077  -0.05603  -0.03908  -0.03388
  Beta virt. eigenvalues --   -0.02970  -0.02338  -0.01606  -0.01447  -0.00907
  Beta virt. eigenvalues --   -0.00680  -0.00286  -0.00159   0.00139   0.00370

 Mulliken charges and spin densities:
               1          2
     1  Na  -0.340447  -0.103595
     2  Na  -0.609165  -0.093974
     3  Na  -0.049845   0.007825
     4  Na   0.244265   0.621444
     5  Na   0.089629   0.047443
     6  Na   0.379541   0.298974
     7  Na   0.286022   0.221884
 Sum of Mulliken charges =  -0.00000   1.00000

 Dipole moment (field-independent basis, Debye):
    X=              0.3387    Y=             -0.8261    Z=              0.1389  Tot=              0.9036
 Quadrupole moment (field-independent basis, Debye-Ang):
   XX=            -52.1084   YY=            -74.1000   ZZ=            -69.2205
   XY=             -4.2017   XZ=             -6.1765   YZ=              2.0056

 Normal termination of Gaussian 16 at Sun Dec  3 14:37:13 2023.
