 Gaussian 16, Revision B.01,
 Gaussian 16:  ES64L-G16RevB.01 20-Dec-2017

 -------------------------
 #P B3LYP/6-311+g(d) force
 -------------------------

 -----
 DPGEN
 -----
 Symbolic Z-matrix:
 Charge =  0 Multiplicity = 2

                         Standard orientation:
 ---------------------------------------------------------------------
 Center     Atomic      Atomic             Coordinates (Angstroms)
 Number     Number       Type             X           Y           Z
 ---------------------------------------------------------------------
      1         11           0       -0.393511   -0.451584   -1.696421
      2         11           0        1.986787    1.009773    1.102741
      3         11           0        2.116518   -0.737122   -0.974113
      4         11           0       -0.484310    0.229371    1.703668
      5         11           0       -0.129726   -2.219624    0.548731
      6         11           0       -2.640681   -0.085338    0.097000
      7         11           0       -0.455077    2.254524   -0.781607
 ---------------------------------------------------------------------

 SCF Done:  E(UB3LYP) =  -1136.08100704     A.U. after   24 cycles

 The electronic state is 2-A.
 Alpha  occ. eigenvalues --  -38.44770 -38.44559 -38.44226 -38.44198 -38.43785
 Alpha  occ. eigenvalues --  -38.43162 -38.43160  -2.21053  -2.20839  -2.20333
 Alpha  occ. eigenvalues --   -2.20248  -2.19838  -2.19257  -2.19167  -1.14984
 Alpha  occ. eigenvalues --   -1.14812  -1.14768  -1.14654  -1.14494  -1.14475
 Alpha  occ. eigenvalues --   -1.14269  -1.13925  -1.13891  -1.13856  -1.13771
 Alpha  occ. eigenvalues --   -1.13673  -1.13525  -1.13499  -1.13375  -1.12979
 Alpha  occ. eigenvalues --   -1.12924  -1.12899  -1.12807  -1.12791  -1.12740
 Alpha  occ. eigenvalues --   -0.21304  -0.13533  -0.12995  -0.12482
 Alpha virt. eigenvalues --   -0.04990  -0.04141  -0.04065  -0.03675  -0.03558
 Alpha virt. eigenvalues --   -0.03333  -0.00912  -0.00463  -0.00230   0.00352
 Alpha virt. eigenvalues --    0.00841   0.00961   0.01026   0.01087   0.01143

  Beta  occ. eigenvalues --  -38.44681 -38.44472 -38.44200 -38.44167 -38.43776
  Beta  occ. eigenvalues --  -38.43142 -38.43138  -2.20894  -2.20686  -2.20288
  Beta  occ. eigenvalues --   -2.20197  -2.19827  -2.19228  -2.19129  -1.14862
  Beta  occ. eigenvalues --   -1.14710  -1.14669  -1.14538  -1.14396  -1.14356
  Beta  occ. eigenvalues --   -1.14233  -1.13875  -1.13830  -1.13815  -1.13730
  Beta  occ. eigenvalues --   -1.13640  -1.13507  -1.13464  -1.13369  -1.12960
  Beta  occ. eigenvalues --   -1.12868  -1.12856  -1.12777  -1.12762  -1.12719
  Beta  occ. eigenvalues --   -0.20517  -0.13248  -0.12214
  Beta virt. eigenvalues --   -0.08645  -0.04979  -0.03827  -0.03707  -0.03166
  Beta virt. eigenvalues --   -0.02722  -0.02272  -0.00878  -0.00425  -0.00046
  Beta virt. eigenvalues --    0.00384   0.00869   0.01027   0.01048   0.01180

 Mulliken charges and spin densities:
               1          2
     1  Na   0.481888   0.531826
     2  Na   0.267601   0.051319
     3  Na  -0.080891  -0.041660
     4  Na   0.284104   0.461377
     5  Na  -0.499057   0.059168
     6  Na   0.274909  -0.062679
     7  Na  -0.728554   0.000650
 Sum of Mulliken charges =  -0.00000   1.00000

 Dipole moment (field-independent basis, Debye):
    X=             -0.0973    Y=              0.2215    Z=             -0.0552  Tot=              0.2481
 Quadrupole moment (field-independent basis, Debye-Ang):
   XX=            -62.4956   YY=            -70.4348   ZZ=            -65.1419
   XY=              0.0683   XZ=              0.1335   YZ=             -1.4635

 Normal termination of Gaussian 16 at Sat Dec  9 06:49:39 2023.
