 Gaussian 16, Revision B.01,
 Gaussian 16:  ES64L-G16RevB.01 20-Dec-2017

 -------------------------
 #P B3LYP/6-311+g(d) force
 -------------------------

 -----
 DPGEN
 -----
 Symbolic Z-matrix:
 Charge =  0 Multiplicity = 2

                         Standard orientation:
 ---------------------------------------------------------------------
 Center     Atomic      Atomic             Coordinates (Angstroms)
 Number     Number       Type             X           Y           Z
 ---------------------------------------------------------------------
      1         11           0        1.593118   -2.574725    1.339237
      2         11           0        0.697204    2.065955   -1.305272
      3         11           0        3.097184   -0.518660   -1.627840
      4         11           0       -2.249674    2.059563    0.512858
      5         11           0       -3.929600   -1.427358   -0.602746
      6         11           0       -0.601747   -1.373997   -0.128836
      7         11           0        1.393516    1.769221    1.812599
 ---------------------------------------------------------------------

 SCF Done:  E(UB3LYP) =  -1136.12222857     A.U. after   20 cycles

 The electronic state is 2-A.
 Alpha  occ. eigenvalues --  -38.44570 -38.44509 -38.44455 -38.44027 -38.43775
 Alpha  occ. eigenvalues --  -38.43710 -38.43153  -2.20382  -2.20290  -2.20251
 Alpha  occ. eigenvalues --   -2.19798  -2.19620  -2.19581  -2.19057  -1.14058
 Alpha  occ. eigenvalues --   -1.14038  -1.13995  -1.13991  -1.13967  -1.13920
 Alpha  occ. eigenvalues --   -1.13899  -1.13889  -1.13860  -1.13470  -1.13462
 Alpha  occ. eigenvalues --   -1.13427  -1.13397  -1.13260  -1.13257  -1.13242
 Alpha  occ. eigenvalues --   -1.13220  -1.13195  -1.12759  -1.12718  -1.12658
 Alpha  occ. eigenvalues --   -0.17508  -0.12900  -0.12375  -0.10874
 Alpha virt. eigenvalues --   -0.06252  -0.05542  -0.04394  -0.03443  -0.03040
 Alpha virt. eigenvalues --   -0.02316  -0.01837  -0.01445  -0.00745  -0.00246
 Alpha virt. eigenvalues --   -0.00172   0.00182   0.00317   0.00445   0.00684

  Beta  occ. eigenvalues --  -38.44523 -38.44507 -38.44389 -38.44020 -38.43739
  Beta  occ. eigenvalues --  -38.43687 -38.43146  -2.20296  -2.20287  -2.20130
  Beta  occ. eigenvalues --   -2.19785  -2.19554  -2.19543  -2.19047  -1.14000
  Beta  occ. eigenvalues --   -1.13988  -1.13977  -1.13964  -1.13933  -1.13881
  Beta  occ. eigenvalues --   -1.13833  -1.13815  -1.13773  -1.13460  -1.13452
  Beta  occ. eigenvalues --   -1.13418  -1.13353  -1.13240  -1.13233  -1.13190
  Beta  occ. eigenvalues --   -1.13179  -1.13138  -1.12724  -1.12713  -1.12657
  Beta  occ. eigenvalues --   -0.16937  -0.12563  -0.12100
  Beta virt. eigenvalues --   -0.07241  -0.05971  -0.05384  -0.04110  -0.03045
  Beta virt. eigenvalues --   -0.02514  -0.01900  -0.01450  -0.01275  -0.00474
  Beta virt. eigenvalues --   -0.00096  -0.00078   0.00265   0.00409   0.00570

 Mulliken charges and spin densities:
               1          2
     1  Na   1.329583  -0.080232
     2  Na   0.242312   0.274817
     3  Na   0.190356   0.218985
     4  Na   0.361208  -0.009589
     5  Na  -0.028767  -0.001558
     6  Na  -1.908678   0.343542
     7  Na  -0.186013   0.254036
 Sum of Mulliken charges =  -0.00000   1.00000

 Dipole moment (field-independent basis, Debye):
    X=              0.1253    Y=              0.5725    Z=              0.4427  Tot=              0.7345
 Quadrupole moment (field-independent basis, Debye-Ang):
   XX=            -56.3697   YY=            -68.5060   ZZ=            -68.9377
   XY=             -2.7133   XZ=              1.6586   YZ=              1.0125

 Normal termination of Gaussian 16 at Mon Dec  4 04:47:57 2023.
