 Gaussian 16, Revision B.01,
 Gaussian 16:  ES64L-G16RevB.01 20-Dec-2017

 -------------------------
 #P B3LYP/6-311+g(d) force
 -------------------------

 -----
 DPGEN
 -----
 Symbolic Z-matrix:
 Charge =  0 Multiplicity = 2

                         Standard orientation:
 ---------------------------------------------------------------------
 Center     Atomic      Atomic             Coordinates (Angstroms)
 Number     Number       Type             X           Y           Z
 ---------------------------------------------------------------------
      1         11           0       -0.161794    0.678856    2.070485
      2         11           0        2.194607   -2.074609    0.139012
      3         11           0       -0.844057    3.029242   -0.116101
      4         11           0       -1.383641   -2.556991    0.249356
      5         11           0        0.400816   -0.094339   -1.486771
      6         11           0       -3.096006   -0.129943   -0.559082
      7         11           0        2.890076    1.147786   -0.296899
 ---------------------------------------------------------------------

 SCF Done:  E(UB3LYP) =  -1136.13342489     A.U. after   20 cycles

 The electronic state is 2-A.
 Alpha  occ. eigenvalues --  -38.44210 -38.44017 -38.43730 -38.43656 -38.43502
 Alpha  occ. eigenvalues --  -38.43298 -38.43201  -2.20075  -2.19861  -2.19600
 Alpha  occ. eigenvalues --   -2.19470  -2.19377  -2.19212  -2.19167  -1.13807
 Alpha  occ. eigenvalues --   -1.13728  -1.13685  -1.13560  -1.13523  -1.13485
 Alpha  occ. eigenvalues --   -1.13317  -1.13251  -1.13227  -1.13174  -1.13134
 Alpha  occ. eigenvalues --   -1.13107  -1.13034  -1.13001  -1.12987  -1.12894
 Alpha  occ. eigenvalues --   -1.12871  -1.12831  -1.12828  -1.12816  -1.12806
 Alpha  occ. eigenvalues --   -0.18576  -0.13208  -0.12477  -0.10594
 Alpha virt. eigenvalues --   -0.05756  -0.05171  -0.04744  -0.03213  -0.02972
 Alpha virt. eigenvalues --   -0.02377  -0.01543  -0.01214  -0.00486  -0.00289
 Alpha virt. eigenvalues --   -0.00008   0.00345   0.00804   0.00844   0.00899

  Beta  occ. eigenvalues --  -38.44199 -38.44003 -38.43726 -38.43654 -38.43411
  Beta  occ. eigenvalues --  -38.43294 -38.43150  -2.20059  -2.19836  -2.19594
  Beta  occ. eigenvalues --   -2.19471  -2.19208  -2.19162  -2.19121  -1.13789
  Beta  occ. eigenvalues --   -1.13706  -1.13673  -1.13547  -1.13490  -1.13469
  Beta  occ. eigenvalues --   -1.13310  -1.13241  -1.13212  -1.13157  -1.13120
  Beta  occ. eigenvalues --   -1.13109  -1.12925  -1.12886  -1.12870  -1.12847
  Beta  occ. eigenvalues --   -1.12824  -1.12819  -1.12787  -1.12770  -1.12764
  Beta  occ. eigenvalues --   -0.17889  -0.12954  -0.12248
  Beta virt. eigenvalues --   -0.06758  -0.05702  -0.05088  -0.04679  -0.02475
  Beta virt. eigenvalues --   -0.02232  -0.01438  -0.01402  -0.01136  -0.00482
  Beta virt. eigenvalues --   -0.00321   0.00148   0.00392   0.00819   0.00888

 Mulliken charges and spin densities:
               1          2
     1  Na  -0.558584   0.687983
     2  Na   0.144778   0.093401
     3  Na   0.146360  -0.093712
     4  Na   0.076763   0.060963
     5  Na  -0.361719   0.225865
     6  Na   0.142248   0.064460
     7  Na   0.410154  -0.038960
 Sum of Mulliken charges =  -0.00000   1.00000

 Dipole moment (field-independent basis, Debye):
    X=              0.2369    Y=              0.2605    Z=              0.1116  Tot=              0.3694
 Quadrupole moment (field-independent basis, Debye-Ang):
   XX=            -57.2269   YY=            -61.7709   ZZ=            -74.7673
   XY=             -0.5153   XZ=              1.4568   YZ=             -2.2006

 Normal termination of Gaussian 16 at Thu Dec  7 13:04:36 2023.
