 Gaussian 16, Revision B.01,
 Gaussian 16:  ES64L-G16RevB.01 20-Dec-2017

 -------------------------
 #P B3LYP/6-311+g(d) force
 -------------------------

 -----
 DPGEN
 -----
 Symbolic Z-matrix:
 Charge =  0 Multiplicity = 2

                         Standard orientation:
 ---------------------------------------------------------------------
 Center     Atomic      Atomic             Coordinates (Angstroms)
 Number     Number       Type             X           Y           Z
 ---------------------------------------------------------------------
      1         11           0        1.046937   -1.526256   -0.852343
      2         11           0        1.434370    1.142640   -1.021343
      3         11           0        3.308861   -0.398183    0.551257
      4         11           0        0.605953   -0.225950    1.555457
      5         11           0       -0.828719    2.054467    0.151057
      6         11           0       -1.427250   -0.448825   -0.690743
      7         11           0       -4.140152   -0.597892    0.306657
 ---------------------------------------------------------------------

 SCF Done:  E(UB3LYP) =  -1136.05751277     A.U. after   37 cycles

 The electronic state is 2-A.
 Alpha  occ. eigenvalues --  -38.45445 -38.45018 -38.44924 -38.44447 -38.43793
 Alpha  occ. eigenvalues --  -38.43761 -38.43058  -2.21254  -2.21127  -2.21050
 Alpha  occ. eigenvalues --   -2.20677  -2.20064  -2.19997  -2.19153  -1.15099
 Alpha  occ. eigenvalues --   -1.14991  -1.14930  -1.14884  -1.14880  -1.14785
 Alpha  occ. eigenvalues --   -1.14725  -1.14664  -1.14576  -1.14507  -1.14371
 Alpha  occ. eigenvalues --   -1.14198  -1.13870  -1.13731  -1.13662  -1.13650
 Alpha  occ. eigenvalues --   -1.13627  -1.13537  -1.12800  -1.12746  -1.12713
 Alpha  occ. eigenvalues --   -0.21132  -0.14666  -0.11707  -0.11463
 Alpha virt. eigenvalues --   -0.07834  -0.04358  -0.03905  -0.03066  -0.03039
 Alpha virt. eigenvalues --   -0.02010  -0.01924  -0.01016  -0.00551  -0.00162
 Alpha virt. eigenvalues --    0.00247   0.00386   0.00490   0.00820   0.00968

  Beta  occ. eigenvalues --  -38.45435 -38.44990 -38.44865 -38.44384 -38.43757
  Beta  occ. eigenvalues --  -38.43722 -38.43048  -2.21236  -2.21030  -2.20993
  Beta  occ. eigenvalues --   -2.20572  -2.20008  -2.19936  -2.19140  -1.15044
  Beta  occ. eigenvalues --   -1.14976  -1.14872  -1.14864  -1.14858  -1.14730
  Beta  occ. eigenvalues --   -1.14660  -1.14616  -1.14509  -1.14416  -1.14309
  Beta  occ. eigenvalues --   -1.14092  -1.13838  -1.13694  -1.13633  -1.13605
  Beta  occ. eigenvalues --   -1.13515  -1.13440  -1.12789  -1.12708  -1.12702
  Beta  occ. eigenvalues --   -0.20272  -0.14360  -0.11336
  Beta virt. eigenvalues --   -0.07714  -0.07275  -0.04289  -0.03280  -0.02932
  Beta virt. eigenvalues --   -0.02857  -0.01405  -0.01041  -0.00830  -0.00323
  Beta virt. eigenvalues --   -0.00072   0.00274   0.00496   0.00596   0.00883

 Mulliken charges and spin densities:
               1          2
     1  Na   0.111487   0.181440
     2  Na  -0.117129   0.212963
     3  Na   1.249880   0.059920
     4  Na  -0.917486   0.465526
     5  Na   0.215791  -0.020634
     6  Na  -1.273327  -0.025943
     7  Na   0.730784   0.126728
 Sum of Mulliken charges =  -0.00000   1.00000

 Dipole moment (field-independent basis, Debye):
    X=             -0.1206    Y=              0.5776    Z=              0.3257  Tot=              0.6740
 Quadrupole moment (field-independent basis, Debye-Ang):
   XX=            -47.0135   YY=            -76.0126   ZZ=            -70.7694
   XY=              0.0353   XZ=             -2.4381   YZ=             -0.4108

 Normal termination of Gaussian 16 at Fri Dec  8 17:13:55 2023.
