 Gaussian 16, Revision B.01,
 Gaussian 16:  ES64L-G16RevB.01 20-Dec-2017

 -------------------------
 #P B3LYP/6-311+g(d) force
 -------------------------

 -----
 DPGEN
 -----
 Symbolic Z-matrix:
 Charge =  0 Multiplicity = 2

                         Standard orientation:
 ---------------------------------------------------------------------
 Center     Atomic      Atomic             Coordinates (Angstroms)
 Number     Number       Type             X           Y           Z
 ---------------------------------------------------------------------
      1         11           0        2.025454    2.492275   -1.039155
      2         11           0        3.514069   -0.138114    1.288197
      3         11           0        1.013498   -1.957089   -1.824844
      4         11           0       -1.591349    2.476082   -0.047486
      5         11           0       -2.651449   -0.930110   -1.633655
      6         11           0       -2.613504    0.176798    2.045904
      7         11           0        0.303280   -2.119842    1.211041
 ---------------------------------------------------------------------

 SCF Done:  E(UB3LYP) =  -1136.11800340     A.U. after   21 cycles

 The electronic state is 2-A.
 Alpha  occ. eigenvalues --  -38.45086 -38.45010 -38.44392 -38.44283 -38.43830
 Alpha  occ. eigenvalues --  -38.43758 -38.43704  -2.20852  -2.20749  -2.20197
 Alpha  occ. eigenvalues --   -2.20104  -2.19657  -2.19547  -2.19452  -1.14532
 Alpha  occ. eigenvalues --   -1.14495  -1.14474  -1.14431  -1.14390  -1.14387
 Alpha  occ. eigenvalues --   -1.13902  -1.13856  -1.13808  -1.13775  -1.13747
 Alpha  occ. eigenvalues --   -1.13729  -1.13337  -1.13323  -1.13276  -1.13238
 Alpha  occ. eigenvalues --   -1.13218  -1.13173  -1.13130  -1.13112  -1.13085
 Alpha  occ. eigenvalues --   -0.16886  -0.13064  -0.11878  -0.11228
 Alpha virt. eigenvalues --   -0.06403  -0.05466  -0.05074  -0.03511  -0.03233
 Alpha virt. eigenvalues --   -0.02779  -0.01740  -0.00857  -0.00664  -0.00381
 Alpha virt. eigenvalues --   -0.00246  -0.00188   0.00214   0.00365   0.00492

  Beta  occ. eigenvalues --  -38.45044 -38.44994 -38.44366 -38.44229 -38.43808
  Beta  occ. eigenvalues --  -38.43754 -38.43692  -2.20776  -2.20720  -2.20150
  Beta  occ. eigenvalues --   -2.20003  -2.19617  -2.19542  -2.19430  -1.14474
  Beta  occ. eigenvalues --   -1.14447  -1.14413  -1.14409  -1.14372  -1.14365
  Beta  occ. eigenvalues --   -1.13876  -1.13821  -1.13762  -1.13707  -1.13673
  Beta  occ. eigenvalues --   -1.13663  -1.13309  -1.13284  -1.13245  -1.13225
  Beta  occ. eigenvalues --   -1.13212  -1.13167  -1.13113  -1.13098  -1.13069
  Beta  occ. eigenvalues --   -0.16263  -0.12882  -0.11593
  Beta virt. eigenvalues --   -0.07742  -0.06093  -0.05188  -0.04472  -0.03348
  Beta virt. eigenvalues --   -0.02759  -0.02140  -0.01568  -0.00583  -0.00552
  Beta virt. eigenvalues --   -0.00240  -0.00148   0.00021   0.00335   0.00498

 Mulliken charges and spin densities:
               1          2
     1  Na  -0.292833  -0.038007
     2  Na   0.036888  -0.045820
     3  Na   0.097504   0.356360
     4  Na   0.077597   0.169020
     5  Na  -0.182442   0.114652
     6  Na   0.045223   0.218297
     7  Na   0.218063   0.225499
 Sum of Mulliken charges =  -0.00000   1.00000

 Dipole moment (field-independent basis, Debye):
    X=             -0.1531    Y=             -0.6163    Z=              0.0012  Tot=              0.6350
 Quadrupole moment (field-independent basis, Debye-Ang):
   XX=            -58.5130   YY=            -75.0479   ZZ=            -64.7425
   XY=             -0.8056   XZ=              1.6239   YZ=             -0.3246

 Normal termination of Gaussian 16 at Mon Dec  4 00:13:28 2023.
