 Gaussian 16, Revision B.01,
 Gaussian 16:  ES64L-G16RevB.01 20-Dec-2017

 -------------------------
 #P B3LYP/6-311+g(d) force
 -------------------------

 -----
 DPGEN
 -----
 Symbolic Z-matrix:
 Charge =  0 Multiplicity = 2

                         Standard orientation:
 ---------------------------------------------------------------------
 Center     Atomic      Atomic             Coordinates (Angstroms)
 Number     Number       Type             X           Y           Z
 ---------------------------------------------------------------------
      1         11           0       -0.577300    1.181420   -0.646755
      2         11           0        5.154602    1.372462   -0.444674
      3         11           0        0.272165   -1.815018   -1.437794
      4         11           0       -0.665613   -1.323970    2.121698
      5         11           0       -3.935166    2.018781    0.567277
      6         11           0        2.928040   -0.555285    0.892276
      7         11           0       -3.176728   -0.878390   -1.052027
 ---------------------------------------------------------------------

 SCF Done:  E(UB3LYP) =  -1136.11606196     A.U. after   23 cycles

 The electronic state is 2-A.
 Alpha  occ. eigenvalues --  -38.45919 -38.45232 -38.44214 -38.43580 -38.43553
 Alpha  occ. eigenvalues --  -38.43492 -38.43457  -2.21773  -2.21080  -2.20045
 Alpha  occ. eigenvalues --   -2.19459  -2.19355  -2.19280  -2.19264  -1.15477
 Alpha  occ. eigenvalues --   -1.15446  -1.15380  -1.14768  -1.14747  -1.14687
 Alpha  occ. eigenvalues --   -1.13707  -1.13681  -1.13645  -1.13159  -1.13101
 Alpha  occ. eigenvalues --   -1.13076  -1.13027  -1.13011  -1.12990  -1.12986
 Alpha  occ. eigenvalues --   -1.12977  -1.12949  -1.12924  -1.12919  -1.12842
 Alpha  occ. eigenvalues --   -0.18010  -0.13589  -0.11328  -0.11092
 Alpha virt. eigenvalues --   -0.07290  -0.05599  -0.04440  -0.03358  -0.02796
 Alpha virt. eigenvalues --   -0.02513  -0.02200  -0.01748  -0.01178  -0.00641
 Alpha virt. eigenvalues --   -0.00349  -0.00007   0.00205   0.00437   0.00614

  Beta  occ. eigenvalues --  -38.45901 -38.45211 -38.44118 -38.43546 -38.43544
  Beta  occ. eigenvalues --  -38.43498 -38.43450  -2.21745  -2.21045  -2.19866
  Beta  occ. eigenvalues --   -2.19400  -2.19338  -2.19274  -2.19269  -1.15436
  Beta  occ. eigenvalues --   -1.15412  -1.15366  -1.14733  -1.14727  -1.14649
  Beta  occ. eigenvalues --   -1.13581  -1.13555  -1.13528  -1.13117  -1.13057
  Beta  occ. eigenvalues --   -1.13021  -1.13016  -1.12996  -1.12981  -1.12980
  Beta  occ. eigenvalues --   -1.12965  -1.12950  -1.12930  -1.12924  -1.12834
  Beta  occ. eigenvalues --   -0.17303  -0.13462  -0.11115
  Beta virt. eigenvalues --   -0.07288  -0.06984  -0.05415  -0.04113  -0.02875
  Beta virt. eigenvalues --   -0.02570  -0.02106  -0.01787  -0.01348  -0.00771
  Beta virt. eigenvalues --   -0.00583  -0.00290   0.00078   0.00335   0.00542

 Mulliken charges and spin densities:
               1          2
     1  Na  -0.786275   0.301142
     2  Na   0.067693  -0.007411
     3  Na   0.138453   0.207542
     4  Na  -0.286084   0.466885
     5  Na   0.394814   0.001640
     6  Na  -0.151699   0.019360
     7  Na   0.623098   0.010842
 Sum of Mulliken charges =  -0.00000   1.00000

 Dipole moment (field-independent basis, Debye):
    X=             -1.8516    Y=             -0.6266    Z=             -0.5127  Tot=              2.0209
 Quadrupole moment (field-independent basis, Debye-Ang):
   XX=            -66.6505   YY=            -65.4711   ZZ=            -71.7464
   XY=              4.0651   XZ=             -2.7439   YZ=              0.2482

 Normal termination of Gaussian 16 at Thu Dec  7 22:36:21 2023.
