 Gaussian 16, Revision B.01,
 Gaussian 16:  ES64L-G16RevB.01 20-Dec-2017

 -------------------------
 #P B3LYP/6-311+g(d) force
 -------------------------

 -----
 DPGEN
 -----
 Symbolic Z-matrix:
 Charge =  0 Multiplicity = 2

                         Standard orientation:
 ---------------------------------------------------------------------
 Center     Atomic      Atomic             Coordinates (Angstroms)
 Number     Number       Type             X           Y           Z
 ---------------------------------------------------------------------
      1         11           0        3.513659   -1.461303    0.846631
      2         11           0       -0.020963   -1.365533   -0.542339
      3         11           0       -2.795911    0.943823    0.987552
      4         11           0       -4.062462   -1.553029   -0.684993
      5         11           0        0.757726    0.749384    1.994209
      6         11           0        3.026889    0.578479   -1.627631
      7         11           0       -0.418939    2.108179   -0.973429
 ---------------------------------------------------------------------

 SCF Done:  E(UB3LYP) =  -1136.12144240     A.U. after   24 cycles

 The electronic state is 2-A.
 Alpha  occ. eigenvalues --  -38.45502 -38.44755 -38.44312 -38.44223 -38.43725
 Alpha  occ. eigenvalues --  -38.43169 -38.42978  -2.21315  -2.20590  -2.20178
 Alpha  occ. eigenvalues --   -2.20050  -2.19606  -2.19045  -2.18769  -1.15044
 Alpha  occ. eigenvalues --   -1.15004  -1.14893  -1.14262  -1.14233  -1.14218
 Alpha  occ. eigenvalues --   -1.13887  -1.13845  -1.13786  -1.13723  -1.13702
 Alpha  occ. eigenvalues --   -1.13685  -1.13306  -1.13254  -1.13192  -1.12727
 Alpha  occ. eigenvalues --   -1.12703  -1.12666  -1.12448  -1.12434  -1.12408
 Alpha  occ. eigenvalues --   -0.18248  -0.14046  -0.11391  -0.10944
 Alpha virt. eigenvalues --   -0.07012  -0.05324  -0.04928  -0.03113  -0.02855
 Alpha virt. eigenvalues --   -0.02589  -0.02233  -0.01295  -0.01083  -0.00151
 Alpha virt. eigenvalues --   -0.00012   0.00108   0.00286   0.00331   0.00615

  Beta  occ. eigenvalues --  -38.45485 -38.44700 -38.44310 -38.44206 -38.43657
  Beta  occ. eigenvalues --  -38.43146 -38.42986  -2.21286  -2.20489  -2.20174
  Beta  occ. eigenvalues --   -2.20021  -2.19481  -2.19004  -2.18783  -1.14999
  Beta  occ. eigenvalues --   -1.14980  -1.14877  -1.14187  -1.14169  -1.14142
  Beta  occ. eigenvalues --   -1.13879  -1.13842  -1.13785  -1.13704  -1.13669
  Beta  occ. eigenvalues --   -1.13661  -1.13220  -1.13169  -1.13096  -1.12701
  Beta  occ. eigenvalues --   -1.12673  -1.12623  -1.12460  -1.12443  -1.12415
  Beta  occ. eigenvalues --   -0.17546  -0.13901  -0.10880
  Beta virt. eigenvalues --   -0.07401  -0.06860  -0.05065  -0.04298  -0.02837
  Beta virt. eigenvalues --   -0.02740  -0.02016  -0.01703  -0.01113  -0.00637
  Beta virt. eigenvalues --   -0.00109   0.00000   0.00194   0.00412   0.00497

 Mulliken charges and spin densities:
               1          2
     1  Na   0.889893   0.033850
     2  Na  -0.904577   0.325037
     3  Na   0.546384   0.060068
     4  Na  -0.135901  -0.067937
     5  Na  -0.439342   0.320767
     6  Na   0.049001   0.171982
     7  Na  -0.005458   0.156232
 Sum of Mulliken charges =  -0.00000   1.00000

 Dipole moment (field-independent basis, Debye):
    X=              1.2553    Y=              0.6377    Z=              0.2169  Tot=              1.4246
 Quadrupole moment (field-independent basis, Debye-Ang):
   XX=            -59.1926   YY=            -72.1858   ZZ=            -68.6342
   XY=             -3.7518   XZ=             -0.8648   YZ=             -0.7245

 Normal termination of Gaussian 16 at Tue Dec  5 19:52:04 2023.
