 Gaussian 16, Revision B.01,
 Gaussian 16:  ES64L-G16RevB.01 20-Dec-2017

 -------------------------
 #P B3LYP/6-311+g(d) force
 -------------------------

 -----
 DPGEN
 -----
 Symbolic Z-matrix:
 Charge =  0 Multiplicity = 2

                         Standard orientation:
 ---------------------------------------------------------------------
 Center     Atomic      Atomic             Coordinates (Angstroms)
 Number     Number       Type             X           Y           Z
 ---------------------------------------------------------------------
      1         11           0       -0.219893   -0.094106   -1.525796
      2         11           0       -1.322185    1.907609    0.111304
      3         11           0        0.240008    0.201292    1.724974
      4         11           0        2.339003   -0.872117   -0.103096
      5         11           0        1.534215    1.709626   -0.304696
      6         11           0       -0.037102   -2.145707    0.141304
      7         11           0       -2.534046   -0.706596   -0.043996
 ---------------------------------------------------------------------

 SCF Done:  E(UB3LYP) =  -1136.06577425     A.U. after   19 cycles

 The electronic state is 2-A.
 Alpha  occ. eigenvalues --  -38.44168 -38.44077 -38.44044 -38.43931 -38.43807
 Alpha  occ. eigenvalues --  -38.43729 -38.43571  -2.20589  -2.20332  -2.20249
 Alpha  occ. eigenvalues --   -2.20020  -2.19999  -2.19940  -2.19733  -1.14557
 Alpha  occ. eigenvalues --   -1.14453  -1.14371  -1.14185  -1.14166  -1.14111
 Alpha  occ. eigenvalues --   -1.14012  -1.13935  -1.13783  -1.13756  -1.13716
 Alpha  occ. eigenvalues --   -1.13648  -1.13611  -1.13557  -1.13509  -1.13491
 Alpha  occ. eigenvalues --   -1.13481  -1.13382  -1.13352  -1.13326  -1.13238
 Alpha  occ. eigenvalues --   -0.21992  -0.14070  -0.13180  -0.12142
 Alpha virt. eigenvalues --   -0.05235  -0.04391  -0.04160  -0.03599  -0.03139
 Alpha virt. eigenvalues --   -0.02546  -0.01081  -0.00525  -0.00028   0.00346
 Alpha virt. eigenvalues --    0.00762   0.00848   0.01033   0.01166   0.01205

  Beta  occ. eigenvalues --  -38.44082 -38.44063 -38.43949 -38.43922 -38.43787
  Beta  occ. eigenvalues --  -38.43710 -38.43556  -2.20437  -2.20236  -2.20155
  Beta  occ. eigenvalues --   -2.20008  -2.19971  -2.19915  -2.19713  -1.14485
  Beta  occ. eigenvalues --   -1.14367  -1.14285  -1.14164  -1.14084  -1.14014
  Beta  occ. eigenvalues --   -1.13921  -1.13861  -1.13752  -1.13698  -1.13690
  Beta  occ. eigenvalues --   -1.13609  -1.13563  -1.13497  -1.13473  -1.13464
  Beta  occ. eigenvalues --   -1.13396  -1.13374  -1.13335  -1.13251  -1.13232
  Beta  occ. eigenvalues --   -0.21173  -0.13686  -0.12804
  Beta virt. eigenvalues --   -0.07891  -0.05261  -0.04371  -0.04132  -0.02635
  Beta virt. eigenvalues --   -0.02209  -0.01448  -0.01005  -0.00482   0.00110
  Beta virt. eigenvalues --    0.00382   0.00742   0.00824   0.01061   0.01174

 Mulliken charges and spin densities:
               1          2
     1  Na  -0.685897   0.304172
     2  Na   0.336333   0.061996
     3  Na  -0.473610   0.479216
     4  Na   0.101404  -0.001633
     5  Na   0.287189   0.048108
     6  Na   0.388234   0.113971
     7  Na   0.046346  -0.005829
 Sum of Mulliken charges =  -0.00000   1.00000

 Dipole moment (field-independent basis, Debye):
    X=             -0.1631    Y=              0.0438    Z=              0.2554  Tot=              0.3061
 Quadrupole moment (field-independent basis, Debye-Ang):
   XX=            -59.5513   YY=            -68.1144   ZZ=            -70.1188
   XY=              0.0442   XZ=             -0.8152   YZ=             -0.4617

 Normal termination of Gaussian 16 at Sat Dec  9 06:52:59 2023.
