 Gaussian 16, Revision B.01,
 Gaussian 16:  ES64L-G16RevB.01 20-Dec-2017

 -------------------------
 #P B3LYP/6-311+g(d) force
 -------------------------

 -----
 DPGEN
 -----
 Symbolic Z-matrix:
 Charge =  0 Multiplicity = 2

                         Standard orientation:
 ---------------------------------------------------------------------
 Center     Atomic      Atomic             Coordinates (Angstroms)
 Number     Number       Type             X           Y           Z
 ---------------------------------------------------------------------
      1         11           0        0.349289   -0.129844    1.973458
      2         11           0       -2.662733   -1.553194   -0.203459
      3         11           0        0.900292   -2.583050   -0.195202
      4         11           0        1.523715    2.555263   -0.421217
      5         11           0       -0.441808    0.202049   -1.698872
      6         11           0       -2.700697    1.769454    0.491463
      7         11           0        3.031943   -0.260677    0.053829
 ---------------------------------------------------------------------

 SCF Done:  E(UB3LYP) =  -1136.13460169     A.U. after   19 cycles

 The electronic state is 2-A.
 Alpha  occ. eigenvalues --  -38.44195 -38.44053 -38.44017 -38.43765 -38.43294
 Alpha  occ. eigenvalues --  -38.43248 -38.42887  -2.20004  -2.19956  -2.19869
 Alpha  occ. eigenvalues --   -2.19672  -2.19257  -2.19098  -2.18787  -1.13672
 Alpha  occ. eigenvalues --   -1.13669  -1.13649  -1.13644  -1.13626  -1.13603
 Alpha  occ. eigenvalues --   -1.13570  -1.13522  -1.13489  -1.13346  -1.13299
 Alpha  occ. eigenvalues --   -1.13289  -1.12939  -1.12912  -1.12882  -1.12764
 Alpha  occ. eigenvalues --   -1.12751  -1.12734  -1.12472  -1.12449  -1.12418
 Alpha  occ. eigenvalues --   -0.18767  -0.13532  -0.12077  -0.10847
 Alpha virt. eigenvalues --   -0.05794  -0.05430  -0.04265  -0.03497  -0.02754
 Alpha virt. eigenvalues --   -0.02538  -0.01640  -0.01121  -0.00350  -0.00157
 Alpha virt. eigenvalues --   -0.00022   0.00359   0.00736   0.00856   0.00912

  Beta  occ. eigenvalues --  -38.44183 -38.44048 -38.44011 -38.43682 -38.43239
  Beta  occ. eigenvalues --  -38.43227 -38.42881  -2.19983  -2.19952  -2.19862
  Beta  occ. eigenvalues --   -2.19519  -2.19135  -2.19085  -2.18779  -1.13663
  Beta  occ. eigenvalues --   -1.13639  -1.13638  -1.13637  -1.13625  -1.13577
  Beta  occ. eigenvalues --   -1.13555  -1.13508  -1.13483  -1.13245  -1.13194
  Beta  occ. eigenvalues --   -1.13175  -1.12861  -1.12829  -1.12795  -1.12749
  Beta  occ. eigenvalues --   -1.12724  -1.12718  -1.12470  -1.12434  -1.12394
  Beta  occ. eigenvalues --   -0.18045  -0.13299  -0.11808
  Beta virt. eigenvalues --   -0.06990  -0.05674  -0.05408  -0.04203  -0.02751
  Beta virt. eigenvalues --   -0.02034  -0.01524  -0.01519  -0.01031  -0.00374
  Beta virt. eigenvalues --   -0.00197   0.00119   0.00392   0.00824   0.00859

 Mulliken charges and spin densities:
               1          2
     1  Na  -0.444669   0.632839
     2  Na   0.196460  -0.057243
     3  Na   0.084776  -0.064966
     4  Na   0.090835  -0.049096
     5  Na  -0.158930   0.453363
     6  Na  -0.068811   0.039180
     7  Na   0.300339   0.045923
 Sum of Mulliken charges =  -0.00000   1.00000

 Dipole moment (field-independent basis, Debye):
    X=             -0.3834    Y=              0.0959    Z=              0.2008  Tot=              0.4433
 Quadrupole moment (field-independent basis, Debye-Ang):
   XX=            -55.0792   YY=            -65.5004   ZZ=            -73.5802
   XY=             -0.2832   XZ=             -1.3020   YZ=              1.1295

 Normal termination of Gaussian 16 at Thu Dec  7 17:25:55 2023.
