 Gaussian 16, Revision B.01,
 Gaussian 16:  ES64L-G16RevB.01 20-Dec-2017

 -------------------------
 #P B3LYP/6-311+g(d) force
 -------------------------

 -----
 DPGEN
 -----
 Symbolic Z-matrix:
 Charge =  0 Multiplicity = 2

                         Standard orientation:
 ---------------------------------------------------------------------
 Center     Atomic      Atomic             Coordinates (Angstroms)
 Number     Number       Type             X           Y           Z
 ---------------------------------------------------------------------
      1         11           0        1.538804    2.468664    0.051587
      2         11           0       -2.871209   -1.078908   -0.457046
      3         11           0        3.234189   -0.395595   -0.220614
      4         11           0       -0.259082   -0.411638    2.080302
      5         11           0       -0.136020    0.166466   -1.595813
      6         11           0       -2.046886    2.047294    0.167264
      7         11           0        0.540202   -2.796284   -0.025679
 ---------------------------------------------------------------------

 SCF Done:  E(UB3LYP) =  -1136.13775466     A.U. after   19 cycles

 The electronic state is 2-A.
 Alpha  occ. eigenvalues --  -38.44191 -38.43989 -38.43583 -38.43466 -38.43269
 Alpha  occ. eigenvalues --  -38.43208 -38.43195  -2.20005  -2.19859  -2.19479
 Alpha  occ. eigenvalues --   -2.19355  -2.19216  -2.19125  -2.19051  -1.13678
 Alpha  occ. eigenvalues --   -1.13668  -1.13645  -1.13558  -1.13518  -1.13484
 Alpha  occ. eigenvalues --   -1.13148  -1.13117  -1.13097  -1.13068  -1.13009
 Alpha  occ. eigenvalues --   -1.12986  -1.12903  -1.12882  -1.12836  -1.12785
 Alpha  occ. eigenvalues --   -1.12778  -1.12755  -1.12731  -1.12717  -1.12670
 Alpha  occ. eigenvalues --   -0.18800  -0.13204  -0.12362  -0.10838
 Alpha virt. eigenvalues --   -0.05772  -0.05092  -0.04503  -0.03211  -0.02913
 Alpha virt. eigenvalues --   -0.02569  -0.01634  -0.01017  -0.00345  -0.00218
 Alpha virt. eigenvalues --   -0.00018   0.00347   0.00795   0.00896   0.00913

  Beta  occ. eigenvalues --  -38.44189 -38.43974 -38.43485 -38.43458 -38.43267
  Beta  occ. eigenvalues --  -38.43190 -38.43150  -2.20004  -2.19836  -2.19345
  Beta  occ. eigenvalues --   -2.19299  -2.19123  -2.19110  -2.19046  -1.13672
  Beta  occ. eigenvalues --   -1.13661  -1.13645  -1.13537  -1.13491  -1.13464
  Beta  occ. eigenvalues --   -1.13063  -1.13028  -1.12998  -1.12982  -1.12972
  Beta  occ. eigenvalues --   -1.12959  -1.12852  -1.12821  -1.12778  -1.12770
  Beta  occ. eigenvalues --   -1.12750  -1.12732  -1.12716  -1.12686  -1.12671
  Beta  occ. eigenvalues --   -0.18073  -0.12965  -0.12123
  Beta virt. eigenvalues --   -0.06892  -0.05725  -0.05090  -0.04453  -0.02459
  Beta virt. eigenvalues --   -0.02120  -0.01564  -0.01480  -0.00951  -0.00376
  Beta virt. eigenvalues --   -0.00266   0.00129   0.00382   0.00855   0.00887

 Mulliken charges and spin densities:
               1          2
     1  Na   0.080849  -0.024176
     2  Na   0.372584   0.004597
     3  Na   0.020526  -0.057257
     4  Na  -0.534598   0.710833
     5  Na  -0.345204   0.381637
     6  Na   0.230960   0.063809
     7  Na   0.174883  -0.079443
 Sum of Mulliken charges =  -0.00000   1.00000

 Dipole moment (field-independent basis, Debye):
    X=              0.0188    Y=             -0.1314    Z=              0.1299  Tot=              0.1858
 Quadrupole moment (field-independent basis, Debye-Ang):
   XX=            -55.2687   YY=            -64.4869   ZZ=            -73.8619
   XY=             -0.1455   XZ=              0.1863   YZ=              1.5631

 Normal termination of Gaussian 16 at Thu Dec  7 22:59:20 2023.
