 Gaussian 16, Revision B.01,
 Gaussian 16:  ES64L-G16RevB.01 20-Dec-2017

 -------------------------
 #P B3LYP/6-311+g(d) force
 -------------------------

 -----
 DPGEN
 -----
 Symbolic Z-matrix:
 Charge =  0 Multiplicity = 2

                         Standard orientation:
 ---------------------------------------------------------------------
 Center     Atomic      Atomic             Coordinates (Angstroms)
 Number     Number       Type             X           Y           Z
 ---------------------------------------------------------------------
      1         11           0        0.864537    2.287957    0.797349
      2         11           0       -2.556632   -1.791990   -0.321663
      3         11           0       -1.420463    0.098137    2.252347
      4         11           0        1.342488   -1.571609    1.359182
      5         11           0        0.082054   -0.677123   -2.318885
      6         11           0       -1.870222    1.868341   -1.168912
      7         11           0        3.558239   -0.213713   -0.599418
 ---------------------------------------------------------------------

 SCF Done:  E(UB3LYP) =  -1136.12904105     A.U. after   25 cycles

 The electronic state is 2-A.
 Alpha  occ. eigenvalues --  -38.44630 -38.44453 -38.44370 -38.44313 -38.43796
 Alpha  occ. eigenvalues --  -38.42871 -38.42734  -2.20478  -2.20280  -2.20208
 Alpha  occ. eigenvalues --   -2.20165  -2.19595  -2.18692  -2.18603  -1.14174
 Alpha  occ. eigenvalues --   -1.14109  -1.14091  -1.13950  -1.13936  -1.13895
 Alpha  occ. eigenvalues --   -1.13886  -1.13845  -1.13837  -1.13828  -1.13812
 Alpha  occ. eigenvalues --   -1.13801  -1.13275  -1.13246  -1.13233  -1.12390
 Alpha  occ. eigenvalues --   -1.12381  -1.12295  -1.12294  -1.12252  -1.12250
 Alpha  occ. eigenvalues --   -0.18164  -0.12922  -0.12527  -0.11360
 Alpha virt. eigenvalues --   -0.05650  -0.05147  -0.04361  -0.03636  -0.03343
 Alpha virt. eigenvalues --   -0.03248  -0.01458  -0.00857  -0.00528  -0.00039
 Alpha virt. eigenvalues --    0.00221   0.00411   0.00460   0.00740   0.00767

  Beta  occ. eigenvalues --  -38.44569 -38.44413 -38.44310 -38.44276 -38.43800
  Beta  occ. eigenvalues --  -38.42867 -38.42722  -2.20368  -2.20206  -2.20101
  Beta  occ. eigenvalues --   -2.20095  -2.19602  -2.18686  -2.18586  -1.14087
  Beta  occ. eigenvalues --   -1.14040  -1.14005  -1.13894  -1.13888  -1.13839
  Beta  occ. eigenvalues --   -1.13810  -1.13793  -1.13769  -1.13763  -1.13753
  Beta  occ. eigenvalues --   -1.13740  -1.13273  -1.13251  -1.13239  -1.12382
  Beta  occ. eigenvalues --   -1.12364  -1.12296  -1.12278  -1.12243  -1.12215
  Beta  occ. eigenvalues --   -0.17324  -0.12763  -0.11190
  Beta virt. eigenvalues --   -0.08471  -0.05437  -0.04577  -0.04138  -0.03240
  Beta virt. eigenvalues --   -0.02798  -0.02600  -0.01355  -0.00480  -0.00428
  Beta virt. eigenvalues --    0.00080   0.00359   0.00471   0.00483   0.00842

 Mulliken charges and spin densities:
               1          2
     1  Na  -0.203217   0.414483
     2  Na   0.201700   0.161045
     3  Na   0.094113   0.021995
     4  Na  -0.114200   0.155104
     5  Na  -0.529602   0.156007
     6  Na   0.251289   0.165222
     7  Na   0.299917  -0.073857
 Sum of Mulliken charges =  -0.00000   1.00000

 Dipole moment (field-independent basis, Debye):
    X=             -0.0665    Y=              0.1757    Z=              0.0046  Tot=              0.1879
 Quadrupole moment (field-independent basis, Debye-Ang):
   XX=            -58.8824   YY=            -62.0349   ZZ=            -76.0860
   XY=              2.1056   XZ=             -0.6891   YZ=             -4.5844

 Normal termination of Gaussian 16 at Mon Dec  4 03:18:38 2023.
