 Gaussian 16, Revision B.01,
 Gaussian 16:  ES64L-G16RevB.01 20-Dec-2017

 -------------------------
 #P B3LYP/6-311+g(d) force
 -------------------------

 -----
 DPGEN
 -----
 Symbolic Z-matrix:
 Charge =  0 Multiplicity = 2

                         Standard orientation:
 ---------------------------------------------------------------------
 Center     Atomic      Atomic             Coordinates (Angstroms)
 Number     Number       Type             X           Y           Z
 ---------------------------------------------------------------------
      1         11           0       -4.441260   -0.169024    0.076460
      2         11           0        4.969299   -0.628854   -0.000479
      3         11           0       -1.318394   -0.029258    2.202092
      4         11           0        1.631726   -1.071989   -0.058118
      5         11           0        2.598588    1.674415   -0.112780
      6         11           0       -1.754624   -1.623560   -1.180420
      7         11           0       -1.685334    1.848268   -0.926755
 ---------------------------------------------------------------------

 SCF Done:  E(UB3LYP) =  -1136.10385828     A.U. after   35 cycles

 The electronic state is 2-A.
 Alpha  occ. eigenvalues --  -38.45729 -38.45090 -38.44609 -38.44363 -38.43499
 Alpha  occ. eigenvalues --  -38.42921 -38.42830  -2.21506  -2.20920  -2.20478
 Alpha  occ. eigenvalues --   -2.20247  -2.19433  -2.18751  -2.18673  -1.15188
 Alpha  occ. eigenvalues --   -1.15164  -1.15133  -1.14629  -1.14568  -1.14498
 Alpha  occ. eigenvalues --   -1.14247  -1.14149  -1.14034  -1.13945  -1.13889
 Alpha  occ. eigenvalues --   -1.13847  -1.13149  -1.13121  -1.12999  -1.12423
 Alpha  occ. eigenvalues --   -1.12412  -1.12391  -1.12350  -1.12331  -1.12317
 Alpha  occ. eigenvalues --   -0.17862  -0.14548  -0.11099  -0.10165
 Alpha virt. eigenvalues --   -0.07998  -0.05422  -0.04181  -0.03326  -0.03099
 Alpha virt. eigenvalues --   -0.02303  -0.02056  -0.01754  -0.01208  -0.00749
 Alpha virt. eigenvalues --   -0.00322   0.00068   0.00163   0.00595   0.00628

  Beta  occ. eigenvalues --  -38.45724 -38.45031 -38.44588 -38.44299 -38.43464
  Beta  occ. eigenvalues --  -38.42926 -38.42828  -2.21500  -2.20812  -2.20438
  Beta  occ. eigenvalues --   -2.20131  -2.19374  -2.18761  -2.18672  -1.15167
  Beta  occ. eigenvalues --   -1.15153  -1.15133  -1.14549  -1.14498  -1.14416
  Beta  occ. eigenvalues --   -1.14221  -1.14122  -1.14002  -1.13869  -1.13816
  Beta  occ. eigenvalues --   -1.13738  -1.13104  -1.13071  -1.12951  -1.12428
  Beta  occ. eigenvalues --   -1.12419  -1.12397  -1.12353  -1.12324  -1.12310
  Beta  occ. eigenvalues --   -0.17169  -0.14407  -0.10009
  Beta virt. eigenvalues --   -0.07737  -0.07195  -0.05006  -0.03970  -0.03271
  Beta virt. eigenvalues --   -0.02727  -0.01843  -0.01446  -0.01294  -0.00942
  Beta virt. eigenvalues --   -0.00713  -0.00173   0.00212   0.00230   0.00678

 Mulliken charges and spin densities:
               1          2
     1  Na   0.289834   0.206538
     2  Na   0.752389   0.178961
     3  Na   0.134114  -0.089648
     4  Na  -1.121871   0.391909
     5  Na   0.075381   0.044729
     6  Na   0.108949  -0.128586
     7  Na  -0.238794   0.396096
 Sum of Mulliken charges =  -0.00000   1.00000

 Dipole moment (field-independent basis, Debye):
    X=             -0.1836    Y=              0.6292    Z=              0.9251  Tot=              1.1338
 Quadrupole moment (field-independent basis, Debye-Ang):
   XX=            -76.9651   YY=            -69.8650   ZZ=            -62.0340
   XY=             -0.7753   XZ=             -5.1843   YZ=             -3.4792

 Normal termination of Gaussian 16 at Thu Dec  7 02:54:23 2023.
