 Gaussian 16, Revision B.01,
 Gaussian 16:  ES64L-G16RevB.01 20-Dec-2017

 -------------------------
 #P B3LYP/6-311+g(d) force
 -------------------------

 -----
 DPGEN
 -----
 Symbolic Z-matrix:
 Charge =  0 Multiplicity = 2

                         Standard orientation:
 ---------------------------------------------------------------------
 Center     Atomic      Atomic             Coordinates (Angstroms)
 Number     Number       Type             X           Y           Z
 ---------------------------------------------------------------------
      1         11           0       -0.987616    2.975735    0.004701
      2         11           0        2.172223    1.704210   -0.460755
      3         11           0        0.220677    0.139991    2.175104
      4         11           0        3.297620   -1.356450   -0.181895
      5         11           0       -3.668405   -1.116706    0.077510
      6         11           0       -1.060440    0.328182   -1.336135
      7         11           0        0.025941   -2.674962   -0.278531
 ---------------------------------------------------------------------

 SCF Done:  E(UB3LYP) =  -1136.12767471     A.U. after   20 cycles

 The electronic state is 2-A.
 Alpha  occ. eigenvalues --  -38.45016 -38.44075 -38.43926 -38.43772 -38.43674
 Alpha  occ. eigenvalues --  -38.43490 -38.43279  -2.20776  -2.19885  -2.19736
 Alpha  occ. eigenvalues --   -2.19634  -2.19542  -2.19348  -2.19248  -1.14454
 Alpha  occ. eigenvalues --   -1.14436  -1.14408  -1.13600  -1.13563  -1.13491
 Alpha  occ. eigenvalues --   -1.13437  -1.13392  -1.13368  -1.13327  -1.13307
 Alpha  occ. eigenvalues --   -1.13298  -1.13256  -1.13178  -1.13153  -1.13005
 Alpha  occ. eigenvalues --   -1.12974  -1.12958  -1.12919  -1.12903  -1.12842
 Alpha  occ. eigenvalues --   -0.18145  -0.12998  -0.12511  -0.10362
 Alpha virt. eigenvalues --   -0.06522  -0.05303  -0.04584  -0.03004  -0.02794
 Alpha virt. eigenvalues --   -0.02437  -0.02148  -0.01307  -0.00611  -0.00380
 Alpha virt. eigenvalues --   -0.00074   0.00207   0.00712   0.00736   0.00799

  Beta  occ. eigenvalues --  -38.45020 -38.44070 -38.43919 -38.43757 -38.43670
  Beta  occ. eigenvalues --  -38.43375 -38.43246  -2.20786  -2.19878  -2.19725
  Beta  occ. eigenvalues --   -2.19610  -2.19537  -2.19188  -2.19136  -1.14456
  Beta  occ. eigenvalues --   -1.14439  -1.14416  -1.13594  -1.13538  -1.13491
  Beta  occ. eigenvalues --   -1.13428  -1.13376  -1.13360  -1.13316  -1.13288
  Beta  occ. eigenvalues --   -1.13265  -1.13243  -1.13153  -1.13150  -1.12882
  Beta  occ. eigenvalues --   -1.12867  -1.12847  -1.12827  -1.12808  -1.12799
  Beta  occ. eigenvalues --   -0.17470  -0.12798  -0.12319
  Beta virt. eigenvalues --   -0.06515  -0.06369  -0.05234  -0.04541  -0.02399
  Beta virt. eigenvalues --   -0.02186  -0.01997  -0.01307  -0.01245  -0.00626
  Beta virt. eigenvalues --   -0.00372   0.00125   0.00280   0.00747   0.00799

 Mulliken charges and spin densities:
               1          2
     1  Na   0.209292   0.054731
     2  Na   0.009906   0.170329
     3  Na  -0.389977   0.677480
     4  Na  -0.047875   0.001620
     5  Na   0.014916  -0.057354
     6  Na   0.368404   0.120522
     7  Na  -0.164665   0.032672
 Sum of Mulliken charges =  -0.00000   1.00000

 Dipole moment (field-independent basis, Debye):
    X=             -0.7289    Y=             -0.1928    Z=              0.2848  Tot=              0.8060
 Quadrupole moment (field-independent basis, Debye-Ang):
   XX=            -53.2648   YY=            -63.2151   ZZ=            -76.4112
   XY=             -0.0576   XZ=             -2.2966   YZ=              0.3401

 Normal termination of Gaussian 16 at Thu Dec  7 07:34:04 2023.
