 Gaussian 16, Revision B.01,
 Gaussian 16:  ES64L-G16RevB.01 20-Dec-2017

 -------------------------
 #P B3LYP/6-311+g(d) force
 -------------------------

 -----
 DPGEN
 -----
 Symbolic Z-matrix:
 Charge =  0 Multiplicity = 2

                         Standard orientation:
 ---------------------------------------------------------------------
 Center     Atomic      Atomic             Coordinates (Angstroms)
 Number     Number       Type             X           Y           Z
 ---------------------------------------------------------------------
      1         11           0       -3.022407    2.146722   -0.462362
      2         11           0        4.112944   -1.147838   -1.248651
      3         11           0       -0.385760    3.689529    0.625031
      4         11           0        3.102499    1.743819   -0.081927
      5         11           0       -3.962647   -1.263423   -0.487236
      6         11           0       -1.562156   -3.382465    0.164657
      7         11           0        1.717528   -1.786344    1.490488
 ---------------------------------------------------------------------

 SCF Done:  E(UB3LYP) =  -1136.11116235     A.U. after   22 cycles

 The electronic state is 2-A.
 Alpha  occ. eigenvalues --  -38.45617 -38.45230 -38.44743 -38.44401 -38.44219
 Alpha  occ. eigenvalues --  -38.43702 -38.43372  -2.21389  -2.20995  -2.20558
 Alpha  occ. eigenvalues --   -2.20182  -2.19987  -2.19513  -2.19168  -1.15079
 Alpha  occ. eigenvalues --   -1.15053  -1.15015  -1.14676  -1.14660  -1.14592
 Alpha  occ. eigenvalues --   -1.14217  -1.14206  -1.14176  -1.13865  -1.13857
 Alpha  occ. eigenvalues --   -1.13830  -1.13669  -1.13666  -1.13631  -1.13174
 Alpha  occ. eigenvalues --   -1.13166  -1.13145  -1.12826  -1.12823  -1.12807
 Alpha  occ. eigenvalues --   -0.15881  -0.14009  -0.12786  -0.10568
 Alpha virt. eigenvalues --   -0.07326  -0.05950  -0.04033  -0.03563  -0.03071
 Alpha virt. eigenvalues --   -0.02590  -0.01961  -0.01809  -0.01298  -0.01180
 Alpha virt. eigenvalues --   -0.00346  -0.00093  -0.00022   0.00505   0.00541

  Beta  occ. eigenvalues --  -38.45596 -38.45174 -38.44695 -38.44401 -38.44225
  Beta  occ. eigenvalues --  -38.43665 -38.43343  -2.21355  -2.20893  -2.20470
  Beta  occ. eigenvalues --   -2.20185  -2.20000  -2.19445  -2.19113  -1.15057
  Beta  occ. eigenvalues --   -1.15034  -1.14962  -1.14607  -1.14593  -1.14509
  Beta  occ. eigenvalues --   -1.14154  -1.14136  -1.14123  -1.13871  -1.13862
  Beta  occ. eigenvalues --   -1.13806  -1.13681  -1.13677  -1.13621  -1.13127
  Beta  occ. eigenvalues --   -1.13121  -1.13100  -1.12794  -1.12787  -1.12768
  Beta  occ. eigenvalues --   -0.15328  -0.13582  -0.12450
  Beta virt. eigenvalues --   -0.07241  -0.07196  -0.05414  -0.03715  -0.03188
  Beta virt. eigenvalues --   -0.02824  -0.02241  -0.01821  -0.01604  -0.01143
  Beta virt. eigenvalues --   -0.00896  -0.00200   0.00196   0.00271   0.00489

 Mulliken charges and spin densities:
               1          2
     1  Na  -0.291631   0.009882
     2  Na   0.501284   0.203823
     3  Na   0.158151   0.161092
     4  Na  -0.223574   0.185763
     5  Na   0.322545   0.192040
     6  Na  -0.233296  -0.028608
     7  Na  -0.233478   0.276009
 Sum of Mulliken charges =  -0.00000   1.00000

 Dipole moment (field-independent basis, Debye):
    X=              1.8381    Y=             -0.5456    Z=             -0.2545  Tot=              1.9341
 Quadrupole moment (field-independent basis, Debye-Ang):
   XX=            -63.6505   YY=            -66.6843   ZZ=            -70.4873
   XY=             -0.5128   XZ=              0.3171   YZ=              2.5787

 Normal termination of Gaussian 16 at Sun Dec  3 19:19:55 2023.
