 Gaussian 16, Revision B.01,
 Gaussian 16:  ES64L-G16RevB.01 20-Dec-2017

 -------------------------
 #P B3LYP/6-311+g(d) force
 -------------------------

 -----
 DPGEN
 -----
 Symbolic Z-matrix:
 Charge =  0 Multiplicity = 2

                         Standard orientation:
 ---------------------------------------------------------------------
 Center     Atomic      Atomic             Coordinates (Angstroms)
 Number     Number       Type             X           Y           Z
 ---------------------------------------------------------------------
      1         11           0        2.447607    2.752870   -0.646837
      2         11           0        5.267099   -0.187648    0.849404
      3         11           0        2.707354   -1.897460   -0.519465
      4         11           0       -0.526655   -2.241410   -0.006817
      5         11           0       -0.432830    1.533234    0.348005
      6         11           0       -3.436056   -0.341928   -0.572738
      7         11           0       -6.026519    0.382342    0.548449
 ---------------------------------------------------------------------

 SCF Done:  E(UB3LYP) =  -1136.10842252     A.U. after   26 cycles

 The electronic state is 2-A.
 Alpha  occ. eigenvalues --  -38.45537 -38.45283 -38.44858 -38.44272 -38.43995
 Alpha  occ. eigenvalues --  -38.43947 -38.42733  -2.21313  -2.21098  -2.20695
 Alpha  occ. eigenvalues --   -2.20075  -2.19819  -2.19775  -2.18564  -1.14968
 Alpha  occ. eigenvalues --   -1.14966  -1.14923  -1.14777  -1.14747  -1.14707
 Alpha  occ. eigenvalues --   -1.14411  -1.14313  -1.14310  -1.13765  -1.13744
 Alpha  occ. eigenvalues --   -1.13708  -1.13498  -1.13478  -1.13462  -1.13457
 Alpha  occ. eigenvalues --   -1.13441  -1.13394  -1.12239  -1.12231  -1.12205
 Alpha  occ. eigenvalues --   -0.16504  -0.14411  -0.12412  -0.11490
 Alpha virt. eigenvalues --   -0.06560  -0.05420  -0.04490  -0.03332  -0.02950
 Alpha virt. eigenvalues --   -0.02861  -0.02346  -0.01502  -0.01045  -0.00798
 Alpha virt. eigenvalues --   -0.00467  -0.00112   0.00057   0.00247   0.00617

  Beta  occ. eigenvalues --  -38.45469 -38.45210 -38.44788 -38.44268 -38.43968
  Beta  occ. eigenvalues --  -38.43942 -38.42733  -2.21189  -2.20968  -2.20566
  Beta  occ. eigenvalues --   -2.20068  -2.19817  -2.19729  -2.18563  -1.14883
  Beta  occ. eigenvalues --   -1.14873  -1.14845  -1.14690  -1.14665  -1.14596
  Beta  occ. eigenvalues --   -1.14324  -1.14225  -1.14223  -1.13760  -1.13739
  Beta  occ. eigenvalues --   -1.13696  -1.13488  -1.13485  -1.13425  -1.13418
  Beta  occ. eigenvalues --   -1.13409  -1.13356  -1.12243  -1.12231  -1.12203
  Beta  occ. eigenvalues --   -0.15874  -0.13550  -0.11198
  Beta virt. eigenvalues --   -0.08901  -0.06090  -0.05211  -0.04276  -0.03064
  Beta virt. eigenvalues --   -0.02703  -0.02406  -0.01978  -0.01233  -0.00750
  Beta virt. eigenvalues --   -0.00572  -0.00254   0.00015   0.00182   0.00253

 Mulliken charges and spin densities:
               1          2
     1  Na   0.308535  -0.051051
     2  Na   0.339682   0.143719
     3  Na  -0.310125   0.284899
     4  Na   0.027394  -0.174820
     5  Na  -0.626290   0.377914
     6  Na   0.094158   0.219080
     7  Na   0.166645   0.200258
 Sum of Mulliken charges =  -0.00000   1.00000

 Dipole moment (field-independent basis, Debye):
    X=              0.4378    Y=              0.3036    Z=              0.6302  Tot=              0.8252
 Quadrupole moment (field-independent basis, Debye-Ang):
   XX=            -48.0733   YY=            -75.0386   ZZ=            -69.5087
   XY=             -0.9770   XZ=             -0.5785   YZ=              0.2846

 Normal termination of Gaussian 16 at Wed Nov 29 04:00:51 2023.
