 Gaussian 16, Revision B.01,
 Gaussian 16:  ES64L-G16RevB.01 20-Dec-2017

 -------------------------
 #P B3LYP/6-311+g(d) force
 -------------------------

 -----
 DPGEN
 -----
 Symbolic Z-matrix:
 Charge =  0 Multiplicity = 2

                         Standard orientation:
 ---------------------------------------------------------------------
 Center     Atomic      Atomic             Coordinates (Angstroms)
 Number     Number       Type             X           Y           Z
 ---------------------------------------------------------------------
      1         11           0        1.620108    3.605443   -0.130021
      2         11           0        0.561694   -3.525042    0.005587
      3         11           0       -2.872355   -2.697630   -0.275488
      4         11           0       -2.709837    2.984540   -0.238610
      5         11           0       -4.344009    0.409648    0.457066
      6         11           0        3.560079   -2.416388    0.006727
      7         11           0        4.184322    1.639429    0.174739
 ---------------------------------------------------------------------

 SCF Done:  E(UB3LYP) =  -1136.10648433     A.U. after   20 cycles

 The electronic state is 2-A.
 Alpha  occ. eigenvalues --  -38.44904 -38.44804 -38.44763 -38.44715 -38.44363
 Alpha  occ. eigenvalues --  -38.44336 -38.44291  -2.20672  -2.20570  -2.20562
 Alpha  occ. eigenvalues --   -2.20516  -2.20147  -2.20140  -2.20095  -1.14358
 Alpha  occ. eigenvalues --   -1.14341  -1.14320  -1.14305  -1.14235  -1.14232
 Alpha  occ. eigenvalues --   -1.14225  -1.14220  -1.14186  -1.14159  -1.14148
 Alpha  occ. eigenvalues --   -1.14108  -1.13881  -1.13827  -1.13821  -1.13784
 Alpha  occ. eigenvalues --   -1.13768  -1.13744  -1.13741  -1.13729  -1.13706
 Alpha  occ. eigenvalues --   -0.15413  -0.14039  -0.13531  -0.11142
 Alpha virt. eigenvalues --   -0.07769  -0.04794  -0.04503  -0.03607  -0.03493
 Alpha virt. eigenvalues --   -0.02558  -0.02206  -0.02090  -0.01420  -0.00790
 Alpha virt. eigenvalues --   -0.00460  -0.00353   0.00061   0.00220   0.00353

  Beta  occ. eigenvalues --  -38.44890 -38.44783 -38.44764 -38.44656 -38.44367
  Beta  occ. eigenvalues --  -38.44272 -38.44211  -2.20650  -2.20571  -2.20535
  Beta  occ. eigenvalues --   -2.20407  -2.20161  -2.20023  -2.19946  -1.14334
  Beta  occ. eigenvalues --   -1.14328  -1.14296  -1.14275  -1.14243  -1.14213
  Beta  occ. eigenvalues --   -1.14210  -1.14203  -1.14150  -1.14086  -1.14077
  Beta  occ. eigenvalues --   -1.14044  -1.13849  -1.13842  -1.13811  -1.13706
  Beta  occ. eigenvalues --   -1.13693  -1.13666  -1.13642  -1.13633  -1.13618
  Beta  occ. eigenvalues --   -0.14804  -0.13346  -0.12764
  Beta virt. eigenvalues --   -0.08063  -0.07852  -0.04290  -0.03998  -0.03410
  Beta virt. eigenvalues --   -0.03212  -0.02363  -0.01997  -0.01923  -0.01299
  Beta virt. eigenvalues --   -0.00365  -0.00226   0.00056   0.00176   0.00284

 Mulliken charges and spin densities:
               1          2
     1  Na   0.001522   0.082810
     2  Na  -0.156168  -0.026809
     3  Na  -0.269757   0.369978
     4  Na  -0.001488   0.289571
     5  Na  -0.167113  -0.025937
     6  Na   0.461483   0.275480
     7  Na   0.131521   0.034907
 Sum of Mulliken charges =  -0.00000   1.00000

 Dipole moment (field-independent basis, Debye):
    X=              0.1348    Y=              0.6799    Z=              0.0078  Tot=              0.6932
 Quadrupole moment (field-independent basis, Debye-Ang):
   XX=            -57.6890   YY=            -68.3297   ZZ=            -74.2839
   XY=             -0.1901   XZ=             -0.2505   YZ=             -0.8791

 Normal termination of Gaussian 16 at Sun Dec  3 16:35:44 2023.
