 Gaussian 16, Revision B.01,
 Gaussian 16:  ES64L-G16RevB.01 20-Dec-2017

 -------------------------
 #P B3LYP/6-311+g(d) force
 -------------------------

 -----
 DPGEN
 -----
 Symbolic Z-matrix:
 Charge =  0 Multiplicity = 2

                         Standard orientation:
 ---------------------------------------------------------------------
 Center     Atomic      Atomic             Coordinates (Angstroms)
 Number     Number       Type             X           Y           Z
 ---------------------------------------------------------------------
      1         11           0        0.491015   -0.401839   -1.602270
      2         11           0       -1.773103    1.457508    1.295572
      3         11           0       -3.158661   -0.440226   -0.929187
      4         11           0        3.326185   -1.306669   -0.360106
      5         11           0        0.785329    2.552011   -1.111280
      6         11           0        1.522467    0.557059    2.006790
      7         11           0       -1.193231   -2.417845    0.700481
 ---------------------------------------------------------------------

 SCF Done:  E(UB3LYP) =  -1136.12748578     A.U. after   19 cycles

 The electronic state is 2-A.
 Alpha  occ. eigenvalues --  -38.44230 -38.44102 -38.44057 -38.43973 -38.43512
 Alpha  occ. eigenvalues --  -38.43498 -38.43434  -2.20085  -2.19906  -2.19904
 Alpha  occ. eigenvalues --   -2.19794  -2.19401  -2.19365  -2.19356  -1.13765
 Alpha  occ. eigenvalues --   -1.13744  -1.13731  -1.13597  -1.13585  -1.13577
 Alpha  occ. eigenvalues --   -1.13543  -1.13534  -1.13507  -1.13472  -1.13458
 Alpha  occ. eigenvalues --   -1.13412  -1.13218  -1.13060  -1.13043  -1.13026
 Alpha  occ. eigenvalues --   -1.13018  -1.12986  -1.12983  -1.12957  -1.12953
 Alpha  occ. eigenvalues --   -0.18299  -0.13299  -0.11565  -0.11539
 Alpha virt. eigenvalues --   -0.06110  -0.04858  -0.04486  -0.03301  -0.03192
 Alpha virt. eigenvalues --   -0.02863  -0.01760  -0.00801  -0.00716   0.00100
 Alpha virt. eigenvalues --    0.00165   0.00295   0.00426   0.00710   0.00815

  Beta  occ. eigenvalues --  -38.44224 -38.44101 -38.43989 -38.43965 -38.43476
  Beta  occ. eigenvalues --  -38.43475 -38.43375  -2.20075  -2.19905  -2.19783
  Beta  occ. eigenvalues --   -2.19778  -2.19319  -2.19306  -2.19288  -1.13759
  Beta  occ. eigenvalues --   -1.13735  -1.13718  -1.13586  -1.13565  -1.13542
  Beta  occ. eigenvalues --   -1.13496  -1.13465  -1.13453  -1.13434  -1.13424
  Beta  occ. eigenvalues --   -1.13406  -1.13146  -1.13005  -1.12988  -1.12979
  Beta  occ. eigenvalues --   -1.12961  -1.12951  -1.12930  -1.12916  -1.12887
  Beta  occ. eigenvalues --   -0.17563  -0.13119  -0.11371
  Beta virt. eigenvalues --   -0.07561  -0.06014  -0.04636  -0.04073  -0.03050
  Beta virt. eigenvalues --   -0.02526  -0.01966  -0.01672  -0.00713  -0.00367
  Beta virt. eigenvalues --    0.00156   0.00213   0.00347   0.00512   0.00823

 Mulliken charges and spin densities:
               1          2
     1  Na   0.373643   0.134933
     2  Na  -0.081633   0.230553
     3  Na   0.492306  -0.072644
     4  Na   0.063798   0.043936
     5  Na  -0.334091   0.110314
     6  Na  -0.039235   0.388092
     7  Na  -0.474788   0.164816
 Sum of Mulliken charges =  -0.00000   1.00000

 Dipole moment (field-independent basis, Debye):
    X=             -0.0880    Y=             -0.1579    Z=              0.1383  Tot=              0.2277
 Quadrupole moment (field-independent basis, Debye-Ang):
   XX=            -56.2057   YY=            -70.8245   ZZ=            -67.8995
   XY=             -0.7309   XZ=              1.5871   YZ=             -2.3040

 Normal termination of Gaussian 16 at Wed Nov 29 17:12:03 2023.
