 Gaussian 16, Revision B.01,
 Gaussian 16:  ES64L-G16RevB.01 20-Dec-2017

 -------------------------
 #P B3LYP/6-311+g(d) force
 -------------------------

 -----
 DPGEN
 -----
 Symbolic Z-matrix:
 Charge =  0 Multiplicity = 2

                         Standard orientation:
 ---------------------------------------------------------------------
 Center     Atomic      Atomic             Coordinates (Angstroms)
 Number     Number       Type             X           Y           Z
 ---------------------------------------------------------------------
      1         11           0       -4.002650    0.840498   -0.775440
      2         11           0        1.208579   -2.508064   -0.846175
      3         11           0        1.160610    3.084554    0.718640
      4         11           0       -0.605144    0.902919   -0.724140
      5         11           0        3.343584    0.176378   -0.843937
      6         11           0       -2.257437   -1.656642    0.991065
      7         11           0        1.152458   -0.839643    1.479987
 ---------------------------------------------------------------------

 SCF Done:  E(UB3LYP) =  -1136.12509515     A.U. after   21 cycles

 The electronic state is 2-A.
 Alpha  occ. eigenvalues --  -38.44332 -38.43944 -38.43851 -38.43749 -38.43714
 Alpha  occ. eigenvalues --  -38.43482 -38.43283  -2.20177  -2.19778  -2.19712
 Alpha  occ. eigenvalues --   -2.19668  -2.19641  -2.19413  -2.19101  -1.13864
 Alpha  occ. eigenvalues --   -1.13839  -1.13776  -1.13589  -1.13471  -1.13451
 Alpha  occ. eigenvalues --   -1.13405  -1.13386  -1.13327  -1.13316  -1.13314
 Alpha  occ. eigenvalues --   -1.13295  -1.13284  -1.13235  -1.13194  -1.13129
 Alpha  occ. eigenvalues --   -1.13101  -1.13025  -1.12769  -1.12751  -1.12720
 Alpha  occ. eigenvalues --   -0.18255  -0.13668  -0.12162  -0.10405
 Alpha virt. eigenvalues --   -0.06248  -0.05155  -0.04745  -0.03239  -0.02754
 Alpha virt. eigenvalues --   -0.02230  -0.01590  -0.01290  -0.00797  -0.00257
 Alpha virt. eigenvalues --   -0.00124   0.00165   0.00431   0.00748   0.00778

  Beta  occ. eigenvalues --  -38.44284 -38.43924 -38.43801 -38.43739 -38.43674
  Beta  occ. eigenvalues --  -38.43477 -38.43267  -2.20090  -2.19745  -2.19652
  Beta  occ. eigenvalues --   -2.19617  -2.19573  -2.19407  -2.19073  -1.13807
  Beta  occ. eigenvalues --   -1.13779  -1.13704  -1.13563  -1.13444  -1.13433
  Beta  occ. eigenvalues --   -1.13360  -1.13342  -1.13286  -1.13261  -1.13249
  Beta  occ. eigenvalues --   -1.13244  -1.13227  -1.13196  -1.13157  -1.13107
  Beta  occ. eigenvalues --   -1.13089  -1.13024  -1.12753  -1.12725  -1.12703
  Beta  occ. eigenvalues --   -0.17693  -0.13128  -0.11873
  Beta virt. eigenvalues --   -0.06909  -0.06037  -0.04889  -0.04559  -0.02783
  Beta virt. eigenvalues --   -0.02245  -0.02047  -0.01127  -0.01059  -0.00615
  Beta virt. eigenvalues --   -0.00062   0.00036   0.00265   0.00542   0.00792

 Mulliken charges and spin densities:
               1          2
     1  Na   0.542717   0.268510
     2  Na   0.166831   0.181626
     3  Na   0.307826  -0.073219
     4  Na  -1.495837  -0.019103
     5  Na   0.334897   0.303971
     6  Na   0.017155  -0.003555
     7  Na   0.126410   0.341769
 Sum of Mulliken charges =  -0.00000   1.00000

 Dipole moment (field-independent basis, Debye):
    X=              0.1461    Y=             -0.2361    Z=              0.3535  Tot=              0.4495
 Quadrupole moment (field-independent basis, Debye-Ang):
   XX=            -58.9346   YY=            -66.9365   ZZ=            -69.1354
   XY=              3.3672   XZ=             -0.3834   YZ=              0.8516

 Normal termination of Gaussian 16 at Tue Dec  5 21:03:25 2023.
