 Gaussian 16, Revision B.01,
 Gaussian 16:  ES64L-G16RevB.01 20-Dec-2017

 -------------------------
 #P B3LYP/6-311+g(d) force
 -------------------------

 -----
 DPGEN
 -----
 Symbolic Z-matrix:
 Charge =  0 Multiplicity = 2

                         Standard orientation:
 ---------------------------------------------------------------------
 Center     Atomic      Atomic             Coordinates (Angstroms)
 Number     Number       Type             X           Y           Z
 ---------------------------------------------------------------------
      1         11           0        2.285099    2.033799   -0.048979
      2         11           0       -3.284416   -0.622205   -0.614022
      3         11           0        2.899195   -1.454717   -0.680563
      4         11           0       -1.463905    2.421760   -0.166152
      5         11           0        0.041915    0.452015    2.146641
      6         11           0       -0.408147   -2.527619    0.914060
      7         11           0       -0.069742   -0.303033   -1.550987
 ---------------------------------------------------------------------

 SCF Done:  E(UB3LYP) =  -1136.13626944     A.U. after   19 cycles

 The electronic state is 2-A.
 Alpha  occ. eigenvalues --  -38.44100 -38.43921 -38.43808 -38.43662 -38.43338
 Alpha  occ. eigenvalues --  -38.43300 -38.43266  -2.19915  -2.19827  -2.19627
 Alpha  occ. eigenvalues --   -2.19483  -2.19315  -2.19156  -2.19132  -1.13597
 Alpha  occ. eigenvalues --   -1.13561  -1.13552  -1.13495  -1.13460  -1.13448
 Alpha  occ. eigenvalues --   -1.13321  -1.13276  -1.13260  -1.13168  -1.13150
 Alpha  occ. eigenvalues --   -1.13106  -1.13016  -1.12978  -1.12935  -1.12840
 Alpha  occ. eigenvalues --   -1.12832  -1.12827  -1.12777  -1.12762  -1.12739
 Alpha  occ. eigenvalues --   -0.18515  -0.12965  -0.12136  -0.11319
 Alpha virt. eigenvalues --   -0.05591  -0.05154  -0.04224  -0.03243  -0.03148
 Alpha virt. eigenvalues --   -0.02851  -0.01701  -0.01046  -0.00310  -0.00099
 Alpha virt. eigenvalues --    0.00073   0.00318   0.00755   0.00841   0.00921

  Beta  occ. eigenvalues --  -38.44088 -38.43821 -38.43793 -38.43660 -38.43296
  Beta  occ. eigenvalues --  -38.43294 -38.43235  -2.19894  -2.19644  -2.19602
  Beta  occ. eigenvalues --   -2.19482  -2.19234  -2.19151  -2.19079  -1.13573
  Beta  occ. eigenvalues --   -1.13550  -1.13535  -1.13374  -1.13337  -1.13309
  Beta  occ. eigenvalues --   -1.13294  -1.13262  -1.13241  -1.13156  -1.13149
  Beta  occ. eigenvalues --   -1.13100  -1.12960  -1.12930  -1.12873  -1.12827
  Beta  occ. eigenvalues --   -1.12817  -1.12781  -1.12753  -1.12723  -1.12709
  Beta  occ. eigenvalues --   -0.17803  -0.12642  -0.11911
  Beta virt. eigenvalues --   -0.07395  -0.05493  -0.05113  -0.04103  -0.02603
  Beta virt. eigenvalues --   -0.02442  -0.01812  -0.01561  -0.01022  -0.00154
  Beta virt. eigenvalues --   -0.00111   0.00121   0.00365   0.00843   0.00845

 Mulliken charges and spin densities:
               1          2
     1  Na  -0.005315  -0.003943
     2  Na   0.167019  -0.006556
     3  Na   0.130736   0.020170
     4  Na   0.028275   0.008903
     5  Na  -0.094642   0.431069
     6  Na   0.089491   0.206897
     7  Na  -0.315564   0.343461
 Sum of Mulliken charges =  -0.00000   1.00000

 Dipole moment (field-independent basis, Debye):
    X=             -0.0637    Y=              0.0439    Z=              0.0519  Tot=              0.0931
 Quadrupole moment (field-independent basis, Debye-Ang):
   XX=            -55.7239   YY=            -66.3412   ZZ=            -71.5479
   XY=              0.4332   XZ=              0.0451   YZ=             -0.8044

 Normal termination of Gaussian 16 at Fri Dec  8 06:57:54 2023.
