 Gaussian 16, Revision B.01,
 Gaussian 16:  ES64L-G16RevB.01 20-Dec-2017

 -------------------------
 #P B3LYP/6-311+g(d) force
 -------------------------

 -----
 DPGEN
 -----
 Symbolic Z-matrix:
 Charge =  0 Multiplicity = 2

                         Standard orientation:
 ---------------------------------------------------------------------
 Center     Atomic      Atomic             Coordinates (Angstroms)
 Number     Number       Type             X           Y           Z
 ---------------------------------------------------------------------
      1         11           0        2.302112   -1.578118    0.901740
      2         11           0        3.813709    0.356716   -1.102434
      3         11           0       -0.465956   -1.193453   -1.359123
      4         11           0        1.131332    1.847035    0.587626
      5         11           0       -1.365024   -0.557102    2.272217
      6         11           0       -2.111617    2.165907   -0.305142
      7         11           0       -3.304556   -1.040985   -0.994884
 ---------------------------------------------------------------------

 SCF Done:  E(UB3LYP) =  -1136.12156042     A.U. after   24 cycles

 The electronic state is 2-A.
 Alpha  occ. eigenvalues --  -38.45015 -38.44837 -38.44316 -38.43919 -38.43857
 Alpha  occ. eigenvalues --  -38.43303 -38.42737  -2.20840  -2.20657  -2.20167
 Alpha  occ. eigenvalues --   -2.19809  -2.19740  -2.19141  -2.18589  -1.14511
 Alpha  occ. eigenvalues --   -1.14481  -1.14478  -1.14319  -1.14291  -1.14268
 Alpha  occ. eigenvalues --   -1.13841  -1.13820  -1.13806  -1.13673  -1.13472
 Alpha  occ. eigenvalues --   -1.13456  -1.13369  -1.13358  -1.13286  -1.12826
 Alpha  occ. eigenvalues --   -1.12790  -1.12777  -1.12294  -1.12274  -1.12200
 Alpha  occ. eigenvalues --   -0.18166  -0.14311  -0.11372  -0.10918
 Alpha virt. eigenvalues --   -0.06611  -0.05492  -0.04722  -0.03209  -0.02689
 Alpha virt. eigenvalues --   -0.02465  -0.02354  -0.01205  -0.00878  -0.00266
 Alpha virt. eigenvalues --    0.00143   0.00264   0.00309   0.00616   0.00655

  Beta  occ. eigenvalues --  -38.44986 -38.44749 -38.44295 -38.43906 -38.43840
  Beta  occ. eigenvalues --  -38.43288 -38.42734  -2.20785  -2.20494  -2.20132
  Beta  occ. eigenvalues --   -2.19787  -2.19711  -2.19115  -2.18587  -1.14476
  Beta  occ. eigenvalues --   -1.14442  -1.14440  -1.14201  -1.14180  -1.14152
  Beta  occ. eigenvalues --   -1.13820  -1.13798  -1.13755  -1.13656  -1.13450
  Beta  occ. eigenvalues --   -1.13428  -1.13341  -1.13334  -1.13270  -1.12807
  Beta  occ. eigenvalues --   -1.12775  -1.12750  -1.12296  -1.12251  -1.12200
  Beta  occ. eigenvalues --   -0.17504  -0.14005  -0.10788
  Beta virt. eigenvalues --   -0.07554  -0.06329  -0.05147  -0.04383  -0.02965
  Beta virt. eigenvalues --   -0.02270  -0.01927  -0.01844  -0.00832  -0.00636
  Beta virt. eigenvalues --   -0.00146   0.00194   0.00300   0.00423   0.00676

 Mulliken charges and spin densities:
               1          2
     1  Na   0.490030   0.192896
     2  Na   0.537544   0.055619
     3  Na  -0.893774   0.107428
     4  Na  -0.531534   0.137865
     5  Na  -0.204772   0.401319
     6  Na  -0.111917   0.026431
     7  Na   0.714423   0.078443
 Sum of Mulliken charges =  -0.00000   1.00000

 Dipole moment (field-independent basis, Debye):
    X=              0.5598    Y=             -0.2382    Z=              0.1568  Tot=              0.6283
 Quadrupole moment (field-independent basis, Debye-Ang):
   XX=            -49.3394   YY=            -78.2450   ZZ=            -67.8176
   XY=             -0.5907   XZ=             -4.2339   YZ=             -5.9249

 Normal termination of Gaussian 16 at Thu Dec  7 07:37:51 2023.
