 Gaussian 16, Revision B.01,
 Gaussian 16:  ES64L-G16RevB.01 20-Dec-2017

 -------------------------
 #P B3LYP/6-311+g(d) force
 -------------------------

 -----
 DPGEN
 -----
 Symbolic Z-matrix:
 Charge =  0 Multiplicity = 2

                         Standard orientation:
 ---------------------------------------------------------------------
 Center     Atomic      Atomic             Coordinates (Angstroms)
 Number     Number       Type             X           Y           Z
 ---------------------------------------------------------------------
      1         11           0       -0.011806    1.612972   -0.010657
      2         11           0        0.009165   -0.733229   -1.889957
      3         11           0       -3.002708    1.392409    0.000843
      4         11           0       -2.190144   -1.490401    0.002543
      5         11           0        0.006165   -0.717529    1.891043
      6         11           0        2.210456   -1.481356    0.006143
      7         11           0        2.978872    1.417134    0.000043
 ---------------------------------------------------------------------

 SCF Done:  E(UB3LYP) =  -1136.10662209     A.U. after   20 cycles

 The electronic state is 2-A.
 Alpha  occ. eigenvalues --  -38.44342 -38.44303 -38.44027 -38.44014 -38.43995
 Alpha  occ. eigenvalues --  -38.43969 -38.42934  -2.20237  -2.20198  -2.20056
 Alpha  occ. eigenvalues --   -2.20043  -2.19990  -2.19966  -2.19023  -1.13968
 Alpha  occ. eigenvalues --   -1.13942  -1.13936  -1.13898  -1.13861  -1.13847
 Alpha  occ. eigenvalues --   -1.13830  -1.13811  -1.13804  -1.13771  -1.13720
 Alpha  occ. eigenvalues --   -1.13709  -1.13565  -1.13563  -1.13547  -1.13542
 Alpha  occ. eigenvalues --   -1.13535  -1.13508  -1.12704  -1.12692  -1.12633
 Alpha  occ. eigenvalues --   -0.20121  -0.14401  -0.11584  -0.11545
 Alpha virt. eigenvalues --   -0.06437  -0.05266  -0.03942  -0.03379  -0.02564
 Alpha virt. eigenvalues --   -0.02459  -0.02210  -0.01007  -0.00122   0.00114
 Alpha virt. eigenvalues --    0.00227   0.00429   0.00735   0.00849   0.00858

  Beta  occ. eigenvalues --  -38.44347 -38.44307 -38.43982 -38.43956 -38.43939
  Beta  occ. eigenvalues --  -38.43926 -38.42910  -2.20247  -2.20208  -2.19975
  Beta  occ. eigenvalues --   -2.19951  -2.19893  -2.19880  -2.18986  -1.13976
  Beta  occ. eigenvalues --   -1.13948  -1.13943  -1.13902  -1.13849  -1.13811
  Beta  occ. eigenvalues --   -1.13795  -1.13753  -1.13722  -1.13687  -1.13617
  Beta  occ. eigenvalues --   -1.13605  -1.13556  -1.13540  -1.13474  -1.13470
  Beta  occ. eigenvalues --   -1.13452  -1.13449  -1.12678  -1.12617  -1.12613
  Beta  occ. eigenvalues --   -0.19317  -0.14141  -0.11310
  Beta virt. eigenvalues --   -0.07489  -0.06372  -0.05238  -0.03149  -0.03038
  Beta virt. eigenvalues --   -0.02120  -0.01712  -0.01643  -0.01020   0.00065
  Beta virt. eigenvalues --    0.00073   0.00274   0.00415   0.00758   0.00867

 Mulliken charges and spin densities:
               1          2
     1  Na  -0.733555   0.255098
     2  Na   0.136357   0.404491
     3  Na  -0.057373  -0.110050
     4  Na   0.292500   0.078100
     5  Na   0.131683   0.406785
     6  Na   0.296018   0.074827
     7  Na  -0.065631  -0.109251
 Sum of Mulliken charges =  -0.00000   1.00000

 Dipole moment (field-independent basis, Debye):
    X=             -0.0069    Y=             -0.2847    Z=              0.0028  Tot=              0.2848
 Quadrupole moment (field-independent basis, Debye-Ang):
   XX=            -49.5547   YY=            -74.7536   ZZ=            -70.4847
   XY=             -0.0294   XZ=              0.0009   YZ=              0.0009

 Normal termination of Gaussian 16 at Thu Dec  7 17:13:36 2023.
