 Gaussian 16, Revision B.01,
 Gaussian 16:  ES64L-G16RevB.01 20-Dec-2017

 -------------------------
 #P B3LYP/6-311+g(d) force
 -------------------------

 -----
 DPGEN
 -----
 Symbolic Z-matrix:
 Charge =  0 Multiplicity = 2

                         Standard orientation:
 ---------------------------------------------------------------------
 Center     Atomic      Atomic             Coordinates (Angstroms)
 Number     Number       Type             X           Y           Z
 ---------------------------------------------------------------------
      1         11           0       -3.136047    0.066956   -0.581383
      2         11           0       -1.226042   -2.524378    0.169398
      3         11           0       -0.171869    0.144538    2.160599
      4         11           0        0.244173    0.114366   -1.564313
      5         11           0        2.132119   -1.837031   -0.118791
      6         11           0       -0.824144    2.891410    0.108682
      7         11           0        2.981811    1.144139   -0.174191
 ---------------------------------------------------------------------

 SCF Done:  E(UB3LYP) =  -1136.13532331     A.U. after   19 cycles

 The electronic state is 2-A.
 Alpha  occ. eigenvalues --  -38.44191 -38.44130 -38.43763 -38.43444 -38.43339
 Alpha  occ. eigenvalues --  -38.43300 -38.42950  -2.20023  -2.19988  -2.19643
 Alpha  occ. eigenvalues --   -2.19370  -2.19309  -2.19162  -2.18834  -1.13699
 Alpha  occ. eigenvalues --   -1.13694  -1.13684  -1.13657  -1.13652  -1.13613
 Alpha  occ. eigenvalues --   -1.13305  -1.13269  -1.13265  -1.13146  -1.13020
 Alpha  occ. eigenvalues --   -1.12995  -1.12977  -1.12936  -1.12914  -1.12835
 Alpha  occ. eigenvalues --   -1.12824  -1.12791  -1.12508  -1.12494  -1.12479
 Alpha  occ. eigenvalues --   -0.18799  -0.13295  -0.12234  -0.10974
 Alpha virt. eigenvalues --   -0.05825  -0.04910  -0.04493  -0.03328  -0.02887
 Alpha virt. eigenvalues --   -0.02717  -0.01666  -0.00976  -0.00361  -0.00119
 Alpha virt. eigenvalues --   -0.00007   0.00344   0.00817   0.00870   0.00936

  Beta  occ. eigenvalues --  -38.44175 -38.44127 -38.43658 -38.43438 -38.43336
  Beta  occ. eigenvalues --  -38.43247 -38.42944  -2.19995  -2.19985  -2.19452
  Beta  occ. eigenvalues --   -2.19362  -2.19214  -2.19159  -2.18827  -1.13692
  Beta  occ. eigenvalues --   -1.13673  -1.13657  -1.13646  -1.13636  -1.13604
  Beta  occ. eigenvalues --   -1.13179  -1.13138  -1.13126  -1.13118  -1.13011
  Beta  occ. eigenvalues --   -1.12971  -1.12918  -1.12883  -1.12851  -1.12818
  Beta  occ. eigenvalues --   -1.12806  -1.12790  -1.12506  -1.12483  -1.12455
  Beta  occ. eigenvalues --   -0.18078  -0.13023  -0.12003
  Beta virt. eigenvalues --   -0.07042  -0.05762  -0.04898  -0.04453  -0.02570
  Beta virt. eigenvalues --   -0.02094  -0.01681  -0.01527  -0.00915  -0.00383
  Beta virt. eigenvalues --   -0.00139   0.00120   0.00382   0.00868   0.00886

 Mulliken charges and spin densities:
               1          2
     1  Na   0.140251   0.040930
     2  Na   0.234368   0.078506
     3  Na  -0.583874   0.675804
     4  Na  -0.425924   0.198009
     5  Na   0.292426   0.066230
     6  Na   0.058891  -0.038475
     7  Na   0.283863  -0.021004
 Sum of Mulliken charges =  -0.00000   1.00000

 Dipole moment (field-independent basis, Debye):
    X=              0.0364    Y=              0.2930    Z=              0.1500  Tot=              0.3312
 Quadrupole moment (field-independent basis, Debye-Ang):
   XX=            -56.0356   YY=            -64.8246   ZZ=            -73.1789
   XY=              0.6437   XZ=              1.2342   YZ=             -0.1955

 Normal termination of Gaussian 16 at Thu Dec  7 18:21:21 2023.
