 Gaussian 16, Revision B.01,
 Gaussian 16:  ES64L-G16RevB.01 20-Dec-2017

 -------------------------
 #P B3LYP/6-311+g(d) force
 -------------------------

 -----
 DPGEN
 -----
 Symbolic Z-matrix:
 Charge =  0 Multiplicity = 2

                         Standard orientation:
 ---------------------------------------------------------------------
 Center     Atomic      Atomic             Coordinates (Angstroms)
 Number     Number       Type             X           Y           Z
 ---------------------------------------------------------------------
      1         11           0        0.223852   -2.984628    0.224124
      2         11           0        2.952987   -1.029782   -0.337284
      3         11           0        0.117860    0.031314    1.988649
      4         11           0       -2.399208    2.478364    0.031659
      5         11           0        2.284437    2.643524    0.023730
      6         11           0       -3.054699   -1.184479   -0.167739
      7         11           0       -0.125229    0.045686   -1.763140
 ---------------------------------------------------------------------

 SCF Done:  E(UB3LYP) =  -1136.13308463     A.U. after   21 cycles

 The electronic state is 2-A.
 Alpha  occ. eigenvalues --  -38.44450 -38.44298 -38.44178 -38.44039 -38.43594
 Alpha  occ. eigenvalues --  -38.43593 -38.43199  -2.20203  -2.20088  -2.19929
 Alpha  occ. eigenvalues --   -2.19863  -2.19470  -2.19449  -2.19045  -1.13882
 Alpha  occ. eigenvalues --   -1.13858  -1.13847  -1.13770  -1.13747  -1.13720
 Alpha  occ. eigenvalues --   -1.13605  -1.13583  -1.13579  -1.13542  -1.13528
 Alpha  occ. eigenvalues --   -1.13493  -1.13165  -1.13120  -1.13100  -1.13092
 Alpha  occ. eigenvalues --   -1.13075  -1.13069  -1.12717  -1.12706  -1.12689
 Alpha  occ. eigenvalues --   -0.17917  -0.12875  -0.12081  -0.10419
 Alpha virt. eigenvalues --   -0.06093  -0.05548  -0.04849  -0.03113  -0.02759
 Alpha virt. eigenvalues --   -0.02453  -0.01693  -0.01479  -0.00902  -0.00606
 Alpha virt. eigenvalues --   -0.00034   0.00339   0.00700   0.00749   0.00823

  Beta  occ. eigenvalues --  -38.44451 -38.44294 -38.44180 -38.44030 -38.43527
  Beta  occ. eigenvalues --  -38.43503 -38.43192  -2.20207  -2.20083  -2.19935
  Beta  occ. eigenvalues --   -2.19849  -2.19349  -2.19281  -2.19036  -1.13874
  Beta  occ. eigenvalues --   -1.13861  -1.13850  -1.13754  -1.13739  -1.13719
  Beta  occ. eigenvalues --   -1.13600  -1.13586  -1.13584  -1.13528  -1.13502
  Beta  occ. eigenvalues --   -1.13488  -1.13080  -1.13015  -1.13008  -1.13001
  Beta  occ. eigenvalues --   -1.12956  -1.12947  -1.12711  -1.12687  -1.12673
  Beta  occ. eigenvalues --   -0.17187  -0.12681  -0.11895
  Beta virt. eigenvalues --   -0.06549  -0.06130  -0.05407  -0.04815  -0.02389
  Beta virt. eigenvalues --   -0.02047  -0.01594  -0.01520  -0.01304  -0.00950
  Beta virt. eigenvalues --   -0.00646   0.00114   0.00371   0.00710   0.00813

 Mulliken charges and spin densities:
               1          2
     1  Na   0.138598  -0.001160
     2  Na   0.165872   0.005820
     3  Na  -0.242684   0.791475
     4  Na  -0.091451  -0.154598
     5  Na  -0.106071  -0.147566
     6  Na   0.104971  -0.057624
     7  Na   0.030764   0.563654
 Sum of Mulliken charges =  -0.00000   1.00000

 Dipole moment (field-independent basis, Debye):
    X=             -0.2506    Y=              0.2900    Z=             -0.0354  Tot=              0.3849
 Quadrupole moment (field-independent basis, Debye-Ang):
   XX=            -56.0089   YY=            -60.2239   ZZ=            -76.4153
   XY=             -0.0011   XZ=             -0.6209   YZ=              0.2020

 Normal termination of Gaussian 16 at Fri Dec  8 02:56:33 2023.
