 Gaussian 16, Revision B.01,
 Gaussian 16:  ES64L-G16RevB.01 20-Dec-2017

 -------------------------
 #P B3LYP/6-311+g(d) force
 -------------------------

 -----
 DPGEN
 -----
 Symbolic Z-matrix:
 Charge =  0 Multiplicity = 2

                         Standard orientation:
 ---------------------------------------------------------------------
 Center     Atomic      Atomic             Coordinates (Angstroms)
 Number     Number       Type             X           Y           Z
 ---------------------------------------------------------------------
      1         11           0        1.494827    0.635056    1.991706
      2         11           0       -3.263220   -1.163505   -0.911555
      3         11           0       -0.900726   -2.081771    1.494853
      4         11           0       -1.977718    1.560260    0.411999
      5         11           0        0.882369    3.361117   -0.515276
      6         11           0        3.083784   -2.050683   -0.688051
      7         11           0        0.680685   -0.260474   -1.783676
 ---------------------------------------------------------------------

 SCF Done:  E(UB3LYP) =  -1136.13068370     A.U. after   19 cycles

 The electronic state is 2-A.
 Alpha  occ. eigenvalues --  -38.44367 -38.44357 -38.43926 -38.43807 -38.43737
 Alpha  occ. eigenvalues --  -38.43687 -38.43451  -2.20173  -2.20169  -2.19778
 Alpha  occ. eigenvalues --   -2.19647  -2.19527  -2.19509  -2.19245  -1.13871
 Alpha  occ. eigenvalues --   -1.13837  -1.13829  -1.13810  -1.13787  -1.13772
 Alpha  occ. eigenvalues --   -1.13453  -1.13438  -1.13417  -1.13348  -1.13334
 Alpha  occ. eigenvalues --   -1.13279  -1.13192  -1.13181  -1.13163  -1.13163
 Alpha  occ. eigenvalues --   -1.13152  -1.13137  -1.12913  -1.12907  -1.12882
 Alpha  occ. eigenvalues --   -0.17653  -0.12721  -0.12098  -0.11321
 Alpha virt. eigenvalues --   -0.05578  -0.05185  -0.04975  -0.03355  -0.03056
 Alpha virt. eigenvalues --   -0.02921  -0.01472  -0.01302  -0.00839  -0.00114
 Alpha virt. eigenvalues --    0.00125   0.00283   0.00368   0.00689   0.00796

  Beta  occ. eigenvalues --  -38.44323 -38.44289 -38.43870 -38.43803 -38.43727
  Beta  occ. eigenvalues --  -38.43678 -38.43450  -2.20093  -2.20046  -2.19675
  Beta  occ. eigenvalues --   -2.19641  -2.19511  -2.19493  -2.19245  -1.13800
  Beta  occ. eigenvalues --   -1.13769  -1.13760  -1.13728  -1.13721  -1.13687
  Beta  occ. eigenvalues --   -1.13387  -1.13363  -1.13345  -1.13335  -1.13314
  Beta  occ. eigenvalues --   -1.13279  -1.13173  -1.13162  -1.13153  -1.13143
  Beta  occ. eigenvalues --   -1.13143  -1.13130  -1.12908  -1.12904  -1.12883
  Beta  occ. eigenvalues --   -0.16931  -0.12529  -0.11904
  Beta virt. eigenvalues --   -0.07459  -0.05407  -0.05042  -0.04621  -0.02909
  Beta virt. eigenvalues --   -0.02580  -0.02067  -0.01377  -0.01249  -0.00387
  Beta virt. eigenvalues --   -0.00123   0.00228   0.00344   0.00547   0.00735

 Mulliken charges and spin densities:
               1          2
     1  Na   0.042292   0.397021
     2  Na   0.423331  -0.067935
     3  Na  -0.162473   0.179986
     4  Na  -0.226826   0.152381
     5  Na   0.162259  -0.105636
     6  Na   0.011182  -0.109370
     7  Na  -0.249765   0.553552
 Sum of Mulliken charges =  -0.00000   1.00000

 Dipole moment (field-independent basis, Debye):
    X=              0.0040    Y=             -0.1685    Z=              0.1481  Tot=              0.2244
 Quadrupole moment (field-independent basis, Debye-Ang):
   XX=            -61.6151   YY=            -64.7668   ZZ=            -68.9881
   XY=              1.5338   XZ=              2.5574   YZ=             -1.1784

 Normal termination of Gaussian 16 at Mon Dec  4 05:23:19 2023.
