 Gaussian 16, Revision B.01,
 Gaussian 16:  ES64L-G16RevB.01 20-Dec-2017

 -------------------------
 #P B3LYP/6-311+g(d) force
 -------------------------

 -----
 DPGEN
 -----
 Symbolic Z-matrix:
 Charge =  0 Multiplicity = 2

                         Standard orientation:
 ---------------------------------------------------------------------
 Center     Atomic      Atomic             Coordinates (Angstroms)
 Number     Number       Type             X           Y           Z
 ---------------------------------------------------------------------
      1         11           0       -1.419479    1.476401    1.630295
      2         11           0        1.777602   -0.720851    1.701603
      3         11           0       -1.107196   -2.147513    0.820921
      4         11           0        2.487887   -1.534673   -1.297378
      5         11           0       -0.094561    0.738340   -1.773519
      6         11           0       -3.524113   -0.143155   -0.979318
      7         11           0        1.879861    2.331451   -0.102604
 ---------------------------------------------------------------------

 SCF Done:  E(UB3LYP) =  -1136.13074543     A.U. after   21 cycles

 The electronic state is 2-A.
 Alpha  occ. eigenvalues --  -38.44470 -38.44356 -38.44208 -38.43569 -38.43556
 Alpha  occ. eigenvalues --  -38.43292 -38.43051  -2.20289  -2.20154  -2.20043
 Alpha  occ. eigenvalues --   -2.19472  -2.19463  -2.19117  -2.18910  -1.13970
 Alpha  occ. eigenvalues --   -1.13937  -1.13905  -1.13825  -1.13805  -1.13781
 Alpha  occ. eigenvalues --   -1.13726  -1.13708  -1.13654  -1.13175  -1.13147
 Alpha  occ. eigenvalues --   -1.13126  -1.13118  -1.13097  -1.13090  -1.12816
 Alpha  occ. eigenvalues --   -1.12792  -1.12724  -1.12595  -1.12567  -1.12527
 Alpha  occ. eigenvalues --   -0.18320  -0.13246  -0.11737  -0.11421
 Alpha virt. eigenvalues --   -0.05734  -0.05275  -0.04459  -0.03294  -0.03068
 Alpha virt. eigenvalues --   -0.02998  -0.01624  -0.00936  -0.00602   0.00055
 Alpha virt. eigenvalues --    0.00294   0.00363   0.00385   0.00584   0.00756

  Beta  occ. eigenvalues --  -38.44422 -38.44338 -38.44174 -38.43536 -38.43509
  Beta  occ. eigenvalues --  -38.43283 -38.43050  -2.20202  -2.20120  -2.19981
  Beta  occ. eigenvalues --   -2.19407  -2.19385  -2.19103  -2.18910  -1.13908
  Beta  occ. eigenvalues --   -1.13869  -1.13843  -1.13793  -1.13783  -1.13761
  Beta  occ. eigenvalues --   -1.13681  -1.13664  -1.13610  -1.13117  -1.13104
  Beta  occ. eigenvalues --   -1.13074  -1.13070  -1.13040  -1.13026  -1.12801
  Beta  occ. eigenvalues --   -1.12766  -1.12719  -1.12591  -1.12562  -1.12517
  Beta  occ. eigenvalues --   -0.17541  -0.13027  -0.11255
  Beta virt. eigenvalues --   -0.07861  -0.05515  -0.04907  -0.04101  -0.03166
  Beta virt. eigenvalues --   -0.02430  -0.02118  -0.01517  -0.00655  -0.00441
  Beta virt. eigenvalues --    0.00176   0.00338   0.00396   0.00522   0.00675

 Mulliken charges and spin densities:
               1          2
     1  Na  -0.182881   0.199076
     2  Na   0.193555   0.338398
     3  Na  -0.268250   0.056650
     4  Na   0.114280  -0.073277
     5  Na  -0.427918   0.514187
     6  Na   0.324484  -0.038248
     7  Na   0.246729   0.003213
 Sum of Mulliken charges =  -0.00000   1.00000

 Dipole moment (field-independent basis, Debye):
    X=             -0.4901    Y=              0.0272    Z=             -0.0824  Tot=              0.4977
 Quadrupole moment (field-independent basis, Debye-Ang):
   XX=            -55.7570   YY=            -73.5069   ZZ=            -65.5976
   XY=             -0.2144   XZ=              0.2226   YZ=              4.8766

 Normal termination of Gaussian 16 at Thu Dec  7 16:40:25 2023.
