 Gaussian 16, Revision B.01,
 Gaussian 16:  ES64L-G16RevB.01 20-Dec-2017

 -------------------------
 #P B3LYP/6-311+g(d) force
 -------------------------

 -----
 DPGEN
 -----
 Symbolic Z-matrix:
 Charge =  0 Multiplicity = 2

                         Standard orientation:
 ---------------------------------------------------------------------
 Center     Atomic      Atomic             Coordinates (Angstroms)
 Number     Number       Type             X           Y           Z
 ---------------------------------------------------------------------
      1         11           0       -2.918414   -1.621046    0.236120
      2         11           0        1.988435   -2.123038   -0.153599
      3         11           0        3.599181    0.623122    0.110538
      4         11           0       -0.210203   -0.040082    2.127825
      5         11           0       -0.649539   -0.764439   -1.709038
      6         11           0       -2.580681    1.874894   -0.121043
      7         11           0        0.771220    2.050590   -0.490804
 ---------------------------------------------------------------------

 SCF Done:  E(UB3LYP) =  -1136.12569658     A.U. after   21 cycles

 The electronic state is 2-A.
 Alpha  occ. eigenvalues --  -38.45112 -38.44439 -38.44176 -38.44006 -38.43715
 Alpha  occ. eigenvalues --  -38.43448 -38.42648  -2.20936  -2.20276  -2.20032
 Alpha  occ. eigenvalues --   -2.19844  -2.19555  -2.19389  -2.18553  -1.14609
 Alpha  occ. eigenvalues --   -1.14596  -1.14582  -1.13977  -1.13925  -1.13916
 Alpha  occ. eigenvalues --   -1.13703  -1.13656  -1.13648  -1.13513  -1.13501
 Alpha  occ. eigenvalues --   -1.13490  -1.13245  -1.13215  -1.13199  -1.13062
 Alpha  occ. eigenvalues --   -1.13039  -1.12993  -1.12248  -1.12219  -1.12182
 Alpha  occ. eigenvalues --   -0.18593  -0.13890  -0.11481  -0.10928
 Alpha virt. eigenvalues --   -0.06780  -0.05668  -0.03763  -0.03356  -0.02835
 Alpha virt. eigenvalues --   -0.02492  -0.02265  -0.01397  -0.00445  -0.00176
 Alpha virt. eigenvalues --    0.00098   0.00216   0.00520   0.00645   0.00743

  Beta  occ. eigenvalues --  -38.45116 -38.44433 -38.44079 -38.44003 -38.43711
  Beta  occ. eigenvalues --  -38.43384 -38.42633  -2.20945  -2.20270  -2.19854
  Beta  occ. eigenvalues --   -2.19839  -2.19550  -2.19272  -2.18530  -1.14618
  Beta  occ. eigenvalues --   -1.14601  -1.14579  -1.13966  -1.13916  -1.13901
  Beta  occ. eigenvalues --   -1.13584  -1.13532  -1.13522  -1.13502  -1.13492
  Beta  occ. eigenvalues --   -1.13479  -1.13235  -1.13202  -1.13194  -1.12984
  Beta  occ. eigenvalues --   -1.12958  -1.12906  -1.12235  -1.12173  -1.12170
  Beta  occ. eigenvalues --   -0.17851  -0.13733  -0.11252
  Beta virt. eigenvalues --   -0.06978  -0.06628  -0.05693  -0.03401  -0.02951
  Beta virt. eigenvalues --   -0.02260  -0.01859  -0.01579  -0.01313  -0.00493
  Beta virt. eigenvalues --    0.00017   0.00095   0.00242   0.00683   0.00722

 Mulliken charges and spin densities:
               1          2
     1  Na   0.225572   0.020251
     2  Na   0.218183   0.167043
     3  Na  -0.017909  -0.106390
     4  Na  -0.465912   0.581383
     5  Na   0.027474   0.106612
     6  Na   0.093439   0.044115
     7  Na  -0.080847   0.186986
 Sum of Mulliken charges =  -0.00000   1.00000

 Dipole moment (field-independent basis, Debye):
    X=              0.0774    Y=             -0.0603    Z=              0.3569  Tot=              0.3702
 Quadrupole moment (field-independent basis, Debye-Ang):
   XX=            -47.0461   YY=            -72.9371   ZZ=            -73.4932
   XY=              0.2406   XZ=             -0.0927   YZ=             -1.0276

 Normal termination of Gaussian 16 at Wed Nov 29 16:31:36 2023.
