 Gaussian 16, Revision B.01,
 Gaussian 16:  ES64L-G16RevB.01 20-Dec-2017

 -------------------------
 #P B3LYP/6-311+g(d) force
 -------------------------

 -----
 DPGEN
 -----
 Symbolic Z-matrix:
 Charge =  0 Multiplicity = 2

                         Standard orientation:
 ---------------------------------------------------------------------
 Center     Atomic      Atomic             Coordinates (Angstroms)
 Number     Number       Type             X           Y           Z
 ---------------------------------------------------------------------
      1         11           0        1.616784    1.998654   -0.743565
      2         11           0       -1.610360    3.017230   -0.034330
      3         11           0        3.026089   -0.591063    0.990747
      4         11           0        1.186737   -1.774976   -2.162588
      5         11           0       -1.992019   -2.421141    0.912434
      6         11           0       -0.002591    0.085835    2.178369
      7         11           0       -2.224641   -0.314539   -1.141067
 ---------------------------------------------------------------------

 SCF Done:  E(UB3LYP) =  -1136.12694811     A.U. after   20 cycles

 The electronic state is 2-A.
 Alpha  occ. eigenvalues --  -38.44946 -38.44612 -38.43988 -38.43843 -38.43788
 Alpha  occ. eigenvalues --  -38.43725 -38.42921  -2.20724  -2.20471  -2.19804
 Alpha  occ. eigenvalues --   -2.19712  -2.19635  -2.19550  -2.18724  -1.14391
 Alpha  occ. eigenvalues --   -1.14354  -1.14335  -1.14137  -1.14107  -1.14097
 Alpha  occ. eigenvalues --   -1.13528  -1.13489  -1.13484  -1.13426  -1.13376
 Alpha  occ. eigenvalues --   -1.13343  -1.13284  -1.13256  -1.13231  -1.13217
 Alpha  occ. eigenvalues --   -1.13202  -1.13184  -1.12394  -1.12383  -1.12374
 Alpha  occ. eigenvalues --   -0.17764  -0.12844  -0.12039  -0.11838
 Alpha virt. eigenvalues --   -0.05518  -0.05205  -0.04654  -0.03766  -0.03449
 Alpha virt. eigenvalues --   -0.03098  -0.01146  -0.00979  -0.00622  -0.00103
 Alpha virt. eigenvalues --    0.00084   0.00319   0.00545   0.00585   0.00751

  Beta  occ. eigenvalues --  -38.44863 -38.44530 -38.43981 -38.43831 -38.43782
  Beta  occ. eigenvalues --  -38.43718 -38.42924  -2.20569  -2.20320  -2.19792
  Beta  occ. eigenvalues --   -2.19690  -2.19625  -2.19541  -2.18732  -1.14279
  Beta  occ. eigenvalues --   -1.14253  -1.14228  -1.14042  -1.13996  -1.13986
  Beta  occ. eigenvalues --   -1.13519  -1.13478  -1.13465  -1.13424  -1.13357
  Beta  occ. eigenvalues --   -1.13320  -1.13264  -1.13247  -1.13213  -1.13209
  Beta  occ. eigenvalues --   -1.13199  -1.13168  -1.12393  -1.12388  -1.12380
  Beta  occ. eigenvalues --   -0.17021  -0.12735  -0.11767
  Beta virt. eigenvalues --   -0.07979  -0.05234  -0.04888  -0.04422  -0.03198
  Beta virt. eigenvalues --   -0.02931  -0.02381  -0.01093  -0.00921  -0.00265
  Beta virt. eigenvalues --   -0.00016   0.00181   0.00429   0.00632   0.00775

 Mulliken charges and spin densities:
               1          2
     1  Na  -0.255332   0.212965
     2  Na   0.131416  -0.190968
     3  Na   0.022131  -0.048206
     4  Na  -0.023565   0.293226
     5  Na   0.080291  -0.160327
     6  Na   0.278516   0.476707
     7  Na  -0.233458   0.416603
 Sum of Mulliken charges =  -0.00000   1.00000

 Dipole moment (field-independent basis, Debye):
    X=              0.4366    Y=             -0.5441    Z=             -0.0019  Tot=              0.6976
 Quadrupole moment (field-independent basis, Debye-Ang):
   XX=            -65.0169   YY=            -67.5520   ZZ=            -65.6457
   XY=             -0.1978   XZ=             -0.8823   YZ=              0.1818

 Normal termination of Gaussian 16 at Mon Dec  4 03:41:10 2023.
