 Gaussian 16, Revision B.01,
 Gaussian 16:  ES64L-G16RevB.01 20-Dec-2017

 -------------------------
 #P B3LYP/6-311+g(d) force
 -------------------------

 -----
 DPGEN
 -----
 Symbolic Z-matrix:
 Charge =  0 Multiplicity = 2

                         Standard orientation:
 ---------------------------------------------------------------------
 Center     Atomic      Atomic             Coordinates (Angstroms)
 Number     Number       Type             X           Y           Z
 ---------------------------------------------------------------------
      1         11           0       -2.549535    1.212516   -0.233256
      2         11           0        1.110986    0.642327    0.933062
      3         11           0        2.429933   -2.428581    0.141287
      4         11           0       -1.029085   -1.474191   -0.779237
      5         11           0       -4.270247   -1.604961    0.373701
      6         11           0        4.033864   -0.290661   -0.282293
      7         11           0        0.274084    3.943551   -0.153262
 ---------------------------------------------------------------------

 SCF Done:  E(UB3LYP) =  -1136.11822335     A.U. after   18 cycles

 The electronic state is 2-A.
 Alpha  occ. eigenvalues --  -38.44400 -38.44323 -38.44118 -38.43985 -38.43780
 Alpha  occ. eigenvalues --  -38.43659 -38.43403  -2.20330  -2.20177  -2.20046
 Alpha  occ. eigenvalues --   -2.19877  -2.19614  -2.19420  -2.19317  -1.14277
 Alpha  occ. eigenvalues --   -1.13970  -1.13940  -1.13914  -1.13874  -1.13752
 Alpha  occ. eigenvalues --   -1.13676  -1.13641  -1.13590  -1.13576  -1.13567
 Alpha  occ. eigenvalues --   -1.13462  -1.13271  -1.13264  -1.13232  -1.13095
 Alpha  occ. eigenvalues --   -1.13088  -1.13049  -1.13013  -1.12983  -1.12906
 Alpha  occ. eigenvalues --   -0.17633  -0.14568  -0.12163  -0.10159
 Alpha virt. eigenvalues --   -0.05964  -0.05635  -0.05156  -0.03295  -0.02919
 Alpha virt. eigenvalues --   -0.02007  -0.01844  -0.01311  -0.01122  -0.00493
 Alpha virt. eigenvalues --   -0.00093  -0.00009   0.00478   0.00582   0.00645

  Beta  occ. eigenvalues --  -38.44384 -38.44316 -38.44052 -38.43969 -38.43729
  Beta  occ. eigenvalues --  -38.43665 -38.43353  -2.20310  -2.20167  -2.19924
  Beta  occ. eigenvalues --   -2.19853  -2.19518  -2.19432  -2.19229  -1.14230
  Beta  occ. eigenvalues --   -1.13965  -1.13902  -1.13891  -1.13869  -1.13730
  Beta  occ. eigenvalues --   -1.13611  -1.13561  -1.13545  -1.13519  -1.13507
  Beta  occ. eigenvalues --   -1.13452  -1.13201  -1.13195  -1.13174  -1.13103
  Beta  occ. eigenvalues --   -1.13097  -1.13056  -1.12954  -1.12926  -1.12819
  Beta  occ. eigenvalues --   -0.16959  -0.14074  -0.12001
  Beta virt. eigenvalues --   -0.06541  -0.05783  -0.05337  -0.04874  -0.02818
  Beta virt. eigenvalues --   -0.02678  -0.01858  -0.01554  -0.01189  -0.00825
  Beta virt. eigenvalues --   -0.00223   0.00223   0.00254   0.00575   0.00688

 Mulliken charges and spin densities:
               1          2
     1  Na  -0.321891   0.214479
     2  Na  -0.505583   0.096932
     3  Na   0.471586   0.167000
     4  Na  -0.504229   0.002833
     5  Na   0.481731   0.286612
     6  Na   0.190526   0.307415
     7  Na   0.187860  -0.075270
 Sum of Mulliken charges =  -0.00000   1.00000

 Dipole moment (field-independent basis, Debye):
    X=             -0.1228    Y=             -0.5262    Z=             -0.1579  Tot=              0.5630
 Quadrupole moment (field-independent basis, Debye-Ang):
   XX=            -70.5695   YY=            -60.7490   ZZ=            -69.0880
   XY=              0.5056   XZ=             -2.0086   YZ=             -2.6266

 Normal termination of Gaussian 16 at Wed Nov 29 01:26:53 2023.
