 Gaussian 16, Revision B.01,
 Gaussian 16:  ES64L-G16RevB.01 20-Dec-2017

 -------------------------
 #P B3LYP/6-311+g(d) force
 -------------------------

 -----
 DPGEN
 -----
 Symbolic Z-matrix:
 Charge =  0 Multiplicity = 2

                         Standard orientation:
 ---------------------------------------------------------------------
 Center     Atomic      Atomic             Coordinates (Angstroms)
 Number     Number       Type             X           Y           Z
 ---------------------------------------------------------------------
      1         11           0        5.223854   -0.078585    1.817901
      2         11           0       -3.157921   -0.467841    0.431194
      3         11           0       -0.336001    1.803933   -1.126606
      4         11           0       -2.583032    3.636588    0.614498
      5         11           0        0.475012   -0.946667   -1.504873
      6         11           0       -4.047092   -3.169211    0.611886
      7         11           0        4.425181   -0.778217   -0.844000
 ---------------------------------------------------------------------

 SCF Done:  E(UB3LYP) =  -1136.10442164     A.U. after   23 cycles

 The electronic state is 2-A.
 Alpha  occ. eigenvalues --  -38.45515 -38.44991 -38.44953 -38.44530 -38.44129
 Alpha  occ. eigenvalues --  -38.43151 -38.42849  -2.21370  -2.20825  -2.20754
 Alpha  occ. eigenvalues --   -2.20351  -2.19994  -2.19014  -2.18680  -1.15101
 Alpha  occ. eigenvalues --   -1.14989  -1.14946  -1.14587  -1.14449  -1.14446
 Alpha  occ. eigenvalues --   -1.14396  -1.14394  -1.14371  -1.14006  -1.13999
 Alpha  occ. eigenvalues --   -1.13978  -1.13709  -1.13648  -1.13617  -1.12789
 Alpha  occ. eigenvalues --   -1.12680  -1.12668  -1.12313  -1.12311  -1.12293
 Alpha  occ. eigenvalues --   -0.16494  -0.14218  -0.12102  -0.11824
 Alpha virt. eigenvalues --   -0.06259  -0.05008  -0.04441  -0.03986  -0.03152
 Alpha virt. eigenvalues --   -0.02560  -0.02067  -0.01337  -0.01334  -0.01132
 Alpha virt. eigenvalues --   -0.00517  -0.00180   0.00040   0.00316   0.00606

  Beta  occ. eigenvalues --  -38.45417 -38.44945 -38.44867 -38.44535 -38.44123
  Beta  occ. eigenvalues --  -38.43144 -38.42853  -2.21191  -2.20739  -2.20594
  Beta  occ. eigenvalues --   -2.20366  -2.19992  -2.19000  -2.18688  -1.14979
  Beta  occ. eigenvalues --   -1.14867  -1.14822  -1.14535  -1.14391  -1.14387
  Beta  occ. eigenvalues --   -1.14287  -1.14284  -1.14266  -1.14015  -1.14006
  Beta  occ. eigenvalues --   -1.13964  -1.13677  -1.13655  -1.13586  -1.12785
  Beta  occ. eigenvalues --   -1.12671  -1.12653  -1.12319  -1.12315  -1.12295
  Beta  occ. eigenvalues --   -0.15672  -0.13683  -0.11659
  Beta virt. eigenvalues --   -0.08535  -0.05789  -0.04832  -0.04010  -0.03658
  Beta virt. eigenvalues --   -0.02742  -0.02343  -0.01837  -0.01218  -0.01039
  Beta virt. eigenvalues --   -0.00807  -0.00218   0.00034   0.00158   0.00364

 Mulliken charges and spin densities:
               1          2
     1  Na   0.322005   0.136355
     2  Na  -0.993801   0.051393
     3  Na   0.226635   0.073732
     4  Na   1.403423   0.228388
     5  Na  -0.563582   0.361296
     6  Na  -0.050724   0.113561
     7  Na  -0.343956   0.035275
 Sum of Mulliken charges =  -0.00000   1.00000

 Dipole moment (field-independent basis, Debye):
    X=              1.8323    Y=              0.9949    Z=              0.2231  Tot=              2.0969
 Quadrupole moment (field-independent basis, Debye-Ang):
   XX=            -70.5983   YY=            -63.5883   ZZ=            -65.4185
   XY=             -4.9194   XZ=              1.6227   YZ=              5.6720

 Normal termination of Gaussian 16 at Sun Dec  3 14:26:06 2023.
