 Gaussian 16, Revision B.01,
 Gaussian 16:  ES64L-G16RevB.01 20-Dec-2017

 -------------------------
 #P B3LYP/6-311+g(d) force
 -------------------------

 -----
 DPGEN
 -----
 Symbolic Z-matrix:
 Charge =  0 Multiplicity = 2

                         Standard orientation:
 ---------------------------------------------------------------------
 Center     Atomic      Atomic             Coordinates (Angstroms)
 Number     Number       Type             X           Y           Z
 ---------------------------------------------------------------------
      1         11           0        0.796358    3.031638    0.043330
      2         11           0        3.091118    0.539852   -0.143825
      3         11           0       -2.478156    1.754010   -0.376738
      4         11           0       -3.343493   -1.586176    0.168832
      5         11           0       -0.044418   -0.332407   -1.400832
      6         11           0        0.330412   -0.425552    2.153945
      7         11           0        1.648181   -2.981365   -0.444712
 ---------------------------------------------------------------------

 SCF Done:  E(UB3LYP) =  -1136.13084562     A.U. after   20 cycles

 The electronic state is 2-A.
 Alpha  occ. eigenvalues --  -38.44738 -38.44532 -38.43860 -38.43847 -38.43710
 Alpha  occ. eigenvalues --  -38.43269 -38.43197  -2.20494  -2.20356  -2.19676
 Alpha  occ. eigenvalues --   -2.19665  -2.19546  -2.19205  -2.19019  -1.14166
 Alpha  occ. eigenvalues --   -1.14152  -1.14134  -1.14041  -1.14025  -1.13980
 Alpha  occ. eigenvalues --   -1.13374  -1.13351  -1.13342  -1.13315  -1.13300
 Alpha  occ. eigenvalues --   -1.13295  -1.13213  -1.13166  -1.13161  -1.12906
 Alpha  occ. eigenvalues --   -1.12844  -1.12832  -1.12689  -1.12678  -1.12673
 Alpha  occ. eigenvalues --   -0.17956  -0.13099  -0.12161  -0.10322
 Alpha virt. eigenvalues --   -0.06387  -0.05327  -0.04833  -0.03046  -0.02670
 Alpha virt. eigenvalues --   -0.02363  -0.01972  -0.01450  -0.00854  -0.00511
 Alpha virt. eigenvalues --   -0.00048   0.00287   0.00677   0.00709   0.00749

  Beta  occ. eigenvalues --  -38.44739 -38.44527 -38.43848 -38.43839 -38.43607
  Beta  occ. eigenvalues --  -38.43224 -38.43197  -2.20498  -2.20349  -2.19664
  Beta  occ. eigenvalues --   -2.19645  -2.19354  -2.19125  -2.19021  -1.14165
  Beta  occ. eigenvalues --   -1.14150  -1.14138  -1.14034  -1.14001  -1.13977
  Beta  occ. eigenvalues --   -1.13360  -1.13331  -1.13326  -1.13290  -1.13289
  Beta  occ. eigenvalues --   -1.13288  -1.13083  -1.13035  -1.13023  -1.12841
  Beta  occ. eigenvalues --   -1.12785  -1.12773  -1.12690  -1.12681  -1.12659
  Beta  occ. eigenvalues --   -0.17288  -0.12915  -0.11955
  Beta virt. eigenvalues --   -0.06555  -0.06203  -0.05215  -0.04805  -0.02425
  Beta virt. eigenvalues --   -0.02018  -0.01848  -0.01374  -0.01275  -0.00902
  Beta virt. eigenvalues --   -0.00523   0.00135   0.00341   0.00693   0.00795

 Mulliken charges and spin densities:
               1          2
     1  Na  -0.102764  -0.003641
     2  Na   0.273636   0.049464
     3  Na   0.207825   0.039938
     4  Na   0.037047   0.000471
     5  Na  -0.011262   0.156171
     6  Na  -0.496796   0.734503
     7  Na   0.092314   0.023094
 Sum of Mulliken charges =  -0.00000   1.00000

 Dipole moment (field-independent basis, Debye):
    X=             -0.1218    Y=             -0.4801    Z=              0.0779  Tot=              0.5014
 Quadrupole moment (field-independent basis, Debye-Ang):
   XX=            -54.3415   YY=            -60.9107   ZZ=            -77.1845
   XY=              1.2822   XZ=             -0.8181   YZ=             -0.0486

 Normal termination of Gaussian 16 at Fri Dec  8 01:27:20 2023.
