 Gaussian 16, Revision B.01,
 Gaussian 16:  ES64L-G16RevB.01 20-Dec-2017

 -------------------------
 #P B3LYP/6-311+g(d) force
 -------------------------

 -----
 DPGEN
 -----
 Symbolic Z-matrix:
 Charge =  0 Multiplicity = 2

                         Standard orientation:
 ---------------------------------------------------------------------
 Center     Atomic      Atomic             Coordinates (Angstroms)
 Number     Number       Type             X           Y           Z
 ---------------------------------------------------------------------
      1         11           0        3.235864   -0.417265    1.774457
      2         11           0        2.034644    1.804037   -1.575509
      3         11           0       -0.842381   -0.605039    1.563456
      4         11           0       -3.688915    0.908561    0.077311
      5         11           0       -1.982834   -2.529602   -0.672617
      6         11           0        1.713239   -1.878299   -1.289989
      7         11           0       -0.469617    2.717608    0.122890
 ---------------------------------------------------------------------

 SCF Done:  E(UB3LYP) =  -1136.12289142     A.U. after   21 cycles

 The electronic state is 2-A.
 Alpha  occ. eigenvalues --  -38.45068 -38.44575 -38.44459 -38.44014 -38.43831
 Alpha  occ. eigenvalues --  -38.43777 -38.43292  -2.20837  -2.20358  -2.20312
 Alpha  occ. eigenvalues --   -2.19798  -2.19646  -2.19597  -2.19112  -1.14521
 Alpha  occ. eigenvalues --   -1.14484  -1.14473  -1.14012  -1.14007  -1.14002
 Alpha  occ. eigenvalues --   -1.13992  -1.13972  -1.13918  -1.13481  -1.13458
 Alpha  occ. eigenvalues --   -1.13429  -1.13331  -1.13305  -1.13287  -1.13259
 Alpha  occ. eigenvalues --   -1.13251  -1.13215  -1.12793  -1.12787  -1.12738
 Alpha  occ. eigenvalues --   -0.17206  -0.13396  -0.12119  -0.10737
 Alpha virt. eigenvalues --   -0.06536  -0.05618  -0.04797  -0.03429  -0.02804
 Alpha virt. eigenvalues --   -0.02387  -0.02263  -0.01083  -0.00668  -0.00545
 Alpha virt. eigenvalues --   -0.00264   0.00156   0.00303   0.00413   0.00738

  Beta  occ. eigenvalues --  -38.45070 -38.44492 -38.44436 -38.43993 -38.43816
  Beta  occ. eigenvalues --  -38.43734 -38.43292  -2.20842  -2.20269  -2.20203
  Beta  occ. eigenvalues --   -2.19762  -2.19618  -2.19519  -2.19114  -1.14521
  Beta  occ. eigenvalues --   -1.14487  -1.14480  -1.13975  -1.13966  -1.13900
  Beta  occ. eigenvalues --   -1.13893  -1.13882  -1.13870  -1.13452  -1.13425
  Beta  occ. eigenvalues --   -1.13402  -1.13315  -1.13285  -1.13235  -1.13235
  Beta  occ. eigenvalues --   -1.13191  -1.13164  -1.12797  -1.12778  -1.12733
  Beta  occ. eigenvalues --   -0.16754  -0.13066  -0.11818
  Beta virt. eigenvalues --   -0.07149  -0.06389  -0.05351  -0.04282  -0.03273
  Beta virt. eigenvalues --   -0.02377  -0.02039  -0.01579  -0.00933  -0.00618
  Beta virt. eigenvalues --   -0.00252  -0.00197   0.00298   0.00402   0.00586

 Mulliken charges and spin densities:
               1          2
     1  Na  -0.007220   0.363560
     2  Na   0.304731   0.171840
     3  Na   0.628753   0.225343
     4  Na   0.176788  -0.063940
     5  Na  -0.118336   0.076076
     6  Na  -0.410671   0.256539
     7  Na  -0.574045  -0.029419
 Sum of Mulliken charges =  -0.00000   1.00000

 Dipole moment (field-independent basis, Debye):
    X=             -0.9674    Y=             -0.1411    Z=             -0.2245  Tot=              1.0031
 Quadrupole moment (field-independent basis, Debye-Ang):
   XX=            -52.7790   YY=            -72.4895   ZZ=            -71.0382
   XY=             -0.5785   XZ=              1.1370   YZ=              1.7058

 Normal termination of Gaussian 16 at Sun Dec  3 19:52:30 2023.
