 Gaussian 16, Revision B.01,
 Gaussian 16:  ES64L-G16RevB.01 20-Dec-2017

 -------------------------
 #P B3LYP/6-311+g(d) force
 -------------------------

 -----
 DPGEN
 -----
 Symbolic Z-matrix:
 Charge =  0 Multiplicity = 2

                         Standard orientation:
 ---------------------------------------------------------------------
 Center     Atomic      Atomic             Coordinates (Angstroms)
 Number     Number       Type             X           Y           Z
 ---------------------------------------------------------------------
      1         11           0       -0.401879   -0.015453   -1.646893
      2         11           0        1.029601    2.896665   -0.204367
      3         11           0       -2.644446    1.323106    0.768080
      4         11           0        1.676882   -2.769008    0.542090
      5         11           0        1.000391    0.199370    1.683320
      6         11           0       -4.083594   -1.405382   -0.385874
      7         11           0        3.423046   -0.229297   -0.756355
 ---------------------------------------------------------------------

 SCF Done:  E(UB3LYP) =  -1136.12437082     A.U. after   22 cycles

 The electronic state is 2-A.
 Alpha  occ. eigenvalues --  -38.44850 -38.44688 -38.44370 -38.44244 -38.43384
 Alpha  occ. eigenvalues --  -38.43246 -38.42902  -2.20678  -2.20517  -2.20141
 Alpha  occ. eigenvalues --   -2.20064  -2.19226  -2.19188  -2.18737  -1.14358
 Alpha  occ. eigenvalues --   -1.14330  -1.14302  -1.14221  -1.14173  -1.14118
 Alpha  occ. eigenvalues --   -1.13829  -1.13805  -1.13786  -1.13745  -1.13734
 Alpha  occ. eigenvalues --   -1.13656  -1.12942  -1.12877  -1.12868  -1.12862
 Alpha  occ. eigenvalues --   -1.12846  -1.12768  -1.12417  -1.12397  -1.12374
 Alpha  occ. eigenvalues --   -0.17926  -0.13655  -0.11629  -0.10373
 Alpha virt. eigenvalues --   -0.06800  -0.05344  -0.04511  -0.03343  -0.02648
 Alpha virt. eigenvalues --   -0.02397  -0.02141  -0.01431  -0.00736  -0.00380
 Alpha virt. eigenvalues --   -0.00245   0.00181   0.00368   0.00685   0.00768

  Beta  occ. eigenvalues --  -38.44826 -38.44641 -38.44371 -38.44232 -38.43370
  Beta  occ. eigenvalues --  -38.43177 -38.42900  -2.20634  -2.20432  -2.20143
  Beta  occ. eigenvalues --   -2.20042  -2.19202  -2.19063  -2.18736  -1.14321
  Beta  occ. eigenvalues --   -1.14302  -1.14263  -1.14156  -1.14117  -1.14049
  Beta  occ. eigenvalues --   -1.13830  -1.13804  -1.13784  -1.13723  -1.13722
  Beta  occ. eigenvalues --   -1.13639  -1.12904  -1.12858  -1.12841  -1.12785
  Beta  occ. eigenvalues --   -1.12758  -1.12681  -1.12413  -1.12396  -1.12353
  Beta  occ. eigenvalues --   -0.17246  -0.13510  -0.11411
  Beta virt. eigenvalues --   -0.06721  -0.06502  -0.05135  -0.04411  -0.02892
  Beta virt. eigenvalues --   -0.02287  -0.01940  -0.01418  -0.01282  -0.00662
  Beta virt. eigenvalues --   -0.00232  -0.00081   0.00222   0.00527   0.00736

 Mulliken charges and spin densities:
               1          2
     1  Na  -0.097714   0.415699
     2  Na  -0.196590   0.002126
     3  Na  -0.069883  -0.000632
     4  Na  -0.087715   0.000614
     5  Na   0.296211   0.376172
     6  Na   0.040827  -0.012783
     7  Na   0.114865   0.218802
 Sum of Mulliken charges =  -0.00000   1.00000

 Dipole moment (field-independent basis, Debye):
    X=             -0.0513    Y=             -0.1287    Z=             -0.2867  Tot=              0.3185
 Quadrupole moment (field-independent basis, Debye-Ang):
   XX=            -54.4892   YY=            -65.1601   ZZ=            -74.6773
   XY=              3.0465   XZ=             -2.2450   YZ=              1.2806

 Normal termination of Gaussian 16 at Thu Dec  7 03:42:22 2023.
