 Gaussian 16, Revision B.01,
 Gaussian 16:  ES64L-G16RevB.01 20-Dec-2017

 -------------------------
 #P B3LYP/6-311+g(d) force
 -------------------------

 -----
 DPGEN
 -----
 Symbolic Z-matrix:
 Charge =  0 Multiplicity = 2

                         Standard orientation:
 ---------------------------------------------------------------------
 Center     Atomic      Atomic             Coordinates (Angstroms)
 Number     Number       Type             X           Y           Z
 ---------------------------------------------------------------------
      1         11           0       -5.199647   -0.370314   -1.135487
      2         11           0        0.643046    2.341044    1.163568
      3         11           0        3.868913   -2.106424   -0.268388
      4         11           0        3.625589    1.579188   -0.961492
      5         11           0       -2.976802   -0.405283    1.621698
      6         11           0       -1.282282    0.323260   -1.249958
      7         11           0        1.321183   -1.361472    0.830060
 ---------------------------------------------------------------------

 SCF Done:  E(UB3LYP) =  -1136.11149518     A.U. after   24 cycles

 The electronic state is 2-A.
 Alpha  occ. eigenvalues --  -38.45980 -38.45725 -38.44679 -38.43864 -38.43580
 Alpha  occ. eigenvalues --  -38.43302 -38.42621  -2.21768  -2.21503  -2.20467
 Alpha  occ. eigenvalues --   -2.19656  -2.19482  -2.19091  -2.18474  -1.15473
 Alpha  occ. eigenvalues --   -1.15449  -1.15358  -1.15192  -1.15168  -1.15118
 Alpha  occ. eigenvalues --   -1.14141  -1.14098  -1.14070  -1.13316  -1.13314
 Alpha  occ. eigenvalues --   -1.13269  -1.13184  -1.13162  -1.13103  -1.12783
 Alpha  occ. eigenvalues --   -1.12752  -1.12730  -1.12172  -1.12113  -1.12091
 Alpha  occ. eigenvalues --   -0.17035  -0.14217  -0.11139  -0.10821
 Alpha virt. eigenvalues --   -0.06932  -0.05801  -0.04758  -0.03179  -0.02996
 Alpha virt. eigenvalues --   -0.02420  -0.02249  -0.01625  -0.01209  -0.00502
 Alpha virt. eigenvalues --   -0.00247  -0.00112   0.00196   0.00244   0.00491

  Beta  occ. eigenvalues --  -38.45980 -38.45726 -38.44592 -38.43815 -38.43530
  Beta  occ. eigenvalues --  -38.43306 -38.42620  -2.21770  -2.21506  -2.20305
  Beta  occ. eigenvalues --   -2.19563  -2.19391  -2.19102  -2.18475  -1.15465
  Beta  occ. eigenvalues --   -1.15445  -1.15364  -1.15195  -1.15174  -1.15099
  Beta  occ. eigenvalues --   -1.14030  -1.13991  -1.13955  -1.13252  -1.13250
  Beta  occ. eigenvalues --   -1.13211  -1.13118  -1.13096  -1.13040  -1.12793
  Beta  occ. eigenvalues --   -1.12760  -1.12717  -1.12164  -1.12116  -1.12083
  Beta  occ. eigenvalues --   -0.16510  -0.13769  -0.10867
  Beta virt. eigenvalues --   -0.07382  -0.06840  -0.05132  -0.04462  -0.02938
  Beta virt. eigenvalues --   -0.02693  -0.01950  -0.01909  -0.01362  -0.01169
  Beta virt. eigenvalues --   -0.00283  -0.00087   0.00095   0.00300   0.00403

 Mulliken charges and spin densities:
               1          2
     1  Na   0.372253   0.264314
     2  Na  -0.013914   0.096960
     3  Na   0.915931   0.061522
     4  Na   0.034998   0.481210
     5  Na   0.181445  -0.031700
     6  Na  -0.410856  -0.098496
     7  Na  -1.079856   0.226190
 Sum of Mulliken charges =  -0.00000   1.00000

 Dipole moment (field-independent basis, Debye):
    X=             -1.4870    Y=              0.6596    Z=              0.1486  Tot=              1.6335
 Quadrupole moment (field-independent basis, Debye-Ang):
   XX=            -69.2587   YY=            -77.0405   ZZ=            -59.6954
   XY=              2.6941   XZ=             -4.3444   YZ=             -0.3294

 Normal termination of Gaussian 16 at Sun Dec  3 13:02:09 2023.
