 Gaussian 16, Revision B.01,
 Gaussian 16:  ES64L-G16RevB.01 20-Dec-2017

 -------------------------
 #P B3LYP/6-311+g(d) force
 -------------------------

 -----
 DPGEN
 -----
 Symbolic Z-matrix:
 Charge =  0 Multiplicity = 2

                         Standard orientation:
 ---------------------------------------------------------------------
 Center     Atomic      Atomic             Coordinates (Angstroms)
 Number     Number       Type             X           Y           Z
 ---------------------------------------------------------------------
      1         11           0        1.533471   -2.163312   -0.568760
      2         11           0       -5.374071   -0.454726    0.203311
      3         11           0       -2.562883   -1.383480   -0.198917
      4         11           0       -2.771002    2.363600   -0.150997
      5         11           0        0.199360    1.125334   -0.092488
      6         11           0        3.262883   -0.296053    1.453288
      7         11           0        5.712241    0.808637   -0.645438
 ---------------------------------------------------------------------

 SCF Done:  E(UB3LYP) =  -1136.11303215     A.U. after   26 cycles

 The electronic state is 2-A.
 Alpha  occ. eigenvalues --  -38.44954 -38.44546 -38.44449 -38.44123 -38.43950
 Alpha  occ. eigenvalues --  -38.43662 -38.43504  -2.20793  -2.20372  -2.20313
 Alpha  occ. eigenvalues --   -2.19959  -2.19814  -2.19505  -2.19260  -1.14468
 Alpha  occ. eigenvalues --   -1.14455  -1.14384  -1.14058  -1.14024  -1.14001
 Alpha  occ. eigenvalues --   -1.13979  -1.13968  -1.13966  -1.13658  -1.13622
 Alpha  occ. eigenvalues --   -1.13564  -1.13501  -1.13484  -1.13430  -1.13186
 Alpha  occ. eigenvalues --   -1.13146  -1.13115  -1.12931  -1.12929  -1.12895
 Alpha  occ. eigenvalues --   -0.17023  -0.14518  -0.11886  -0.10872
 Alpha virt. eigenvalues --   -0.06277  -0.05849  -0.04505  -0.03571  -0.03279
 Alpha virt. eigenvalues --   -0.02441  -0.01863  -0.01458  -0.01089  -0.00812
 Alpha virt. eigenvalues --   -0.00417  -0.00080   0.00334   0.00393   0.00588

  Beta  occ. eigenvalues --  -38.44878 -38.44503 -38.44411 -38.44120 -38.43917
  Beta  occ. eigenvalues --  -38.43634 -38.43508  -2.20657  -2.20292  -2.20245
  Beta  occ. eigenvalues --   -2.19954  -2.19759  -2.19454  -2.19267  -1.14369
  Beta  occ. eigenvalues --   -1.14366  -1.14279  -1.14003  -1.13969  -1.13956
  Beta  occ. eigenvalues --   -1.13926  -1.13920  -1.13903  -1.13648  -1.13619
  Beta  occ. eigenvalues --   -1.13563  -1.13470  -1.13448  -1.13353  -1.13140
  Beta  occ. eigenvalues --   -1.13113  -1.13087  -1.12936  -1.12935  -1.12899
  Beta  occ. eigenvalues --   -0.16401  -0.14218  -0.10702
  Beta virt. eigenvalues --   -0.07929  -0.06159  -0.05332  -0.04334  -0.03358
  Beta virt. eigenvalues --   -0.02559  -0.02075  -0.01613  -0.01248  -0.00856
  Beta virt. eigenvalues --   -0.00514  -0.00305   0.00070   0.00403   0.00503

 Mulliken charges and spin densities:
               1          2
     1  Na   0.155531   0.263287
     2  Na   1.566538  -0.015621
     3  Na  -1.532914   0.309019
     4  Na   0.079485   0.025551
     5  Na  -0.960349   0.405601
     6  Na   0.588244   0.045452
     7  Na   0.103464  -0.033289
 Sum of Mulliken charges =  -0.00000   1.00000

 Dipole moment (field-independent basis, Debye):
    X=             -1.1937    Y=             -0.0400    Z=             -0.2408  Tot=              1.2184
 Quadrupole moment (field-independent basis, Debye-Ang):
   XX=            -73.0223   YY=            -65.1080   ZZ=            -67.8764
   XY=             -5.9800   XZ=             -3.9217   YZ=             -0.0874

 Normal termination of Gaussian 16 at Tue Nov 28 20:48:36 2023.
