 Gaussian 16, Revision B.01,
 Gaussian 16:  ES64L-G16RevB.01 20-Dec-2017

 -------------------------
 #P B3LYP/6-311+g(d) force
 -------------------------

 -----
 DPGEN
 -----
 Symbolic Z-matrix:
 Charge =  0 Multiplicity = 2

                         Standard orientation:
 ---------------------------------------------------------------------
 Center     Atomic      Atomic             Coordinates (Angstroms)
 Number     Number       Type             X           Y           Z
 ---------------------------------------------------------------------
      1         11           0        1.729736    2.295958    0.210283
      2         11           0        3.124522   -0.802674   -0.173383
      3         11           0       -2.926009   -1.437137   -0.070375
      4         11           0        0.176613   -0.168847   -1.752617
      5         11           0       -2.075246    2.190351   -0.437988
      6         11           0        0.370425   -2.497599    0.340589
      7         11           0       -0.400041    0.419949    1.883491
 ---------------------------------------------------------------------

 SCF Done:  E(UB3LYP) =  -1136.13769356     A.U. after   19 cycles

 The electronic state is 2-A.
 Alpha  occ. eigenvalues --  -38.44110 -38.43939 -38.43754 -38.43484 -38.43364
 Alpha  occ. eigenvalues --  -38.43307 -38.42970  -2.19921  -2.19795  -2.19587
 Alpha  occ. eigenvalues --   -2.19342  -2.19329  -2.19247  -2.18893  -1.13592
 Alpha  occ. eigenvalues --   -1.13576  -1.13568  -1.13467  -1.13461  -1.13443
 Alpha  occ. eigenvalues --   -1.13266  -1.13263  -1.13210  -1.13056  -1.13036
 Alpha  occ. eigenvalues --   -1.13020  -1.12966  -1.12959  -1.12933  -1.12916
 Alpha  occ. eigenvalues --   -1.12874  -1.12855  -1.12583  -1.12555  -1.12502
 Alpha  occ. eigenvalues --   -0.18834  -0.13154  -0.12354  -0.10775
 Alpha virt. eigenvalues --   -0.05690  -0.05429  -0.04227  -0.03237  -0.02914
 Alpha virt. eigenvalues --   -0.02468  -0.01685  -0.01179  -0.00302  -0.00080
 Alpha virt. eigenvalues --    0.00001   0.00349   0.00755   0.00860   0.00930

  Beta  occ. eigenvalues --  -38.44109 -38.43937 -38.43743 -38.43476 -38.43294
  Beta  occ. eigenvalues --  -38.43225 -38.42958  -2.19921  -2.19794  -2.19569
  Beta  occ. eigenvalues --   -2.19331  -2.19201  -2.19096  -2.18874  -1.13582
  Beta  occ. eigenvalues --   -1.13575  -1.13565  -1.13467  -1.13455  -1.13431
  Beta  occ. eigenvalues --   -1.13254  -1.13231  -1.13199  -1.13034  -1.12984
  Beta  occ. eigenvalues --   -1.12962  -1.12951  -1.12878  -1.12839  -1.12819
  Beta  occ. eigenvalues --   -1.12768  -1.12749  -1.12570  -1.12512  -1.12489
  Beta  occ. eigenvalues --   -0.18097  -0.12926  -0.12100
  Beta virt. eigenvalues --   -0.06858  -0.05643  -0.05413  -0.04194  -0.02491
  Beta virt. eigenvalues --   -0.02124  -0.01598  -0.01424  -0.01117  -0.00334
  Beta virt. eigenvalues --   -0.00093   0.00118   0.00373   0.00817   0.00855

 Mulliken charges and spin densities:
               1          2
     1  Na   0.199516  -0.082537
     2  Na   0.169150  -0.014248
     3  Na   0.066669  -0.084703
     4  Na  -0.387015   0.645921
     5  Na   0.030203  -0.077655
     6  Na   0.219389  -0.005645
     7  Na  -0.297912   0.618868
 Sum of Mulliken charges =  -0.00000   1.00000

 Dipole moment (field-independent basis, Debye):
    X=             -0.1989    Y=              0.1135    Z=             -0.0505  Tot=              0.2345
 Quadrupole moment (field-independent basis, Debye-Ang):
   XX=            -53.4822   YY=            -65.4469   ZZ=            -73.9431
   XY=              0.2475   XZ=              0.9405   YZ=             -1.0849

 Normal termination of Gaussian 16 at Fri Dec  8 05:26:16 2023.
