 Gaussian 16, Revision B.01,
 Gaussian 16:  ES64L-G16RevB.01 20-Dec-2017

 -------------------------
 #P B3LYP/6-311+g(d) force
 -------------------------

 -----
 DPGEN
 -----
 Symbolic Z-matrix:
 Charge =  0 Multiplicity = 2

                         Standard orientation:
 ---------------------------------------------------------------------
 Center     Atomic      Atomic             Coordinates (Angstroms)
 Number     Number       Type             X           Y           Z
 ---------------------------------------------------------------------
      1         11           0        0.595116   -3.271754    0.096255
      2         11           0       -4.919033    0.293191   -0.009452
      3         11           0       -1.900218   -1.701962   -0.427500
      4         11           0        2.885365   -0.500780    1.546174
      5         11           0       -2.079960    2.158124    0.279095
      6         11           0        2.072325    3.161381   -0.134288
      7         11           0        3.346405   -0.138200   -1.350285
 ---------------------------------------------------------------------

 SCF Done:  E(UB3LYP) =  -1136.11239687     A.U. after   21 cycles

 The electronic state is 2-A.
 Alpha  occ. eigenvalues --  -38.45373 -38.45202 -38.44751 -38.43849 -38.43786
 Alpha  occ. eigenvalues --  -38.43726 -38.42835  -2.21202  -2.21032  -2.20506
 Alpha  occ. eigenvalues --   -2.19622  -2.19605  -2.19571  -2.18674  -1.14995
 Alpha  occ. eigenvalues --   -1.14845  -1.14803  -1.14675  -1.14654  -1.14632
 Alpha  occ. eigenvalues --   -1.14206  -1.14194  -1.14115  -1.13302  -1.13275
 Alpha  occ. eigenvalues --   -1.13271  -1.13256  -1.13254  -1.13247  -1.13241
 Alpha  occ. eigenvalues --   -1.13223  -1.13197  -1.12362  -1.12329  -1.12295
 Alpha  occ. eigenvalues --   -0.16325  -0.14216  -0.12398  -0.10117
 Alpha virt. eigenvalues --   -0.06576  -0.05743  -0.04711  -0.03213  -0.03036
 Alpha virt. eigenvalues --   -0.02227  -0.02095  -0.01437  -0.01169  -0.00924
 Alpha virt. eigenvalues --   -0.00526  -0.00065   0.00275   0.00426   0.00688

  Beta  occ. eigenvalues --  -38.45341 -38.45175 -38.44745 -38.43801 -38.43728
  Beta  occ. eigenvalues --  -38.43699 -38.42820  -2.21146  -2.20984  -2.20498
  Beta  occ. eigenvalues --   -2.19534  -2.19527  -2.19496  -2.18653  -1.14947
  Beta  occ. eigenvalues --   -1.14794  -1.14776  -1.14635  -1.14615  -1.14605
  Beta  occ. eigenvalues --   -1.14205  -1.14192  -1.14077  -1.13243  -1.13228
  Beta  occ. eigenvalues --   -1.13221  -1.13210  -1.13189  -1.13180  -1.13175
  Beta  occ. eigenvalues --   -1.13168  -1.13139  -1.12332  -1.12318  -1.12275
  Beta  occ. eigenvalues --   -0.15915  -0.13736  -0.11693
  Beta virt. eigenvalues --   -0.06891  -0.06492  -0.05558  -0.04342  -0.02876
  Beta virt. eigenvalues --   -0.02776  -0.02053  -0.01590  -0.01239  -0.00975
  Beta virt. eigenvalues --   -0.00722  -0.00155   0.00164   0.00305   0.00573

 Mulliken charges and spin densities:
               1          2
     1  Na   0.053096  -0.036985
     2  Na   1.134391   0.371295
     3  Na  -0.786797   0.063871
     4  Na   0.058232   0.228033
     5  Na  -0.378157   0.095145
     6  Na  -0.330034   0.156105
     7  Na   0.249269   0.122536
 Sum of Mulliken charges =  -0.00000   1.00000

 Dipole moment (field-independent basis, Debye):
    X=              0.9249    Y=              0.0423    Z=              0.0848  Tot=              0.9297
 Quadrupole moment (field-independent basis, Debye-Ang):
   XX=            -63.5505   YY=            -75.1447   ZZ=            -63.0526
   XY=              0.0109   XZ=             -0.7735   YZ=              0.8156

 Normal termination of Gaussian 16 at Sun Dec  3 18:59:15 2023.
