 Gaussian 16, Revision B.01,
 Gaussian 16:  ES64L-G16RevB.01 20-Dec-2017

 -------------------------
 #P B3LYP/6-311+g(d) force
 -------------------------

 -----
 DPGEN
 -----
 Symbolic Z-matrix:
 Charge =  0 Multiplicity = 2

                         Standard orientation:
 ---------------------------------------------------------------------
 Center     Atomic      Atomic             Coordinates (Angstroms)
 Number     Number       Type             X           Y           Z
 ---------------------------------------------------------------------
      1         11           0        3.099114   -0.649246   -0.281970
      2         11           0        1.218520    0.116954    1.893785
      3         11           0       -3.681646   -1.192418   -0.115648
      4         11           0       -1.274124   -0.022517    0.261757
      5         11           0        0.473675   -2.034395   -0.398786
      6         11           0        1.057340    0.918360   -1.307891
      7         11           0       -0.892879    2.863262   -0.051247
 ---------------------------------------------------------------------

 SCF Done:  E(UB3LYP) =  -1136.08815992     A.U. after   22 cycles

 The electronic state is 2-A.
 Alpha  occ. eigenvalues --  -38.45063 -38.44906 -38.44159 -38.43915 -38.43430
 Alpha  occ. eigenvalues --  -38.43199 -38.43183  -2.20935  -2.20893  -2.20208
 Alpha  occ. eigenvalues --   -2.19963  -2.19592  -2.19481  -2.19094  -1.14726
 Alpha  occ. eigenvalues --   -1.14722  -1.14594  -1.14575  -1.14514  -1.14490
 Alpha  occ. eigenvalues --   -1.14106  -1.13842  -1.13792  -1.13690  -1.13601
 Alpha  occ. eigenvalues --   -1.13512  -1.13387  -1.13243  -1.13182  -1.13146
 Alpha  occ. eigenvalues --   -1.13083  -1.13047  -1.12740  -1.12724  -1.12695
 Alpha  occ. eigenvalues --   -0.20319  -0.13882  -0.12152  -0.11261
 Alpha virt. eigenvalues --   -0.06823  -0.04815  -0.03615  -0.03330  -0.02511
 Alpha virt. eigenvalues --   -0.02281  -0.02131  -0.00916  -0.00271   0.00069
 Alpha virt. eigenvalues --    0.00274   0.00383   0.00702   0.00794   0.00958

  Beta  occ. eigenvalues --  -38.45076 -38.44883 -38.44134 -38.43815 -38.43371
  Beta  occ. eigenvalues --  -38.43183 -38.43174  -2.20916  -2.20902  -2.20170
  Beta  occ. eigenvalues --   -2.19780  -2.19490  -2.19441  -2.19097  -1.14738
  Beta  occ. eigenvalues --   -1.14703  -1.14562  -1.14526  -1.14510  -1.14506
  Beta  occ. eigenvalues --   -1.14082  -1.13770  -1.13755  -1.13574  -1.13482
  Beta  occ. eigenvalues --   -1.13384  -1.13327  -1.13180  -1.13125  -1.13097
  Beta  occ. eigenvalues --   -1.13032  -1.12964  -1.12730  -1.12721  -1.12689
  Beta  occ. eigenvalues --   -0.19464  -0.13672  -0.11962
  Beta virt. eigenvalues --   -0.07034  -0.06609  -0.04783  -0.03475  -0.02658
  Beta virt. eigenvalues --   -0.02304  -0.01657  -0.01227  -0.00853   0.00009
  Beta virt. eigenvalues --    0.00135   0.00275   0.00437   0.00805   0.00895

 Mulliken charges and spin densities:
               1          2
     1  Na   2.076164   0.318822
     2  Na  -0.208458   0.216612
     3  Na   0.569354  -0.521083
     4  Na  -1.412234   0.763328
     5  Na  -0.338183   0.122805
     6  Na  -1.104115   0.100475
     7  Na   0.417471  -0.000961
 Sum of Mulliken charges =  -0.00000   1.00000

 Dipole moment (field-independent basis, Debye):
    X=              0.1352    Y=              0.0428    Z=              0.2006  Tot=              0.2457
 Quadrupole moment (field-independent basis, Debye-Ang):
   XX=            -50.7890   YY=            -67.8747   ZZ=            -72.8091
   XY=             -1.3491   XZ=              0.5907   YZ=              1.4735

 Normal termination of Gaussian 16 at Fri Dec  8 18:56:37 2023.
