 Gaussian 16, Revision B.01,
 Gaussian 16:  ES64L-G16RevB.01 20-Dec-2017

 -------------------------
 #P B3LYP/6-311+g(d) force
 -------------------------

 -----
 DPGEN
 -----
 Symbolic Z-matrix:
 Charge =  0 Multiplicity = 2

                         Standard orientation:
 ---------------------------------------------------------------------
 Center     Atomic      Atomic             Coordinates (Angstroms)
 Number     Number       Type             X           Y           Z
 ---------------------------------------------------------------------
      1         11           0       -1.324315    3.382974    0.989719
      2         11           0       -4.183731    0.950703   -0.728091
      3         11           0        1.944229    3.371511    0.053713
      4         11           0       -3.667217   -2.058023   -0.493067
      5         11           0        4.492834    0.358000   -0.933904
      6         11           0        2.989234   -2.703646    0.255190
      7         11           0       -0.251035   -3.301518    0.856440
 ---------------------------------------------------------------------

 SCF Done:  E(UB3LYP) =  -1136.10540097     A.U. after   21 cycles

 The electronic state is 2-A.
 Alpha  occ. eigenvalues --  -38.44931 -38.44877 -38.44754 -38.44611 -38.44517
 Alpha  occ. eigenvalues --  -38.44466 -38.44347  -2.20731  -2.20617  -2.20550
 Alpha  occ. eigenvalues --   -2.20374  -2.20298  -2.20236  -2.20136  -1.14456
 Alpha  occ. eigenvalues --   -1.14385  -1.14365  -1.14302  -1.14293  -1.14257
 Alpha  occ. eigenvalues --   -1.14210  -1.14196  -1.14175  -1.14059  -1.14058
 Alpha  occ. eigenvalues --   -1.14031  -1.13949  -1.13929  -1.13919  -1.13899
 Alpha  occ. eigenvalues --   -1.13887  -1.13861  -1.13791  -1.13784  -1.13754
 Alpha  occ. eigenvalues --   -0.15299  -0.13897  -0.13319  -0.11142
 Alpha virt. eigenvalues --   -0.07643  -0.05061  -0.04606  -0.03557  -0.03463
 Alpha virt. eigenvalues --   -0.02257  -0.02013  -0.01788  -0.01439  -0.01342
 Alpha virt. eigenvalues --   -0.01050  -0.00279  -0.00070   0.00322   0.00738

  Beta  occ. eigenvalues --  -38.44900 -38.44880 -38.44744 -38.44617 -38.44431
  Beta  occ. eigenvalues --  -38.44425 -38.44282  -2.20675  -2.20626  -2.20537
  Beta  occ. eigenvalues --   -2.20393  -2.20161  -2.20137  -2.20016  -1.14413
  Beta  occ. eigenvalues --   -1.14348  -1.14324  -1.14312  -1.14302  -1.14235
  Beta  occ. eigenvalues --   -1.14204  -1.14189  -1.14139  -1.14077  -1.14071
  Beta  occ. eigenvalues --   -1.14001  -1.13848  -1.13839  -1.13838  -1.13823
  Beta  occ. eigenvalues --   -1.13814  -1.13805  -1.13709  -1.13704  -1.13674
  Beta  occ. eigenvalues --   -0.14760  -0.13132  -0.12623
  Beta virt. eigenvalues --   -0.08046  -0.07777  -0.04484  -0.04129  -0.03388
  Beta virt. eigenvalues --   -0.03209  -0.02052  -0.01876  -0.01675  -0.01185
  Beta virt. eigenvalues --   -0.01009  -0.00750  -0.00001   0.00159   0.00296

 Mulliken charges and spin densities:
               1          2
     1  Na  -0.155774   0.155893
     2  Na  -0.025839   0.110549
     3  Na  -0.052621   0.014685
     4  Na   0.335427   0.047695
     5  Na   0.030215   0.422883
     6  Na   0.018644  -0.048008
     7  Na  -0.150053   0.296303
 Sum of Mulliken charges =  -0.00000   1.00000

 Dipole moment (field-independent basis, Debye):
    X=             -0.6714    Y=              0.1566    Z=             -0.1409  Tot=              0.7037
 Quadrupole moment (field-independent basis, Debye-Ang):
   XX=            -60.9254   YY=            -66.6908   ZZ=            -72.7896
   XY=             -0.0576   XZ=             -1.3218   YZ=             -0.8879

 Normal termination of Gaussian 16 at Mon Dec  4 05:18:41 2023.
