 Gaussian 16, Revision B.01,
 Gaussian 16:  ES64L-G16RevB.01 20-Dec-2017

 -------------------------
 #P B3LYP/6-311+g(d) force
 -------------------------

 -----
 DPGEN
 -----
 Symbolic Z-matrix:
 Charge =  0 Multiplicity = 2

                         Standard orientation:
 ---------------------------------------------------------------------
 Center     Atomic      Atomic             Coordinates (Angstroms)
 Number     Number       Type             X           Y           Z
 ---------------------------------------------------------------------
      1         11           0        0.063574    3.151418    1.226256
      2         11           0       -3.119210    2.429909   -0.829131
      3         11           0        4.037911   -1.267686   -1.003797
      4         11           0       -2.196290   -3.019795    1.376363
      5         11           0       -3.121242   -0.914354   -1.147145
      6         11           0        1.499289   -3.058186    0.178822
      7         11           0        2.835968    2.678694    0.198632
 ---------------------------------------------------------------------

 SCF Done:  E(UB3LYP) =  -1136.10868524     A.U. after   20 cycles

 The electronic state is 2-A.
 Alpha  occ. eigenvalues --  -38.44755 -38.44715 -38.44626 -38.44403 -38.44286
 Alpha  occ. eigenvalues --  -38.44274 -38.44105  -2.20534  -2.20466  -2.20431
 Alpha  occ. eigenvalues --   -2.20200  -2.20095  -2.20073  -2.19892  -1.14219
 Alpha  occ. eigenvalues --   -1.14209  -1.14186  -1.14166  -1.14157  -1.14147
 Alpha  occ. eigenvalues --   -1.14100  -1.14079  -1.14054  -1.13853  -1.13840
 Alpha  occ. eigenvalues --   -1.13827  -1.13751  -1.13748  -1.13722  -1.13719
 Alpha  occ. eigenvalues --   -1.13710  -1.13700  -1.13546  -1.13533  -1.13526
 Alpha  occ. eigenvalues --   -0.15518  -0.13618  -0.13412  -0.11047
 Alpha virt. eigenvalues --   -0.07012  -0.05004  -0.04503  -0.03607  -0.03488
 Alpha virt. eigenvalues --   -0.02045  -0.01888  -0.01762  -0.01508  -0.01123
 Alpha virt. eigenvalues --   -0.00633  -0.00352   0.00004   0.00495   0.00716

  Beta  occ. eigenvalues --  -38.44753 -38.44712 -38.44593 -38.44338 -38.44271
  Beta  occ. eigenvalues --  -38.44208 -38.44055  -2.20537  -2.20467  -2.20373
  Beta  occ. eigenvalues --   -2.20081  -2.20072  -2.19948  -2.19800  -1.14226
  Beta  occ. eigenvalues --   -1.14216  -1.14162  -1.14152  -1.14146  -1.14117
  Beta  occ. eigenvalues --   -1.14066  -1.14042  -1.14013  -1.13771  -1.13762
  Beta  occ. eigenvalues --   -1.13746  -1.13737  -1.13732  -1.13682  -1.13637
  Beta  occ. eigenvalues --   -1.13631  -1.13616  -1.13484  -1.13471  -1.13462
  Beta  occ. eigenvalues --   -0.14984  -0.12886  -0.12591
  Beta virt. eigenvalues --   -0.07992  -0.07141  -0.04546  -0.04031  -0.03412
  Beta virt. eigenvalues --   -0.03246  -0.01758  -0.01631  -0.01526  -0.01183
  Beta virt. eigenvalues --   -0.00966  -0.00461  -0.00093   0.00205   0.00480

 Mulliken charges and spin densities:
               1          2
     1  Na  -0.090942   0.013518
     2  Na   0.336607   0.263691
     3  Na   0.415070   0.188734
     4  Na   0.084149   0.299481
     5  Na  -0.242576   0.034789
     6  Na  -0.376942   0.078881
     7  Na  -0.125367   0.120907
 Sum of Mulliken charges =  -0.00000   1.00000

 Dipole moment (field-independent basis, Debye):
    X=             -0.1551    Y=              0.2184    Z=              0.0078  Tot=              0.2680
 Quadrupole moment (field-independent basis, Debye-Ang):
   XX=            -63.9559   YY=            -68.9661   ZZ=            -68.3492
   XY=              2.0088   XZ=             -2.9949   YZ=             -1.6224

 Normal termination of Gaussian 16 at Mon Dec  4 00:57:02 2023.
