 Gaussian 16, Revision B.01,
 Gaussian 16:  ES64L-G16RevB.01 20-Dec-2017

 -------------------------
 #P B3LYP/6-311+g(d) force
 -------------------------

 -----
 DPGEN
 -----
 Symbolic Z-matrix:
 Charge =  0 Multiplicity = 2

                         Standard orientation:
 ---------------------------------------------------------------------
 Center     Atomic      Atomic             Coordinates (Angstroms)
 Number     Number       Type             X           Y           Z
 ---------------------------------------------------------------------
      1         11           0        1.324625   -1.452175    2.021699
      2         11           0       -2.837626    0.784537   -1.441810
      3         11           0        0.340486    3.093670   -0.289768
      4         11           0       -2.188522   -1.919568   -0.048804
      5         11           0       -0.988023    1.014922    2.173084
      6         11           0        1.078816   -2.223897   -1.490021
      7         11           0        3.270243    0.702512   -0.924379
 ---------------------------------------------------------------------

 SCF Done:  E(UB3LYP) =  -1136.12419166     A.U. after   21 cycles

 The electronic state is 2-A.
 Alpha  occ. eigenvalues --  -38.44724 -38.44459 -38.44439 -38.44337 -38.44068
 Alpha  occ. eigenvalues --  -38.43486 -38.43460  -2.20539  -2.20293  -2.20242
 Alpha  occ. eigenvalues --   -2.20096  -2.19859  -2.19298  -2.19254  -1.14227
 Alpha  occ. eigenvalues --   -1.14176  -1.14158  -1.13967  -1.13931  -1.13927
 Alpha  occ. eigenvalues --   -1.13912  -1.13902  -1.13856  -1.13777  -1.13742
 Alpha  occ. eigenvalues --   -1.13726  -1.13535  -1.13519  -1.13486  -1.12986
 Alpha  occ. eigenvalues --   -1.12956  -1.12936  -1.12934  -1.12922  -1.12889
 Alpha  occ. eigenvalues --   -0.17322  -0.12712  -0.12005  -0.11889
 Alpha virt. eigenvalues --   -0.05769  -0.05235  -0.04868  -0.03641  -0.03455
 Alpha virt. eigenvalues --   -0.03139  -0.01118  -0.00878  -0.00537  -0.00395
 Alpha virt. eigenvalues --   -0.00232   0.00303   0.00459   0.00481   0.00593

  Beta  occ. eigenvalues --  -38.44660 -38.44409 -38.44393 -38.44312 -38.44050
  Beta  occ. eigenvalues --  -38.43485 -38.43458  -2.20425  -2.20188  -2.20174
  Beta  occ. eigenvalues --   -2.20049  -2.19826  -2.19298  -2.19254  -1.14139
  Beta  occ. eigenvalues --   -1.14103  -1.14065  -1.13893  -1.13884  -1.13863
  Beta  occ. eigenvalues --   -1.13853  -1.13821  -1.13809  -1.13740  -1.13714
  Beta  occ. eigenvalues --   -1.13694  -1.13509  -1.13496  -1.13462  -1.12980
  Beta  occ. eigenvalues --   -1.12947  -1.12931  -1.12929  -1.12922  -1.12888
  Beta  occ. eigenvalues --   -0.16583  -0.12414  -0.11863
  Beta virt. eigenvalues --   -0.08056  -0.05577  -0.04985  -0.04364  -0.03481
  Beta virt. eigenvalues --   -0.02874  -0.02335  -0.01024  -0.00731  -0.00453
  Beta virt. eigenvalues --   -0.00224  -0.00084   0.00396   0.00590   0.00616

 Mulliken charges and spin densities:
               1          2
     1  Na   0.070937   0.159314
     2  Na   0.005577   0.006202
     3  Na  -0.124953   0.136114
     4  Na  -0.113263   0.204641
     5  Na   0.097517   0.199194
     6  Na   0.117231   0.178425
     7  Na  -0.053048   0.116110
 Sum of Mulliken charges =  -0.00000   1.00000

 Dipole moment (field-independent basis, Debye):
    X=              0.1024    Y=             -0.2170    Z=             -0.1232  Tot=              0.2698
 Quadrupole moment (field-independent basis, Debye-Ang):
   XX=            -64.7449   YY=            -69.7937   ZZ=            -64.4149
   XY=             -1.3404   XZ=              0.5156   YZ=             -2.3693

 Normal termination of Gaussian 16 at Sun Dec  3 16:13:30 2023.
