 Gaussian 16, Revision B.01,
 Gaussian 16:  ES64L-G16RevB.01 20-Dec-2017

 -------------------------
 #P B3LYP/6-311+g(d) force
 -------------------------

 -----
 DPGEN
 -----
 Symbolic Z-matrix:
 Charge =  0 Multiplicity = 2

                         Standard orientation:
 ---------------------------------------------------------------------
 Center     Atomic      Atomic             Coordinates (Angstroms)
 Number     Number       Type             X           Y           Z
 ---------------------------------------------------------------------
      1         11           0        2.412106   -0.899825    1.926063
      2         11           0       -1.722519   -2.238581    0.406171
      3         11           0       -4.124322    0.030323   -0.359595
      4         11           0       -1.906421    2.203017    0.304620
      5         11           0        0.028297    0.416446   -0.254157
      6         11           0        2.286050   -1.550671   -1.730861
      7         11           0        3.026809    2.039291   -0.292241
 ---------------------------------------------------------------------

 SCF Done:  E(UB3LYP) =  -1136.10545531     A.U. after   26 cycles

 The electronic state is 2-A.
 Alpha  occ. eigenvalues --  -38.45771 -38.45092 -38.44178 -38.43932 -38.43892
 Alpha  occ. eigenvalues --  -38.43800 -38.43748  -2.21584  -2.20870  -2.20072
 Alpha  occ. eigenvalues --   -2.19850  -2.19763  -2.19725  -2.19552  -1.15257
 Alpha  occ. eigenvalues --   -1.15242  -1.15222  -1.14536  -1.14525  -1.14510
 Alpha  occ. eigenvalues --   -1.14092  -1.13692  -1.13655  -1.13524  -1.13468
 Alpha  occ. eigenvalues --   -1.13440  -1.13420  -1.13394  -1.13383  -1.13365
 Alpha  occ. eigenvalues --   -1.13338  -1.13337  -1.13243  -1.13216  -1.13174
 Alpha  occ. eigenvalues --   -0.17904  -0.14507  -0.11172  -0.10127
 Alpha virt. eigenvalues --   -0.07182  -0.06362  -0.03953  -0.03336  -0.02876
 Alpha virt. eigenvalues --   -0.02253  -0.02019  -0.01656  -0.00910  -0.00492
 Alpha virt. eigenvalues --   -0.00098   0.00040   0.00431   0.00512   0.00618

  Beta  occ. eigenvalues --  -38.45777 -38.45074 -38.44190 -38.43849 -38.43815
  Beta  occ. eigenvalues --  -38.43787 -38.43757  -2.21593  -2.20839  -2.20094
  Beta  occ. eigenvalues --   -2.19832  -2.19609  -2.19582  -2.19569  -1.15262
  Beta  occ. eigenvalues --   -1.15254  -1.15229  -1.14513  -1.14495  -1.14479
  Beta  occ. eigenvalues --   -1.14101  -1.13699  -1.13670  -1.13472  -1.13451
  Beta  occ. eigenvalues --   -1.13412  -1.13315  -1.13292  -1.13284  -1.13271
  Beta  occ. eigenvalues --   -1.13253  -1.13250  -1.13232  -1.13218  -1.13187
  Beta  occ. eigenvalues --   -0.17452  -0.14180  -0.11086
  Beta virt. eigenvalues --   -0.07071  -0.06234  -0.06100  -0.03748  -0.03106
  Beta virt. eigenvalues --   -0.02782  -0.01859  -0.01441  -0.01167  -0.00539
  Beta virt. eigenvalues --   -0.00137  -0.00059   0.00109   0.00552   0.00636

 Mulliken charges and spin densities:
               1          2
     1  Na  -0.059885   0.289124
     2  Na   0.804908  -0.077831
     3  Na   0.512767  -0.061815
     4  Na  -0.115588  -0.009792
     5  Na  -2.202742   0.584527
     6  Na   0.440989   0.164267
     7  Na   0.619550   0.111520
 Sum of Mulliken charges =  -0.00000   1.00000

 Dipole moment (field-independent basis, Debye):
    X=             -0.9452    Y=              0.2644    Z=             -0.1748  Tot=              0.9969
 Quadrupole moment (field-independent basis, Debye-Ang):
   XX=            -42.4137   YY=            -71.4775   ZZ=            -76.5525
   XY=              2.8809   XZ=              0.6746   YZ=              0.0634

 Normal termination of Gaussian 16 at Fri Dec  8 17:11:35 2023.
