 Gaussian 16, Revision B.01,
 Gaussian 16:  ES64L-G16RevB.01 20-Dec-2017

 -------------------------
 #P B3LYP/6-311+g(d) force
 -------------------------

 -----
 DPGEN
 -----
 Symbolic Z-matrix:
 Charge =  0 Multiplicity = 2

                         Standard orientation:
 ---------------------------------------------------------------------
 Center     Atomic      Atomic             Coordinates (Angstroms)
 Number     Number       Type             X           Y           Z
 ---------------------------------------------------------------------
      1         11           0       -3.577701   -1.526122    0.225570
      2         11           0       -0.581191   -0.043052    1.917750
      3         11           0        2.905892   -1.890364    0.135574
      4         11           0        3.849858    0.766969    0.154898
      5         11           0        0.815023    2.180021   -0.643831
      6         11           0       -2.831246    1.965563   -0.185160
      7         11           0       -0.580635   -1.453015   -1.604802
 ---------------------------------------------------------------------

 SCF Done:  E(UB3LYP) =  -1136.11136985     A.U. after   30 cycles

 The electronic state is 2-A.
 Alpha  occ. eigenvalues --  -38.45988 -38.45043 -38.44838 -38.44463 -38.44396
 Alpha  occ. eigenvalues --  -38.43209 -38.42696  -2.21772  -2.20906  -2.20622
 Alpha  occ. eigenvalues --   -2.20263  -2.20237  -2.19046  -2.18526  -1.15461
 Alpha  occ. eigenvalues --   -1.15413  -1.15398  -1.14696  -1.14540  -1.14522
 Alpha  occ. eigenvalues --   -1.14303  -1.14275  -1.14264  -1.13941  -1.13916
 Alpha  occ. eigenvalues --   -1.13906  -1.13903  -1.13878  -1.13854  -1.12712
 Alpha  occ. eigenvalues --   -1.12677  -1.12668  -1.12208  -1.12188  -1.12157
 Alpha  occ. eigenvalues --   -0.17704  -0.14354  -0.11256  -0.10224
 Alpha virt. eigenvalues --   -0.07539  -0.06287  -0.03772  -0.03468  -0.03090
 Alpha virt. eigenvalues --   -0.02658  -0.02007  -0.01864  -0.00918  -0.00532
 Alpha virt. eigenvalues --   -0.00141   0.00038   0.00277   0.00457   0.00587

  Beta  occ. eigenvalues --  -38.45955 -38.45026 -38.44837 -38.44454 -38.44388
  Beta  occ. eigenvalues --  -38.43124 -38.42673  -2.21710  -2.20876  -2.20623
  Beta  occ. eigenvalues --   -2.20249  -2.20225  -2.18888  -2.18485  -1.15406
  Beta  occ. eigenvalues --   -1.15373  -1.15351  -1.14676  -1.14513  -1.14499
  Beta  occ. eigenvalues --   -1.14299  -1.14278  -1.14250  -1.13934  -1.13899
  Beta  occ. eigenvalues --   -1.13899  -1.13882  -1.13870  -1.13826  -1.12607
  Beta  occ. eigenvalues --   -1.12568  -1.12555  -1.12183  -1.12143  -1.12134
  Beta  occ. eigenvalues --   -0.17107  -0.14017  -0.11022
  Beta virt. eigenvalues --   -0.07275  -0.06622  -0.06304  -0.03349  -0.03161
  Beta virt. eigenvalues --   -0.02808  -0.02110  -0.01813  -0.01334  -0.00904
  Beta virt. eigenvalues --   -0.00164  -0.00030   0.00055   0.00484   0.00539

 Mulliken charges and spin densities:
               1          2
     1  Na   0.424159   0.101852
     2  Na  -0.205766   0.172035
     3  Na   0.124478   0.084248
     4  Na   0.095936   0.132261
     5  Na  -0.040470   0.094411
     6  Na   0.075605   0.026186
     7  Na  -0.473943   0.389008
 Sum of Mulliken charges =  -0.00000   1.00000

 Dipole moment (field-independent basis, Debye):
    X=             -0.5265    Y=              0.1977    Z=              0.3724  Tot=              0.6746
 Quadrupole moment (field-independent basis, Debye-Ang):
   XX=            -51.4089   YY=            -73.8937   ZZ=            -72.7442
   XY=              0.2092   XZ=              1.6184   YZ=             -2.3215

 Normal termination of Gaussian 16 at Thu Dec  7 21:18:52 2023.
