 Gaussian 16, Revision B.01,
 Gaussian 16:  ES64L-G16RevB.01 20-Dec-2017

 -------------------------
 #P B3LYP/6-311+g(d) force
 -------------------------

 -----
 DPGEN
 -----
 Symbolic Z-matrix:
 Charge =  0 Multiplicity = 2

                         Standard orientation:
 ---------------------------------------------------------------------
 Center     Atomic      Atomic             Coordinates (Angstroms)
 Number     Number       Type             X           Y           Z
 ---------------------------------------------------------------------
      1         11           0        0.112291   -0.690588    1.314514
      2         11           0        6.239185   -0.020048    0.162237
      3         11           0        3.257565   -1.032973   -1.008628
      4         11           0        1.231497    2.090247   -0.235152
      5         11           0       -2.401593    1.289007    0.433200
      6         11           0       -3.114332   -2.090248   -0.041310
      7         11           0       -5.324612    0.454603   -0.624861
 ---------------------------------------------------------------------

 SCF Done:  E(UB3LYP) =  -1136.11845683     A.U. after   21 cycles

 The electronic state is 2-A.
 Alpha  occ. eigenvalues --  -38.44352 -38.44348 -38.44218 -38.44062 -38.44019
 Alpha  occ. eigenvalues --  -38.43823 -38.43700  -2.20179  -2.20166  -2.20006
 Alpha  occ. eigenvalues --   -2.19911  -2.19813  -2.19688  -2.19541  -1.13854
 Alpha  occ. eigenvalues --   -1.13846  -1.13841  -1.13815  -1.13791  -1.13784
 Alpha  occ. eigenvalues --   -1.13693  -1.13670  -1.13634  -1.13623  -1.13600
 Alpha  occ. eigenvalues --   -1.13521  -1.13483  -1.13482  -1.13441  -1.13367
 Alpha  occ. eigenvalues --   -1.13351  -1.13299  -1.13201  -1.13190  -1.13160
 Alpha  occ. eigenvalues --   -0.17038  -0.14172  -0.11529  -0.10869
 Alpha virt. eigenvalues --   -0.06509  -0.05782  -0.04634  -0.03451  -0.02867
 Alpha virt. eigenvalues --   -0.02522  -0.02046  -0.01382  -0.01064  -0.00698
 Alpha virt. eigenvalues --   -0.00363  -0.00100   0.00223   0.00351   0.00639

  Beta  occ. eigenvalues --  -38.44315 -38.44298 -38.44214 -38.44070 -38.43989
  Beta  occ. eigenvalues --  -38.43789 -38.43670  -2.20097  -2.20088  -2.19997
  Beta  occ. eigenvalues --   -2.19859  -2.19829  -2.19628  -2.19485  -1.13795
  Beta  occ. eigenvalues --   -1.13794  -1.13785  -1.13772  -1.13731  -1.13709
  Beta  occ. eigenvalues --   -1.13684  -1.13662  -1.13632  -1.13577  -1.13554
  Beta  occ. eigenvalues --   -1.13494  -1.13493  -1.13480  -1.13451  -1.13328
  Beta  occ. eigenvalues --   -1.13312  -1.13228  -1.13154  -1.13152  -1.13129
  Beta  occ. eigenvalues --   -0.16371  -0.13996  -0.11408
  Beta virt. eigenvalues --   -0.07102  -0.06443  -0.05076  -0.04459  -0.03276
  Beta virt. eigenvalues --   -0.02423  -0.02019  -0.01774  -0.01334  -0.00750
  Beta virt. eigenvalues --   -0.00562  -0.00099   0.00060   0.00407   0.00435

 Mulliken charges and spin densities:
               1          2
     1  Na  -0.156748   0.476707
     2  Na   0.232923  -0.025830
     3  Na  -0.280696  -0.028225
     4  Na   0.282357   0.188625
     5  Na  -0.683172   0.163100
     6  Na   0.037150   0.080920
     7  Na   0.568186   0.144702
 Sum of Mulliken charges =  -0.00000   1.00000

 Dipole moment (field-independent basis, Debye):
    X=             -0.3685    Y=              0.2238    Z=             -0.0759  Tot=              0.4378
 Quadrupole moment (field-independent basis, Debye-Ang):
   XX=            -63.0858   YY=            -67.7654   ZZ=            -69.3883
   XY=              5.7824   XZ=              4.8294   YZ=              1.2035

 Normal termination of Gaussian 16 at Wed Nov 29 02:56:34 2023.
