 Gaussian 16, Revision B.01,
 Gaussian 16:  ES64L-G16RevB.01 20-Dec-2017

 -------------------------
 #P B3LYP/6-311+g(d) force
 -------------------------

 -----
 DPGEN
 -----
 Symbolic Z-matrix:
 Charge =  0 Multiplicity = 2

                         Standard orientation:
 ---------------------------------------------------------------------
 Center     Atomic      Atomic             Coordinates (Angstroms)
 Number     Number       Type             X           Y           Z
 ---------------------------------------------------------------------
      1         11           0       -0.113942    0.022101   -1.290936
      2         11           0        0.160688   -2.799707   -0.011711
      3         11           0       -2.061245    2.434391    0.158226
      4         11           0       -3.104199   -1.021015   -0.231940
      5         11           0        2.015484    2.296497   -0.155612
      6         11           0        3.156441   -0.740679   -0.044827
      7         11           0       -0.053228   -0.191587    1.576800
 ---------------------------------------------------------------------

 SCF Done:  E(UB3LYP) =  -1136.12953943     A.U. after   23 cycles

 The electronic state is 2-A.
 Alpha  occ. eigenvalues --  -38.44414 -38.44283 -38.43852 -38.43689 -38.43153
 Alpha  occ. eigenvalues --  -38.42879 -38.42700  -2.20246  -2.20131  -2.19668
 Alpha  occ. eigenvalues --   -2.19541  -2.19072  -2.18976  -2.18743  -1.13924
 Alpha  occ. eigenvalues --   -1.13902  -1.13877  -1.13806  -1.13796  -1.13772
 Alpha  occ. eigenvalues --   -1.13343  -1.13332  -1.13305  -1.13226  -1.13201
 Alpha  occ. eigenvalues --   -1.13172  -1.12908  -1.12776  -1.12756  -1.12671
 Alpha  occ. eigenvalues --   -1.12567  -1.12559  -1.12400  -1.12333  -1.12314
 Alpha  occ. eigenvalues --   -0.18999  -0.13472  -0.12443  -0.09789
 Alpha virt. eigenvalues --   -0.06033  -0.05538  -0.04594  -0.02902  -0.02365
 Alpha virt. eigenvalues --   -0.02043  -0.01531  -0.01366  -0.00591  -0.00449
 Alpha virt. eigenvalues --    0.00053   0.00315   0.00714   0.00803   0.00855

  Beta  occ. eigenvalues --  -38.44402 -38.44278 -38.43847 -38.43682 -38.43143
  Beta  occ. eigenvalues --  -38.42830 -38.42616  -2.20227  -2.20126  -2.19662
  Beta  occ. eigenvalues --   -2.19532  -2.19058  -2.18889  -2.18592  -1.13903
  Beta  occ. eigenvalues --   -1.13877  -1.13868  -1.13806  -1.13781  -1.13756
  Beta  occ. eigenvalues --   -1.13336  -1.13314  -1.13301  -1.13219  -1.13188
  Beta  occ. eigenvalues --   -1.13156  -1.12868  -1.12718  -1.12708  -1.12663
  Beta  occ. eigenvalues --   -1.12511  -1.12495  -1.12299  -1.12227  -1.12205
  Beta  occ. eigenvalues --   -0.18317  -0.13193  -0.12172
  Beta virt. eigenvalues --   -0.06082  -0.05859  -0.05514  -0.04583  -0.02176
  Beta virt. eigenvalues --   -0.01932  -0.01643  -0.01323  -0.00633  -0.00619
  Beta virt. eigenvalues --   -0.00479   0.00206   0.00379   0.00754   0.00816

 Mulliken charges and spin densities:
               1          2
     1  Na  -0.898745   0.413902
     2  Na   0.402122  -0.015930
     3  Na   0.057654  -0.049644
     4  Na   0.291030   0.014243
     5  Na   0.183091  -0.017063
     6  Na   0.287401   0.005494
     7  Na  -0.322553   0.648998
 Sum of Mulliken charges =  -0.00000   1.00000

 Dipole moment (field-independent basis, Debye):
    X=             -0.1491    Y=              0.0583    Z=              0.1454  Tot=              0.2163
 Quadrupole moment (field-independent basis, Debye-Ang):
   XX=            -49.9272   YY=            -60.0586   ZZ=            -78.9915
   XY=             -0.6263   XZ=             -0.0779   YZ=              0.4815

 Normal termination of Gaussian 16 at Thu Dec  7 14:34:58 2023.
