 Gaussian 16, Revision B.01,
 Gaussian 16:  ES64L-G16RevB.01 20-Dec-2017

 -------------------------
 #P B3LYP/6-311+g(d) force
 -------------------------

 -----
 DPGEN
 -----
 Symbolic Z-matrix:
 Charge =  0 Multiplicity = 2

                         Standard orientation:
 ---------------------------------------------------------------------
 Center     Atomic      Atomic             Coordinates (Angstroms)
 Number     Number       Type             X           Y           Z
 ---------------------------------------------------------------------
      1         11           0       -2.755043   -1.427974   -0.304814
      2         11           0        0.448471   -2.714146    0.318613
      3         11           0        3.311029   -0.298235   -0.215620
      4         11           0       -0.367668   -0.008124    1.659098
      5         11           0        1.160482    2.421312    0.282720
      6         11           0        0.304209   -0.117336   -1.514495
      7         11           0       -2.101479    2.144503   -0.225502
 ---------------------------------------------------------------------

 SCF Done:  E(UB3LYP) =  -1136.13572351     A.U. after   19 cycles

 The electronic state is 2-A.
 Alpha  occ. eigenvalues --  -38.44092 -38.43887 -38.43498 -38.43392 -38.43245
 Alpha  occ. eigenvalues --  -38.42917 -38.42845  -2.19919  -2.19739  -2.19373
 Alpha  occ. eigenvalues --   -2.19297  -2.19172  -2.18964  -2.18889  -1.13599
 Alpha  occ. eigenvalues --   -1.13571  -1.13559  -1.13411  -1.13405  -1.13375
 Alpha  occ. eigenvalues --   -1.13062  -1.13041  -1.13034  -1.13015  -1.12979
 Alpha  occ. eigenvalues --   -1.12902  -1.12891  -1.12849  -1.12774  -1.12686
 Alpha  occ. eigenvalues --   -1.12590  -1.12564  -1.12545  -1.12499  -1.12493
 Alpha  occ. eigenvalues --   -0.19206  -0.13111  -0.12779  -0.10397
 Alpha virt. eigenvalues --   -0.05709  -0.05086  -0.04647  -0.02948  -0.02820
 Alpha virt. eigenvalues --   -0.01976  -0.01728  -0.01155  -0.00300  -0.00148
 Alpha virt. eigenvalues --    0.00050   0.00333   0.00805   0.00877   0.00908

  Beta  occ. eigenvalues --  -38.44088 -38.43878 -38.43491 -38.43379 -38.43234
  Beta  occ. eigenvalues --  -38.42857 -38.42763  -2.19914  -2.19725  -2.19364
  Beta  occ. eigenvalues --   -2.19277  -2.19155  -2.18856  -2.18741  -1.13586
  Beta  occ. eigenvalues --   -1.13568  -1.13552  -1.13401  -1.13385  -1.13359
  Beta  occ. eigenvalues --   -1.13057  -1.13026  -1.13018  -1.12994  -1.12930
  Beta  occ. eigenvalues --   -1.12887  -1.12883  -1.12802  -1.12766  -1.12609
  Beta  occ. eigenvalues --   -1.12518  -1.12479  -1.12451  -1.12390  -1.12388
  Beta  occ. eigenvalues --   -0.18502  -0.12843  -0.12498
  Beta virt. eigenvalues --   -0.06510  -0.05635  -0.05077  -0.04637  -0.02229
  Beta virt. eigenvalues --   -0.02018  -0.01631  -0.01104  -0.00980  -0.00306
  Beta virt. eigenvalues --   -0.00182   0.00171   0.00376   0.00846   0.00881

 Mulliken charges and spin densities:
               1          2
     1  Na   0.054359  -0.004196
     2  Na   0.176672  -0.071020
     3  Na   0.182249  -0.057755
     4  Na  -0.126988   0.498370
     5  Na   0.256973  -0.022294
     6  Na  -0.559451   0.673034
     7  Na   0.016186  -0.016140
 Sum of Mulliken charges =  -0.00000   1.00000

 Dipole moment (field-independent basis, Debye):
    X=              0.0269    Y=             -0.1385    Z=             -0.0141  Tot=              0.1418
 Quadrupole moment (field-independent basis, Debye-Ang):
   XX=            -53.1664   YY=            -61.8703   ZZ=            -76.1051
   XY=             -0.2782   XZ=              1.4719   YZ=             -0.1642

 Normal termination of Gaussian 16 at Wed Nov 29 03:28:38 2023.
