 Gaussian 16, Revision B.01,
 Gaussian 16:  ES64L-G16RevB.01 20-Dec-2017

 -------------------------
 #P B3LYP/6-311+g(d) force
 -------------------------

 -----
 DPGEN
 -----
 Symbolic Z-matrix:
 Charge =  0 Multiplicity = 2

                         Standard orientation:
 ---------------------------------------------------------------------
 Center     Atomic      Atomic             Coordinates (Angstroms)
 Number     Number       Type             X           Y           Z
 ---------------------------------------------------------------------
      1         11           0        0.357929   -0.321372   -1.682386
      2         11           0       -3.124370    0.029242   -0.502260
      3         11           0        3.543193   -1.075154   -0.092693
      4         11           0       -0.047554   -0.428249    2.063164
      5         11           0       -1.312906    2.751719    0.229803
      6         11           0        1.847139    2.057557   -0.083124
      7         11           0       -1.263432   -3.013743    0.067496
 ---------------------------------------------------------------------

 SCF Done:  E(UB3LYP) =  -1136.13279790     A.U. after   20 cycles

 The electronic state is 2-A.
 Alpha  occ. eigenvalues --  -38.44690 -38.44307 -38.43707 -38.43697 -38.43682
 Alpha  occ. eigenvalues --  -38.43647 -38.43021  -2.20456  -2.20126  -2.19594
 Alpha  occ. eigenvalues --   -2.19537  -2.19525  -2.19514  -2.18870  -1.14129
 Alpha  occ. eigenvalues --   -1.14115  -1.14094  -1.13800  -1.13793  -1.13755
 Alpha  occ. eigenvalues --   -1.13329  -1.13267  -1.13211  -1.13210  -1.13200
 Alpha  occ. eigenvalues --   -1.13189  -1.13181  -1.13171  -1.13162  -1.13154
 Alpha  occ. eigenvalues --   -1.13139  -1.13135  -1.12542  -1.12527  -1.12521
 Alpha  occ. eigenvalues --   -0.18159  -0.13085  -0.12211  -0.10599
 Alpha virt. eigenvalues --   -0.06336  -0.05165  -0.04581  -0.03233  -0.02829
 Alpha virt. eigenvalues --   -0.02542  -0.02020  -0.01184  -0.00678  -0.00268
 Alpha virt. eigenvalues --   -0.00047   0.00293   0.00738   0.00757   0.00793

  Beta  occ. eigenvalues --  -38.44692 -38.44292 -38.43705 -38.43641 -38.43640
  Beta  occ. eigenvalues --  -38.43585 -38.43019  -2.20462  -2.20100  -2.19517
  Beta  occ. eigenvalues --   -2.19513  -2.19492  -2.19356  -2.18868  -1.14129
  Beta  occ. eigenvalues --   -1.14113  -1.14099  -1.13779  -1.13763  -1.13741
  Beta  occ. eigenvalues --   -1.13284  -1.13208  -1.13178  -1.13172  -1.13165
  Beta  occ. eigenvalues --   -1.13156  -1.13147  -1.13142  -1.13105  -1.13076
  Beta  occ. eigenvalues --   -1.13038  -1.13019  -1.12543  -1.12528  -1.12499
  Beta  occ. eigenvalues --   -0.17450  -0.12870  -0.12007
  Beta virt. eigenvalues --   -0.06755  -0.06265  -0.05060  -0.04553  -0.02513
  Beta virt. eigenvalues --   -0.02110  -0.01937  -0.01518  -0.01090  -0.00709
  Beta virt. eigenvalues --   -0.00277   0.00103   0.00339   0.00750   0.00829

 Mulliken charges and spin densities:
               1          2
     1  Na   0.037991   0.285396
     2  Na   0.128339   0.114619
     3  Na   0.117404  -0.064487
     4  Na  -0.277329   0.632572
     5  Na  -0.107900   0.013402
     6  Na   0.090769   0.069504
     7  Na   0.010726  -0.051007
 Sum of Mulliken charges =  -0.00000   1.00000

 Dipole moment (field-independent basis, Debye):
    X=              0.4033    Y=             -0.5736    Z=              0.0070  Tot=              0.7012
 Quadrupole moment (field-independent basis, Debye-Ang):
   XX=            -54.7142   YY=            -63.6348   ZZ=            -75.0473
   XY=             -1.2818   XZ=              1.1928   YZ=              0.3994

 Normal termination of Gaussian 16 at Thu Dec  7 15:22:35 2023.
