 Gaussian 16, Revision B.01,
 Gaussian 16:  ES64L-G16RevB.01 20-Dec-2017

 -------------------------
 #P B3LYP/6-311+g(d) force
 -------------------------

 -----
 DPGEN
 -----
 Symbolic Z-matrix:
 Charge =  0 Multiplicity = 2

                         Standard orientation:
 ---------------------------------------------------------------------
 Center     Atomic      Atomic             Coordinates (Angstroms)
 Number     Number       Type             X           Y           Z
 ---------------------------------------------------------------------
      1         11           0       -1.273042    2.073247    0.399222
      2         11           0        0.894973    0.130984    1.995773
      3         11           0       -3.603765    0.253421   -0.782613
      4         11           0        0.236526   -0.382359   -1.587486
      5         11           0       -1.598352   -1.940621    0.859979
      6         11           0        2.908766    1.586779   -0.408719
      7         11           0        2.434894   -1.721451   -0.476156
 ---------------------------------------------------------------------

 SCF Done:  E(UB3LYP) =  -1136.12372673     A.U. after   24 cycles

 The electronic state is 2-A.
 Alpha  occ. eigenvalues --  -38.44706 -38.44144 -38.44079 -38.43850 -38.43652
 Alpha  occ. eigenvalues --  -38.43366 -38.43030  -2.20543  -2.20067  -2.19985
 Alpha  occ. eigenvalues --   -2.19775  -2.19599  -2.19226  -2.18903  -1.14208
 Alpha  occ. eigenvalues --   -1.14201  -1.14176  -1.13923  -1.13737  -1.13686
 Alpha  occ. eigenvalues --   -1.13665  -1.13630  -1.13615  -1.13420  -1.13394
 Alpha  occ. eigenvalues --   -1.13355  -1.13289  -1.13228  -1.13198  -1.12909
 Alpha  occ. eigenvalues --   -1.12888  -1.12845  -1.12597  -1.12583  -1.12521
 Alpha  occ. eigenvalues --   -0.18935  -0.14131  -0.11380  -0.11170
 Alpha virt. eigenvalues --   -0.06462  -0.05285  -0.04203  -0.03101  -0.02796
 Alpha virt. eigenvalues --   -0.02566  -0.02183  -0.01054  -0.00535  -0.00025
 Alpha virt. eigenvalues --    0.00237   0.00254   0.00499   0.00770   0.00800

  Beta  occ. eigenvalues --  -38.44687 -38.44135 -38.44037 -38.43837 -38.43559
  Beta  occ. eigenvalues --  -38.43342 -38.43022  -2.20508  -2.19992  -2.19971
  Beta  occ. eigenvalues --   -2.19755  -2.19429  -2.19186  -2.18893  -1.14187
  Beta  occ. eigenvalues --   -1.14173  -1.14152  -1.13877  -1.13681  -1.13657
  Beta  occ. eigenvalues --   -1.13647  -1.13599  -1.13591  -1.13392  -1.13370
  Beta  occ. eigenvalues --   -1.13332  -1.13173  -1.13116  -1.13067  -1.12880
  Beta  occ. eigenvalues --   -1.12839  -1.12820  -1.12593  -1.12546  -1.12515
  Beta  occ. eigenvalues --   -0.18207  -0.13822  -0.10939
  Beta virt. eigenvalues --   -0.07465  -0.06276  -0.05229  -0.03667  -0.02931
  Beta virt. eigenvalues --   -0.02114  -0.01941  -0.01658  -0.00987  -0.00321
  Beta virt. eigenvalues --    0.00051   0.00242   0.00284   0.00683   0.00822

 Mulliken charges and spin densities:
               1          2
     1  Na  -0.377694  -0.092023
     2  Na   0.196109   0.614694
     3  Na   0.343721   0.097056
     4  Na  -0.321067   0.411943
     5  Na  -0.230835  -0.002899
     6  Na  -0.014469  -0.053417
     7  Na   0.404234   0.024646
 Sum of Mulliken charges =  -0.00000   1.00000

 Dipole moment (field-independent basis, Debye):
    X=             -0.0654    Y=             -0.0600    Z=             -0.1614  Tot=              0.1843
 Quadrupole moment (field-independent basis, Debye-Ang):
   XX=            -49.4261   YY=            -74.3985   ZZ=            -70.0021
   XY=              1.2417   XZ=              1.2174   YZ=             -2.4420

 Normal termination of Gaussian 16 at Tue Dec  5 10:41:37 2023.
