 Gaussian 16, Revision B.01,
 Gaussian 16:  ES64L-G16RevB.01 20-Dec-2017

 -------------------------
 #P B3LYP/6-311+g(d) force
 -------------------------

 -----
 DPGEN
 -----
 Symbolic Z-matrix:
 Charge =  0 Multiplicity = 2

                         Standard orientation:
 ---------------------------------------------------------------------
 Center     Atomic      Atomic             Coordinates (Angstroms)
 Number     Number       Type             X           Y           Z
 ---------------------------------------------------------------------
      1         11           0        3.034880   -1.379556    0.129772
      2         11           0       -0.645465   -2.525615   -0.757725
      3         11           0       -2.859895   -0.548857   -0.045722
      4         11           0       -1.191660    2.725594    0.503848
      5         11           0       -0.277269    0.829868   -1.796610
      6         11           0        2.385701    1.718231   -0.011940
      7         11           0       -0.446291   -0.819665    1.978378
 ---------------------------------------------------------------------

 SCF Done:  E(UB3LYP) =  -1136.13252651     A.U. after   19 cycles

 The electronic state is 2-A.
 Alpha  occ. eigenvalues --  -38.43939 -38.43854 -38.43821 -38.43790 -38.43490
 Alpha  occ. eigenvalues --  -38.43468 -38.43425  -2.19870  -2.19724  -2.19656
 Alpha  occ. eigenvalues --   -2.19636  -2.19400  -2.19372  -2.19316  -1.13611
 Alpha  occ. eigenvalues --   -1.13556  -1.13498  -1.13400  -1.13389  -1.13352
 Alpha  occ. eigenvalues --   -1.13337  -1.13332  -1.13313  -1.13298  -1.13284
 Alpha  occ. eigenvalues --   -1.13225  -1.13110  -1.13078  -1.13047  -1.13025
 Alpha  occ. eigenvalues --   -1.13016  -1.12998  -1.12971  -1.12944  -1.12920
 Alpha  occ. eigenvalues --   -0.18682  -0.13197  -0.12426  -0.11012
 Alpha virt. eigenvalues --   -0.05542  -0.05233  -0.04609  -0.03436  -0.03111
 Alpha virt. eigenvalues --   -0.02647  -0.01308  -0.01004  -0.00335  -0.00150
 Alpha virt. eigenvalues --   -0.00045   0.00393   0.00834   0.00868   0.00898

  Beta  occ. eigenvalues --  -38.43928 -38.43856 -38.43789 -38.43745 -38.43467
  Beta  occ. eigenvalues --  -38.43458 -38.43363  -2.19855  -2.19661  -2.19635
  Beta  occ. eigenvalues --   -2.19584  -2.19361  -2.19301  -2.19257  -1.13599
  Beta  occ. eigenvalues --   -1.13499  -1.13488  -1.13404  -1.13323  -1.13311
  Beta  occ. eigenvalues --   -1.13305  -1.13296  -1.13281  -1.13253  -1.13234
  Beta  occ. eigenvalues --   -1.13229  -1.13066  -1.13048  -1.13005  -1.12983
  Beta  occ. eigenvalues --   -1.12959  -1.12942  -1.12932  -1.12914  -1.12863
  Beta  occ. eigenvalues --   -0.17924  -0.12994  -0.12259
  Beta virt. eigenvalues --   -0.07048  -0.05458  -0.05226  -0.04439  -0.02713
  Beta virt. eigenvalues --   -0.02443  -0.01625  -0.01228  -0.00949  -0.00311
  Beta virt. eigenvalues --   -0.00183   0.00110   0.00433   0.00882   0.00910

 Mulliken charges and spin densities:
               1          2
     1  Na  -0.075663  -0.077991
     2  Na   0.001753   0.079291
     3  Na   0.631447   0.108060
     4  Na  -0.031426  -0.020819
     5  Na   0.025957   0.327892
     6  Na   0.000819  -0.064959
     7  Na  -0.552887   0.648525
 Sum of Mulliken charges =  -0.00000   1.00000

 Dipole moment (field-independent basis, Debye):
    X=             -0.0600    Y=             -0.0042    Z=              0.1465  Tot=              0.1583
 Quadrupole moment (field-independent basis, Debye-Ang):
   XX=            -59.8055   YY=            -64.3170   ZZ=            -71.7614
   XY=             -0.8857   XZ=              0.0850   YZ=              2.6763

 Normal termination of Gaussian 16 at Sun Dec  3 11:56:10 2023.
