 Gaussian 16, Revision B.01,
 Gaussian 16:  ES64L-G16RevB.01 20-Dec-2017

 -------------------------
 #P B3LYP/6-311+g(d) force
 -------------------------

 -----
 DPGEN
 -----
 Symbolic Z-matrix:
 Charge =  0 Multiplicity = 2

                         Standard orientation:
 ---------------------------------------------------------------------
 Center     Atomic      Atomic             Coordinates (Angstroms)
 Number     Number       Type             X           Y           Z
 ---------------------------------------------------------------------
      1         11           0       -1.106788   -0.368724   -1.499153
      2         11           0        2.554762   -0.851797   -0.749847
      3         11           0       -1.645833    2.985921   -0.663207
      4         11           0        5.236134    0.816415    0.326207
      5         11           0       -0.463054    0.276139    2.147356
      6         11           0       -3.688274   -0.000188    0.414003
      7         11           0       -0.886946   -2.857765    0.024641
 ---------------------------------------------------------------------

 SCF Done:  E(UB3LYP) =  -1136.11111249     A.U. after   27 cycles

 The electronic state is 2-A.
 Alpha  occ. eigenvalues --  -38.46067 -38.44882 -38.44549 -38.43839 -38.43659
 Alpha  occ. eigenvalues --  -38.43420 -38.43219  -2.21869  -2.20698  -2.20291
 Alpha  occ. eigenvalues --   -2.19634  -2.19450  -2.19410  -2.19084  -1.15571
 Alpha  occ. eigenvalues --   -1.15527  -1.15478  -1.14358  -1.14327  -1.14310
 Alpha  occ. eigenvalues --   -1.13962  -1.13961  -1.13944  -1.13313  -1.13292
 Alpha  occ. eigenvalues --   -1.13251  -1.13159  -1.13148  -1.13135  -1.13083
 Alpha  occ. eigenvalues --   -1.13047  -1.13031  -1.12737  -1.12717  -1.12707
 Alpha  occ. eigenvalues --   -0.17990  -0.12980  -0.11622  -0.10853
 Alpha virt. eigenvalues --   -0.07814  -0.04816  -0.04577  -0.02989  -0.02901
 Alpha virt. eigenvalues --   -0.02673  -0.02409  -0.01610  -0.00996  -0.00826
 Alpha virt. eigenvalues --   -0.00351   0.00008   0.00147   0.00527   0.00808

  Beta  occ. eigenvalues --  -38.46061 -38.44783 -38.44574 -38.43810 -38.43650
  Beta  occ. eigenvalues --  -38.43364 -38.43214  -2.21862  -2.20516  -2.20338
  Beta  occ. eigenvalues --   -2.19582  -2.19433  -2.19308  -2.19079  -1.15559
  Beta  occ. eigenvalues --   -1.15505  -1.15472  -1.14229  -1.14196  -1.14186
  Beta  occ. eigenvalues --   -1.13994  -1.13993  -1.13975  -1.13275  -1.13242
  Beta  occ. eigenvalues --   -1.13221  -1.13133  -1.13118  -1.13089  -1.13048
  Beta  occ. eigenvalues --   -1.13007  -1.12963  -1.12717  -1.12710  -1.12685
  Beta  occ. eigenvalues --   -0.17188  -0.13069  -0.11380
  Beta virt. eigenvalues --   -0.07596  -0.06798  -0.04689  -0.04494  -0.02659
  Beta virt. eigenvalues --   -0.02488  -0.02075  -0.01596  -0.01470  -0.00894
  Beta virt. eigenvalues --   -0.00671  -0.00217  -0.00003   0.00332   0.00596

 Mulliken charges and spin densities:
               1          2
     1  Na  -0.156580   0.356099
     2  Na  -0.347439  -0.082399
     3  Na  -0.045770   0.016329
     4  Na   0.105529  -0.132410
     5  Na  -0.445192   0.669501
     6  Na   0.630477   0.111906
     7  Na   0.258976   0.060974
 Sum of Mulliken charges =  -0.00000   1.00000

 Dipole moment (field-independent basis, Debye):
    X=             -1.1295    Y=              0.2268    Z=              0.7145  Tot=              1.3557
 Quadrupole moment (field-independent basis, Debye-Ang):
   XX=            -51.9658   YY=            -67.4208   ZZ=            -75.0003
   XY=              6.2353   XZ=              0.9322   YZ=             -0.4268

 Normal termination of Gaussian 16 at Thu Dec  7 05:04:51 2023.
