 Gaussian 16, Revision B.01,
 Gaussian 16:  ES64L-G16RevB.01 20-Dec-2017

 -------------------------
 #P B3LYP/6-311+g(d) force
 -------------------------

 -----
 DPGEN
 -----
 Symbolic Z-matrix:
 Charge =  0 Multiplicity = 2

                         Standard orientation:
 ---------------------------------------------------------------------
 Center     Atomic      Atomic             Coordinates (Angstroms)
 Number     Number       Type             X           Y           Z
 ---------------------------------------------------------------------
      1         11           0       -1.690989   -0.226350    1.635318
      2         11           0        1.993349    2.129727   -0.200374
      3         11           0        0.133642   -1.014448   -1.628163
      4         11           0       -3.996075   -1.102361   -0.554602
      5         11           0       -1.559926    2.107290   -0.553583
      6         11           0        3.672410   -1.289471   -0.710783
      7         11           0        1.447589   -0.604387    2.012186
 ---------------------------------------------------------------------

 SCF Done:  E(UB3LYP) =  -1136.12039568     A.U. after   27 cycles

 The electronic state is 2-A.
 Alpha  occ. eigenvalues --  -38.45352 -38.44480 -38.44375 -38.44023 -38.43988
 Alpha  occ. eigenvalues --  -38.43630 -38.43199  -2.21144  -2.20260  -2.20259
 Alpha  occ. eigenvalues --   -2.19953  -2.19782  -2.19443  -2.19051  -1.14844
 Alpha  occ. eigenvalues --   -1.14805  -1.14743  -1.13975  -1.13945  -1.13922
 Alpha  occ. eigenvalues --   -1.13897  -1.13887  -1.13862  -1.13636  -1.13613
 Alpha  occ. eigenvalues --   -1.13551  -1.13452  -1.13447  -1.13418  -1.13130
 Alpha  occ. eigenvalues --   -1.13104  -1.13062  -1.12746  -1.12730  -1.12643
 Alpha  occ. eigenvalues --   -0.18218  -0.13859  -0.11746  -0.10806
 Alpha virt. eigenvalues --   -0.06940  -0.05392  -0.04676  -0.03401  -0.02616
 Alpha virt. eigenvalues --   -0.02568  -0.02333  -0.01488  -0.00847  -0.00250
 Alpha virt. eigenvalues --    0.00068   0.00192   0.00305   0.00447   0.00667

  Beta  occ. eigenvalues --  -38.45310 -38.44487 -38.44288 -38.43986 -38.43966
  Beta  occ. eigenvalues --  -38.43619 -38.43187  -2.21067  -2.20271  -2.20101
  Beta  occ. eigenvalues --   -2.19854  -2.19780  -2.19423  -2.19030  -1.14787
  Beta  occ. eigenvalues --   -1.14747  -1.14686  -1.13953  -1.13930  -1.13902
  Beta  occ. eigenvalues --   -1.13856  -1.13782  -1.13742  -1.13565  -1.13542
  Beta  occ. eigenvalues --   -1.13465  -1.13445  -1.13442  -1.13417  -1.13103
  Beta  occ. eigenvalues --   -1.13093  -1.13052  -1.12728  -1.12711  -1.12629
  Beta  occ. eigenvalues --   -0.17447  -0.13809  -0.10624
  Beta virt. eigenvalues --   -0.07608  -0.06702  -0.05349  -0.04117  -0.02901
  Beta virt. eigenvalues --   -0.02506  -0.01954  -0.01813  -0.01272  -0.00466
  Beta virt. eigenvalues --   -0.00236   0.00097   0.00273   0.00426   0.00546

 Mulliken charges and spin densities:
               1          2
     1  Na  -0.062874   0.176894
     2  Na  -0.095642   0.111214
     3  Na  -0.624382   0.362515
     4  Na   0.434901  -0.042231
     5  Na  -0.107393   0.127250
     6  Na   0.500005   0.062131
     7  Na  -0.044616   0.202226
 Sum of Mulliken charges =  -0.00000   1.00000

 Dipole moment (field-independent basis, Debye):
    X=              0.0100    Y=             -0.0181    Z=             -0.4452  Tot=              0.4457
 Quadrupole moment (field-independent basis, Debye-Ang):
   XX=            -50.9369   YY=            -77.2597   ZZ=            -68.7124
   XY=              1.0178   XZ=              1.9392   YZ=              0.2937

 Normal termination of Gaussian 16 at Thu Dec  7 23:49:10 2023.
