 Gaussian 16, Revision B.01,
 Gaussian 16:  ES64L-G16RevB.01 20-Dec-2017

 -------------------------
 #P B3LYP/6-311+g(d) force
 -------------------------

 -----
 DPGEN
 -----
 Symbolic Z-matrix:
 Charge =  0 Multiplicity = 2

                         Standard orientation:
 ---------------------------------------------------------------------
 Center     Atomic      Atomic             Coordinates (Angstroms)
 Number     Number       Type             X           Y           Z
 ---------------------------------------------------------------------
      1         11           0        0.169430   -0.380746    1.881554
      2         11           0       -1.073261   -1.859977   -1.107665
      3         11           0        1.613431    0.254902   -1.514888
      4         11           0        1.723975    3.063419    0.492302
      5         11           0        2.474979   -2.686499    0.430939
      6         11           0       -3.805308   -0.295991    0.436621
      7         11           0       -1.103246    1.904891   -0.618863
 ---------------------------------------------------------------------

 SCF Done:  E(UB3LYP) =  -1136.13528084     A.U. after   19 cycles

 The electronic state is 2-A.
 Alpha  occ. eigenvalues --  -38.43938 -38.43888 -38.43821 -38.43764 -38.43695
 Alpha  occ. eigenvalues --  -38.43451 -38.43324  -2.19794  -2.19674  -2.19622
 Alpha  occ. eigenvalues --   -2.19608  -2.19523  -2.19351  -2.19242  -1.13485
 Alpha  occ. eigenvalues --   -1.13430  -1.13410  -1.13351  -1.13338  -1.13329
 Alpha  occ. eigenvalues --   -1.13315  -1.13291  -1.13282  -1.13272  -1.13239
 Alpha  occ. eigenvalues --   -1.13205  -1.13203  -1.13183  -1.13171  -1.13079
 Alpha  occ. eigenvalues --   -1.13033  -1.12946  -1.12923  -1.12891  -1.12825
 Alpha  occ. eigenvalues --   -0.18228  -0.12668  -0.12499  -0.10715
 Alpha virt. eigenvalues --   -0.05887  -0.05143  -0.04652  -0.03105  -0.02983
 Alpha virt. eigenvalues --   -0.02498  -0.01720  -0.01481  -0.00581  -0.00183
 Alpha virt. eigenvalues --    0.00198   0.00281   0.00732   0.00747   0.00794

  Beta  occ. eigenvalues --  -38.43888 -38.43862 -38.43818 -38.43732 -38.43692
  Beta  occ. eigenvalues --  -38.43437 -38.43270  -2.19675  -2.19655  -2.19605
  Beta  occ. eigenvalues --   -2.19566  -2.19518  -2.19330  -2.19147  -1.13392
  Beta  occ. eigenvalues --   -1.13351  -1.13333  -1.13331  -1.13317  -1.13309
  Beta  occ. eigenvalues --   -1.13285  -1.13281  -1.13250  -1.13237  -1.13231
  Beta  occ. eigenvalues --   -1.13203  -1.13179  -1.13170  -1.13155  -1.13057
  Beta  occ. eigenvalues --   -1.12990  -1.12926  -1.12872  -1.12808  -1.12763
  Beta  occ. eigenvalues --   -0.17461  -0.12550  -0.12303
  Beta virt. eigenvalues --   -0.06796  -0.05713  -0.05076  -0.04541  -0.02501
  Beta virt. eigenvalues --   -0.02448  -0.01627  -0.01549  -0.01380  -0.00299
  Beta virt. eigenvalues --   -0.00155   0.00241   0.00346   0.00761   0.00790

 Mulliken charges and spin densities:
               1          2
     1  Na  -0.327593   0.788435
     2  Na  -0.163452   0.074116
     3  Na   0.358835   0.334743
     4  Na   0.063784  -0.135814
     5  Na  -0.118323  -0.161884
     6  Na   0.367854  -0.042849
     7  Na  -0.181106   0.143253
 Sum of Mulliken charges =  -0.00000   1.00000

 Dipole moment (field-independent basis, Debye):
    X=              0.1081    Y=             -0.0499    Z=              0.2224  Tot=              0.2523
 Quadrupole moment (field-independent basis, Debye-Ang):
   XX=            -56.7417   YY=            -62.3637   ZZ=            -72.8391
   XY=              0.3318   XZ=             -0.2098   YZ=              1.4831

 Normal termination of Gaussian 16 at Tue Dec  5 19:46:52 2023.
