 Gaussian 16, Revision B.01,
 Gaussian 16:  ES64L-G16RevB.01 20-Dec-2017

 -------------------------
 #P B3LYP/6-311+g(d) force
 -------------------------

 -----
 DPGEN
 -----
 Symbolic Z-matrix:
 Charge =  0 Multiplicity = 2

                         Standard orientation:
 ---------------------------------------------------------------------
 Center     Atomic      Atomic             Coordinates (Angstroms)
 Number     Number       Type             X           Y           Z
 ---------------------------------------------------------------------
      1         11           0       -2.507896    0.054638   -0.638824
      2         11           0       -2.224787    3.834814    0.540922
      3         11           0        2.755887   -0.412569   -0.970049
      4         11           0       -2.925396   -3.100305    1.109596
      5         11           0        5.029723   -0.275783    1.043414
      6         11           0        0.354005    2.482962   -0.299075
      7         11           0       -0.481537   -2.583756   -0.785984
 ---------------------------------------------------------------------

 SCF Done:  E(UB3LYP) =  -1136.11713265     A.U. after   20 cycles

 The electronic state is 2-A.
 Alpha  occ. eigenvalues --  -38.45582 -38.44755 -38.44318 -38.44273 -38.44248
 Alpha  occ. eigenvalues --  -38.43473 -38.42782  -2.21375  -2.20578  -2.20142
 Alpha  occ. eigenvalues --   -2.20134  -2.20086  -2.19303  -2.18621  -1.15085
 Alpha  occ. eigenvalues --   -1.15081  -1.14962  -1.14271  -1.14246  -1.14235
 Alpha  occ. eigenvalues --   -1.13853  -1.13814  -1.13804  -1.13789  -1.13789
 Alpha  occ. eigenvalues --   -1.13759  -1.13730  -1.13724  -1.13656  -1.12980
 Alpha  occ. eigenvalues --   -1.12932  -1.12929  -1.12300  -1.12290  -1.12269
 Alpha  occ. eigenvalues --   -0.16770  -0.13771  -0.13218  -0.09965
 Alpha virt. eigenvalues --   -0.06562  -0.05939  -0.04300  -0.04005  -0.02991
 Alpha virt. eigenvalues --   -0.01888  -0.01821  -0.01717  -0.01590  -0.00879
 Alpha virt. eigenvalues --   -0.00164  -0.00087   0.00165   0.00401   0.00581

  Beta  occ. eigenvalues --  -38.45579 -38.44750 -38.44304 -38.44245 -38.44203
  Beta  occ. eigenvalues --  -38.43396 -38.42777  -2.21374  -2.20571  -2.20115
  Beta  occ. eigenvalues --   -2.20087  -2.20001  -2.19159  -2.18618  -1.15084
  Beta  occ. eigenvalues --   -1.15052  -1.14967  -1.14262  -1.14240  -1.14226
  Beta  occ. eigenvalues --   -1.13805  -1.13786  -1.13783  -1.13769  -1.13748
  Beta  occ. eigenvalues --   -1.13742  -1.13672  -1.13663  -1.13602  -1.12889
  Beta  occ. eigenvalues --   -1.12832  -1.12830  -1.12303  -1.12297  -1.12210
  Beta  occ. eigenvalues --   -0.16291  -0.13568  -0.12617
  Beta virt. eigenvalues --   -0.06728  -0.06355  -0.05458  -0.03929  -0.03757
  Beta virt. eigenvalues --   -0.02860  -0.01794  -0.01683  -0.01421  -0.01039
  Beta virt. eigenvalues --   -0.00628   0.00056   0.00184   0.00389   0.00556

 Mulliken charges and spin densities:
               1          2
     1  Na  -0.436240   0.047470
     2  Na   0.599657   0.123498
     3  Na  -0.207207  -0.268860
     4  Na   0.575894   0.347081
     5  Na   0.116403   0.485883
     6  Na  -0.375411   0.094724
     7  Na  -0.273097   0.170203
 Sum of Mulliken charges =  -0.00000   1.00000

 Dipole moment (field-independent basis, Debye):
    X=             -2.3373    Y=              0.3294    Z=              0.3111  Tot=              2.3808
 Quadrupole moment (field-independent basis, Debye-Ang):
   XX=            -71.2648   YY=            -59.2804   ZZ=            -70.0028
   XY=             -1.6027   XZ=              0.5787   YZ=              0.1116

 Normal termination of Gaussian 16 at Tue Nov 28 19:29:33 2023.
