 Gaussian 16, Revision B.01,
 Gaussian 16:  ES64L-G16RevB.01 20-Dec-2017

 -------------------------
 #P B3LYP/6-311+g(d) force
 -------------------------

 -----
 DPGEN
 -----
 Symbolic Z-matrix:
 Charge =  0 Multiplicity = 2

                         Standard orientation:
 ---------------------------------------------------------------------
 Center     Atomic      Atomic             Coordinates (Angstroms)
 Number     Number       Type             X           Y           Z
 ---------------------------------------------------------------------
      1         11           0       -2.294245   -1.435057   -0.627582
      2         11           0       -5.694538   -0.398647    1.153698
      3         11           0       -3.721365    1.983382   -0.012380
      4         11           0       -0.767085    0.883816   -1.033857
      5         11           0        1.307469   -1.765193   -0.064226
      6         11           0        4.055099    0.131223   -0.071043
      7         11           0        7.114664    0.600476    0.655391
 ---------------------------------------------------------------------

 SCF Done:  E(UB3LYP) =  -1136.11148324     A.U. after   23 cycles

 The electronic state is 2-A.
 Alpha  occ. eigenvalues --  -38.45688 -38.44399 -38.44290 -38.44173 -38.44094
 Alpha  occ. eigenvalues --  -38.43966 -38.43734  -2.21554  -2.20242  -2.20173
 Alpha  occ. eigenvalues --   -2.20007  -2.19951  -2.19778  -2.19550  -1.15367
 Alpha  occ. eigenvalues --   -1.15229  -1.15105  -1.13964  -1.13885  -1.13834
 Alpha  occ. eigenvalues --   -1.13829  -1.13828  -1.13819  -1.13684  -1.13674
 Alpha  occ. eigenvalues --   -1.13626  -1.13622  -1.13607  -1.13598  -1.13428
 Alpha  occ. eigenvalues --   -1.13423  -1.13390  -1.13226  -1.13218  -1.13180
 Alpha  occ. eigenvalues --   -0.17319  -0.14283  -0.12203  -0.10874
 Alpha virt. eigenvalues --   -0.07497  -0.04946  -0.04323  -0.04061  -0.02770
 Alpha virt. eigenvalues --   -0.02556  -0.02465  -0.01634  -0.01106  -0.00957
 Alpha virt. eigenvalues --   -0.00313  -0.00039  -0.00021   0.00359   0.00516

  Beta  occ. eigenvalues --  -38.45678 -38.44393 -38.44229 -38.44148 -38.44061
  Beta  occ. eigenvalues --  -38.43905 -38.43734  -2.21539  -2.20162  -2.20134
  Beta  occ. eigenvalues --   -2.19959  -2.19898  -2.19663  -2.19551  -1.15331
  Beta  occ. eigenvalues --   -1.15219  -1.15096  -1.13900  -1.13827  -1.13822
  Beta  occ. eigenvalues --   -1.13821  -1.13816  -1.13711  -1.13648  -1.13640
  Beta  occ. eigenvalues --   -1.13596  -1.13590  -1.13569  -1.13520  -1.13349
  Beta  occ. eigenvalues --   -1.13343  -1.13318  -1.13224  -1.13220  -1.13179
  Beta  occ. eigenvalues --   -0.16694  -0.14000  -0.11952
  Beta virt. eigenvalues --   -0.07484  -0.06941  -0.04493  -0.04091  -0.03860
  Beta virt. eigenvalues --   -0.02532  -0.02349  -0.01850  -0.01523  -0.00994
  Beta virt. eigenvalues --   -0.00631   0.00034   0.00106   0.00158   0.00454

 Mulliken charges and spin densities:
               1          2
     1  Na  -0.038672   0.096949
     2  Na   0.276729   0.363917
     3  Na  -0.066215   0.022359
     4  Na  -0.279143   0.390662
     5  Na   0.072857   0.133397
     6  Na  -0.068763  -0.032448
     7  Na   0.103209   0.025164
 Sum of Mulliken charges =  -0.00000   1.00000

 Dipole moment (field-independent basis, Debye):
    X=             -0.2960    Y=             -0.1247    Z=              0.0340  Tot=              0.3230
 Quadrupole moment (field-independent basis, Debye-Ang):
   XX=            -59.6473   YY=            -67.2991   ZZ=            -71.9275
   XY=              0.8307   XZ=              1.4852   YZ=              1.0325

 Normal termination of Gaussian 16 at Tue Nov 28 21:40:18 2023.
