 Gaussian 16, Revision B.01,
 Gaussian 16:  ES64L-G16RevB.01 20-Dec-2017

 -------------------------
 #P B3LYP/6-311+g(d) force
 -------------------------

 -----
 DPGEN
 -----
 Symbolic Z-matrix:
 Charge =  0 Multiplicity = 2

                         Standard orientation:
 ---------------------------------------------------------------------
 Center     Atomic      Atomic             Coordinates (Angstroms)
 Number     Number       Type             X           Y           Z
 ---------------------------------------------------------------------
      1         11           0        1.399482   -2.712726    0.114706
      2         11           0        3.198188    0.312065   -0.452552
      3         11           0       -2.013634    2.155541    0.162255
      4         11           0       -0.099516   -0.377019    2.281442
      5         11           0       -3.216551   -1.435439   -0.512529
      6         11           0        0.965605    2.472319   -0.150231
      7         11           0       -0.233574   -0.414741   -1.443091
 ---------------------------------------------------------------------

 SCF Done:  E(UB3LYP) =  -1136.13008882     A.U. after   20 cycles

 The electronic state is 2-A.
 Alpha  occ. eigenvalues --  -38.44354 -38.44130 -38.44073 -38.43819 -38.43794
 Alpha  occ. eigenvalues --  -38.43269 -38.42878  -2.20141  -2.19975  -2.19918
 Alpha  occ. eigenvalues --   -2.19660  -2.19655  -2.19243  -2.18807  -1.13822
 Alpha  occ. eigenvalues --   -1.13783  -1.13779  -1.13668  -1.13634  -1.13601
 Alpha  occ. eigenvalues --   -1.13572  -1.13545  -1.13537  -1.13384  -1.13354
 Alpha  occ. eigenvalues --   -1.13315  -1.13313  -1.13286  -1.13278  -1.12934
 Alpha  occ. eigenvalues --   -1.12901  -1.12861  -1.12482  -1.12471  -1.12441
 Alpha  occ. eigenvalues --   -0.18484  -0.13060  -0.12374  -0.10944
 Alpha virt. eigenvalues --   -0.06105  -0.05260  -0.04297  -0.03157  -0.02981
 Alpha virt. eigenvalues --   -0.02672  -0.01889  -0.01191  -0.00504  -0.00087
 Alpha virt. eigenvalues --   -0.00073   0.00283   0.00723   0.00815   0.00883

  Beta  occ. eigenvalues --  -38.44338 -38.44120 -38.43963 -38.43815 -38.43790
  Beta  occ. eigenvalues --  -38.43229 -38.42873  -2.20113  -2.19957  -2.19716
  Beta  occ. eigenvalues --   -2.19656  -2.19650  -2.19170  -2.18802  -1.13792
  Beta  occ. eigenvalues --   -1.13764  -1.13762  -1.13659  -1.13608  -1.13591
  Beta  occ. eigenvalues --   -1.13439  -1.13409  -1.13394  -1.13382  -1.13348
  Beta  occ. eigenvalues --   -1.13293  -1.13287  -1.13281  -1.13276  -1.12878
  Beta  occ. eigenvalues --   -1.12853  -1.12804  -1.12482  -1.12468  -1.12411
  Beta  occ. eigenvalues --   -0.17812  -0.12810  -0.12109
  Beta virt. eigenvalues --   -0.07071  -0.05975  -0.05182  -0.04249  -0.02485
  Beta virt. eigenvalues --   -0.02209  -0.01769  -0.01651  -0.01113  -0.00522
  Beta virt. eigenvalues --   -0.00093   0.00091   0.00339   0.00761   0.00866

 Mulliken charges and spin densities:
               1          2
     1  Na   0.255993   0.106632
     2  Na   0.197113   0.058184
     3  Na   0.298640   0.106016
     4  Na  -0.493045   0.553683
     5  Na   0.227013   0.095396
     6  Na  -0.073577   0.090303
     7  Na  -0.412136  -0.010214
 Sum of Mulliken charges =  -0.00000   1.00000

 Dipole moment (field-independent basis, Debye):
    X=             -0.2105    Y=             -0.5004    Z=              0.2826  Tot=              0.6120
 Quadrupole moment (field-independent basis, Debye-Ang):
   XX=            -55.2571   YY=            -65.3844   ZZ=            -73.5671
   XY=             -0.7253   XZ=             -0.8554   YZ=              0.2022

 Normal termination of Gaussian 16 at Thu Dec  7 10:31:18 2023.
