 Gaussian 16, Revision B.01,
 Gaussian 16:  ES64L-G16RevB.01 20-Dec-2017

 -------------------------
 #P B3LYP/6-311+g(d) force
 -------------------------

 -----
 DPGEN
 -----
 Symbolic Z-matrix:
 Charge =  0 Multiplicity = 2

                         Standard orientation:
 ---------------------------------------------------------------------
 Center     Atomic      Atomic             Coordinates (Angstroms)
 Number     Number       Type             X           Y           Z
 ---------------------------------------------------------------------
      1         11           0        3.501744    1.156048    0.102591
      2         11           0        0.372970    3.448622   -0.267151
      3         11           0        3.732491   -2.108239    0.443981
      4         11           0       -2.691655    2.107517   -0.110018
      5         11           0        0.313891   -0.668443   -0.511151
      6         11           0       -1.927977   -3.331546   -0.672871
      7         11           0       -3.301464   -0.603959    1.014620
 ---------------------------------------------------------------------

 SCF Done:  E(UB3LYP) =  -1136.12308746     A.U. after   21 cycles

 The electronic state is 2-A.
 Alpha  occ. eigenvalues --  -38.44776 -38.44597 -38.44215 -38.44148 -38.43789
 Alpha  occ. eigenvalues --  -38.43545 -38.43414  -2.20575  -2.20396  -2.20084
 Alpha  occ. eigenvalues --   -2.19961  -2.19602  -2.19417  -2.19216  -1.14262
 Alpha  occ. eigenvalues --   -1.14241  -1.14214  -1.14124  -1.14057  -1.14002
 Alpha  occ. eigenvalues --   -1.13815  -1.13745  -1.13687  -1.13612  -1.13608
 Alpha  occ. eigenvalues --   -1.13580  -1.13260  -1.13253  -1.13225  -1.13095
 Alpha  occ. eigenvalues --   -1.13068  -1.13049  -1.12885  -1.12861  -1.12853
 Alpha  occ. eigenvalues --   -0.16772  -0.14187  -0.12686  -0.10325
 Alpha virt. eigenvalues --   -0.06462  -0.05700  -0.04378  -0.03176  -0.03112
 Alpha virt. eigenvalues --   -0.02223  -0.02000  -0.01789  -0.01294  -0.00579
 Alpha virt. eigenvalues --   -0.00043   0.00186   0.00496   0.00546   0.00706

  Beta  occ. eigenvalues --  -38.44769 -38.44587 -38.44170 -38.44094 -38.43748
  Beta  occ. eigenvalues --  -38.43510 -38.43389  -2.20568  -2.20377  -2.20008
  Beta  occ. eigenvalues --   -2.19862  -2.19526  -2.19356  -2.19170  -1.14263
  Beta  occ. eigenvalues --   -1.14244  -1.14166  -1.14110  -1.14046  -1.13989
  Beta  occ. eigenvalues --   -1.13748  -1.13698  -1.13614  -1.13544  -1.13534
  Beta  occ. eigenvalues --   -1.13519  -1.13205  -1.13200  -1.13178  -1.13046
  Beta  occ. eigenvalues --   -1.13033  -1.12994  -1.12854  -1.12832  -1.12816
  Beta  occ. eigenvalues --   -0.16371  -0.13488  -0.12261
  Beta virt. eigenvalues --   -0.06948  -0.06340  -0.05416  -0.04173  -0.02867
  Beta virt. eigenvalues --   -0.02586  -0.02006  -0.01676  -0.01572  -0.01131
  Beta virt. eigenvalues --   -0.00290   0.00252   0.00362   0.00524   0.00629

 Mulliken charges and spin densities:
               1          2
     1  Na   0.809013   0.099324
     2  Na   0.849216   0.093222
     3  Na   0.573778   0.291007
     4  Na  -0.570862   0.239359
     5  Na  -2.402554   0.048089
     6  Na   0.193697   0.068616
     7  Na   0.547712   0.160382
 Sum of Mulliken charges =  -0.00000   1.00000

 Dipole moment (field-independent basis, Debye):
    X=              0.6869    Y=             -0.7354    Z=              0.1189  Tot=              1.0133
 Quadrupole moment (field-independent basis, Debye-Ang):
   XX=            -64.4527   YY=            -61.4439   ZZ=            -71.5441
   XY=              4.9514   XZ=              0.5000   YZ=             -0.8582

 Normal termination of Gaussian 16 at Tue Dec  5 19:24:09 2023.
