 Gaussian 16, Revision B.01,
 Gaussian 16:  ES64L-G16RevB.01 20-Dec-2017

 -------------------------
 #P B3LYP/6-311+g(d) force
 -------------------------

 -----
 DPGEN
 -----
 Symbolic Z-matrix:
 Charge =  0 Multiplicity = 2

                         Standard orientation:
 ---------------------------------------------------------------------
 Center     Atomic      Atomic             Coordinates (Angstroms)
 Number     Number       Type             X           Y           Z
 ---------------------------------------------------------------------
      1         11           0       -0.696502    0.052489   -1.445284
      2         11           0       -2.015134    2.261397    0.095536
      3         11           0       -3.777647   -1.271309   -0.890227
      4         11           0       -1.101766   -0.887615    1.741815
      5         11           0        1.999048   -1.873837    0.677375
      6         11           0        4.230969    0.076491   -1.173616
      7         11           0        1.361032    1.642384    0.994401
 ---------------------------------------------------------------------

 SCF Done:  E(UB3LYP) =  -1136.12232162     A.U. after   23 cycles

 The electronic state is 2-A.
 Alpha  occ. eigenvalues --  -38.44787 -38.44658 -38.44188 -38.43750 -38.43559
 Alpha  occ. eigenvalues --  -38.43359 -38.43137  -2.20722  -2.20449  -2.20094
 Alpha  occ. eigenvalues --   -2.19590  -2.19362  -2.19239  -2.18998  -1.14430
 Alpha  occ. eigenvalues --   -1.14414  -1.14315  -1.14103  -1.14096  -1.14062
 Alpha  occ. eigenvalues --   -1.13790  -1.13727  -1.13697  -1.13274  -1.13265
 Alpha  occ. eigenvalues --   -1.13217  -1.13037  -1.13013  -1.12995  -1.12955
 Alpha  occ. eigenvalues --   -1.12896  -1.12831  -1.12696  -1.12687  -1.12592
 Alpha  occ. eigenvalues --   -0.18346  -0.13990  -0.11405  -0.10921
 Alpha virt. eigenvalues --   -0.06601  -0.05202  -0.04787  -0.03038  -0.02894
 Alpha virt. eigenvalues --   -0.02270  -0.02117  -0.01258  -0.01117  -0.00297
 Alpha virt. eigenvalues --   -0.00013   0.00214   0.00323   0.00596   0.00651

  Beta  occ. eigenvalues --  -38.44768 -38.44593 -38.44114 -38.43731 -38.43544
  Beta  occ. eigenvalues --  -38.43353 -38.43129  -2.20688  -2.20327  -2.19962
  Beta  occ. eigenvalues --   -2.19562  -2.19334  -2.19230  -2.18987  -1.14410
  Beta  occ. eigenvalues --   -1.14372  -1.14290  -1.14019  -1.14012  -1.13985
  Beta  occ. eigenvalues --   -1.13700  -1.13628  -1.13596  -1.13261  -1.13241
  Beta  occ. eigenvalues --   -1.13162  -1.13016  -1.12989  -1.12981  -1.12943
  Beta  occ. eigenvalues --   -1.12890  -1.12820  -1.12690  -1.12651  -1.12591
  Beta  occ. eigenvalues --   -0.17699  -0.13481  -0.10790
  Beta virt. eigenvalues --   -0.07665  -0.06283  -0.05075  -0.04325  -0.02805
  Beta virt. eigenvalues --   -0.02390  -0.01897  -0.01603  -0.01110  -0.00752
  Beta virt. eigenvalues --   -0.00161   0.00059   0.00295   0.00421   0.00647

 Mulliken charges and spin densities:
               1          2
     1  Na  -0.255699   0.255256
     2  Na   0.143973  -0.062767
     3  Na  -0.031085   0.030031
     4  Na   0.166127   0.280545
     5  Na  -0.032971   0.062900
     6  Na   0.071459   0.350350
     7  Na  -0.061804   0.083685
 Sum of Mulliken charges =  -0.00000   1.00000

 Dipole moment (field-independent basis, Debye):
    X=              0.0543    Y=              0.3663    Z=              0.0671  Tot=              0.3764
 Quadrupole moment (field-independent basis, Debye-Ang):
   XX=            -55.9047   YY=            -75.1675   ZZ=            -66.2615
   XY=             -0.8627   XZ=             -3.0639   YZ=             -0.8843

 Normal termination of Gaussian 16 at Thu Dec  7 20:24:26 2023.
