 Gaussian 16, Revision B.01,
 Gaussian 16:  ES64L-G16RevB.01 20-Dec-2017

 -------------------------
 #P B3LYP/6-311+g(d) force
 -------------------------

 -----
 DPGEN
 -----
 Symbolic Z-matrix:
 Charge =  0 Multiplicity = 2

                         Standard orientation:
 ---------------------------------------------------------------------
 Center     Atomic      Atomic             Coordinates (Angstroms)
 Number     Number       Type             X           Y           Z
 ---------------------------------------------------------------------
      1         11           0        3.040095    1.110952   -0.071536
      2         11           0       -0.367727    2.938216   -0.069780
      3         11           0       -3.168976    0.434556   -0.302187
      4         11           0       -0.000609    0.212011    2.067840
      5         11           0        2.234927   -2.026322   -0.325709
      6         11           0       -1.426468   -2.491097    0.395257
      7         11           0       -0.311242   -0.178315   -1.693885
 ---------------------------------------------------------------------

 SCF Done:  E(UB3LYP) =  -1136.13801474     A.U. after   19 cycles

 The electronic state is 2-A.
 Alpha  occ. eigenvalues --  -38.44247 -38.44131 -38.43657 -38.43501 -38.43397
 Alpha  occ. eigenvalues --  -38.43297 -38.43279  -2.20086  -2.19941  -2.19539
 Alpha  occ. eigenvalues --   -2.19354  -2.19346  -2.19163  -2.19101  -1.13781
 Alpha  occ. eigenvalues --   -1.13739  -1.13713  -1.13619  -1.13611  -1.13577
 Alpha  occ. eigenvalues --   -1.13207  -1.13168  -1.13160  -1.13058  -1.13033
 Alpha  occ. eigenvalues --   -1.13005  -1.12997  -1.12983  -1.12963  -1.12835
 Alpha  occ. eigenvalues --   -1.12822  -1.12791  -1.12778  -1.12774  -1.12727
 Alpha  occ. eigenvalues --   -0.18515  -0.13133  -0.12228  -0.10841
 Alpha virt. eigenvalues --   -0.05854  -0.05049  -0.04613  -0.03256  -0.02907
 Alpha virt. eigenvalues --   -0.02639  -0.01663  -0.01043  -0.00422  -0.00334
 Alpha virt. eigenvalues --   -0.00022   0.00354   0.00787   0.00867   0.00898

  Beta  occ. eigenvalues --  -38.44238 -38.44131 -38.43560 -38.43495 -38.43336
  Beta  occ. eigenvalues --  -38.43285 -38.43276  -2.20072  -2.19942  -2.19362
  Beta  occ. eigenvalues --   -2.19337  -2.19243  -2.19145  -2.19099  -1.13762
  Beta  occ. eigenvalues --   -1.13717  -1.13709  -1.13623  -1.13597  -1.13578
  Beta  occ. eigenvalues --   -1.13092  -1.13044  -1.13031  -1.13025  -1.12995
  Beta  occ. eigenvalues --   -1.12975  -1.12963  -1.12923  -1.12891  -1.12817
  Beta  occ. eigenvalues --   -1.12784  -1.12780  -1.12772  -1.12756  -1.12725
  Beta  occ. eigenvalues --   -0.17789  -0.12899  -0.11995
  Beta virt. eigenvalues --   -0.06927  -0.05803  -0.05055  -0.04539  -0.02505
  Beta virt. eigenvalues --   -0.02136  -0.01606  -0.01552  -0.00969  -0.00470
  Beta virt. eigenvalues --   -0.00362   0.00113   0.00388   0.00855   0.00859

 Mulliken charges and spin densities:
               1          2
     1  Na  -0.011952  -0.082261
     2  Na  -0.028947  -0.128714
     3  Na   0.272672  -0.045413
     4  Na  -0.363017   0.728888
     5  Na   0.124965  -0.027317
     6  Na   0.131004   0.038979
     7  Na  -0.124726   0.515838
 Sum of Mulliken charges =  -0.00000   1.00000

 Dipole moment (field-independent basis, Debye):
    X=             -0.1185    Y=              0.1323    Z=              0.0716  Tot=              0.1915
 Quadrupole moment (field-independent basis, Debye-Ang):
   XX=            -55.6564   YY=            -64.2324   ZZ=            -73.8785
   XY=              0.3852   XZ=             -0.3668   YZ=             -0.8385

 Normal termination of Gaussian 16 at Thu Dec  7 15:34:53 2023.
