 Gaussian 16, Revision B.01,
 Gaussian 16:  ES64L-G16RevB.01 20-Dec-2017

 -------------------------
 #P B3LYP/6-311+g(d) force
 -------------------------

 -----
 DPGEN
 -----
 Symbolic Z-matrix:
 Charge =  0 Multiplicity = 2

                         Standard orientation:
 ---------------------------------------------------------------------
 Center     Atomic      Atomic             Coordinates (Angstroms)
 Number     Number       Type             X           Y           Z
 ---------------------------------------------------------------------
      1         11           0       -1.194226    1.342590    1.667234
      2         11           0       -1.658850   -1.863224    0.658202
      3         11           0        1.952256   -2.220236   -0.994241
      4         11           0       -3.510806    0.255411   -0.853397
      5         11           0        2.177796   -0.651067    1.487579
      6         11           0        1.998454    2.508875   -0.424953
      7         11           0        0.235376    0.627650   -1.540425
 ---------------------------------------------------------------------

 SCF Done:  E(UB3LYP) =  -1136.12539758     A.U. after   20 cycles

 The electronic state is 2-A.
 Alpha  occ. eigenvalues --  -38.44584 -38.44084 -38.44061 -38.43949 -38.43351
 Alpha  occ. eigenvalues --  -38.43330 -38.43298  -2.20412  -2.19964  -2.19918
 Alpha  occ. eigenvalues --   -2.19803  -2.19338  -2.19194  -2.19172  -1.14087
 Alpha  occ. eigenvalues --   -1.14064  -1.14049  -1.13690  -1.13628  -1.13611
 Alpha  occ. eigenvalues --   -1.13579  -1.13567  -1.13528  -1.13480  -1.13478
 Alpha  occ. eigenvalues --   -1.13408  -1.13228  -1.12991  -1.12967  -1.12849
 Alpha  occ. eigenvalues --   -1.12825  -1.12811  -1.12799  -1.12779  -1.12759
 Alpha  occ. eigenvalues --   -0.18470  -0.13615  -0.11684  -0.11132
 Alpha virt. eigenvalues --   -0.05928  -0.05196  -0.04500  -0.03400  -0.02907
 Alpha virt. eigenvalues --   -0.02703  -0.01746  -0.00938  -0.00613   0.00106
 Alpha virt. eigenvalues --    0.00212   0.00363   0.00478   0.00631   0.00790

  Beta  occ. eigenvalues --  -38.44571 -38.44053 -38.44007 -38.43939 -38.43326
  Beta  occ. eigenvalues --  -38.43295 -38.43285  -2.20388  -2.19909  -2.19819
  Beta  occ. eigenvalues --   -2.19788  -2.19242  -2.19184  -2.19150  -1.14072
  Beta  occ. eigenvalues --   -1.14038  -1.14034  -1.13648  -1.13572  -1.13556
  Beta  occ. eigenvalues --   -1.13544  -1.13489  -1.13476  -1.13452  -1.13433
  Beta  occ. eigenvalues --   -1.13402  -1.13180  -1.12922  -1.12897  -1.12833
  Beta  occ. eigenvalues --   -1.12814  -1.12787  -1.12781  -1.12762  -1.12727
  Beta  occ. eigenvalues --   -0.17734  -0.13429  -0.11519
  Beta virt. eigenvalues --   -0.07274  -0.05681  -0.05127  -0.03998  -0.03171
  Beta virt. eigenvalues --   -0.02319  -0.01767  -0.01612  -0.00890  -0.00249
  Beta virt. eigenvalues --    0.00132   0.00278   0.00388   0.00666   0.00713

 Mulliken charges and spin densities:
               1          2
     1  Na  -0.300298   0.381759
     2  Na  -0.252125   0.132742
     3  Na   0.221803  -0.119899
     4  Na   0.522771  -0.053124
     5  Na   0.067804   0.263191
     6  Na   0.107295  -0.002539
     7  Na  -0.367249   0.397870
 Sum of Mulliken charges =  -0.00000   1.00000

 Dipole moment (field-independent basis, Debye):
    X=             -0.8895    Y=              0.0661    Z=              0.2380  Tot=              0.9231
 Quadrupole moment (field-independent basis, Debye-Ang):
   XX=            -55.5443   YY=            -70.5566   ZZ=            -68.5968
   XY=              0.0114   XZ=              2.5744   YZ=              1.7406

 Normal termination of Gaussian 16 at Tue Dec  5 21:40:08 2023.
