 Gaussian 16, Revision B.01,
 Gaussian 16:  ES64L-G16RevB.01 20-Dec-2017

 -------------------------
 #P B3LYP/6-311+g(d) force
 -------------------------

 -----
 DPGEN
 -----
 Symbolic Z-matrix:
 Charge =  0 Multiplicity = 2

                         Standard orientation:
 ---------------------------------------------------------------------
 Center     Atomic      Atomic             Coordinates (Angstroms)
 Number     Number       Type             X           Y           Z
 ---------------------------------------------------------------------
      1         11           0        2.804385    0.728790   -0.352931
      2         11           0       -2.167247   -2.119804   -0.134028
      3         11           0       -2.742273    1.389054   -0.182724
      4         11           0        0.114756   -0.324873    2.170703
      5         11           0        1.583205   -2.411332   -0.021726
      6         11           0        0.052051   -0.177345   -1.678910
      7         11           0        0.355123    2.915510    0.199615
 ---------------------------------------------------------------------

 SCF Done:  E(UB3LYP) =  -1136.13926960     A.U. after   19 cycles

 The electronic state is 2-A.
 Alpha  occ. eigenvalues --  -38.43879 -38.43700 -38.43684 -38.43492 -38.43488
 Alpha  occ. eigenvalues --  -38.43319 -38.43272  -2.19756  -2.19522  -2.19520
 Alpha  occ. eigenvalues --   -2.19385  -2.19380  -2.19273  -2.19165  -1.13419
 Alpha  occ. eigenvalues --   -1.13386  -1.13375  -1.13222  -1.13200  -1.13194
 Alpha  occ. eigenvalues --   -1.13180  -1.13170  -1.13141  -1.13133  -1.13086
 Alpha  occ. eigenvalues --   -1.13057  -1.13037  -1.13028  -1.12977  -1.12931
 Alpha  occ. eigenvalues --   -1.12888  -1.12881  -1.12829  -1.12824  -1.12805
 Alpha  occ. eigenvalues --   -0.18796  -0.12863  -0.12632  -0.11049
 Alpha virt. eigenvalues --   -0.05338  -0.05040  -0.04805  -0.03141  -0.03090
 Alpha virt. eigenvalues --   -0.02847  -0.01235  -0.01121  -0.00264  -0.00223
 Alpha virt. eigenvalues --   -0.00022   0.00369   0.00861   0.00896   0.00924

  Beta  occ. eigenvalues --  -38.43777 -38.43699 -38.43680 -38.43484 -38.43479
  Beta  occ. eigenvalues --  -38.43316 -38.43207  -2.19568  -2.19522  -2.19516
  Beta  occ. eigenvalues --   -2.19375  -2.19367  -2.19163  -2.19154  -1.13298
  Beta  occ. eigenvalues --   -1.13254  -1.13243  -1.13212  -1.13192  -1.13184
  Beta  occ. eigenvalues --   -1.13172  -1.13160  -1.13134  -1.13119  -1.13069
  Beta  occ. eigenvalues --   -1.13038  -1.13014  -1.12999  -1.12972  -1.12859
  Beta  occ. eigenvalues --   -1.12833  -1.12811  -1.12806  -1.12798  -1.12793
  Beta  occ. eigenvalues --   -0.18051  -0.12618  -0.12407
  Beta virt. eigenvalues --   -0.07076  -0.05358  -0.05014  -0.04726  -0.02355
  Beta virt. eigenvalues --   -0.02287  -0.01752  -0.01156  -0.01060  -0.00314
  Beta virt. eigenvalues --   -0.00268   0.00120   0.00395   0.00880   0.00918

 Mulliken charges and spin densities:
               1          2
     1  Na   0.283425   0.019386
     2  Na   0.151795  -0.081663
     3  Na  -0.004737  -0.059988
     4  Na  -0.622252   0.766799
     5  Na   0.414482  -0.017269
     6  Na  -0.230531   0.382975
     7  Na   0.007818  -0.010240
 Sum of Mulliken charges =  -0.00000   1.00000

 Dipole moment (field-independent basis, Debye):
    X=             -0.1445    Y=             -0.1691    Z=              0.1949  Tot=              0.2958
 Quadrupole moment (field-independent basis, Debye-Ang):
   XX=            -59.8879   YY=            -61.8527   ZZ=            -72.8271
   XY=              0.0650   XZ=             -0.2057   YZ=              0.3403

 Normal termination of Gaussian 16 at Thu Dec  7 17:15:15 2023.
