 Gaussian 16, Revision B.01,
 Gaussian 16:  ES64L-G16RevB.01 20-Dec-2017

 -------------------------
 #P B3LYP/6-311+g(d) force
 -------------------------

 -----
 DPGEN
 -----
 Symbolic Z-matrix:
 Charge =  0 Multiplicity = 2

                         Standard orientation:
 ---------------------------------------------------------------------
 Center     Atomic      Atomic             Coordinates (Angstroms)
 Number     Number       Type             X           Y           Z
 ---------------------------------------------------------------------
      1         11           0        5.031137    0.189372    0.291023
      2         11           0       -2.494359   -2.081189    1.528108
      3         11           0       -4.640028   -0.034137   -0.880945
      4         11           0        1.630670    1.916853    0.704975
      5         11           0       -2.126918    2.360221   -0.131701
      6         11           0       -0.413050   -0.780803   -0.403875
      7         11           0        3.012548   -1.570317   -1.107585
 ---------------------------------------------------------------------

 SCF Done:  E(UB3LYP) =  -1136.11118644     A.U. after   26 cycles

 The electronic state is 2-A.
 Alpha  occ. eigenvalues --  -38.44927 -38.44817 -38.44814 -38.44312 -38.43726
 Alpha  occ. eigenvalues --  -38.43643 -38.43467  -2.20740  -2.20655  -2.20611
 Alpha  occ. eigenvalues --   -2.20112  -2.19628  -2.19423  -2.19261  -1.14513
 Alpha  occ. eigenvalues --   -1.14403  -1.14392  -1.14291  -1.14278  -1.14273
 Alpha  occ. eigenvalues --   -1.14255  -1.14238  -1.14214  -1.13824  -1.13765
 Alpha  occ. eigenvalues --   -1.13729  -1.13331  -1.13271  -1.13234  -1.13121
 Alpha  occ. eigenvalues --   -1.13100  -1.13032  -1.12954  -1.12934  -1.12874
 Alpha  occ. eigenvalues --   -0.16943  -0.14706  -0.11241  -0.10909
 Alpha virt. eigenvalues --   -0.07287  -0.05423  -0.04317  -0.03733  -0.03003
 Alpha virt. eigenvalues --   -0.02473  -0.01897  -0.01594  -0.01275  -0.00854
 Alpha virt. eigenvalues --   -0.00171   0.00039   0.00378   0.00551   0.00627

  Beta  occ. eigenvalues --  -38.44940 -38.44760 -38.44731 -38.44292 -38.43669
  Beta  occ. eigenvalues --  -38.43645 -38.43450  -2.20769  -2.20548  -2.20457
  Beta  occ. eigenvalues --   -2.20077  -2.19527  -2.19430  -2.19233  -1.14492
  Beta  occ. eigenvalues --   -1.14426  -1.14401  -1.14217  -1.14207  -1.14187
  Beta  occ. eigenvalues --   -1.14168  -1.14143  -1.14111  -1.13790  -1.13743
  Beta  occ. eigenvalues --   -1.13699  -1.13263  -1.13205  -1.13158  -1.13125
  Beta  occ. eigenvalues --   -1.13094  -1.13035  -1.12937  -1.12921  -1.12829
  Beta  occ. eigenvalues --   -0.16335  -0.14037  -0.10766
  Beta virt. eigenvalues --   -0.07731  -0.07001  -0.04908  -0.04045  -0.03441
  Beta virt. eigenvalues --   -0.02793  -0.02152  -0.01622  -0.01113  -0.00822
  Beta virt. eigenvalues --   -0.00636  -0.00109   0.00084   0.00454   0.00602

 Mulliken charges and spin densities:
               1          2
     1  Na   0.129356   0.252779
     2  Na   0.578552   0.006733
     3  Na   0.256356   0.431813
     4  Na   0.090444  -0.044608
     5  Na   0.211250   0.119881
     6  Na  -1.186947   0.305734
     7  Na  -0.079012  -0.072332
 Sum of Mulliken charges =  -0.00000   1.00000

 Dipole moment (field-independent basis, Debye):
    X=              0.5458    Y=             -0.2746    Z=              0.2097  Tot=              0.6460
 Quadrupole moment (field-independent basis, Debye-Ang):
   XX=            -56.4932   YY=            -75.2826   ZZ=            -65.5110
   XY=              2.9892   XZ=              2.9547   YZ=              1.9440

 Normal termination of Gaussian 16 at Sun Dec  3 14:59:27 2023.
