 Gaussian 16, Revision B.01,
 Gaussian 16:  ES64L-G16RevB.01 20-Dec-2017

 -------------------------
 #P B3LYP/6-311+g(d) force
 -------------------------

 -----
 DPGEN
 -----
 Symbolic Z-matrix:
 Charge =  0 Multiplicity = 2

                         Standard orientation:
 ---------------------------------------------------------------------
 Center     Atomic      Atomic             Coordinates (Angstroms)
 Number     Number       Type             X           Y           Z
 ---------------------------------------------------------------------
      1         11           0       -0.538008    0.027417    1.855880
      2         11           0        0.337096   -0.052566   -1.838607
      3         11           0        2.074532    2.059164    0.210429
      4         11           0       -1.556733    2.667776   -0.101050
      5         11           0        2.858150   -1.193298   -0.013419
      6         11           0       -2.960505   -0.936507   -0.378182
      7         11           0       -0.214532   -2.571986    0.264948
 ---------------------------------------------------------------------

 SCF Done:  E(UB3LYP) =  -1136.13801778     A.U. after   19 cycles

 The electronic state is 2-A.
 Alpha  occ. eigenvalues --  -38.44001 -38.43708 -38.43638 -38.43601 -38.43396
 Alpha  occ. eigenvalues --  -38.43374 -38.43047  -2.19849  -2.19555  -2.19505
 Alpha  occ. eigenvalues --   -2.19413  -2.19344  -2.19328  -2.18996  -1.13524
 Alpha  occ. eigenvalues --   -1.13513  -1.13488  -1.13257  -1.13232  -1.13201
 Alpha  occ. eigenvalues --   -1.13189  -1.13158  -1.13130  -1.13099  -1.13081
 Alpha  occ. eigenvalues --   -1.13052  -1.13047  -1.13018  -1.12974  -1.12955
 Alpha  occ. eigenvalues --   -1.12952  -1.12938  -1.12675  -1.12649  -1.12606
 Alpha  occ. eigenvalues --   -0.18892  -0.13087  -0.12507  -0.10820
 Alpha virt. eigenvalues --   -0.05539  -0.05230  -0.04523  -0.03292  -0.02941
 Alpha virt. eigenvalues --   -0.02519  -0.01468  -0.01104  -0.00282  -0.00143
 Alpha virt. eigenvalues --    0.00007   0.00368   0.00809   0.00885   0.00934

  Beta  occ. eigenvalues --  -38.43993 -38.43704 -38.43636 -38.43599 -38.43320
  Beta  occ. eigenvalues --  -38.43295 -38.43033  -2.19837  -2.19549  -2.19503
  Beta  occ. eigenvalues --   -2.19412  -2.19205  -2.19183  -2.18976  -1.13519
  Beta  occ. eigenvalues --   -1.13487  -1.13475  -1.13254  -1.13211  -1.13195
  Beta  occ. eigenvalues --   -1.13182  -1.13139  -1.13131  -1.13088  -1.13068
  Beta  occ. eigenvalues --   -1.13048  -1.12964  -1.12926  -1.12876  -1.12854
  Beta  occ. eigenvalues --   -1.12851  -1.12836  -1.12656  -1.12600  -1.12591
  Beta  occ. eigenvalues --   -0.18143  -0.12863  -0.12260
  Beta virt. eigenvalues --   -0.06900  -0.05508  -0.05189  -0.04499  -0.02508
  Beta virt. eigenvalues --   -0.02159  -0.01486  -0.01364  -0.01047  -0.00323
  Beta virt. eigenvalues --   -0.00166   0.00127   0.00391   0.00857   0.00892

 Mulliken charges and spin densities:
               1          2
     1  Na  -0.318899   0.589259
     2  Na  -0.413106   0.686843
     3  Na   0.055994  -0.104537
     4  Na  -0.043623  -0.129626
     5  Na   0.190919  -0.038231
     6  Na   0.073654  -0.039482
     7  Na   0.455061   0.035774
 Sum of Mulliken charges =  -0.00000   1.00000

 Dipole moment (field-independent basis, Debye):
    X=             -0.1217    Y=              0.2114    Z=             -0.0827  Tot=              0.2576
 Quadrupole moment (field-independent basis, Debye-Ang):
   XX=            -56.2656   YY=            -63.7860   ZZ=            -73.5756
   XY=             -0.2812   XZ=              2.0448   YZ=             -0.0291

 Normal termination of Gaussian 16 at Thu Dec  7 13:43:37 2023.
