 Gaussian 16, Revision B.01,
 Gaussian 16:  ES64L-G16RevB.01 20-Dec-2017

 -------------------------
 #P B3LYP/6-311+g(d) force
 -------------------------

 -----
 DPGEN
 -----
 Symbolic Z-matrix:
 Charge =  0 Multiplicity = 2

                         Standard orientation:
 ---------------------------------------------------------------------
 Center     Atomic      Atomic             Coordinates (Angstroms)
 Number     Number       Type             X           Y           Z
 ---------------------------------------------------------------------
      1         11           0        1.288975    1.813398   -0.235236
      2         11           0       -1.864657    0.285426    1.807164
      3         11           0       -3.993317   -0.845961   -0.906341
      4         11           0        0.133064   -1.929882   -0.437875
      5         11           0        4.120844   -0.348299   -0.932561
      6         11           0        1.872448   -0.552370    1.473131
      7         11           0       -1.557357    1.577688   -0.768282
 ---------------------------------------------------------------------

 SCF Done:  E(UB3LYP) =  -1136.10794474     A.U. after   28 cycles

 The electronic state is 2-A.
 Alpha  occ. eigenvalues --  -38.45167 -38.44803 -38.44569 -38.44134 -38.44008
 Alpha  occ. eigenvalues --  -38.43256 -38.42680  -2.21054  -2.20626  -2.20400
 Alpha  occ. eigenvalues --   -2.20129  -2.19824  -2.19250  -2.18647  -1.14802
 Alpha  occ. eigenvalues --   -1.14704  -1.14649  -1.14291  -1.14262  -1.14243
 Alpha  occ. eigenvalues --   -1.14206  -1.14085  -1.13997  -1.13822  -1.13769
 Alpha  occ. eigenvalues --   -1.13711  -1.13492  -1.13471  -1.13439  -1.12983
 Alpha  occ. eigenvalues --   -1.12942  -1.12844  -1.12340  -1.12321  -1.12219
 Alpha  occ. eigenvalues --   -0.18768  -0.14593  -0.11276  -0.10899
 Alpha virt. eigenvalues --   -0.07065  -0.05333  -0.04501  -0.03053  -0.02948
 Alpha virt. eigenvalues --   -0.02255  -0.02039  -0.01438  -0.00884  -0.00152
 Alpha virt. eigenvalues --   -0.00052   0.00261   0.00337   0.00602   0.00745

  Beta  occ. eigenvalues --  -38.45146 -38.44739 -38.44580 -38.44097 -38.43956
  Beta  occ. eigenvalues --  -38.43231 -38.42662  -2.21019  -2.20505  -2.20425
  Beta  occ. eigenvalues --   -2.20067  -2.19727  -2.19206  -2.18619  -1.14780
  Beta  occ. eigenvalues --   -1.14663  -1.14612  -1.14208  -1.14199  -1.14175
  Beta  occ. eigenvalues --   -1.14165  -1.14095  -1.14018  -1.13788  -1.13735
  Beta  occ. eigenvalues --   -1.13625  -1.13421  -1.13404  -1.13380  -1.12936
  Beta  occ. eigenvalues --   -1.12912  -1.12816  -1.12311  -1.12301  -1.12186
  Beta  occ. eigenvalues --   -0.18136  -0.14032  -0.10738
  Beta virt. eigenvalues --   -0.07534  -0.06846  -0.04943  -0.04047  -0.02934
  Beta virt. eigenvalues --   -0.02720  -0.01791  -0.01503  -0.01187  -0.00473
  Beta virt. eigenvalues --    0.00026   0.00051   0.00305   0.00461   0.00697

 Mulliken charges and spin densities:
               1          2
     1  Na  -0.751376   0.067234
     2  Na   0.127806   0.051103
     3  Na   0.220855   0.169142
     4  Na  -0.571098  -0.272211
     5  Na   0.428489   0.312905
     6  Na   0.440887   0.373443
     7  Na   0.104438   0.298385
 Sum of Mulliken charges =  -0.00000   1.00000

 Dipole moment (field-independent basis, Debye):
    X=              0.2373    Y=             -0.3412    Z=              0.4700  Tot=              0.6274
 Quadrupole moment (field-independent basis, Debye-Ang):
   XX=            -55.0261   YY=            -80.3748   ZZ=            -62.4429
   XY=             -0.1820   XZ=             -2.9029   YZ=              2.0285

 Normal termination of Gaussian 16 at Thu Dec  7 05:18:52 2023.
