 Gaussian 16, Revision B.01,
 Gaussian 16:  ES64L-G16RevB.01 20-Dec-2017

 -------------------------
 #P B3LYP/6-311+g(d) force
 -------------------------

 -----
 DPGEN
 -----
 Symbolic Z-matrix:
 Charge =  0 Multiplicity = 2

                         Standard orientation:
 ---------------------------------------------------------------------
 Center     Atomic      Atomic             Coordinates (Angstroms)
 Number     Number       Type             X           Y           Z
 ---------------------------------------------------------------------
      1         11           0        0.339103   -1.887520    0.912581
      2         11           0        3.646867   -2.463521   -0.237852
      3         11           0        2.548712    0.293923   -1.107954
      4         11           0        2.233099    3.285962    0.575405
      5         11           0       -0.330127    1.253297   -0.239234
      6         11           0       -3.240051   -0.283536    1.288518
      7         11           0       -5.197602   -0.198604   -1.191465
 ---------------------------------------------------------------------

 SCF Done:  E(UB3LYP) =  -1136.12221289     A.U. after   20 cycles

 The electronic state is 2-A.
 Alpha  occ. eigenvalues --  -38.44288 -38.44049 -38.43947 -38.43894 -38.43886
 Alpha  occ. eigenvalues --  -38.43806 -38.43451  -2.20108  -2.19887  -2.19847
 Alpha  occ. eigenvalues --   -2.19817  -2.19702  -2.19628  -2.19295  -1.13761
 Alpha  occ. eigenvalues --   -1.13738  -1.13733  -1.13645  -1.13587  -1.13569
 Alpha  occ. eigenvalues --   -1.13527  -1.13512  -1.13490  -1.13460  -1.13447
 Alpha  occ. eigenvalues --   -1.13406  -1.13364  -1.13356  -1.13312  -1.13306
 Alpha  occ. eigenvalues --   -1.13297  -1.13268  -1.12965  -1.12941  -1.12908
 Alpha  occ. eigenvalues --   -0.17310  -0.14074  -0.12193  -0.10913
 Alpha virt. eigenvalues --   -0.06082  -0.05262  -0.04635  -0.03678  -0.02724
 Alpha virt. eigenvalues --   -0.02180  -0.01939  -0.01879  -0.00641  -0.00461
 Alpha virt. eigenvalues --   -0.00309   0.00149   0.00243   0.00451   0.00659

  Beta  occ. eigenvalues --  -38.44195 -38.44001 -38.43926 -38.43888 -38.43865
  Beta  occ. eigenvalues --  -38.43807 -38.43426  -2.19933  -2.19811  -2.19802
  Beta  occ. eigenvalues --   -2.19778  -2.19690  -2.19639  -2.19248  -1.13650
  Beta  occ. eigenvalues --   -1.13619  -1.13615  -1.13615  -1.13533  -1.13515
  Beta  occ. eigenvalues --   -1.13499  -1.13483  -1.13451  -1.13420  -1.13395
  Beta  occ. eigenvalues --   -1.13378  -1.13356  -1.13339  -1.13322  -1.13308
  Beta  occ. eigenvalues --   -1.13297  -1.13219  -1.12925  -1.12910  -1.12882
  Beta  occ. eigenvalues --   -0.16765  -0.13295  -0.12061
  Beta virt. eigenvalues --   -0.07379  -0.05968  -0.04638  -0.04428  -0.03460
  Beta virt. eigenvalues --   -0.02428  -0.02055  -0.01660  -0.01338  -0.00412
  Beta virt. eigenvalues --   -0.00233  -0.00188   0.00357   0.00426   0.00550

 Mulliken charges and spin densities:
               1          2
     1  Na  -0.374601   0.124128
     2  Na   0.584606   0.226527
     3  Na  -0.258149   0.151055
     4  Na   0.798874   0.087911
     5  Na  -1.073914   0.028942
     6  Na   0.360223  -0.095053
     7  Na  -0.037039   0.476489
 Sum of Mulliken charges =  -0.00000   1.00000

 Dipole moment (field-independent basis, Debye):
    X=              0.6284    Y=              0.2045    Z=              0.4481  Tot=              0.7985
 Quadrupole moment (field-independent basis, Debye-Ang):
   XX=            -67.2106   YY=            -67.0032   ZZ=            -64.9014
   XY=              1.2377   XZ=              2.8082   YZ=              1.0247

 Normal termination of Gaussian 16 at Tue Nov 28 19:51:05 2023.
