 Gaussian 16, Revision B.01,
 Gaussian 16:  ES64L-G16RevB.01 20-Dec-2017

 -------------------------
 #P B3LYP/6-311+g(d) force
 -------------------------

 -----
 DPGEN
 -----
 Symbolic Z-matrix:
 Charge =  0 Multiplicity = 2

                         Standard orientation:
 ---------------------------------------------------------------------
 Center     Atomic      Atomic             Coordinates (Angstroms)
 Number     Number       Type             X           Y           Z
 ---------------------------------------------------------------------
      1         11           0       -2.279421    2.064012    0.346525
      2         11           0        1.805853    2.329285   -0.257189
      3         11           0        0.124206   -0.257948    1.867394
      4         11           0        2.960453   -0.700465    0.305452
      5         11           0       -2.900294   -1.428777    0.028754
      6         11           0        0.590090   -2.405617   -0.547504
      7         11           0       -0.300887    0.399509   -1.743433
 ---------------------------------------------------------------------

 SCF Done:  E(UB3LYP) =  -1136.13390655     A.U. after   19 cycles

 The electronic state is 2-A.
 Alpha  occ. eigenvalues --  -38.44200 -38.43942 -38.43920 -38.43595 -38.43422
 Alpha  occ. eigenvalues --  -38.43224 -38.42919  -2.20013  -2.19835  -2.19766
 Alpha  occ. eigenvalues --   -2.19535  -2.19276  -2.19206  -2.18867  -1.13688
 Alpha  occ. eigenvalues --   -1.13668  -1.13658  -1.13539  -1.13507  -1.13471
 Alpha  occ. eigenvalues --   -1.13450  -1.13435  -1.13390  -1.13223  -1.13162
 Alpha  occ. eigenvalues --   -1.13149  -1.12997  -1.12931  -1.12911  -1.12896
 Alpha  occ. eigenvalues --   -1.12840  -1.12803  -1.12550  -1.12513  -1.12489
 Alpha  occ. eigenvalues --   -0.18989  -0.13412  -0.12142  -0.10930
 Alpha virt. eigenvalues --   -0.05708  -0.05496  -0.04050  -0.03432  -0.02823
 Alpha virt. eigenvalues --   -0.02535  -0.01677  -0.01132  -0.00285  -0.00047
 Alpha virt. eigenvalues --    0.00049   0.00359   0.00751   0.00855   0.00942

  Beta  occ. eigenvalues --  -38.44199 -38.43935 -38.43913 -38.43518 -38.43416
  Beta  occ. eigenvalues --  -38.43148 -38.42900  -2.20013  -2.19824  -2.19756
  Beta  occ. eigenvalues --   -2.19394  -2.19268  -2.19068  -2.18838  -1.13675
  Beta  occ. eigenvalues --   -1.13671  -1.13654  -1.13535  -1.13490  -1.13447
  Beta  occ. eigenvalues --   -1.13439  -1.13416  -1.13384  -1.13130  -1.13064
  Beta  occ. eigenvalues --   -1.13044  -1.12973  -1.12912  -1.12904  -1.12808
  Beta  occ. eigenvalues --   -1.12740  -1.12712  -1.12531  -1.12474  -1.12453
  Beta  occ. eigenvalues --   -0.18242  -0.13168  -0.11889
  Beta virt. eigenvalues --   -0.06993  -0.05664  -0.05470  -0.04009  -0.02655
  Beta virt. eigenvalues --   -0.02076  -0.01583  -0.01475  -0.01071  -0.00305
  Beta virt. eigenvalues --   -0.00028   0.00129   0.00382   0.00823   0.00851

 Mulliken charges and spin densities:
               1          2
     1  Na  -0.086719  -0.071421
     2  Na   0.052201  -0.102477
     3  Na  -0.369474   0.613843
     4  Na   0.309841   0.104512
     5  Na   0.031211  -0.072787
     6  Na   0.195887   0.034525
     7  Na  -0.132948   0.493804
 Sum of Mulliken charges =  -0.00000   1.00000

 Dipole moment (field-independent basis, Debye):
    X=             -0.4426    Y=              0.1224    Z=              0.2241  Tot=              0.5110
 Quadrupole moment (field-independent basis, Debye-Ang):
   XX=            -53.9526   YY=            -66.1354   ZZ=            -73.3776
   XY=              0.4939   XZ=             -0.5233   YZ=              1.2716

 Normal termination of Gaussian 16 at Thu Dec  7 06:09:54 2023.
