 Gaussian 16, Revision B.01,
 Gaussian 16:  ES64L-G16RevB.01 20-Dec-2017

 -------------------------
 #P B3LYP/6-311+g(d) force
 -------------------------

 -----
 DPGEN
 -----
 Symbolic Z-matrix:
 Charge =  0 Multiplicity = 2

                         Standard orientation:
 ---------------------------------------------------------------------
 Center     Atomic      Atomic             Coordinates (Angstroms)
 Number     Number       Type             X           Y           Z
 ---------------------------------------------------------------------
      1         11           0       -3.241619   -2.169667   -0.009331
      2         11           0       -3.859982    0.500474   -1.122530
      3         11           0       -1.995831    3.067571   -0.551084
      4         11           0       -1.152573    0.761930    2.187723
      5         11           0        0.519881   -2.552378    0.256254
      6         11           0        4.315130   -1.002848   -0.951211
      7         11           0        5.414994    1.394919    0.190179
 ---------------------------------------------------------------------

 SCF Done:  E(UB3LYP) =  -1136.10216155     A.U. after   21 cycles

 The electronic state is 2-A.
 Alpha  occ. eigenvalues --  -38.45828 -38.44487 -38.44199 -38.44174 -38.44172
 Alpha  occ. eigenvalues --  -38.44171 -38.43825  -2.21589  -2.20307  -2.20063
 Alpha  occ. eigenvalues --   -2.20018  -2.19990  -2.19941  -2.19624  -1.15266
 Alpha  occ. eigenvalues --   -1.15225  -1.15190  -1.14092  -1.13942  -1.13940
 Alpha  occ. eigenvalues --   -1.13901  -1.13716  -1.13686  -1.13660  -1.13636
 Alpha  occ. eigenvalues --   -1.13625  -1.13624  -1.13619  -1.13607  -1.13605
 Alpha  occ. eigenvalues --   -1.13589  -1.13556  -1.13293  -1.13283  -1.13265
 Alpha  occ. eigenvalues --   -0.16410  -0.13806  -0.11845  -0.11398
 Alpha virt. eigenvalues --   -0.07223  -0.05172  -0.04088  -0.03575  -0.03373
 Alpha virt. eigenvalues --   -0.02390  -0.02339  -0.02237  -0.00974  -0.00726
 Alpha virt. eigenvalues --   -0.00596  -0.00190   0.00298   0.00353   0.00547

  Beta  occ. eigenvalues --  -38.45747 -38.44474 -38.44178 -38.44173 -38.44123
  Beta  occ. eigenvalues --  -38.44111 -38.43827  -2.21439  -2.20282  -2.19993
  Beta  occ. eigenvalues --   -2.19957  -2.19928  -2.19902  -2.19629  -1.15161
  Beta  occ. eigenvalues --   -1.15127  -1.15079  -1.14078  -1.13925  -1.13923
  Beta  occ. eigenvalues --   -1.13811  -1.13647  -1.13639  -1.13628  -1.13617
  Beta  occ. eigenvalues --   -1.13599  -1.13598  -1.13595  -1.13573  -1.13567
  Beta  occ. eigenvalues --   -1.13539  -1.13493  -1.13298  -1.13284  -1.13258
  Beta  occ. eigenvalues --   -0.15591  -0.13597  -0.11565
  Beta virt. eigenvalues --   -0.07710  -0.06835  -0.05006  -0.03690  -0.03396
  Beta virt. eigenvalues --   -0.02742  -0.02161  -0.02127  -0.01877  -0.00860
  Beta virt. eigenvalues --   -0.00589  -0.00361   0.00075   0.00350   0.00427

 Mulliken charges and spin densities:
               1          2
     1  Na   0.276246   0.253324
     2  Na  -0.125113   0.226914
     3  Na   0.208264   0.006145
     4  Na  -0.292684   0.399080
     5  Na  -0.049042   0.072373
     6  Na  -0.194214  -0.010621
     7  Na   0.176544   0.052786
 Sum of Mulliken charges =  -0.00000   1.00000

 Dipole moment (field-independent basis, Debye):
    X=              0.4232    Y=              0.7857    Z=              0.5942  Tot=              1.0722
 Quadrupole moment (field-independent basis, Debye-Ang):
   XX=            -69.9516   YY=            -66.7141   ZZ=            -67.0378
   XY=              4.3823   XZ=              0.2108   YZ=              2.5868

 Normal termination of Gaussian 16 at Sun Dec  3 21:42:01 2023.
