 Gaussian 16, Revision B.01,
 Gaussian 16:  ES64L-G16RevB.01 20-Dec-2017

 -------------------------
 #P B3LYP/6-311+g(d) force
 -------------------------

 -----
 DPGEN
 -----
 Symbolic Z-matrix:
 Charge =  0 Multiplicity = 2

                         Standard orientation:
 ---------------------------------------------------------------------
 Center     Atomic      Atomic             Coordinates (Angstroms)
 Number     Number       Type             X           Y           Z
 ---------------------------------------------------------------------
      1         11           0        0.753820   -1.170649   -1.696464
      2         11           0        0.372525   -0.372676    1.897122
      3         11           0        3.557282   -2.232059    0.560843
      4         11           0        3.268463    1.460389   -0.860894
      5         11           0        0.109987    2.632731    0.359570
      6         11           0       -2.752312    0.864714   -0.011810
      7         11           0       -5.309764   -1.182449   -0.248368
 ---------------------------------------------------------------------

 SCF Done:  E(UB3LYP) =  -1136.11257218     A.U. after   26 cycles

 The electronic state is 2-A.
 Alpha  occ. eigenvalues --  -38.46803 -38.44714 -38.44622 -38.44614 -38.43712
 Alpha  occ. eigenvalues --  -38.43235 -38.42853  -2.22540  -2.20554  -2.20424
 Alpha  occ. eigenvalues --   -2.20389  -2.19497  -2.19070  -2.18704  -1.16231
 Alpha  occ. eigenvalues --   -1.16206  -1.16160  -1.14228  -1.14204  -1.14148
 Alpha  occ. eigenvalues --   -1.14096  -1.14068  -1.14061  -1.14050  -1.14035
 Alpha  occ. eigenvalues --   -1.14011  -1.13153  -1.13146  -1.13136  -1.12766
 Alpha  occ. eigenvalues --   -1.12756  -1.12697  -1.12387  -1.12365  -1.12351
 Alpha  occ. eigenvalues --   -0.17553  -0.13507  -0.11564  -0.10921
 Alpha virt. eigenvalues --   -0.07604  -0.05786  -0.04192  -0.03315  -0.03160
 Alpha virt. eigenvalues --   -0.02422  -0.02295  -0.02037  -0.01057  -0.00768
 Alpha virt. eigenvalues --   -0.00535  -0.00017   0.00195   0.00414   0.00471

  Beta  occ. eigenvalues --  -38.46810 -38.44632 -38.44606 -38.44543 -38.43672
  Beta  occ. eigenvalues --  -38.43237 -38.42858  -2.22555  -2.20403  -2.20361
  Beta  occ. eigenvalues --   -2.20290  -2.19422  -2.19078  -2.18716  -1.16232
  Beta  occ. eigenvalues --   -1.16206  -1.16176  -1.14129  -1.14108  -1.14051
  Beta  occ. eigenvalues --   -1.14032  -1.14012  -1.13998  -1.13997  -1.13974
  Beta  occ. eigenvalues --   -1.13943  -1.13102  -1.13093  -1.13087  -1.12774
  Beta  occ. eigenvalues --   -1.12764  -1.12678  -1.12401  -1.12375  -1.12334
  Beta  occ. eigenvalues --   -0.16976  -0.13095  -0.11160
  Beta virt. eigenvalues --   -0.07515  -0.07358  -0.05504  -0.03835  -0.03082
  Beta virt. eigenvalues --   -0.02789  -0.02023  -0.01913  -0.01675  -0.00794
  Beta virt. eigenvalues --   -0.00643  -0.00341   0.00041   0.00326   0.00516

 Mulliken charges and spin densities:
               1          2
     1  Na   0.005642   0.092892
     2  Na  -0.021467   0.322001
     3  Na   0.089548   0.045607
     4  Na   0.056546   0.347940
     5  Na   0.644486   0.078852
     6  Na  -0.958284   0.019687
     7  Na   0.183529   0.093020
 Sum of Mulliken charges =  -0.00000   1.00000

 Dipole moment (field-independent basis, Debye):
    X=              1.9986    Y=             -0.7553    Z=             -0.0002  Tot=              2.1365
 Quadrupole moment (field-independent basis, Debye-Ang):
   XX=            -64.3250   YY=            -70.7063   ZZ=            -68.2502
   XY=             -0.1698   XZ=              2.5572   YZ=              0.9193

 Normal termination of Gaussian 16 at Fri Dec  8 17:18:26 2023.
