 Gaussian 16, Revision B.01,
 Gaussian 16:  ES64L-G16RevB.01 20-Dec-2017

 -------------------------
 #P B3LYP/6-311+g(d) force
 -------------------------

 -----
 DPGEN
 -----
 Symbolic Z-matrix:
 Charge =  0 Multiplicity = 2

                         Standard orientation:
 ---------------------------------------------------------------------
 Center     Atomic      Atomic             Coordinates (Angstroms)
 Number     Number       Type             X           Y           Z
 ---------------------------------------------------------------------
      1         11           0       -3.128210   -0.309665   -0.255157
      2         11           0       -0.224592    0.163634    1.861398
      3         11           0        2.153075    1.768580    0.039433
      4         11           0        0.375028   -0.309951   -1.839443
      5         11           0        2.536711   -1.356519    0.092420
      6         11           0       -0.634568   -2.563178    0.224811
      7         11           0       -1.077444    2.607099   -0.123462
 ---------------------------------------------------------------------

 SCF Done:  E(UB3LYP) =  -1136.13743722     A.U. after   19 cycles

 The electronic state is 2-A.
 Alpha  occ. eigenvalues --  -38.44011 -38.43524 -38.43444 -38.43353 -38.43347
 Alpha  occ. eigenvalues --  -38.43242 -38.43101  -2.19840  -2.19460  -2.19434
 Alpha  occ. eigenvalues --   -2.19335  -2.19274  -2.19116  -2.19029  -1.13507
 Alpha  occ. eigenvalues --   -1.13499  -1.13489  -1.13252  -1.13144  -1.13115
 Alpha  occ. eigenvalues --   -1.13085  -1.13075  -1.13023  -1.13011  -1.13008
 Alpha  occ. eigenvalues --   -1.12961  -1.12931  -1.12911  -1.12900  -1.12783
 Alpha  occ. eigenvalues --   -1.12776  -1.12738  -1.12708  -1.12692  -1.12638
 Alpha  occ. eigenvalues --   -0.19342  -0.13174  -0.12647  -0.11048
 Alpha virt. eigenvalues --   -0.05511  -0.04880  -0.04511  -0.03311  -0.03028
 Alpha virt. eigenvalues --   -0.02598  -0.01404  -0.00894  -0.00078  -0.00023
 Alpha virt. eigenvalues --    0.00030   0.00369   0.00863   0.00958   0.00971

  Beta  occ. eigenvalues --  -38.44008 -38.43517 -38.43366 -38.43339 -38.43270
  Beta  occ. eigenvalues --  -38.43237 -38.43090  -2.19836  -2.19449  -2.19293
  Beta  occ. eigenvalues --   -2.19265  -2.19183  -2.19111  -2.19014  -1.13499
  Beta  occ. eigenvalues --   -1.13490  -1.13485  -1.13219  -1.13131  -1.13072
  Beta  occ. eigenvalues --   -1.13014  -1.12994  -1.12947  -1.12925  -1.12915
  Beta  occ. eigenvalues --   -1.12907  -1.12892  -1.12874  -1.12831  -1.12768
  Beta  occ. eigenvalues --   -1.12748  -1.12738  -1.12694  -1.12641  -1.12634
  Beta  occ. eigenvalues --   -0.18573  -0.12926  -0.12378
  Beta virt. eigenvalues --   -0.07085  -0.05471  -0.04879  -0.04491  -0.02497
  Beta virt. eigenvalues --   -0.02201  -0.01535  -0.01320  -0.00837  -0.00117
  Beta virt. eigenvalues --   -0.00036   0.00117   0.00388   0.00906   0.00949

 Mulliken charges and spin densities:
               1          2
     1  Na  -0.034400  -0.077882
     2  Na  -0.478994   0.606385
     3  Na   0.240042  -0.053712
     4  Na  -0.619410   0.670742
     5  Na   0.501249   0.002060
     6  Na   0.323852  -0.056013
     7  Na   0.067661  -0.091580
 Sum of Mulliken charges =  -0.00000   1.00000

 Dipole moment (field-independent basis, Debye):
    X=             -0.2542    Y=              0.0113    Z=             -0.0441  Tot=              0.2582
 Quadrupole moment (field-independent basis, Debye-Ang):
   XX=            -57.1650   YY=            -64.6843   ZZ=            -72.4998
   XY=             -0.2743   XZ=              1.4671   YZ=             -0.9606

 Normal termination of Gaussian 16 at Fri Dec  8 06:13:38 2023.
