 Gaussian 16, Revision B.01,
 Gaussian 16:  ES64L-G16RevB.01 20-Dec-2017

 -------------------------
 #P B3LYP/6-311+g(d) force
 -------------------------

 -----
 DPGEN
 -----
 Symbolic Z-matrix:
 Charge =  0 Multiplicity = 2

                         Standard orientation:
 ---------------------------------------------------------------------
 Center     Atomic      Atomic             Coordinates (Angstroms)
 Number     Number       Type             X           Y           Z
 ---------------------------------------------------------------------
      1         11           0       -0.529001   -2.472236   -0.598901
      2         11           0        2.088513    2.097503    0.404904
      3         11           0       -3.183022   -0.379288   -0.072590
      4         11           0        2.744606   -1.421000   -0.077855
      5         11           0       -0.329180   -0.636256    2.229398
      6         11           0       -1.278849    2.590366   -0.267235
      7         11           0        0.486933    0.220911   -1.617720
 ---------------------------------------------------------------------

 SCF Done:  E(UB3LYP) =  -1136.13579762     A.U. after   19 cycles

 The electronic state is 2-A.
 Alpha  occ. eigenvalues --  -38.44038 -38.43945 -38.43785 -38.43626 -38.43325
 Alpha  occ. eigenvalues --  -38.43253 -38.43213  -2.19891  -2.19765  -2.19641
 Alpha  occ. eigenvalues --   -2.19479  -2.19283  -2.19172  -2.19138  -1.13550
 Alpha  occ. eigenvalues --   -1.13527  -1.13507  -1.13436  -1.13418  -1.13417
 Alpha  occ. eigenvalues --   -1.13348  -1.13294  -1.13279  -1.13191  -1.13139
 Alpha  occ. eigenvalues --   -1.13105  -1.13025  -1.12957  -1.12912  -1.12835
 Alpha  occ. eigenvalues --   -1.12824  -1.12795  -1.12792  -1.12783  -1.12734
 Alpha  occ. eigenvalues --   -0.18725  -0.12947  -0.12516  -0.11063
 Alpha virt. eigenvalues --   -0.05536  -0.05146  -0.04437  -0.03394  -0.03004
 Alpha virt. eigenvalues --   -0.02814  -0.01461  -0.00976  -0.00244  -0.00088
 Alpha virt. eigenvalues --   -0.00041   0.00359   0.00795   0.00905   0.00922

  Beta  occ. eigenvalues --  -38.43945 -38.43941 -38.43781 -38.43619 -38.43321
  Beta  occ. eigenvalues --  -38.43194 -38.43194  -2.19767  -2.19712  -2.19638
  Beta  occ. eigenvalues --   -2.19467  -2.19177  -2.19166  -2.19108  -1.13441
  Beta  occ. eigenvalues --   -1.13432  -1.13420  -1.13410  -1.13401  -1.13370
  Beta  occ. eigenvalues --   -1.13340  -1.13282  -1.13271  -1.13178  -1.13119
  Beta  occ. eigenvalues --   -1.13098  -1.12967  -1.12908  -1.12842  -1.12816
  Beta  occ. eigenvalues --   -1.12794  -1.12787  -1.12763  -1.12734  -1.12709
  Beta  occ. eigenvalues --   -0.17992  -0.12756  -0.12282
  Beta virt. eigenvalues --   -0.07092  -0.05465  -0.05134  -0.04364  -0.02619
  Beta virt. eigenvalues --   -0.02270  -0.01730  -0.01382  -0.00918  -0.00253
  Beta virt. eigenvalues --   -0.00122   0.00117   0.00392   0.00871   0.00903

 Mulliken charges and spin densities:
               1          2
     1  Na   0.413668  -0.004321
     2  Na  -0.001593   0.094892
     3  Na   0.098180  -0.023382
     4  Na   0.247714   0.025731
     5  Na  -0.776307   0.732735
     6  Na   0.122555  -0.049805
     7  Na  -0.104216   0.224150
 Sum of Mulliken charges =  -0.00000   1.00000

 Dipole moment (field-independent basis, Debye):
    X=              0.0452    Y=             -0.0404    Z=              0.3672  Tot=              0.3722
 Quadrupole moment (field-independent basis, Debye-Ang):
   XX=            -56.7437   YY=            -65.5903   ZZ=            -72.1561
   XY=             -0.4576   XZ=              1.6244   YZ=              1.3665

 Normal termination of Gaussian 16 at Thu Dec  7 02:44:47 2023.
