 Gaussian 16, Revision B.01,
 Gaussian 16:  ES64L-G16RevB.01 20-Dec-2017

 -------------------------
 #P B3LYP/6-311+g(d) force
 -------------------------

 -----
 DPGEN
 -----
 Symbolic Z-matrix:
 Charge =  0 Multiplicity = 2

                         Standard orientation:
 ---------------------------------------------------------------------
 Center     Atomic      Atomic             Coordinates (Angstroms)
 Number     Number       Type             X           Y           Z
 ---------------------------------------------------------------------
      1         11           0       -0.938871    1.996728   -1.063206
      2         11           0       -4.210865   -0.333731    0.066475
      3         11           0       -1.041916    0.277266    2.271034
      4         11           0        4.498416   -0.423752   -0.176999
      5         11           0        1.939458    1.642387    0.052850
      6         11           0        1.347116   -1.888842    0.173124
      7         11           0       -1.593337   -1.270055   -1.323279
 ---------------------------------------------------------------------

 SCF Done:  E(UB3LYP) =  -1136.11120026     A.U. after   31 cycles

 The electronic state is 2-A.
 Alpha  occ. eigenvalues --  -38.45689 -38.44821 -38.44521 -38.44468 -38.43988
 Alpha  occ. eigenvalues --  -38.42941 -38.42788  -2.21486  -2.20624  -2.20403
 Alpha  occ. eigenvalues --   -2.20296  -2.19818  -2.18833  -2.18671  -1.15167
 Alpha  occ. eigenvalues --   -1.15138  -1.15123  -1.14298  -1.14280  -1.14249
 Alpha  occ. eigenvalues --   -1.14088  -1.14057  -1.14043  -1.13960  -1.13931
 Alpha  occ. eigenvalues --   -1.13899  -1.13529  -1.13476  -1.13429  -1.12567
 Alpha  occ. eigenvalues --   -1.12499  -1.12472  -1.12367  -1.12299  -1.12274
 Alpha  occ. eigenvalues --   -0.18122  -0.14195  -0.11000  -0.10979
 Alpha virt. eigenvalues --   -0.08217  -0.04812  -0.04194  -0.03586  -0.03162
 Alpha virt. eigenvalues --   -0.02551  -0.02156  -0.01386  -0.00984  -0.00838
 Alpha virt. eigenvalues --   -0.00094   0.00173   0.00255   0.00662   0.00775

  Beta  occ. eigenvalues --  -38.45677 -38.44801 -38.44501 -38.44373 -38.43970
  Beta  occ. eigenvalues --  -38.42936 -38.42767  -2.21466  -2.20587  -2.20370
  Beta  occ. eigenvalues --   -2.20120  -2.19787  -2.18825  -2.18633  -1.15148
  Beta  occ. eigenvalues --   -1.15118  -1.15108  -1.14270  -1.14253  -1.14227
  Beta  occ. eigenvalues --   -1.14064  -1.14030  -1.14000  -1.13833  -1.13813
  Beta  occ. eigenvalues --   -1.13776  -1.13512  -1.13451  -1.13392  -1.12561
  Beta  occ. eigenvalues --   -1.12483  -1.12461  -1.12341  -1.12271  -1.12245
  Beta  occ. eigenvalues --   -0.17486  -0.13848  -0.10851
  Beta virt. eigenvalues --   -0.08010  -0.07137  -0.04641  -0.03927  -0.03108
  Beta virt. eigenvalues --   -0.02946  -0.02002  -0.01506  -0.01226  -0.00825
  Beta virt. eigenvalues --   -0.00491  -0.00016   0.00200   0.00379   0.00746

 Mulliken charges and spin densities:
               1          2
     1  Na  -0.137674   0.105670
     2  Na   0.268808  -0.018930
     3  Na  -0.129659   0.425099
     4  Na   0.356178  -0.008387
     5  Na  -0.224269   0.127530
     6  Na  -0.189703   0.142827
     7  Na   0.056318   0.226191
 Sum of Mulliken charges =  -0.00000   1.00000

 Dipole moment (field-independent basis, Debye):
    X=             -0.6579    Y=              0.0904    Z=              0.7740  Tot=              1.0199
 Quadrupole moment (field-independent basis, Debye-Ang):
   XX=            -46.0851   YY=            -79.6245   ZZ=            -69.3323
   XY=             -1.7495   XZ=             -4.1978   YZ=              1.4960

 Normal termination of Gaussian 16 at Thu Dec  7 13:36:44 2023.
