 Gaussian 16, Revision B.01,
 Gaussian 16:  ES64L-G16RevB.01 20-Dec-2017

 -------------------------
 #P B3LYP/6-311+g(d) force
 -------------------------

 -----
 DPGEN
 -----
 Symbolic Z-matrix:
 Charge =  0 Multiplicity = 2

                         Standard orientation:
 ---------------------------------------------------------------------
 Center     Atomic      Atomic             Coordinates (Angstroms)
 Number     Number       Type             X           Y           Z
 ---------------------------------------------------------------------
      1         11           0        2.090216   -2.060836    0.971340
      2         11           0       -1.680981   -0.364378    1.828060
      3         11           0        3.666921    0.357039   -1.437599
      4         11           0       -3.499587   -1.110415   -1.043712
      5         11           0        1.050816    1.904088    1.424927
      6         11           0        0.049707   -0.789634   -1.018596
      7         11           0       -1.677092    2.064136   -0.724419
 ---------------------------------------------------------------------

 SCF Done:  E(UB3LYP) =  -1136.12502455     A.U. after   24 cycles

 The electronic state is 2-A.
 Alpha  occ. eigenvalues --  -38.45026 -38.44386 -38.44112 -38.43656 -38.43636
 Alpha  occ. eigenvalues --  -38.43595 -38.42527  -2.20795  -2.20270  -2.19934
 Alpha  occ. eigenvalues --   -2.19578  -2.19524  -2.19414  -2.18359  -1.14464
 Alpha  occ. eigenvalues --   -1.14438  -1.14403  -1.13969  -1.13912  -1.13878
 Alpha  occ. eigenvalues --   -1.13665  -1.13580  -1.13542  -1.13310  -1.13283
 Alpha  occ. eigenvalues --   -1.13204  -1.13179  -1.13163  -1.13121  -1.13087
 Alpha  occ. eigenvalues --   -1.13065  -1.13045  -1.12039  -1.12027  -1.11990
 Alpha  occ. eigenvalues --   -0.18198  -0.13664  -0.11166  -0.10939
 Alpha virt. eigenvalues --   -0.06502  -0.05215  -0.04711  -0.02967  -0.02727
 Alpha virt. eigenvalues --   -0.02426  -0.02178  -0.01162  -0.00844  -0.00300
 Alpha virt. eigenvalues --    0.00180   0.00227   0.00369   0.00497   0.00740

  Beta  occ. eigenvalues --  -38.44976 -38.44337 -38.44086 -38.43631 -38.43619
  Beta  occ. eigenvalues --  -38.43590 -38.42519  -2.20700  -2.20181  -2.19888
  Beta  occ. eigenvalues --   -2.19553  -2.19479  -2.19407  -2.18347  -1.14397
  Beta  occ. eigenvalues --   -1.14373  -1.14344  -1.13908  -1.13836  -1.13816
  Beta  occ. eigenvalues --   -1.13634  -1.13549  -1.13495  -1.13268  -1.13244
  Beta  occ. eigenvalues --   -1.13175  -1.13160  -1.13142  -1.13088  -1.13080
  Beta  occ. eigenvalues --   -1.13056  -1.13038  -1.12029  -1.11999  -1.11985
  Beta  occ. eigenvalues --   -0.17505  -0.13352  -0.10804
  Beta virt. eigenvalues --   -0.07514  -0.06060  -0.04782  -0.04546  -0.02795
  Beta virt. eigenvalues --   -0.02223  -0.01991  -0.01716  -0.00852  -0.00614
  Beta virt. eigenvalues --   -0.00124   0.00221   0.00339   0.00448   0.00604

 Mulliken charges and spin densities:
               1          2
     1  Na   0.142332   0.104197
     2  Na   0.084671   0.349677
     3  Na   0.059985   0.124524
     4  Na   0.390888  -0.019997
     5  Na  -0.036650   0.078879
     6  Na  -0.460336   0.317973
     7  Na  -0.180890   0.044747
 Sum of Mulliken charges =  -0.00000   1.00000

 Dipole moment (field-independent basis, Debye):
    X=              0.2893    Y=              0.0994    Z=              0.0900  Tot=              0.3189
 Quadrupole moment (field-independent basis, Debye-Ang):
   XX=            -52.4057   YY=            -74.6692   ZZ=            -66.1487
   XY=              0.8491   XZ=             -0.5362   YZ=             -5.5129

 Normal termination of Gaussian 16 at Tue Dec  5 13:51:33 2023.
