 Gaussian 16, Revision B.01,
 Gaussian 16:  ES64L-G16RevB.01 20-Dec-2017

 -------------------------
 #P B3LYP/6-311+g(d) force
 -------------------------

 -----
 DPGEN
 -----
 Symbolic Z-matrix:
 Charge =  0 Multiplicity = 2

                         Standard orientation:
 ---------------------------------------------------------------------
 Center     Atomic      Atomic             Coordinates (Angstroms)
 Number     Number       Type             X           Y           Z
 ---------------------------------------------------------------------
      1         11           0        0.654509   -0.405632    1.411969
      2         11           0       -2.154497   -1.617635    0.286268
      3         11           0       -0.714007    2.604928   -0.391399
      4         11           0        3.345214   -0.884306   -0.438907
      5         11           0        2.941189    2.687217    0.005464
      6         11           0       -4.923445    0.740470   -0.278573
      7         11           0        0.851036   -3.125040   -0.594823
 ---------------------------------------------------------------------

 SCF Done:  E(UB3LYP) =  -1136.12153786     A.U. after   20 cycles

 The electronic state is 2-A.
 Alpha  occ. eigenvalues --  -38.44778 -38.44628 -38.44499 -38.44283 -38.43793
 Alpha  occ. eigenvalues --  -38.43704 -38.43447  -2.20532  -2.20522  -2.20268
 Alpha  occ. eigenvalues --   -2.20125  -2.19626  -2.19495  -2.19311  -1.14228
 Alpha  occ. eigenvalues --   -1.14217  -1.14215  -1.14194  -1.14137  -1.14131
 Alpha  occ. eigenvalues --   -1.13954  -1.13922  -1.13905  -1.13802  -1.13784
 Alpha  occ. eigenvalues --   -1.13769  -1.13331  -1.13307  -1.13240  -1.13138
 Alpha  occ. eigenvalues --   -1.13134  -1.13099  -1.12987  -1.12970  -1.12917
 Alpha  occ. eigenvalues --   -0.17371  -0.13394  -0.12859  -0.10270
 Alpha virt. eigenvalues --   -0.06496  -0.06191  -0.04547  -0.03434  -0.02672
 Alpha virt. eigenvalues --   -0.02325  -0.02123  -0.01519  -0.01052  -0.00871
 Alpha virt. eigenvalues --   -0.00241   0.00081   0.00440   0.00495   0.00631

  Beta  occ. eigenvalues --  -38.44767 -38.44597 -38.44499 -38.44281 -38.43785
  Beta  occ. eigenvalues --  -38.43599 -38.43396  -2.20506  -2.20477  -2.20270
  Beta  occ. eigenvalues --   -2.20125  -2.19618  -2.19300  -2.19216  -1.14205
  Beta  occ. eigenvalues --   -1.14194  -1.14178  -1.14163  -1.14120  -1.14097
  Beta  occ. eigenvalues --   -1.13957  -1.13921  -1.13894  -1.13805  -1.13786
  Beta  occ. eigenvalues --   -1.13745  -1.13323  -1.13299  -1.13207  -1.13006
  Beta  occ. eigenvalues --   -1.13000  -1.12973  -1.12925  -1.12906  -1.12851
  Beta  occ. eigenvalues --   -0.16953  -0.12853  -0.12315
  Beta virt. eigenvalues --   -0.06856  -0.06333  -0.06129  -0.04220  -0.02864
  Beta virt. eigenvalues --   -0.02428  -0.02044  -0.01874  -0.01256  -0.00845
  Beta virt. eigenvalues --   -0.00702   0.00060   0.00305   0.00489   0.00642

 Mulliken charges and spin densities:
               1          2
     1  Na   0.372562   0.123253
     2  Na  -0.394448   0.005692
     3  Na  -0.331181  -0.043556
     4  Na  -0.177893   0.363434
     5  Na   0.270468   0.005971
     6  Na   0.149246   0.595216
     7  Na   0.111246  -0.050009
 Sum of Mulliken charges =  -0.00000   1.00000

 Dipole moment (field-independent basis, Debye):
    X=              1.2980    Y=              0.0771    Z=             -0.0902  Tot=              1.3034
 Quadrupole moment (field-independent basis, Debye-Ang):
   XX=            -75.7407   YY=            -59.6334   ZZ=            -68.9247
   XY=              3.8664   XZ=              0.5139   YZ=              0.5939

 Normal termination of Gaussian 16 at Wed Nov 29 03:19:56 2023.
