 Gaussian 16, Revision B.01,
 Gaussian 16:  ES64L-G16RevB.01 20-Dec-2017

 -------------------------
 #P B3LYP/6-311+g(d) force
 -------------------------

 -----
 DPGEN
 -----
 Symbolic Z-matrix:
 Charge =  0 Multiplicity = 2

                         Standard orientation:
 ---------------------------------------------------------------------
 Center     Atomic      Atomic             Coordinates (Angstroms)
 Number     Number       Type             X           Y           Z
 ---------------------------------------------------------------------
      1         11           0        0.744589    3.042406    0.027720
      2         11           0        2.989748    0.546325   -0.100242
      3         11           0       -2.398774    1.750481   -0.381436
      4         11           0       -3.300535   -1.622573    0.138981
      5         11           0        0.017699   -0.378246   -1.377049
      6         11           0        0.258787   -0.411599    2.105197
      7         11           0        1.688487   -2.926794   -0.413172
 ---------------------------------------------------------------------

 SCF Done:  E(UB3LYP) =  -1136.13160763     A.U. after   20 cycles

 The electronic state is 2-A.
 Alpha  occ. eigenvalues --  -38.44627 -38.44333 -38.43928 -38.43792 -38.43634
 Alpha  occ. eigenvalues --  -38.43197 -38.43183  -2.20383  -2.20181  -2.19747
 Alpha  occ. eigenvalues --   -2.19629  -2.19484  -2.19147  -2.19030  -1.14055
 Alpha  occ. eigenvalues --   -1.14043  -1.14023  -1.13874  -1.13849  -1.13803
 Alpha  occ. eigenvalues --   -1.13442  -1.13393  -1.13379  -1.13326  -1.13296
 Alpha  occ. eigenvalues --   -1.13248  -1.13158  -1.13104  -1.13097  -1.12844
 Alpha  occ. eigenvalues --   -1.12786  -1.12772  -1.12700  -1.12686  -1.12684
 Alpha  occ. eigenvalues --   -0.18164  -0.13097  -0.12275  -0.10332
 Alpha virt. eigenvalues --   -0.06281  -0.05330  -0.04791  -0.03012  -0.02669
 Alpha virt. eigenvalues --   -0.02339  -0.01901  -0.01476  -0.00757  -0.00448
 Alpha virt. eigenvalues --   -0.00032   0.00292   0.00694   0.00749   0.00781

  Beta  occ. eigenvalues --  -38.44629 -38.44326 -38.43915 -38.43783 -38.43531
  Beta  occ. eigenvalues --  -38.43196 -38.43138  -2.20389  -2.20172  -2.19727
  Beta  occ. eigenvalues --   -2.19615  -2.19295  -2.19065  -2.19032  -1.14055
  Beta  occ. eigenvalues --   -1.14042  -1.14027  -1.13867  -1.13820  -1.13798
  Beta  occ. eigenvalues --   -1.13422  -1.13369  -1.13365  -1.13312  -1.13277
  Beta  occ. eigenvalues --   -1.13241  -1.13030  -1.12975  -1.12960  -1.12778
  Beta  occ. eigenvalues --   -1.12728  -1.12712  -1.12703  -1.12687  -1.12666
  Beta  occ. eigenvalues --   -0.17483  -0.12890  -0.12072
  Beta virt. eigenvalues --   -0.06521  -0.06148  -0.05217  -0.04767  -0.02365
  Beta virt. eigenvalues --   -0.02019  -0.01800  -0.01388  -0.01248  -0.00804
  Beta virt. eigenvalues --   -0.00457   0.00146   0.00345   0.00711   0.00817

 Mulliken charges and spin densities:
               1          2
     1  Na  -0.113188  -0.002253
     2  Na   0.324688   0.077021
     3  Na   0.215015   0.046092
     4  Na   0.046457  -0.006019
     5  Na  -0.144490   0.133693
     6  Na  -0.510142   0.713939
     7  Na   0.181659   0.037526
 Sum of Mulliken charges =  -0.00000   1.00000

 Dipole moment (field-independent basis, Debye):
    X=             -0.0945    Y=             -0.5380    Z=              0.1227  Tot=              0.5598
 Quadrupole moment (field-independent basis, Debye-Ang):
   XX=            -55.1984   YY=            -60.0581   ZZ=            -77.0284
   XY=              1.1136   XZ=             -0.5391   YZ=             -0.0725

 Normal termination of Gaussian 16 at Thu Dec  7 03:38:19 2023.
