 Gaussian 16, Revision B.01,
 Gaussian 16:  ES64L-G16RevB.01 20-Dec-2017

 -------------------------
 #P B3LYP/6-311+g(d) force
 -------------------------

 -----
 DPGEN
 -----
 Symbolic Z-matrix:
 Charge =  0 Multiplicity = 2

                         Standard orientation:
 ---------------------------------------------------------------------
 Center     Atomic      Atomic             Coordinates (Angstroms)
 Number     Number       Type             X           Y           Z
 ---------------------------------------------------------------------
      1         11           0        3.292862    0.399731    0.060184
      2         11           0        1.532604   -2.414419   -0.355646
      3         11           0       -0.189836    0.202769   -1.426241
      4         11           0        0.056179   -0.102289    2.177374
      5         11           0       -2.109306   -2.161293   -0.323369
      6         11           0       -2.617812    0.857255    0.272737
      7         11           0        0.035309    3.218247   -0.405040
 ---------------------------------------------------------------------

 SCF Done:  E(UB3LYP) =  -1136.13335377     A.U. after   19 cycles

 The electronic state is 2-A.
 Alpha  occ. eigenvalues --  -38.44322 -38.43859 -38.43674 -38.43519 -38.43504
 Alpha  occ. eigenvalues --  -38.43380 -38.42981  -2.20112  -2.19731  -2.19614
 Alpha  occ. eigenvalues --   -2.19380  -2.19322  -2.19270  -2.19032  -1.13786
 Alpha  occ. eigenvalues --   -1.13771  -1.13756  -1.13411  -1.13363  -1.13356
 Alpha  occ. eigenvalues --   -1.13344  -1.13260  -1.13246  -1.13082  -1.13041
 Alpha  occ. eigenvalues --   -1.13029  -1.13005  -1.12969  -1.12959  -1.12954
 Alpha  occ. eigenvalues --   -1.12911  -1.12902  -1.12713  -1.12665  -1.12637
 Alpha  occ. eigenvalues --   -0.18760  -0.13072  -0.12392  -0.10855
 Alpha virt. eigenvalues --   -0.05735  -0.04912  -0.04795  -0.03230  -0.02750
 Alpha virt. eigenvalues --   -0.02622  -0.01506  -0.01212  -0.00384  -0.00238
 Alpha virt. eigenvalues --   -0.00007   0.00340   0.00793   0.00869   0.00922

  Beta  occ. eigenvalues --  -38.44323 -38.43754 -38.43663 -38.43510 -38.43498
  Beta  occ. eigenvalues --  -38.43373 -38.42929  -2.20116  -2.19598  -2.19537
  Beta  occ. eigenvalues --   -2.19368  -2.19313  -2.19260  -2.18939  -1.13781
  Beta  occ. eigenvalues --   -1.13769  -1.13761  -1.13361  -1.13275  -1.13244
  Beta  occ. eigenvalues --   -1.13230  -1.13215  -1.13186  -1.13068  -1.13020
  Beta  occ. eigenvalues --   -1.13013  -1.12995  -1.12956  -1.12952  -1.12945
  Beta  occ. eigenvalues --   -1.12900  -1.12882  -1.12647  -1.12598  -1.12567
  Beta  occ. eigenvalues --   -0.18027  -0.12873  -0.12134
  Beta virt. eigenvalues --   -0.06879  -0.05691  -0.04852  -0.04771  -0.02437
  Beta virt. eigenvalues --   -0.02055  -0.01563  -0.01403  -0.01129  -0.00401
  Beta virt. eigenvalues --   -0.00265   0.00141   0.00376   0.00818   0.00883

 Mulliken charges and spin densities:
               1          2
     1  Na   0.016304  -0.031929
     2  Na   0.173538   0.015611
     3  Na  -0.501829   0.161690
     4  Na  -0.541917   0.637910
     5  Na   0.203884   0.012371
     6  Na   0.566924   0.218846
     7  Na   0.083096  -0.014499
 Sum of Mulliken charges =  -0.00000   1.00000

 Dipole moment (field-independent basis, Debye):
    X=              0.4279    Y=              0.0584    Z=              0.2988  Tot=              0.5252
 Quadrupole moment (field-independent basis, Debye-Ang):
   XX=            -57.6754   YY=            -61.3546   ZZ=            -74.2951
   XY=              1.6247   XZ=             -0.3028   YZ=              0.8478

 Normal termination of Gaussian 16 at Thu Dec  7 19:17:16 2023.
