 Gaussian 16, Revision B.01,
 Gaussian 16:  ES64L-G16RevB.01 20-Dec-2017

 -------------------------
 #P B3LYP/6-311+g(d) force
 -------------------------

 -----
 DPGEN
 -----
 Symbolic Z-matrix:
 Charge =  0 Multiplicity = 2

                         Standard orientation:
 ---------------------------------------------------------------------
 Center     Atomic      Atomic             Coordinates (Angstroms)
 Number     Number       Type             X           Y           Z
 ---------------------------------------------------------------------
      1         11           0       -1.345531   -1.742409   -1.041801
      2         11           0       -3.931371   -0.653493    0.976412
      3         11           0        2.121088   -1.925901   -1.001858
      4         11           0       -2.031921    2.241419   -0.523715
      5         11           0        0.965978    1.673081   -1.328384
      6         11           0        3.793824    0.574988    1.049246
      7         11           0        0.427933   -0.167686    1.870099
 ---------------------------------------------------------------------

 SCF Done:  E(UB3LYP) =  -1136.12358934     A.U. after   24 cycles

 The electronic state is 2-A.
 Alpha  occ. eigenvalues --  -38.45808 -38.44999 -38.44685 -38.43779 -38.43445
 Alpha  occ. eigenvalues --  -38.42953 -38.42857  -2.21599  -2.20803  -2.20471
 Alpha  occ. eigenvalues --   -2.19615  -2.19277  -2.18776  -2.18722  -1.15288
 Alpha  occ. eigenvalues --   -1.15252  -1.15217  -1.14467  -1.14447  -1.14426
 Alpha  occ. eigenvalues --   -1.14136  -1.14117  -1.14099  -1.13291  -1.13275
 Alpha  occ. eigenvalues --   -1.13241  -1.12967  -1.12940  -1.12906  -1.12518
 Alpha  occ. eigenvalues --   -1.12447  -1.12412  -1.12385  -1.12371  -1.12318
 Alpha  occ. eigenvalues --   -0.17850  -0.13850  -0.11360  -0.11027
 Alpha virt. eigenvalues --   -0.07034  -0.05115  -0.04819  -0.03215  -0.02852
 Alpha virt. eigenvalues --   -0.02621  -0.02271  -0.01332  -0.00955  -0.00269
 Alpha virt. eigenvalues --   -0.00010   0.00171   0.00269   0.00515   0.00663

  Beta  occ. eigenvalues --  -38.45775 -38.44957 -38.44652 -38.43744 -38.43424
  Beta  occ. eigenvalues --  -38.42951 -38.42826  -2.21538  -2.20726  -2.20408
  Beta  occ. eigenvalues --   -2.19554  -2.19242  -2.18776  -2.18666  -1.15239
  Beta  occ. eigenvalues --   -1.15216  -1.15166  -1.14404  -1.14395  -1.14379
  Beta  occ. eigenvalues --   -1.14093  -1.14076  -1.14057  -1.13239  -1.13235
  Beta  occ. eigenvalues --   -1.13188  -1.12948  -1.12912  -1.12857  -1.12499
  Beta  occ. eigenvalues --   -1.12446  -1.12410  -1.12351  -1.12320  -1.12287
  Beta  occ. eigenvalues --   -0.17223  -0.13492  -0.10837
  Beta virt. eigenvalues --   -0.07649  -0.06721  -0.05088  -0.04245  -0.02992
  Beta virt. eigenvalues --   -0.02529  -0.02075  -0.01650  -0.01040  -0.00808
  Beta virt. eigenvalues --   -0.00201   0.00074   0.00260   0.00353   0.00635

 Mulliken charges and spin densities:
               1          2
     1  Na  -0.398079   0.040948
     2  Na   0.662191   0.238413
     3  Na   0.028447   0.117018
     4  Na  -0.103059  -0.061370
     5  Na  -0.371629   0.220250
     6  Na   0.846196   0.145964
     7  Na  -0.664067   0.298777
 Sum of Mulliken charges =  -0.00000   1.00000

 Dipole moment (field-independent basis, Debye):
    X=              0.6239    Y=             -0.2055    Z=              0.8476  Tot=              1.0723
 Quadrupole moment (field-independent basis, Debye-Ang):
   XX=            -47.7420   YY=            -79.4744   ZZ=            -68.2152
   XY=             -0.0175   XZ=             -2.4324   YZ=              2.1754

 Normal termination of Gaussian 16 at Thu Dec  7 08:47:40 2023.
