 Gaussian 16, Revision B.01,
 Gaussian 16:  ES64L-G16RevB.01 20-Dec-2017

 -------------------------
 #P B3LYP/6-311+g(d) force
 -------------------------

 -----
 DPGEN
 -----
 Symbolic Z-matrix:
 Charge =  0 Multiplicity = 2

                         Standard orientation:
 ---------------------------------------------------------------------
 Center     Atomic      Atomic             Coordinates (Angstroms)
 Number     Number       Type             X           Y           Z
 ---------------------------------------------------------------------
      1         11           0       -3.007771    1.043176    0.098797
      2         11           0        2.968166    0.778861   -0.476386
      3         11           0       -1.847327   -2.223123   -0.551243
      4         11           0        1.549649   -2.598450    0.389828
      5         11           0        0.046033   -0.234025    1.933250
      6         11           0        0.248011    3.011403    0.293133
      7         11           0        0.043240    0.222159   -1.687381
 ---------------------------------------------------------------------

 SCF Done:  E(UB3LYP) =  -1136.13962465     A.U. after   19 cycles

 The electronic state is 2-A.
 Alpha  occ. eigenvalues --  -38.43780 -38.43745 -38.43685 -38.43544 -38.43522
 Alpha  occ. eigenvalues --  -38.43460 -38.43250  -2.19589  -2.19584  -2.19512
 Alpha  occ. eigenvalues --   -2.19458  -2.19382  -2.19311  -2.19219  -1.13295
 Alpha  occ. eigenvalues --   -1.13266  -1.13254  -1.13238  -1.13235  -1.13214
 Alpha  occ. eigenvalues --   -1.13192  -1.13184  -1.13158  -1.13132  -1.13104
 Alpha  occ. eigenvalues --   -1.13090  -1.13080  -1.13033  -1.13010  -1.12971
 Alpha  occ. eigenvalues --   -1.12952  -1.12936  -1.12892  -1.12843  -1.12838
 Alpha  occ. eigenvalues --   -0.18591  -0.12784  -0.12596  -0.10844
 Alpha virt. eigenvalues --   -0.05376  -0.05010  -0.04964  -0.03137  -0.03055
 Alpha virt. eigenvalues --   -0.02549  -0.01385  -0.01230  -0.00383  -0.00290
 Alpha virt. eigenvalues --    0.00022   0.00359   0.00853   0.00866   0.00898

  Beta  occ. eigenvalues --  -38.43780 -38.43732 -38.43679 -38.43507 -38.43459
  Beta  occ. eigenvalues --  -38.43451 -38.43183  -2.19591  -2.19564  -2.19504
  Beta  occ. eigenvalues --   -2.19358  -2.19304  -2.19296  -2.19098  -1.13269
  Beta  occ. eigenvalues --   -1.13260  -1.13255  -1.13228  -1.13219  -1.13200
  Beta  occ. eigenvalues --   -1.13180  -1.13168  -1.13123  -1.13081  -1.13055
  Beta  occ. eigenvalues --   -1.13013  -1.13002  -1.12995  -1.12968  -1.12936
  Beta  occ. eigenvalues --   -1.12930  -1.12910  -1.12810  -1.12758  -1.12749
  Beta  occ. eigenvalues --   -0.17878  -0.12512  -0.12343
  Beta virt. eigenvalues --   -0.06972  -0.05367  -0.04962  -0.04879  -0.02385
  Beta virt. eigenvalues --   -0.02311  -0.01528  -0.01297  -0.01130  -0.00394
  Beta virt. eigenvalues --   -0.00313   0.00130   0.00387   0.00861   0.00891

 Mulliken charges and spin densities:
               1          2
     1  Na  -0.068580  -0.076055
     2  Na   0.106348  -0.035357
     3  Na   0.117202  -0.004857
     4  Na   0.135801   0.002263
     5  Na  -0.233078   0.685934
     6  Na  -0.042634  -0.043247
     7  Na  -0.015060   0.471320
 Sum of Mulliken charges =  -0.00000   1.00000

 Dipole moment (field-independent basis, Debye):
    X=             -0.0101    Y=              0.1481    Z=              0.0979  Tot=              0.1778
 Quadrupole moment (field-independent basis, Debye-Ang):
   XX=            -58.6858   YY=            -60.6234   ZZ=            -73.9560
   XY=             -0.4954   XZ=             -0.2352   YZ=              1.2996

 Normal termination of Gaussian 16 at Tue Dec  5 14:54:58 2023.
