 Gaussian 16, Revision B.01,
 Gaussian 16:  ES64L-G16RevB.01 20-Dec-2017

 -------------------------
 #P B3LYP/6-311+g(d) force
 -------------------------

 -----
 DPGEN
 -----
 Symbolic Z-matrix:
 Charge =  0 Multiplicity = 2

                         Standard orientation:
 ---------------------------------------------------------------------
 Center     Atomic      Atomic             Coordinates (Angstroms)
 Number     Number       Type             X           Y           Z
 ---------------------------------------------------------------------
      1         11           0        1.126339    0.121812   -1.913051
      2         11           0        0.548936    3.102108   -0.440909
      3         11           0       -3.366014   -1.676271   -0.447338
      4         11           0        3.271326   -1.890919   -0.123391
      5         11           0        1.391306    0.543780    1.902144
      6         11           0       -2.277943    1.384040    0.405421
      7         11           0       -0.693951   -1.584550    0.617126
 ---------------------------------------------------------------------

 SCF Done:  E(UB3LYP) =  -1136.12862868     A.U. after   19 cycles

 The electronic state is 2-A.
 Alpha  occ. eigenvalues --  -38.44231 -38.44152 -38.43940 -38.43863 -38.43765
 Alpha  occ. eigenvalues --  -38.43574 -38.43003  -2.20017  -2.20005  -2.19814
 Alpha  occ. eigenvalues --   -2.19738  -2.19651  -2.19538  -2.18850  -1.13711
 Alpha  occ. eigenvalues --   -1.13691  -1.13689  -1.13688  -1.13649  -1.13635
 Alpha  occ. eigenvalues --   -1.13606  -1.13442  -1.13434  -1.13417  -1.13387
 Alpha  occ. eigenvalues --   -1.13374  -1.13341  -1.13284  -1.13237  -1.13211
 Alpha  occ. eigenvalues --   -1.13198  -1.13092  -1.12518  -1.12512  -1.12490
 Alpha  occ. eigenvalues --   -0.18303  -0.13457  -0.12169  -0.10893
 Alpha virt. eigenvalues --   -0.06010  -0.05407  -0.04168  -0.03392  -0.02918
 Alpha virt. eigenvalues --   -0.02693  -0.01903  -0.01264  -0.00460  -0.00229
 Alpha virt. eigenvalues --    0.00214   0.00259   0.00704   0.00777   0.00846

  Beta  occ. eigenvalues --  -38.44231 -38.44149 -38.43938 -38.43788 -38.43684
  Beta  occ. eigenvalues --  -38.43552 -38.42996  -2.20019  -2.20002  -2.19810
  Beta  occ. eigenvalues --   -2.19600  -2.19505  -2.19502  -2.18839  -1.13708
  Beta  occ. eigenvalues --   -1.13693  -1.13673  -1.13668  -1.13650  -1.13635
  Beta  occ. eigenvalues --   -1.13600  -1.13435  -1.13431  -1.13324  -1.13294
  Beta  occ. eigenvalues --   -1.13278  -1.13240  -1.13189  -1.13177  -1.13137
  Beta  occ. eigenvalues --   -1.13131  -1.13073  -1.12511  -1.12500  -1.12471
  Beta  occ. eigenvalues --   -0.17593  -0.13259  -0.11987
  Beta virt. eigenvalues --   -0.06956  -0.05887  -0.05246  -0.04095  -0.02842
  Beta virt. eigenvalues --   -0.02249  -0.01916  -0.01668  -0.01143  -0.00385
  Beta virt. eigenvalues --   -0.00031   0.00269   0.00330   0.00757   0.00824

 Mulliken charges and spin densities:
               1          2
     1  Na  -0.311578   0.489459
     2  Na   0.135472   0.043349
     3  Na   0.550133  -0.058112
     4  Na   0.111467  -0.096463
     5  Na   0.168178   0.341304
     6  Na  -0.194848   0.066202
     7  Na  -0.458824   0.214262
 Sum of Mulliken charges =  -0.00000   1.00000

 Dipole moment (field-independent basis, Debye):
    X=             -0.0286    Y=             -0.1973    Z=             -0.0644  Tot=              0.2095
 Quadrupole moment (field-independent basis, Debye-Ang):
   XX=            -54.9601   YY=            -66.0762   ZZ=            -72.5030
   XY=             -1.3563   XZ=              2.2141   YZ=              1.5065

 Normal termination of Gaussian 16 at Wed Nov 29 15:50:55 2023.
