 Gaussian 16, Revision B.01,
 Gaussian 16:  ES64L-G16RevB.01 20-Dec-2017

 -------------------------
 #P B3LYP/6-311+g(d) force
 -------------------------

 -----
 DPGEN
 -----
 Symbolic Z-matrix:
 Charge =  0 Multiplicity = 2

                         Standard orientation:
 ---------------------------------------------------------------------
 Center     Atomic      Atomic             Coordinates (Angstroms)
 Number     Number       Type             X           Y           Z
 ---------------------------------------------------------------------
      1         11           0        0.560359   -2.690999    0.533140
      2         11           0       -0.199988   -0.362759   -1.451041
      3         11           0       -2.265580    1.797177    0.000817
      4         11           0        2.999932   -0.567752   -0.546997
      5         11           0        0.307279    0.336430    1.808703
      6         11           0        1.368096    2.713383   -0.110325
      7         11           0       -2.770098   -1.225479   -0.234297
 ---------------------------------------------------------------------

 SCF Done:  E(UB3LYP) =  -1136.13438428     A.U. after   19 cycles

 The electronic state is 2-A.
 Alpha  occ. eigenvalues --  -38.43988 -38.43762 -38.43684 -38.43479 -38.43207
 Alpha  occ. eigenvalues --  -38.43067 -38.43025  -2.19845  -2.19677  -2.19581
 Alpha  occ. eigenvalues --   -2.19320  -2.19116  -2.19098  -2.19047  -1.13530
 Alpha  occ. eigenvalues --   -1.13498  -1.13475  -1.13454  -1.13376  -1.13297
 Alpha  occ. eigenvalues --   -1.13251  -1.13238  -1.13172  -1.13021  -1.12983
 Alpha  occ. eigenvalues --   -1.12949  -1.12884  -1.12801  -1.12773  -1.12738
 Alpha  occ. eigenvalues --   -1.12721  -1.12700  -1.12679  -1.12660  -1.12648
 Alpha  occ. eigenvalues --   -0.19177  -0.13363  -0.12562  -0.10630
 Alpha virt. eigenvalues --   -0.05533  -0.05122  -0.04636  -0.03188  -0.02861
 Alpha virt. eigenvalues --   -0.02164  -0.01538  -0.01106  -0.00238  -0.00204
 Alpha virt. eigenvalues --    0.00071   0.00352   0.00828   0.00895   0.00926

  Beta  occ. eigenvalues --  -38.43970 -38.43755 -38.43679 -38.43476 -38.43189
  Beta  occ. eigenvalues --  -38.42983 -38.42971  -2.19814  -2.19668  -2.19575
  Beta  occ. eigenvalues --   -2.19317  -2.19087  -2.19003  -2.18892  -1.13502
  Beta  occ. eigenvalues --   -1.13464  -1.13457  -1.13445  -1.13369  -1.13271
  Beta  occ. eigenvalues --   -1.13245  -1.13215  -1.13166  -1.13010  -1.12973
  Beta  occ. eigenvalues --   -1.12943  -1.12847  -1.12743  -1.12716  -1.12706
  Beta  occ. eigenvalues --   -1.12652  -1.12622  -1.12606  -1.12555  -1.12537
  Beta  occ. eigenvalues --   -0.18473  -0.13061  -0.12320
  Beta virt. eigenvalues --   -0.06729  -0.05470  -0.05091  -0.04605  -0.02422
  Beta virt. eigenvalues --   -0.02110  -0.01432  -0.01167  -0.01035  -0.00239
  Beta virt. eigenvalues --   -0.00211   0.00171   0.00393   0.00874   0.00891

 Mulliken charges and spin densities:
               1          2
     1  Na   0.203640   0.079045
     2  Na  -0.470725   0.381334
     3  Na   0.085699  -0.060882
     4  Na   0.026980   0.032934
     5  Na  -0.257926   0.579741
     6  Na  -0.034563  -0.058650
     7  Na   0.446896   0.046478
 Sum of Mulliken charges =  -0.00000   1.00000

 Dipole moment (field-independent basis, Debye):
    X=              0.1253    Y=              0.0929    Z=              0.0882  Tot=              0.1792
 Quadrupole moment (field-independent basis, Debye-Ang):
   XX=            -56.1158   YY=            -61.6626   ZZ=            -74.8868
   XY=              0.1726   XZ=             -1.3171   YZ=             -1.4392

 Normal termination of Gaussian 16 at Mon Dec  4 05:46:31 2023.
