 Gaussian 16, Revision B.01,
 Gaussian 16:  ES64L-G16RevB.01 20-Dec-2017

 -------------------------
 #P B3LYP/6-311+g(d) force
 -------------------------

 -----
 DPGEN
 -----
 Symbolic Z-matrix:
 Charge =  0 Multiplicity = 2

                         Standard orientation:
 ---------------------------------------------------------------------
 Center     Atomic      Atomic             Coordinates (Angstroms)
 Number     Number       Type             X           Y           Z
 ---------------------------------------------------------------------
      1         11           0       -0.407674   -0.657663    1.730301
      2         11           0        2.337955   -1.998653    0.538572
      3         11           0       -3.500949   -1.016493   -0.364250
      4         11           0        0.550348    1.785800   -0.480453
      5         11           0       -2.406418    1.997209    0.519132
      6         11           0       -0.454311   -1.175673   -1.666928
      7         11           0        3.881050    1.065472   -0.276374
 ---------------------------------------------------------------------

 SCF Done:  E(UB3LYP) =  -1136.11830112     A.U. after   26 cycles

 The electronic state is 2-A.
 Alpha  occ. eigenvalues --  -38.45217 -38.45159 -38.44081 -38.43782 -38.43592
 Alpha  occ. eigenvalues --  -38.43490 -38.43194  -2.21046  -2.20938  -2.19964
 Alpha  occ. eigenvalues --   -2.19621  -2.19473  -2.19424  -2.19097  -1.14711
 Alpha  occ. eigenvalues --   -1.14701  -1.14687  -1.14601  -1.14598  -1.14574
 Alpha  occ. eigenvalues --   -1.13669  -1.13604  -1.13576  -1.13317  -1.13275
 Alpha  occ. eigenvalues --   -1.13254  -1.13181  -1.13130  -1.13118  -1.13109
 Alpha  occ. eigenvalues --   -1.13051  -1.13015  -1.12796  -1.12771  -1.12703
 Alpha  occ. eigenvalues --   -0.18590  -0.14045  -0.11459  -0.10726
 Alpha virt. eigenvalues --   -0.07583  -0.05518  -0.03798  -0.03226  -0.03160
 Alpha virt. eigenvalues --   -0.02412  -0.02117  -0.01587  -0.00512  -0.00363
 Alpha virt. eigenvalues --   -0.00155   0.00209   0.00419   0.00589   0.00651

  Beta  occ. eigenvalues --  -38.45195 -38.45147 -38.44033 -38.43766 -38.43580
  Beta  occ. eigenvalues --  -38.43412 -38.43185  -2.21009  -2.20916  -2.19877
  Beta  occ. eigenvalues --   -2.19594  -2.19453  -2.19282  -2.19083  -1.14681
  Beta  occ. eigenvalues --   -1.14669  -1.14657  -1.14586  -1.14580  -1.14560
  Beta  occ. eigenvalues --   -1.13610  -1.13543  -1.13503  -1.13280  -1.13258
  Beta  occ. eigenvalues --   -1.13233  -1.13168  -1.13108  -1.13086  -1.13027
  Beta  occ. eigenvalues --   -1.12956  -1.12908  -1.12791  -1.12739  -1.12687
  Beta  occ. eigenvalues --   -0.17958  -0.13775  -0.11113
  Beta virt. eigenvalues --   -0.07463  -0.06955  -0.05415  -0.03276  -0.03050
  Beta virt. eigenvalues --   -0.02884  -0.01883  -0.01471  -0.01273  -0.00410
  Beta virt. eigenvalues --   -0.00197  -0.00050   0.00228   0.00575   0.00625

 Mulliken charges and spin densities:
               1          2
     1  Na  -0.405954   0.248041
     2  Na   0.478172   0.220806
     3  Na   0.069525   0.065135
     4  Na  -0.446654   0.139291
     5  Na   0.675925   0.113696
     6  Na  -0.136186   0.260699
     7  Na  -0.234828  -0.047669
 Sum of Mulliken charges =  -0.00000   1.00000

 Dipole moment (field-independent basis, Debye):
    X=             -0.0315    Y=             -0.4436    Z=              0.1986  Tot=              0.4870
 Quadrupole moment (field-independent basis, Debye-Ang):
   XX=            -43.3445   YY=            -75.9631   ZZ=            -73.6281
   XY=             -1.3035   XZ=             -1.1858   YZ=              0.0607

 Normal termination of Gaussian 16 at Tue Nov 28 22:01:04 2023.
