 Gaussian 16, Revision B.01,
 Gaussian 16:  ES64L-G16RevB.01 20-Dec-2017

 -------------------------
 #P B3LYP/6-311+g(d) force
 -------------------------

 -----
 DPGEN
 -----
 Symbolic Z-matrix:
 Charge =  0 Multiplicity = 2

                         Standard orientation:
 ---------------------------------------------------------------------
 Center     Atomic      Atomic             Coordinates (Angstroms)
 Number     Number       Type             X           Y           Z
 ---------------------------------------------------------------------
      1         11           0       -4.527390   -0.563159    0.088458
      2         11           0        1.252449   -2.514992    1.108242
      3         11           0       -2.636273    3.099525   -0.008649
      4         11           0        3.897447   -1.951103   -0.081408
      5         11           0        1.023471    2.713233    0.886483
      6         11           0        3.481503    1.950034   -1.099272
      7         11           0       -2.491206   -2.733539   -0.893856
 ---------------------------------------------------------------------

 SCF Done:  E(UB3LYP) =  -1136.10344560     A.U. after   19 cycles

 The electronic state is 2-A.
 Alpha  occ. eigenvalues --  -38.44775 -38.44657 -38.44507 -38.44481 -38.44405
 Alpha  occ. eigenvalues --  -38.44312 -38.44308  -2.20552  -2.20469  -2.20302
 Alpha  occ. eigenvalues --   -2.20294  -2.20176  -2.20119  -2.20069  -1.14252
 Alpha  occ. eigenvalues --   -1.14250  -1.14221  -1.14196  -1.14121  -1.14097
 Alpha  occ. eigenvalues --   -1.13953  -1.13944  -1.13937  -1.13929  -1.13926
 Alpha  occ. eigenvalues --   -1.13892  -1.13828  -1.13817  -1.13810  -1.13796
 Alpha  occ. eigenvalues --   -1.13765  -1.13757  -1.13739  -1.13735  -1.13679
 Alpha  occ. eigenvalues --   -0.15463  -0.13859  -0.13026  -0.10822
 Alpha virt. eigenvalues --   -0.07247  -0.05141  -0.04476  -0.03603  -0.03118
 Alpha virt. eigenvalues --   -0.02741  -0.02160  -0.01986  -0.01177  -0.00902
 Alpha virt. eigenvalues --   -0.00517  -0.00177   0.00119   0.00337   0.00561

  Beta  occ. eigenvalues --  -38.44773 -38.44649 -38.44470 -38.44453 -38.44325
  Beta  occ. eigenvalues --  -38.44314 -38.44237  -2.20552  -2.20457  -2.20245
  Beta  occ. eigenvalues --   -2.20235  -2.20106  -2.20005  -2.19979  -1.14240
  Beta  occ. eigenvalues --   -1.14224  -1.14224  -1.14182  -1.14116  -1.14083
  Beta  occ. eigenvalues --   -1.13909  -1.13905  -1.13902  -1.13897  -1.13878
  Beta  occ. eigenvalues --   -1.13855  -1.13796  -1.13784  -1.13739  -1.13711
  Beta  occ. eigenvalues --   -1.13695  -1.13681  -1.13667  -1.13648  -1.13628
  Beta  occ. eigenvalues --   -0.15011  -0.13214  -0.12271
  Beta virt. eigenvalues --   -0.07652  -0.07282  -0.04799  -0.04073  -0.03335
  Beta virt. eigenvalues --   -0.02843  -0.02487  -0.01982  -0.01677  -0.00843
  Beta virt. eigenvalues --   -0.00745  -0.00274   0.00025   0.00197   0.00431

 Mulliken charges and spin densities:
               1          2
     1  Na   0.041670  -0.023193
     2  Na  -0.247545   0.186318
     3  Na   0.086174   0.487366
     4  Na   0.204982  -0.031072
     5  Na  -0.376193  -0.171638
     6  Na   0.246802   0.388736
     7  Na   0.044110   0.163482
 Sum of Mulliken charges =  -0.00000   1.00000

 Dipole moment (field-independent basis, Debye):
    X=              0.2308    Y=             -0.6341    Z=             -0.2904  Tot=              0.7346
 Quadrupole moment (field-independent basis, Debye-Ang):
   XX=            -57.2270   YY=            -75.8331   ZZ=            -69.0342
   XY=             -2.8973   XZ=             -4.6196   YZ=              1.1972

 Normal termination of Gaussian 16 at Sun Dec  3 15:04:34 2023.
