 Gaussian 16, Revision B.01,
 Gaussian 16:  ES64L-G16RevB.01 20-Dec-2017

 -------------------------
 #P B3LYP/6-311+g(d) force
 -------------------------

 -----
 DPGEN
 -----
 Symbolic Z-matrix:
 Charge =  0 Multiplicity = 2

                         Standard orientation:
 ---------------------------------------------------------------------
 Center     Atomic      Atomic             Coordinates (Angstroms)
 Number     Number       Type             X           Y           Z
 ---------------------------------------------------------------------
      1         11           0        2.195980   -1.833701    1.214129
      2         11           0        1.446347    1.371735   -0.602155
      3         11           0       -2.101801    0.565035    0.464659
      4         11           0       -0.533468   -2.216089   -0.657655
      5         11           0       -3.952084   -2.004147   -0.250925
      6         11           0       -1.644475    3.973093    0.222955
      7         11           0        4.589501    0.144076   -0.391007
 ---------------------------------------------------------------------

 SCF Done:  E(UB3LYP) =  -1136.12567649     A.U. after   21 cycles

 The electronic state is 2-A.
 Alpha  occ. eigenvalues --  -38.44750 -38.44515 -38.43809 -38.43782 -38.43757
 Alpha  occ. eigenvalues --  -38.43508 -38.43471  -2.20546  -2.20351  -2.19653
 Alpha  occ. eigenvalues --   -2.19650  -2.19521  -2.19388  -2.19322  -1.14262
 Alpha  occ. eigenvalues --   -1.14247  -1.14133  -1.14025  -1.14020  -1.13972
 Alpha  occ. eigenvalues --   -1.13349  -1.13331  -1.13303  -1.13291  -1.13270
 Alpha  occ. eigenvalues --   -1.13261  -1.13200  -1.13193  -1.13149  -1.13103
 Alpha  occ. eigenvalues --   -1.13090  -1.13025  -1.12961  -1.12951  -1.12903
 Alpha  occ. eigenvalues --   -0.17201  -0.14091  -0.12338  -0.10489
 Alpha virt. eigenvalues --   -0.06584  -0.05311  -0.04469  -0.03594  -0.02865
 Alpha virt. eigenvalues --   -0.02303  -0.01809  -0.01364  -0.00911  -0.00676
 Alpha virt. eigenvalues --   -0.00477  -0.00239   0.00365   0.00504   0.00617

  Beta  occ. eigenvalues --  -38.44739 -38.44477 -38.43764 -38.43755 -38.43734
  Beta  occ. eigenvalues --  -38.43501 -38.43411  -2.20530  -2.20288  -2.19609
  Beta  occ. eigenvalues --   -2.19534  -2.19510  -2.19379  -2.19208  -1.14254
  Beta  occ. eigenvalues --   -1.14216  -1.14115  -1.13985  -1.13960  -1.13915
  Beta  occ. eigenvalues --   -1.13324  -1.13302  -1.13211  -1.13205  -1.13203
  Beta  occ. eigenvalues --   -1.13202  -1.13194  -1.13175  -1.13156  -1.13089
  Beta  occ. eigenvalues --   -1.13074  -1.12995  -1.12885  -1.12880  -1.12849
  Beta  occ. eigenvalues --   -0.16656  -0.13456  -0.12083
  Beta virt. eigenvalues --   -0.06913  -0.06415  -0.05171  -0.04066  -0.03121
  Beta virt. eigenvalues --   -0.02612  -0.02106  -0.01664  -0.01020  -0.00618
  Beta virt. eigenvalues --   -0.00459  -0.00080   0.00097   0.00422   0.00558

 Mulliken charges and spin densities:
               1          2
     1  Na   0.259442   0.150681
     2  Na  -0.649484   0.163098
     3  Na  -0.935459   0.129401
     4  Na  -0.295871   0.006995
     5  Na   0.893989   0.266539
     6  Na   0.398796  -0.023629
     7  Na   0.328587   0.306914
 Sum of Mulliken charges =  -0.00000   1.00000

 Dipole moment (field-independent basis, Debye):
    X=              0.3964    Y=             -0.5065    Z=              0.2314  Tot=              0.6835
 Quadrupole moment (field-independent basis, Debye-Ang):
   XX=            -65.4134   YY=            -64.3900   ZZ=            -67.9751
   XY=             -4.4494   XZ=              0.8623   YZ=             -0.4756

 Normal termination of Gaussian 16 at Tue Nov 28 18:54:45 2023.
