 Gaussian 16, Revision B.01,
 Gaussian 16:  ES64L-G16RevB.01 20-Dec-2017

 -------------------------
 #P B3LYP/6-311+g(d) force
 -------------------------

 -----
 DPGEN
 -----
 Symbolic Z-matrix:
 Charge =  0 Multiplicity = 2

                         Standard orientation:
 ---------------------------------------------------------------------
 Center     Atomic      Atomic             Coordinates (Angstroms)
 Number     Number       Type             X           Y           Z
 ---------------------------------------------------------------------
      1         11           0       -3.279295    0.812190    0.106610
      2         11           0        1.997361   -2.168368   -0.589965
      3         11           0       -0.315353   -0.219029    2.076199
      4         11           0       -1.709573   -2.197772   -0.137040
      5         11           0        3.039798    0.583733    0.524895
      6         11           0       -0.293293    0.460894   -1.713532
      7         11           0        0.560356    2.728351   -0.267167
 ---------------------------------------------------------------------

 SCF Done:  E(UB3LYP) =  -1136.13030171     A.U. after   20 cycles

 The electronic state is 2-A.
 Alpha  occ. eigenvalues --  -38.44742 -38.44152 -38.44047 -38.43466 -38.43462
 Alpha  occ. eigenvalues --  -38.43362 -38.43136  -2.20550  -2.20004  -2.19923
 Alpha  occ. eigenvalues --   -2.19452  -2.19340  -2.19203  -2.19028  -1.14227
 Alpha  occ. eigenvalues --   -1.14203  -1.14192  -1.13691  -1.13665  -1.13645
 Alpha  occ. eigenvalues --   -1.13598  -1.13562  -1.13533  -1.13272  -1.13111
 Alpha  occ. eigenvalues --   -1.13046  -1.13023  -1.13006  -1.12955  -1.12877
 Alpha  occ. eigenvalues --   -1.12862  -1.12835  -1.12693  -1.12657  -1.12626
 Alpha  occ. eigenvalues --   -0.18672  -0.13410  -0.12040  -0.11028
 Alpha virt. eigenvalues --   -0.06170  -0.05030  -0.04189  -0.03520  -0.02955
 Alpha virt. eigenvalues --   -0.02663  -0.01899  -0.00909  -0.00302  -0.00079
 Alpha virt. eigenvalues --   -0.00015   0.00353   0.00723   0.00794   0.00876

  Beta  occ. eigenvalues --  -38.44739 -38.44144 -38.43960 -38.43454 -38.43396
  Beta  occ. eigenvalues --  -38.43353 -38.43131  -2.20548  -2.19992  -2.19762
  Beta  occ. eigenvalues --   -2.19330  -2.19327  -2.19187  -2.19021  -1.14215
  Beta  occ. eigenvalues --   -1.14199  -1.14186  -1.13685  -1.13645  -1.13634
  Beta  occ. eigenvalues --   -1.13491  -1.13450  -1.13416  -1.13193  -1.13049
  Beta  occ. eigenvalues --   -1.12998  -1.12973  -1.12954  -1.12943  -1.12869
  Beta  occ. eigenvalues --   -1.12832  -1.12827  -1.12669  -1.12633  -1.12623
  Beta  occ. eigenvalues --   -0.17936  -0.13207  -0.11777
  Beta virt. eigenvalues --   -0.07142  -0.06098  -0.04977  -0.04080  -0.02804
  Beta virt. eigenvalues --   -0.02178  -0.01793  -0.01664  -0.00823  -0.00294
  Beta virt. eigenvalues --   -0.00106   0.00102   0.00373   0.00843   0.00865

 Mulliken charges and spin densities:
               1          2
     1  Na   0.113274  -0.085497
     2  Na  -0.050678   0.028250
     3  Na  -0.360350   0.584684
     4  Na   0.156225   0.025492
     5  Na   0.030096   0.090340
     6  Na  -0.054089   0.397018
     7  Na   0.165522  -0.040286
 Sum of Mulliken charges =  -0.00000   1.00000

 Dipole moment (field-independent basis, Debye):
    X=             -0.5916    Y=              0.0810    Z=              0.3444  Tot=              0.6893
 Quadrupole moment (field-independent basis, Debye-Ang):
   XX=            -53.5383   YY=            -68.1127   ZZ=            -72.7308
   XY=             -0.6744   XZ=              0.4726   YZ=              2.1831

 Normal termination of Gaussian 16 at Tue Dec  5 23:47:00 2023.
