 Gaussian 16, Revision B.01,
 Gaussian 16:  ES64L-G16RevB.01 20-Dec-2017

 -------------------------
 #P B3LYP/6-311+g(d) force
 -------------------------

 -----
 DPGEN
 -----
 Symbolic Z-matrix:
 Charge =  0 Multiplicity = 2

                         Standard orientation:
 ---------------------------------------------------------------------
 Center     Atomic      Atomic             Coordinates (Angstroms)
 Number     Number       Type             X           Y           Z
 ---------------------------------------------------------------------
      1         11           0       -3.287367    0.800531   -0.163667
      2         11           0        1.308714   -2.719918    0.008224
      3         11           0        0.070949    0.659084   -1.148091
      4         11           0       -1.978484   -2.121415   -0.264014
      5         11           0        3.231615    0.127667   -0.412362
      6         11           0        0.486722    3.100053    0.033175
      7         11           0        0.167851    0.153998    1.946735
 ---------------------------------------------------------------------

 SCF Done:  E(UB3LYP) =  -1136.12736822     A.U. after   21 cycles

 The electronic state is 2-A.
 Alpha  occ. eigenvalues --  -38.44354 -38.44345 -38.44181 -38.43525 -38.43455
 Alpha  occ. eigenvalues --  -38.43147 -38.43130  -2.20182  -2.20162  -2.20060
 Alpha  occ. eigenvalues --   -2.19393  -2.19298  -2.19226  -2.19056  -1.13914
 Alpha  occ. eigenvalues --   -1.13866  -1.13839  -1.13834  -1.13825  -1.13809
 Alpha  occ. eigenvalues --   -1.13796  -1.13687  -1.13647  -1.13082  -1.13054
 Alpha  occ. eigenvalues --   -1.13049  -1.12963  -1.12962  -1.12948  -1.12939
 Alpha  occ. eigenvalues --   -1.12872  -1.12805  -1.12721  -1.12665  -1.12651
 Alpha  occ. eigenvalues --   -0.18679  -0.13187  -0.12687  -0.10163
 Alpha virt. eigenvalues --   -0.06178  -0.05100  -0.04934  -0.02864  -0.02729
 Alpha virt. eigenvalues --   -0.02021  -0.01907  -0.01292  -0.00687  -0.00394
 Alpha virt. eigenvalues --    0.00007   0.00299   0.00732   0.00840   0.00881

  Beta  occ. eigenvalues --  -38.44339 -38.44334 -38.44175 -38.43520 -38.43452
  Beta  occ. eigenvalues --  -38.43115 -38.43026  -2.20153  -2.20147  -2.20053
  Beta  occ. eigenvalues --   -2.19386  -2.19296  -2.19170  -2.18865  -1.13908
  Beta  occ. eigenvalues --   -1.13837  -1.13834  -1.13809  -1.13799  -1.13787
  Beta  occ. eigenvalues --   -1.13786  -1.13658  -1.13644  -1.13080  -1.13053
  Beta  occ. eigenvalues --   -1.13023  -1.12957  -1.12949  -1.12927  -1.12882
  Beta  occ. eigenvalues --   -1.12838  -1.12762  -1.12601  -1.12536  -1.12511
  Beta  occ. eigenvalues --   -0.18004  -0.12884  -0.12470
  Beta virt. eigenvalues --   -0.06415  -0.06018  -0.05026  -0.04902  -0.02203
  Beta virt. eigenvalues --   -0.02008  -0.01804  -0.01244  -0.01006  -0.00679
  Beta virt. eigenvalues --   -0.00410   0.00172   0.00376   0.00747   0.00884

 Mulliken charges and spin densities:
               1          2
     1  Na   0.326423   0.078437
     2  Na   0.149652   0.068580
     3  Na  -0.992135  -0.011371
     4  Na   0.042821   0.056124
     5  Na   0.307101   0.134721
     6  Na   0.457392   0.057118
     7  Na  -0.291254   0.616391
 Sum of Mulliken charges =  -0.00000   1.00000

 Dipole moment (field-independent basis, Debye):
    X=              0.0282    Y=              0.3684    Z=              0.2959  Tot=              0.4734
 Quadrupole moment (field-independent basis, Debye-Ang):
   XX=            -55.3823   YY=            -59.6264   ZZ=            -77.0391
   XY=             -0.8653   XZ=             -0.2260   YZ=              0.8816

 Normal termination of Gaussian 16 at Tue Dec  5 15:42:22 2023.
