 Gaussian 16, Revision B.01,
 Gaussian 16:  ES64L-G16RevB.01 20-Dec-2017

 -------------------------
 #P B3LYP/6-311+g(d) force
 -------------------------

 -----
 DPGEN
 -----
 Symbolic Z-matrix:
 Charge =  0 Multiplicity = 2

                         Standard orientation:
 ---------------------------------------------------------------------
 Center     Atomic      Atomic             Coordinates (Angstroms)
 Number     Number       Type             X           Y           Z
 ---------------------------------------------------------------------
      1         11           0        2.264926    1.572242    0.327727
      2         11           0        5.902943    0.374284   -0.162878
      3         11           0        2.952215   -2.312877   -0.091131
      4         11           0       -0.129597   -1.282427   -0.215243
      5         11           0       -0.770745    2.263631   -0.257045
      6         11           0       -3.543030   -0.468773    0.932879
      7         11           0       -6.676712   -0.146079   -0.534309
 ---------------------------------------------------------------------

 SCF Done:  E(UB3LYP) =  -1136.11432206     A.U. after   23 cycles

 The electronic state is 2-A.
 Alpha  occ. eigenvalues --  -38.44676 -38.44650 -38.44594 -38.44442 -38.44261
 Alpha  occ. eigenvalues --  -38.44132 -38.43996  -2.20489  -2.20484  -2.20459
 Alpha  occ. eigenvalues --   -2.20202  -2.19997  -2.19971  -2.19775  -1.14213
 Alpha  occ. eigenvalues --   -1.14183  -1.14158  -1.14155  -1.14134  -1.14112
 Alpha  occ. eigenvalues --   -1.14097  -1.14086  -1.14045  -1.13867  -1.13859
 Alpha  occ. eigenvalues --   -1.13813  -1.13672  -1.13671  -1.13638  -1.13631
 Alpha  occ. eigenvalues --   -1.13629  -1.13588  -1.13466  -1.13447  -1.13379
 Alpha  occ. eigenvalues --   -0.17011  -0.13582  -0.12215  -0.11487
 Alpha virt. eigenvalues --   -0.07031  -0.05318  -0.04618  -0.03515  -0.03410
 Alpha virt. eigenvalues --   -0.02411  -0.02260  -0.01363  -0.01154  -0.00801
 Alpha virt. eigenvalues --   -0.00651  -0.00266  -0.00057   0.00191   0.00511

  Beta  occ. eigenvalues --  -38.44627 -38.44606 -38.44531 -38.44397 -38.44276
  Beta  occ. eigenvalues --  -38.44103 -38.43990  -2.20411  -2.20399  -2.20346
  Beta  occ. eigenvalues --   -2.20118  -2.20024  -2.19918  -2.19763  -1.14134
  Beta  occ. eigenvalues --   -1.14132  -1.14104  -1.14096  -1.14062  -1.14046
  Beta  occ. eigenvalues --   -1.14033  -1.14006  -1.13946  -1.13810  -1.13797
  Beta  occ. eigenvalues --   -1.13762  -1.13690  -1.13689  -1.13654  -1.13595
  Beta  occ. eigenvalues --   -1.13582  -1.13556  -1.13454  -1.13438  -1.13379
  Beta  occ. eigenvalues --   -0.16260  -0.13383  -0.11411
  Beta virt. eigenvalues --   -0.08177  -0.06657  -0.04972  -0.04375  -0.03203
  Beta virt. eigenvalues --   -0.02811  -0.02296  -0.01911  -0.01253  -0.00887
  Beta virt. eigenvalues --   -0.00486  -0.00423  -0.00095   0.00052   0.00332

 Mulliken charges and spin densities:
               1          2
     1  Na  -0.484840   0.290363
     2  Na   0.012951   0.259116
     3  Na   0.458798  -0.162466
     4  Na  -0.951032   0.702445
     5  Na   0.684907   0.003598
     6  Na  -0.015494  -0.009434
     7  Na   0.294710  -0.083621
 Sum of Mulliken charges =  -0.00000   1.00000

 Dipole moment (field-independent basis, Debye):
    X=              0.7320    Y=              0.3738    Z=             -0.3472  Tot=              0.8923
 Quadrupole moment (field-independent basis, Debye-Ang):
   XX=            -61.2246   YY=            -67.1272   ZZ=            -71.5952
   XY=             -3.3083   XZ=              3.5084   YZ=             -0.6853

 Normal termination of Gaussian 16 at Tue Nov 28 19:05:17 2023.
