 Gaussian 16, Revision B.01,
 Gaussian 16:  ES64L-G16RevB.01 20-Dec-2017

 -------------------------
 #P B3LYP/6-311+g(d) force
 -------------------------

 -----
 DPGEN
 -----
 Symbolic Z-matrix:
 Charge =  0 Multiplicity = 2

                         Standard orientation:
 ---------------------------------------------------------------------
 Center     Atomic      Atomic             Coordinates (Angstroms)
 Number     Number       Type             X           Y           Z
 ---------------------------------------------------------------------
      1         11           0       -3.265745    1.632206   -1.171997
      2         11           0       -3.579761   -1.888321   -0.040877
      3         11           0        2.299798   -2.478039   -0.730616
      4         11           0        4.372478    0.061449   -0.672345
      5         11           0       -1.025704   -2.787337    1.215012
      6         11           0        2.338262    2.117193    1.003151
      7         11           0       -1.139327    3.342849    0.397671
 ---------------------------------------------------------------------

 SCF Done:  E(UB3LYP) =  -1136.10788306     A.U. after   23 cycles

 The electronic state is 2-A.
 Alpha  occ. eigenvalues --  -38.45041 -38.44994 -38.44854 -38.44338 -38.44219
 Alpha  occ. eigenvalues --  -38.44020 -38.43702  -2.20853  -2.20782  -2.20660
 Alpha  occ. eigenvalues --   -2.20118  -2.20039  -2.19824  -2.19525  -1.14569
 Alpha  occ. eigenvalues --   -1.14507  -1.14487  -1.14448  -1.14442  -1.14426
 Alpha  occ. eigenvalues --   -1.14326  -1.14324  -1.14291  -1.13811  -1.13794
 Alpha  occ. eigenvalues --   -1.13773  -1.13705  -1.13681  -1.13674  -1.13483
 Alpha  occ. eigenvalues --   -1.13467  -1.13444  -1.13173  -1.13170  -1.13155
 Alpha  occ. eigenvalues --   -0.15903  -0.14182  -0.13188  -0.10502
 Alpha virt. eigenvalues --   -0.07703  -0.04777  -0.04551  -0.03739  -0.03537
 Alpha virt. eigenvalues --   -0.02170  -0.01976  -0.01694  -0.01118  -0.00984
 Alpha virt. eigenvalues --   -0.00774  -0.00032   0.00087   0.00364   0.00694

  Beta  occ. eigenvalues --  -38.45028 -38.44942 -38.44851 -38.44345 -38.44194
  Beta  occ. eigenvalues --  -38.43946 -38.43646  -2.20834  -2.20688  -2.20660
  Beta  occ. eigenvalues --   -2.20136  -2.19995  -2.19687  -2.19421  -1.14542
  Beta  occ. eigenvalues --   -1.14498  -1.14462  -1.14391  -1.14383  -1.14356
  Beta  occ. eigenvalues --   -1.14329  -1.14316  -1.14255  -1.13821  -1.13812
  Beta  occ. eigenvalues --   -1.13751  -1.13672  -1.13652  -1.13641  -1.13391
  Beta  occ. eigenvalues --   -1.13375  -1.13354  -1.13109  -1.13098  -1.13084
  Beta  occ. eigenvalues --   -0.15413  -0.13588  -0.12550
  Beta virt. eigenvalues --   -0.07753  -0.07295  -0.04347  -0.04029  -0.03508
  Beta virt. eigenvalues --   -0.03258  -0.02090  -0.01741  -0.01435  -0.00864
  Beta virt. eigenvalues --   -0.00734  -0.00566   0.00124   0.00255   0.00497

 Mulliken charges and spin densities:
               1          2
     1  Na  -0.201136   0.253209
     2  Na   0.363994   0.048656
     3  Na  -0.410674   0.256796
     4  Na   0.944023   0.039823
     5  Na  -0.275784   0.121302
     6  Na  -0.564179   0.338074
     7  Na   0.143756  -0.057859
 Sum of Mulliken charges =  -0.00000   1.00000

 Dipole moment (field-independent basis, Debye):
    X=              0.3648    Y=             -0.8206    Z=             -0.2373  Tot=              0.9289
 Quadrupole moment (field-independent basis, Debye-Ang):
   XX=            -58.5610   YY=            -72.0336   ZZ=            -70.8045
   XY=              3.2119   XZ=              0.4627   YZ=              0.9049

 Normal termination of Gaussian 16 at Mon Dec  4 02:34:32 2023.
