 Gaussian 16, Revision B.01,
 Gaussian 16:  ES64L-G16RevB.01 20-Dec-2017

 -------------------------
 #P B3LYP/6-311+g(d) force
 -------------------------

 -----
 DPGEN
 -----
 Symbolic Z-matrix:
 Charge =  0 Multiplicity = 2

                         Standard orientation:
 ---------------------------------------------------------------------
 Center     Atomic      Atomic             Coordinates (Angstroms)
 Number     Number       Type             X           Y           Z
 ---------------------------------------------------------------------
      1         11           0        5.265617    0.990919   -0.321542
      2         11           0        0.574720   -2.286857   -0.599787
      3         11           0       -2.587676    3.113493   -0.095689
      4         11           0       -4.806587    0.236696    0.530621
      5         11           0       -3.582032   -2.407233   -0.311298
      6         11           0        3.754866   -1.608987    0.894745
      7         11           0        1.381092    1.961969   -0.097050
 ---------------------------------------------------------------------

 SCF Done:  E(UB3LYP) =  -1136.10318911     A.U. after   25 cycles

 The electronic state is 2-A.
 Alpha  occ. eigenvalues --  -38.45430 -38.45408 -38.44911 -38.44421 -38.44396
 Alpha  occ. eigenvalues --  -38.44225 -38.44119  -2.21229  -2.21140  -2.20728
 Alpha  occ. eigenvalues --   -2.20216  -2.20192  -2.19942  -2.19902  -1.14913
 Alpha  occ. eigenvalues --   -1.14889  -1.14876  -1.14831  -1.14815  -1.14724
 Alpha  occ. eigenvalues --   -1.14375  -1.14369  -1.14340  -1.13937  -1.13874
 Alpha  occ. eigenvalues --   -1.13858  -1.13849  -1.13837  -1.13801  -1.13638
 Alpha  occ. eigenvalues --   -1.13619  -1.13588  -1.13569  -1.13564  -1.13538
 Alpha  occ. eigenvalues --   -0.16160  -0.14224  -0.11862  -0.11434
 Alpha virt. eigenvalues --   -0.07394  -0.05518  -0.04707  -0.03572  -0.03258
 Alpha virt. eigenvalues --   -0.02747  -0.02142  -0.01656  -0.01247  -0.00993
 Alpha virt. eigenvalues --   -0.00602  -0.00276  -0.00031   0.00281   0.00465

  Beta  occ. eigenvalues --  -38.45407 -38.45350 -38.44832 -38.44362 -38.44352
  Beta  occ. eigenvalues --  -38.44257 -38.44130  -2.21193  -2.21035  -2.20581
  Beta  occ. eigenvalues --   -2.20153  -2.20066  -2.20003  -2.19928  -1.14891
  Beta  occ. eigenvalues --   -1.14864  -1.14808  -1.14762  -1.14735  -1.14646
  Beta  occ. eigenvalues --   -1.14271  -1.14268  -1.14246  -1.13898  -1.13829
  Beta  occ. eigenvalues --   -1.13803  -1.13771  -1.13760  -1.13718  -1.13680
  Beta  occ. eigenvalues --   -1.13661  -1.13619  -1.13589  -1.13578  -1.13538
  Beta  occ. eigenvalues --   -0.15275  -0.13921  -0.11405
  Beta virt. eigenvalues --   -0.08023  -0.07357  -0.05054  -0.04373  -0.03260
  Beta virt. eigenvalues --   -0.02851  -0.02559  -0.02026  -0.01358  -0.00859
  Beta virt. eigenvalues --   -0.00638  -0.00426  -0.00186   0.00134   0.00349

 Mulliken charges and spin densities:
               1          2
     1  Na   0.703611   0.461385
     2  Na  -0.348186   0.189829
     3  Na   0.020089  -0.323111
     4  Na  -0.115163   0.112307
     5  Na   0.098735   0.029445
     6  Na   0.242239   0.154635
     7  Na  -0.601325   0.375510
 Sum of Mulliken charges =  -0.00000   1.00000

 Dipole moment (field-independent basis, Debye):
    X=              1.5544    Y=             -0.1273    Z=              0.0981  Tot=              1.5627
 Quadrupole moment (field-independent basis, Debye-Ang):
   XX=            -57.1524   YY=            -70.6140   ZZ=            -71.5636
   XY=             -1.6559   XZ=             -0.6728   YZ=             -1.7606

 Normal termination of Gaussian 16 at Sun Dec  3 17:17:37 2023.
