 Gaussian 16, Revision B.01,
 Gaussian 16:  ES64L-G16RevB.01 20-Dec-2017

 -------------------------
 #P B3LYP/6-311+g(d) force
 -------------------------

 -----
 DPGEN
 -----
 Symbolic Z-matrix:
 Charge =  0 Multiplicity = 2

                         Standard orientation:
 ---------------------------------------------------------------------
 Center     Atomic      Atomic             Coordinates (Angstroms)
 Number     Number       Type             X           Y           Z
 ---------------------------------------------------------------------
      1         11           0        0.858421    0.509017   -1.319215
      2         11           0       -3.718109    0.803711    1.332165
      3         11           0       -3.621610    3.627969   -0.304035
      4         11           0       -0.788629   -2.067741   -0.544465
      5         11           0       -4.628010   -2.975595    0.128467
      6         11           0        7.362584   -0.062550    0.687164
      7         11           0        4.535352    0.165189    0.019920
 ---------------------------------------------------------------------

 SCF Done:  E(UB3LYP) =  -1136.10185192     A.U. after   23 cycles

 The electronic state is 2-A.
 Alpha  occ. eigenvalues --  -38.46257 -38.44631 -38.44471 -38.44174 -38.44168
 Alpha  occ. eigenvalues --  -38.43995 -38.43681  -2.22027  -2.20442  -2.20242
 Alpha  occ. eigenvalues --   -2.19957  -2.19931  -2.19822  -2.19494  -1.15668
 Alpha  occ. eigenvalues --   -1.15653  -1.15633  -1.14127  -1.14087  -1.14070
 Alpha  occ. eigenvalues --   -1.13925  -1.13914  -1.13868  -1.13652  -1.13619
 Alpha  occ. eigenvalues --   -1.13610  -1.13603  -1.13592  -1.13578  -1.13525
 Alpha  occ. eigenvalues --   -1.13452  -1.13452  -1.13153  -1.13152  -1.13110
 Alpha  occ. eigenvalues --   -0.15611  -0.13797  -0.12323  -0.12029
 Alpha virt. eigenvalues --   -0.06413  -0.05795  -0.04480  -0.03448  -0.03098
 Alpha virt. eigenvalues --   -0.02606  -0.02346  -0.02017  -0.01430  -0.01148
 Alpha virt. eigenvalues --   -0.00974  -0.00391  -0.00234   0.00359   0.00580

  Beta  occ. eigenvalues --  -38.46139 -38.44578 -38.44487 -38.44180 -38.44134
  Beta  occ. eigenvalues --  -38.43964 -38.43685  -2.21806  -2.20342  -2.20278
  Beta  occ. eigenvalues --   -2.19956  -2.19883  -2.19766  -2.19505  -1.15518
  Beta  occ. eigenvalues --   -1.15505  -1.15485  -1.14075  -1.14020  -1.14003
  Beta  occ. eigenvalues --   -1.13954  -1.13936  -1.13855  -1.13643  -1.13632
  Beta  occ. eigenvalues --   -1.13600  -1.13557  -1.13556  -1.13543  -1.13497
  Beta  occ. eigenvalues --   -1.13414  -1.13414  -1.13163  -1.13162  -1.13092
  Beta  occ. eigenvalues --   -0.14927  -0.13222  -0.11596
  Beta virt. eigenvalues --   -0.08999  -0.05996  -0.05389  -0.04157  -0.03205
  Beta virt. eigenvalues --   -0.02776  -0.02393  -0.01986  -0.01784  -0.01173
  Beta virt. eigenvalues --   -0.00762  -0.00710  -0.00214  -0.00046   0.00414

 Mulliken charges and spin densities:
               1          2
     1  Na  -0.962280   0.122950
     2  Na  -0.219749  -0.118713
     3  Na   0.198449   0.231850
     4  Na   0.142530  -0.038443
     5  Na   0.230183   0.558109
     6  Na   1.566263  -0.010718
     7  Na  -0.955397   0.254964
 Sum of Mulliken charges =  -0.00000   1.00000

 Dipole moment (field-independent basis, Debye):
    X=             -1.3491    Y=             -0.8694    Z=             -0.3634  Tot=              1.6456
 Quadrupole moment (field-independent basis, Debye-Ang):
   XX=            -61.9242   YY=            -62.5158   ZZ=            -71.9311
   XY=              8.5568   XZ=              3.2546   YZ=             -5.4737

 Normal termination of Gaussian 16 at Sun Dec  3 17:23:57 2023.
