 Gaussian 16, Revision B.01,
 Gaussian 16:  ES64L-G16RevB.01 20-Dec-2017

 -------------------------
 #P B3LYP/6-311+g(d) force
 -------------------------

 -----
 DPGEN
 -----
 Symbolic Z-matrix:
 Charge =  0 Multiplicity = 2

                         Standard orientation:
 ---------------------------------------------------------------------
 Center     Atomic      Atomic             Coordinates (Angstroms)
 Number     Number       Type             X           Y           Z
 ---------------------------------------------------------------------
      1         11           0        0.279930   -0.386249    2.015994
      2         11           0        3.413997    0.537202    0.211320
      3         11           0       -4.105154   -1.676444    0.159469
      4         11           0       -2.820569    1.357948   -0.285313
      5         11           0        2.343861   -2.792967   -0.400561
      6         11           0        0.297136   -0.066420   -1.729423
      7         11           0        0.590798    3.026929    0.028515
 ---------------------------------------------------------------------

 SCF Done:  E(UB3LYP) =  -1136.12112606     A.U. after   23 cycles

 The electronic state is 2-A.
 Alpha  occ. eigenvalues --  -38.45509 -38.44640 -38.44537 -38.44039 -38.44002
 Alpha  occ. eigenvalues --  -38.43690 -38.42889  -2.21303  -2.20443  -2.20287
 Alpha  occ. eigenvalues --   -2.19894  -2.19810  -2.19484  -2.18698  -1.14985
 Alpha  occ. eigenvalues --   -1.14963  -1.14929  -1.14118  -1.14072  -1.14057
 Alpha  occ. eigenvalues --   -1.13959  -1.13954  -1.13933  -1.13586  -1.13541
 Alpha  occ. eigenvalues --   -1.13509  -1.13492  -1.13481  -1.13423  -1.13156
 Alpha  occ. eigenvalues --   -1.13143  -1.13122  -1.12371  -1.12357  -1.12351
 Alpha  occ. eigenvalues --   -0.17585  -0.13378  -0.11515  -0.10421
 Alpha virt. eigenvalues --   -0.07107  -0.05556  -0.04599  -0.03244  -0.02612
 Alpha virt. eigenvalues --   -0.02447  -0.02325  -0.01618  -0.01120  -0.00480
 Alpha virt. eigenvalues --   -0.00300   0.00131   0.00351   0.00569   0.00627

  Beta  occ. eigenvalues --  -38.45502 -38.44554 -38.44545 -38.43998 -38.43970
  Beta  occ. eigenvalues --  -38.43680 -38.42888  -2.21293  -2.20304  -2.20283
  Beta  occ. eigenvalues --   -2.19804  -2.19767  -2.19467  -2.18699  -1.14962
  Beta  occ. eigenvalues --   -1.14951  -1.14922  -1.14006  -1.13972  -1.13962
  Beta  occ. eigenvalues --   -1.13958  -1.13944  -1.13942  -1.13500  -1.13485
  Beta  occ. eigenvalues --   -1.13478  -1.13453  -1.13424  -1.13397  -1.13146
  Beta  occ. eigenvalues --   -1.13115  -1.13112  -1.12370  -1.12360  -1.12335
  Beta  occ. eigenvalues --   -0.16860  -0.13291  -0.11344
  Beta virt. eigenvalues --   -0.06977  -0.06492  -0.05443  -0.04542  -0.02688
  Beta virt. eigenvalues --   -0.02340  -0.01871  -0.01628  -0.01369  -0.01075
  Beta virt. eigenvalues --   -0.00457  -0.00096   0.00159   0.00552   0.00628

 Mulliken charges and spin densities:
               1          2
     1  Na  -0.308534   0.622053
     2  Na   0.293905   0.077219
     3  Na   0.046965  -0.052747
     4  Na   0.053112  -0.026200
     5  Na  -0.007002  -0.020091
     6  Na   0.034710   0.482459
     7  Na  -0.113156  -0.082693
 Sum of Mulliken charges =  -0.00000   1.00000

 Dipole moment (field-independent basis, Debye):
    X=              0.6322    Y=             -0.2164    Z=              0.1183  Tot=              0.6786
 Quadrupole moment (field-independent basis, Debye-Ang):
   XX=            -54.2309   YY=            -64.0337   ZZ=            -76.7236
   XY=              3.0263   XZ=              0.0650   YZ=              0.0751

 Normal termination of Gaussian 16 at Thu Dec  7 15:38:02 2023.
