 Gaussian 16, Revision B.01,
 Gaussian 16:  ES64L-G16RevB.01 20-Dec-2017

 -------------------------
 #P B3LYP/6-311+g(d) force
 -------------------------

 -----
 DPGEN
 -----
 Symbolic Z-matrix:
 Charge =  0 Multiplicity = 2

                         Standard orientation:
 ---------------------------------------------------------------------
 Center     Atomic      Atomic             Coordinates (Angstroms)
 Number     Number       Type             X           Y           Z
 ---------------------------------------------------------------------
      1         11           0        0.081600   -1.382063   -0.779177
      2         11           0       -1.428369    1.884581    0.562981
      3         11           0       -3.198213   -0.285876   -1.808309
      4         11           0        3.280603   -1.616462   -0.545497
      5         11           0        1.958669    2.153771   -1.042724
      6         11           0        1.455850    0.375405    1.853623
      7         11           0       -2.150140   -1.129356    1.759103
 ---------------------------------------------------------------------

 SCF Done:  E(UB3LYP) =  -1136.12905641     A.U. after   23 cycles

 The electronic state is 2-A.
 Alpha  occ. eigenvalues --  -38.44532 -38.44453 -38.44056 -38.43990 -38.43429
 Alpha  occ. eigenvalues --  -38.43032 -38.43020  -2.20389  -2.20261  -2.19870
 Alpha  occ. eigenvalues --   -2.19862  -2.19250  -2.18926  -2.18898  -1.14066
 Alpha  occ. eigenvalues --   -1.14047  -1.13993  -1.13922  -1.13910  -1.13869
 Alpha  occ. eigenvalues --   -1.13579  -1.13547  -1.13534  -1.13489  -1.13481
 Alpha  occ. eigenvalues --   -1.13470  -1.12935  -1.12913  -1.12887  -1.12642
 Alpha  occ. eigenvalues --   -1.12609  -1.12592  -1.12581  -1.12527  -1.12509
 Alpha  occ. eigenvalues --   -0.18265  -0.13677  -0.11425  -0.11040
 Alpha virt. eigenvalues --   -0.05771  -0.05440  -0.05115  -0.03135  -0.02628
 Alpha virt. eigenvalues --   -0.02512  -0.01847  -0.01109  -0.00883  -0.00009
 Alpha virt. eigenvalues --    0.00223   0.00260   0.00354   0.00472   0.00556

  Beta  occ. eigenvalues --  -38.44481 -38.44397 -38.44020 -38.43964 -38.43433
  Beta  occ. eigenvalues --  -38.43023 -38.43010  -2.20295  -2.20156  -2.19824
  Beta  occ. eigenvalues --   -2.19795  -2.19257  -2.18912  -2.18887  -1.13999
  Beta  occ. eigenvalues --   -1.13986  -1.13914  -1.13846  -1.13836  -1.13805
  Beta  occ. eigenvalues --   -1.13550  -1.13497  -1.13484  -1.13458  -1.13432
  Beta  occ. eigenvalues --   -1.13428  -1.12941  -1.12914  -1.12892  -1.12615
  Beta  occ. eigenvalues --   -1.12589  -1.12582  -1.12539  -1.12522  -1.12509
  Beta  occ. eigenvalues --   -0.17558  -0.13417  -0.10877
  Beta virt. eigenvalues --   -0.07657  -0.05527  -0.04960  -0.04785  -0.02908
  Beta virt. eigenvalues --   -0.02081  -0.01991  -0.01639  -0.00825  -0.00582
  Beta virt. eigenvalues --    0.00118   0.00293   0.00397   0.00467   0.00532

 Mulliken charges and spin densities:
               1          2
     1  Na  -0.759549   0.275633
     2  Na  -0.061251   0.375774
     3  Na   0.143347   0.122901
     4  Na   0.318835  -0.162255
     5  Na  -0.188612   0.107897
     6  Na   0.269537   0.136812
     7  Na   0.277694   0.143238
 Sum of Mulliken charges =  -0.00000   1.00000

 Dipole moment (field-independent basis, Debye):
    X=             -0.3024    Y=              0.1554    Z=              0.1286  Tot=              0.3635
 Quadrupole moment (field-independent basis, Debye-Ang):
   XX=            -53.3022   YY=            -76.0747   ZZ=            -64.5523
   XY=              1.2195   XZ=             -0.2037   YZ=             -5.2710

 Normal termination of Gaussian 16 at Wed Nov 29 16:25:38 2023.
