 Gaussian 16, Revision B.01,
 Gaussian 16:  ES64L-G16RevB.01 20-Dec-2017

 -------------------------
 #P B3LYP/6-311+g(d) force
 -------------------------

 -----
 DPGEN
 -----
 Symbolic Z-matrix:
 Charge =  0 Multiplicity = 2

                         Standard orientation:
 ---------------------------------------------------------------------
 Center     Atomic      Atomic             Coordinates (Angstroms)
 Number     Number       Type             X           Y           Z
 ---------------------------------------------------------------------
      1         11           0       -1.834568   -2.051739   -0.070293
      2         11           0        0.142450   -0.169785    2.044282
      3         11           0        1.386309   -2.536467   -0.014910
      4         11           0        2.949394    0.311497   -0.481567
      5         11           0       -3.257274    1.051276   -0.172750
      6         11           0       -0.136241    0.298088   -1.621154
      7         11           0        0.749931    3.097130    0.316392
 ---------------------------------------------------------------------

 SCF Done:  E(UB3LYP) =  -1136.13656513     A.U. after   19 cycles

 The electronic state is 2-A.
 Alpha  occ. eigenvalues --  -38.44203 -38.43845 -38.43783 -38.43621 -38.43399
 Alpha  occ. eigenvalues --  -38.43250 -38.43089  -2.19994  -2.19713  -2.19580
 Alpha  occ. eigenvalues --   -2.19520  -2.19305  -2.19215  -2.18996  -1.13666
 Alpha  occ. eigenvalues --   -1.13651  -1.13639  -1.13410  -1.13373  -1.13343
 Alpha  occ. eigenvalues --   -1.13251  -1.13243  -1.13217  -1.13196  -1.13151
 Alpha  occ. eigenvalues --   -1.13134  -1.13026  -1.12969  -1.12937  -1.12895
 Alpha  occ. eigenvalues --   -1.12842  -1.12834  -1.12660  -1.12650  -1.12640
 Alpha  occ. eigenvalues --   -0.18701  -0.13008  -0.12417  -0.10801
 Alpha virt. eigenvalues --   -0.05833  -0.05020  -0.04659  -0.03134  -0.02926
 Alpha virt. eigenvalues --   -0.02571  -0.01611  -0.01167  -0.00464  -0.00172
 Alpha virt. eigenvalues --   -0.00011   0.00341   0.00810   0.00843   0.00896

  Beta  occ. eigenvalues --  -38.44203 -38.43830 -38.43778 -38.43525 -38.43391
  Beta  occ. eigenvalues --  -38.43192 -38.43083  -2.19996  -2.19689  -2.19571
  Beta  occ. eigenvalues --   -2.19343  -2.19296  -2.19110  -2.18988  -1.13659
  Beta  occ. eigenvalues --   -1.13652  -1.13640  -1.13388  -1.13349  -1.13321
  Beta  occ. eigenvalues --   -1.13239  -1.13227  -1.13213  -1.13085  -1.13032
  Beta  occ. eigenvalues --   -1.13015  -1.12998  -1.12944  -1.12919  -1.12828
  Beta  occ. eigenvalues --   -1.12770  -1.12753  -1.12657  -1.12648  -1.12601
  Beta  occ. eigenvalues --   -0.17962  -0.12757  -0.12189
  Beta virt. eigenvalues --   -0.06889  -0.05790  -0.04928  -0.04660  -0.02385
  Beta virt. eigenvalues --   -0.02191  -0.01604  -0.01429  -0.01073  -0.00491
  Beta virt. eigenvalues --   -0.00208   0.00126   0.00375   0.00821   0.00880

 Mulliken charges and spin densities:
               1          2
     1  Na   0.204667  -0.009221
     2  Na  -0.484075   0.695148
     3  Na   0.249758   0.051446
     4  Na   0.311805   0.050138
     5  Na   0.042197  -0.088592
     6  Na  -0.239049   0.344007
     7  Na  -0.085304  -0.042927
 Sum of Mulliken charges =  -0.00000   1.00000

 Dipole moment (field-independent basis, Debye):
    X=             -0.1956    Y=              0.4016    Z=              0.1437  Tot=              0.4692
 Quadrupole moment (field-independent basis, Debye-Ang):
   XX=            -57.5102   YY=            -61.7850   ZZ=            -74.0957
   XY=             -1.2171   XZ=             -0.8038   YZ=              1.0604

 Normal termination of Gaussian 16 at Thu Dec  7 17:41:37 2023.
