 Gaussian 16, Revision B.01,
 Gaussian 16:  ES64L-G16RevB.01 20-Dec-2017

 -------------------------
 #P B3LYP/6-311+g(d) force
 -------------------------

 -----
 DPGEN
 -----
 Symbolic Z-matrix:
 Charge =  0 Multiplicity = 2

                         Standard orientation:
 ---------------------------------------------------------------------
 Center     Atomic      Atomic             Coordinates (Angstroms)
 Number     Number       Type             X           Y           Z
 ---------------------------------------------------------------------
      1         11           0       -6.288659    0.149382   -0.354141
      2         11           0       -8.125811   -2.030573    0.176585
      3         11           0        7.068777   -1.506780    1.639761
      4         11           0        6.652674   -0.349670   -1.270025
      5         11           0        2.824608   -0.008695   -1.302288
      6         11           0        0.317716    2.391442    0.890207
      7         11           0       -2.449304    1.354893    0.219900
 ---------------------------------------------------------------------

 SCF Done:  E(UB3LYP) =  -1136.10234710     A.U. after   19 cycles

 The electronic state is 2-A.
 Alpha  occ. eigenvalues --  -38.44917 -38.44711 -38.44571 -38.44467 -38.44461
 Alpha  occ. eigenvalues --  -38.44230 -38.44031  -2.20689  -2.20512  -2.20389
 Alpha  occ. eigenvalues --   -2.20258  -2.20243  -2.20041  -2.19849  -1.14342
 Alpha  occ. eigenvalues --   -1.14334  -1.14281  -1.14177  -1.14154  -1.14147
 Alpha  occ. eigenvalues --   -1.14129  -1.14024  -1.14023  -1.13997  -1.13923
 Alpha  occ. eigenvalues --   -1.13918  -1.13901  -1.13896  -1.13891  -1.13690
 Alpha  occ. eigenvalues --   -1.13687  -1.13645  -1.13499  -1.13497  -1.13490
 Alpha  occ. eigenvalues --   -0.14946  -0.14185  -0.13060  -0.10936
 Alpha virt. eigenvalues --   -0.07103  -0.05529  -0.04122  -0.03299  -0.03009
 Alpha virt. eigenvalues --   -0.02769  -0.02518  -0.02189  -0.01734  -0.00933
 Alpha virt. eigenvalues --   -0.00842  -0.00543  -0.00029   0.00209   0.00371

  Beta  occ. eigenvalues --  -38.44807 -38.44645 -38.44554 -38.44483 -38.44473
  Beta  occ. eigenvalues --  -38.44190 -38.44034  -2.20483  -2.20388  -2.20357
  Beta  occ. eigenvalues --   -2.20290  -2.20270  -2.19965  -2.19856  -1.14201
  Beta  occ. eigenvalues --   -1.14195  -1.14146  -1.14110  -1.14105  -1.14069
  Beta  occ. eigenvalues --   -1.14062  -1.14003  -1.14002  -1.14001  -1.13947
  Beta  occ. eigenvalues --   -1.13940  -1.13912  -1.13911  -1.13868  -1.13638
  Beta  occ. eigenvalues --   -1.13633  -1.13609  -1.13504  -1.13504  -1.13481
  Beta  occ. eigenvalues --   -0.14339  -0.13686  -0.12826
  Beta virt. eigenvalues --   -0.07629  -0.06521  -0.05120  -0.03983  -0.03092
  Beta virt. eigenvalues --   -0.02824  -0.02528  -0.02313  -0.02062  -0.01478
  Beta virt. eigenvalues --   -0.00722  -0.00480  -0.00189   0.00242   0.00279

 Mulliken charges and spin densities:
               1          2
     1  Na  -0.704755  -0.056612
     2  Na   0.525841   0.069461
     3  Na   0.134396   0.324306
     4  Na   0.181137  -0.068105
     5  Na  -0.341743   0.573459
     6  Na   1.419170   0.009770
     7  Na  -1.214046   0.147722
 Sum of Mulliken charges =  -0.00000   1.00000

 Dipole moment (field-independent basis, Debye):
    X=              0.4667    Y=             -0.5759    Z=              0.4075  Tot=              0.8459
 Quadrupole moment (field-independent basis, Debye-Ang):
   XX=            -59.7735   YY=            -67.1136   ZZ=            -67.2290
   XY=              8.2348   XZ=              0.6846   YZ=             -1.8130

 Normal termination of Gaussian 16 at Sun Dec  3 14:03:14 2023.
