 Gaussian 16, Revision B.01,
 Gaussian 16:  ES64L-G16RevB.01 20-Dec-2017

 -------------------------
 #P B3LYP/6-311+g(d) force
 -------------------------

 -----
 DPGEN
 -----
 Symbolic Z-matrix:
 Charge =  0 Multiplicity = 2

                         Standard orientation:
 ---------------------------------------------------------------------
 Center     Atomic      Atomic             Coordinates (Angstroms)
 Number     Number       Type             X           Y           Z
 ---------------------------------------------------------------------
      1         11           0       -2.309957   -1.932104   -0.002518
      2         11           0       -0.844171    0.997099    2.345794
      3         11           0        0.572515   -1.636512    1.694174
      4         11           0        3.285896   -0.778354   -0.372452
      5         11           0       -2.251627    1.740172   -1.091430
      6         11           0        1.512461    2.527941   -0.094336
      7         11           0        0.034883   -0.918242   -2.479233
 ---------------------------------------------------------------------

 SCF Done:  E(UB3LYP) =  -1136.12368332     A.U. after   32 cycles

 The electronic state is 2-A.
 Alpha  occ. eigenvalues --  -38.45455 -38.44867 -38.44046 -38.43996 -38.43546
 Alpha  occ. eigenvalues --  -38.43508 -38.43457  -2.21250  -2.20721  -2.19935
 Alpha  occ. eigenvalues --   -2.19779  -2.19323  -2.19311  -2.19241  -1.14908
 Alpha  occ. eigenvalues --   -1.14889  -1.14867  -1.14449  -1.14337  -1.14318
 Alpha  occ. eigenvalues --   -1.13638  -1.13567  -1.13542  -1.13466  -1.13434
 Alpha  occ. eigenvalues --   -1.13402  -1.13000  -1.12999  -1.12990  -1.12982
 Alpha  occ. eigenvalues --   -1.12968  -1.12938  -1.12917  -1.12897  -1.12884
 Alpha  occ. eigenvalues --   -0.17899  -0.12811  -0.12299  -0.11551
 Alpha virt. eigenvalues --   -0.05550  -0.05219  -0.04555  -0.03801  -0.03672
 Alpha virt. eigenvalues --   -0.03324  -0.01115  -0.00781  -0.00646  -0.00135
 Alpha virt. eigenvalues --    0.00222   0.00332   0.00459   0.00512   0.00743

  Beta  occ. eigenvalues --  -38.45377 -38.44794 -38.43990 -38.43975 -38.43546
  Beta  occ. eigenvalues --  -38.43512 -38.43457  -2.21107  -2.20588  -2.19837
  Beta  occ. eigenvalues --   -2.19743  -2.19335  -2.19312  -2.19242  -1.14810
  Beta  occ. eigenvalues --   -1.14794  -1.14759  -1.14344  -1.14252  -1.14221
  Beta  occ. eigenvalues --   -1.13558  -1.13504  -1.13469  -1.13429  -1.13414
  Beta  occ. eigenvalues --   -1.13375  -1.13010  -1.12990  -1.12984  -1.12982
  Beta  occ. eigenvalues --   -1.12970  -1.12940  -1.12912  -1.12896  -1.12885
  Beta  occ. eigenvalues --   -0.16988  -0.12144  -0.11441
  Beta virt. eigenvalues --   -0.08739  -0.05231  -0.04878  -0.04079  -0.03354
  Beta virt. eigenvalues --   -0.03084  -0.02820  -0.01022  -0.00703  -0.00334
  Beta virt. eigenvalues --   -0.00042   0.00242   0.00501   0.00533   0.00647

 Mulliken charges and spin densities:
               1          2
     1  Na   0.144102  -0.058881
     2  Na   0.157028   0.280796
     3  Na   0.130994   0.154690
     4  Na   0.032636   0.035474
     5  Na  -0.086725   0.106650
     6  Na  -0.206583  -0.004662
     7  Na  -0.171451   0.485932
 Sum of Mulliken charges =  -0.00000   1.00000

 Dipole moment (field-independent basis, Debye):
    X=             -0.3682    Y=             -0.0550    Z=             -0.4198  Tot=              0.5611
 Quadrupole moment (field-independent basis, Debye-Ang):
   XX=            -64.7042   YY=            -73.1687   ZZ=            -60.7142
   XY=              0.0537   XZ=             -0.5956   YZ=             -0.4990

 Normal termination of Gaussian 16 at Mon Dec  4 05:40:13 2023.
