 Gaussian 16, Revision B.01,
 Gaussian 16:  ES64L-G16RevB.01 20-Dec-2017

 -------------------------
 #P B3LYP/6-311+g(d) force
 -------------------------

 -----
 DPGEN
 -----
 Symbolic Z-matrix:
 Charge =  0 Multiplicity = 2

                         Standard orientation:
 ---------------------------------------------------------------------
 Center     Atomic      Atomic             Coordinates (Angstroms)
 Number     Number       Type             X           Y           Z
 ---------------------------------------------------------------------
      1         11           0       -1.842913   -2.486087   -0.160192
      2         11           0       -1.030108    2.535205   -0.200628
      3         11           0        0.375636   -0.556224   -1.346515
      4         11           0        0.261636   -0.206137    1.990093
      5         11           0        2.397044    1.917587   -0.172131
      6         11           0        3.130085   -1.598970   -0.072924
      7         11           0       -3.291379    0.394626   -0.037703
 ---------------------------------------------------------------------

 SCF Done:  E(UB3LYP) =  -1136.12921330     A.U. after   21 cycles

 The electronic state is 2-A.
 Alpha  occ. eigenvalues --  -38.44764 -38.44633 -38.44142 -38.43711 -38.43259
 Alpha  occ. eigenvalues --  -38.43241 -38.42857  -2.20576  -2.20483  -2.19984
 Alpha  occ. eigenvalues --   -2.19566  -2.19232  -2.19152  -2.18729  -1.14261
 Alpha  occ. eigenvalues --   -1.14223  -1.14218  -1.14173  -1.14135  -1.14130
 Alpha  occ. eigenvalues --   -1.13669  -1.13647  -1.13613  -1.13274  -1.13215
 Alpha  occ. eigenvalues --   -1.13204  -1.12948  -1.12870  -1.12858  -1.12817
 Alpha  occ. eigenvalues --   -1.12764  -1.12761  -1.12412  -1.12387  -1.12374
 Alpha  occ. eigenvalues --   -0.18620  -0.13737  -0.12058  -0.10259
 Alpha virt. eigenvalues --   -0.06491  -0.05760  -0.04116  -0.03302  -0.02392
 Alpha virt. eigenvalues --   -0.02265  -0.02097  -0.01451  -0.00719  -0.00170
 Alpha virt. eigenvalues --   -0.00025   0.00255   0.00658   0.00725   0.00863

  Beta  occ. eigenvalues --  -38.44759 -38.44632 -38.44135 -38.43707 -38.43198
  Beta  occ. eigenvalues --  -38.43153 -38.42852  -2.20571  -2.20482  -2.19974
  Beta  occ. eigenvalues --   -2.19562  -2.19156  -2.18957  -2.18723  -1.14251
  Beta  occ. eigenvalues --   -1.14218  -1.14203  -1.14177  -1.14132  -1.14117
  Beta  occ. eigenvalues --   -1.13659  -1.13620  -1.13609  -1.13267  -1.13213
  Beta  occ. eigenvalues --   -1.13183  -1.12876  -1.12815  -1.12802  -1.12692
  Beta  occ. eigenvalues --   -1.12626  -1.12625  -1.12411  -1.12381  -1.12350
  Beta  occ. eigenvalues --   -0.17926  -0.13513  -0.11842
  Beta virt. eigenvalues --   -0.06448  -0.06348  -0.05723  -0.04099  -0.02553
  Beta virt. eigenvalues --   -0.02082  -0.01701  -0.01418  -0.01094  -0.00754
  Beta virt. eigenvalues --   -0.00181   0.00158   0.00312   0.00719   0.00748

 Mulliken charges and spin densities:
               1          2
     1  Na   0.595587   0.147843
     2  Na  -0.056583   0.043834
     3  Na  -0.518590   0.030664
     4  Na  -0.580526   0.619990
     5  Na   0.202052   0.061539
     6  Na   0.371742   0.088321
     7  Na  -0.013682   0.007809
 Sum of Mulliken charges =  -0.00000   1.00000

 Dipole moment (field-independent basis, Debye):
    X=              0.4932    Y=             -0.3491    Z=              0.1906  Tot=              0.6336
 Quadrupole moment (field-independent basis, Debye-Ang):
   XX=            -49.2058   YY=            -65.7220   ZZ=            -77.2439
   XY=             -0.2314   XZ=              0.0581   YZ=             -0.5148

 Normal termination of Gaussian 16 at Thu Dec  7 14:49:54 2023.
