 Gaussian 16, Revision B.01,
 Gaussian 16:  ES64L-G16RevB.01 20-Dec-2017

 -------------------------
 #P B3LYP/6-311+g(d) force
 -------------------------

 -----
 DPGEN
 -----
 Symbolic Z-matrix:
 Charge =  0 Multiplicity = 2

                         Standard orientation:
 ---------------------------------------------------------------------
 Center     Atomic      Atomic             Coordinates (Angstroms)
 Number     Number       Type             X           Y           Z
 ---------------------------------------------------------------------
      1         11           0       -1.621827   -2.414934    0.222416
      2         11           0        2.642301    2.514956   -0.308581
      3         11           0        3.064292   -2.129024    0.235156
      4         11           0        0.994451    0.253475    0.181232
      5         11           0       -1.532370    0.274701    2.567180
      6         11           0       -2.189720    2.200641   -0.332690
      7         11           0       -1.357127   -0.699816   -2.564712
 ---------------------------------------------------------------------

 SCF Done:  E(UB3LYP) =  -1136.11220092     A.U. after   23 cycles

 The electronic state is 2-A.
 Alpha  occ. eigenvalues --  -38.44665 -38.44573 -38.44553 -38.44533 -38.44144
 Alpha  occ. eigenvalues --  -38.43753 -38.42383  -2.20424  -2.20408  -2.20395
 Alpha  occ. eigenvalues --   -2.20335  -2.19923  -2.19568  -2.18404  -1.14109
 Alpha  occ. eigenvalues --   -1.14093  -1.14086  -1.14057  -1.14055  -1.14048
 Alpha  occ. eigenvalues --   -1.14046  -1.14023  -1.14022  -1.14003  -1.13977
 Alpha  occ. eigenvalues --   -1.13931  -1.13597  -1.13580  -1.13567  -1.13249
 Alpha  occ. eigenvalues --   -1.13236  -1.13201  -1.12125  -1.12073  -1.12020
 Alpha  occ. eigenvalues --   -0.17644  -0.12642  -0.11845  -0.11426
 Alpha virt. eigenvalues --   -0.06506  -0.04922  -0.04445  -0.03146  -0.03049
 Alpha virt. eigenvalues --   -0.03004  -0.01785  -0.01303  -0.00589  -0.00105
 Alpha virt. eigenvalues --    0.00105   0.00320   0.00334   0.00454   0.00622

  Beta  occ. eigenvalues --  -38.44665 -38.44533 -38.44485 -38.44463 -38.44137
  Beta  occ. eigenvalues --  -38.43747 -38.42372  -2.20424  -2.20335  -2.20244
  Beta  occ. eigenvalues --   -2.20227  -2.19914  -2.19562  -2.18388  -1.14108
  Beta  occ. eigenvalues --   -1.14093  -1.14086  -1.14048  -1.13975  -1.13945
  Beta  occ. eigenvalues --   -1.13942  -1.13941  -1.13931  -1.13911  -1.13904
  Beta  occ. eigenvalues --   -1.13885  -1.13581  -1.13567  -1.13557  -1.13240
  Beta  occ. eigenvalues --   -1.13207  -1.13200  -1.12091  -1.12057  -1.12016
  Beta  occ. eigenvalues --   -0.16890  -0.12400  -0.11320
  Beta virt. eigenvalues --   -0.07908  -0.06379  -0.04733  -0.03589  -0.02976
  Beta virt. eigenvalues --   -0.02583  -0.02194  -0.01777  -0.01262  -0.00253
  Beta virt. eigenvalues --   -0.00046   0.00102   0.00371   0.00505   0.00648

 Mulliken charges and spin densities:
               1          2
     1  Na   0.719029  -0.074642
     2  Na   0.246573  -0.044449
     3  Na   0.452281  -0.131803
     4  Na  -2.037009   0.544749
     5  Na   0.366437   0.257369
     6  Na   0.351294   0.019855
     7  Na  -0.098605   0.428920
 Sum of Mulliken charges =  -0.00000   1.00000

 Dipole moment (field-independent basis, Debye):
    X=              0.0012    Y=              0.0104    Z=             -0.1027  Tot=              0.1033
 Quadrupole moment (field-independent basis, Debye-Ang):
   XX=            -62.1794   YY=            -65.2204   ZZ=            -64.8647
   XY=             -1.2367   XZ=             -0.6266   YZ=             -2.6569

 Normal termination of Gaussian 16 at Tue Dec  5 15:56:45 2023.
