 Gaussian 16, Revision B.01,
 Gaussian 16:  ES64L-G16RevB.01 20-Dec-2017

 -------------------------
 #P B3LYP/6-311+g(d) force
 -------------------------

 -----
 DPGEN
 -----
 Symbolic Z-matrix:
 Charge =  0 Multiplicity = 2

                         Standard orientation:
 ---------------------------------------------------------------------
 Center     Atomic      Atomic             Coordinates (Angstroms)
 Number     Number       Type             X           Y           Z
 ---------------------------------------------------------------------
      1         11           0       -2.367166    1.910510   -0.544618
      2         11           0       -3.638920   -0.851111   -0.480797
      3         11           0        2.301415   -1.963718    0.437277
      4         11           0        1.344754    2.646351    0.067451
      5         11           0       -1.059247   -0.224197    2.199062
      6         11           0        3.888872    0.329371   -0.595341
      7         11           0       -0.469708   -1.847206   -1.083035
 ---------------------------------------------------------------------

 SCF Done:  E(UB3LYP) =  -1136.11710047     A.U. after   22 cycles

 The electronic state is 2-A.
 Alpha  occ. eigenvalues --  -38.44522 -38.44492 -38.44406 -38.44318 -38.44310
 Alpha  occ. eigenvalues --  -38.43935 -38.43657  -2.20373  -2.20361  -2.20234
 Alpha  occ. eigenvalues --   -2.20153  -2.20145  -2.19804  -2.19413  -1.14102
 Alpha  occ. eigenvalues --   -1.14090  -1.14026  -1.14002  -1.14001  -1.13981
 Alpha  occ. eigenvalues --   -1.13887  -1.13871  -1.13853  -1.13841  -1.13821
 Alpha  occ. eigenvalues --   -1.13816  -1.13789  -1.13786  -1.13767  -1.13465
 Alpha  occ. eigenvalues --   -1.13457  -1.13436  -1.13104  -1.13084  -1.13049
 Alpha  occ. eigenvalues --   -0.17723  -0.14380  -0.11712  -0.10737
 Alpha virt. eigenvalues --   -0.06894  -0.06084  -0.04109  -0.03534  -0.02662
 Alpha virt. eigenvalues --   -0.02568  -0.02464  -0.01497  -0.00791  -0.00496
 Alpha virt. eigenvalues --   -0.00207   0.00159   0.00339   0.00695   0.00735

  Beta  occ. eigenvalues --  -38.44492 -38.44449 -38.44313 -38.44304 -38.44295
  Beta  occ. eigenvalues --  -38.43932 -38.43661  -2.20306  -2.20298  -2.20146
  Beta  occ. eigenvalues --   -2.20122  -2.20046  -2.19802  -2.19423  -1.14056
  Beta  occ. eigenvalues --   -1.14053  -1.13975  -1.13964  -1.13945  -1.13938
  Beta  occ. eigenvalues --   -1.13834  -1.13806  -1.13804  -1.13792  -1.13778
  Beta  occ. eigenvalues --   -1.13754  -1.13739  -1.13722  -1.13708  -1.13468
  Beta  occ. eigenvalues --   -1.13451  -1.13413  -1.13111  -1.13089  -1.13049
  Beta  occ. eigenvalues --   -0.17110  -0.13947  -0.11617
  Beta virt. eigenvalues --   -0.07061  -0.06541  -0.05946  -0.03830  -0.03211
  Beta virt. eigenvalues --   -0.02433  -0.01951  -0.01701  -0.01395  -0.00681
  Beta virt. eigenvalues --   -0.00198  -0.00102   0.00254   0.00502   0.00737

 Mulliken charges and spin densities:
               1          2
     1  Na  -0.152448   0.062982
     2  Na   0.740080   0.291827
     3  Na   0.265588   0.100353
     4  Na  -0.265236  -0.072871
     5  Na  -0.361370   0.549166
     6  Na   0.180034   0.128135
     7  Na  -0.406649  -0.059591
 Sum of Mulliken charges =  -0.00000   1.00000

 Dipole moment (field-independent basis, Debye):
    X=             -0.4239    Y=             -0.4043    Z=              0.1877  Tot=              0.6151
 Quadrupole moment (field-independent basis, Debye-Ang):
   XX=            -56.6850   YY=            -73.2121   ZZ=            -70.3677
   XY=              0.1202   XZ=             -1.6139   YZ=             -1.5376

 Normal termination of Gaussian 16 at Fri Dec  8 04:33:50 2023.
