 Gaussian 16, Revision B.01,
 Gaussian 16:  ES64L-G16RevB.01 20-Dec-2017

 -------------------------
 #P B3LYP/6-311+g(d) force
 -------------------------

 -----
 DPGEN
 -----
 Symbolic Z-matrix:
 Charge =  0 Multiplicity = 2

                         Standard orientation:
 ---------------------------------------------------------------------
 Center     Atomic      Atomic             Coordinates (Angstroms)
 Number     Number       Type             X           Y           Z
 ---------------------------------------------------------------------
      1         11           0        3.309855   -0.179392   -0.314349
      2         11           0       -1.776973    2.214468   -0.099167
      3         11           0       -0.186550   -0.154312   -1.705015
      4         11           0        0.853692   -2.822985    0.081285
      5         11           0       -2.991587   -1.302997   -0.326626
      6         11           0        1.114688    2.599394    0.183239
      7         11           0       -0.323124   -0.354176    2.180633
 ---------------------------------------------------------------------

 SCF Done:  E(UB3LYP) =  -1136.13454139     A.U. after   19 cycles

 The electronic state is 2-A.
 Alpha  occ. eigenvalues --  -38.44060 -38.44043 -38.43886 -38.43807 -38.43499
 Alpha  occ. eigenvalues --  -38.43422 -38.43250  -2.19870  -2.19832  -2.19749
 Alpha  occ. eigenvalues --   -2.19635  -2.19410  -2.19376  -2.19137  -1.13554
 Alpha  occ. eigenvalues --   -1.13525  -1.13507  -1.13505  -1.13491  -1.13476
 Alpha  occ. eigenvalues --   -1.13411  -1.13385  -1.13368  -1.13324  -1.13302
 Alpha  occ. eigenvalues --   -1.13248  -1.13199  -1.13101  -1.13052  -1.13033
 Alpha  occ. eigenvalues --   -1.13001  -1.12982  -1.12785  -1.12780  -1.12757
 Alpha  occ. eigenvalues --   -0.18510  -0.12780  -0.12584  -0.10963
 Alpha virt. eigenvalues --   -0.05819  -0.04991  -0.04690  -0.03203  -0.03035
 Alpha virt. eigenvalues --   -0.02792  -0.01627  -0.01066  -0.00437  -0.00162
 Alpha virt. eigenvalues --   -0.00058   0.00338   0.00815   0.00837   0.00921

  Beta  occ. eigenvalues --  -38.44053 -38.44041 -38.43802 -38.43785 -38.43493
  Beta  occ. eigenvalues --  -38.43359 -38.43246  -2.19860  -2.19829  -2.19628
  Beta  occ. eigenvalues --   -2.19561  -2.19404  -2.19263  -2.19133  -1.13535
  Beta  occ. eigenvalues --   -1.13516  -1.13497  -1.13493  -1.13490  -1.13476
  Beta  occ. eigenvalues --   -1.13331  -1.13297  -1.13271  -1.13250  -1.13241
  Beta  occ. eigenvalues --   -1.13225  -1.13194  -1.13069  -1.13025  -1.12971
  Beta  occ. eigenvalues --   -1.12930  -1.12900  -1.12783  -1.12765  -1.12748
  Beta  occ. eigenvalues --   -0.17780  -0.12554  -0.12356
  Beta virt. eigenvalues --   -0.07030  -0.05795  -0.04930  -0.04644  -0.02373
  Beta virt. eigenvalues --   -0.02327  -0.01735  -0.01540  -0.00991  -0.00480
  Beta virt. eigenvalues --   -0.00203   0.00096   0.00374   0.00829   0.00892

 Mulliken charges and spin densities:
               1          2
     1  Na   0.022320  -0.018189
     2  Na   0.276067   0.016592
     3  Na  -0.174018   0.455772
     4  Na   0.114119  -0.073548
     5  Na   0.261345  -0.074538
     6  Na  -0.051748   0.019925
     7  Na  -0.448085   0.673986
 Sum of Mulliken charges =  -0.00000   1.00000

 Dipole moment (field-independent basis, Debye):
    X=             -0.0949    Y=             -0.4482    Z=              0.1090  Tot=              0.4709
 Quadrupole moment (field-independent basis, Debye-Ang):
   XX=            -57.1943   YY=            -64.0256   ZZ=            -73.3170
   XY=              0.6020   XZ=              0.0735   YZ=              0.4387

 Normal termination of Gaussian 16 at Wed Nov 29 16:32:59 2023.
