 Gaussian 16, Revision B.01,
 Gaussian 16:  ES64L-G16RevB.01 20-Dec-2017

 -------------------------
 #P B3LYP/6-311+g(d) force
 -------------------------

 -----
 DPGEN
 -----
 Symbolic Z-matrix:
 Charge =  0 Multiplicity = 2

                         Standard orientation:
 ---------------------------------------------------------------------
 Center     Atomic      Atomic             Coordinates (Angstroms)
 Number     Number       Type             X           Y           Z
 ---------------------------------------------------------------------
      1         11           0        0.472434   -0.210944   -1.776406
      2         11           0        2.946613   -1.206270    0.249796
      3         11           0       -2.960874    0.063847   -0.120256
      4         11           0        2.151754    1.982508    0.194228
      5         11           0       -1.162578    2.603077   -0.143678
      6         11           0       -0.594196   -0.594916    2.023709
      7         11           0       -0.853154   -2.637302   -0.427392
 ---------------------------------------------------------------------

 SCF Done:  E(UB3LYP) =  -1136.13451498     A.U. after   19 cycles

 The electronic state is 2-A.
 Alpha  occ. eigenvalues --  -38.44193 -38.43975 -38.43795 -38.43623 -38.43405
 Alpha  occ. eigenvalues --  -38.43362 -38.43073  -2.20022  -2.19872  -2.19699
 Alpha  occ. eigenvalues --   -2.19482  -2.19374  -2.19269  -2.18943  -1.13701
 Alpha  occ. eigenvalues --   -1.13691  -1.13657  -1.13576  -1.13542  -1.13514
 Alpha  occ. eigenvalues --   -1.13367  -1.13330  -1.13312  -1.13172  -1.13144
 Alpha  occ. eigenvalues --   -1.13124  -1.13120  -1.13019  -1.12989  -1.12925
 Alpha  occ. eigenvalues --   -1.12902  -1.12873  -1.12619  -1.12598  -1.12589
 Alpha  occ. eigenvalues --   -0.18837  -0.13338  -0.12437  -0.10956
 Alpha virt. eigenvalues --   -0.05755  -0.05081  -0.04502  -0.03501  -0.02941
 Alpha virt. eigenvalues --   -0.02669  -0.01492  -0.00912  -0.00273  -0.00132
 Alpha virt. eigenvalues --   -0.00040   0.00382   0.00837   0.00884   0.00937

  Beta  occ. eigenvalues --  -38.44189 -38.43970 -38.43712 -38.43620 -38.43346
  Beta  occ. eigenvalues --  -38.43332 -38.43070  -2.20017  -2.19866  -2.19546
  Beta  occ. eigenvalues --   -2.19478  -2.19249  -2.19237  -2.18940  -1.13699
  Beta  occ. eigenvalues --   -1.13668  -1.13656  -1.13569  -1.13527  -1.13493
  Beta  occ. eigenvalues --   -1.13273  -1.13223  -1.13204  -1.13162  -1.13130
  Beta  occ. eigenvalues --   -1.13120  -1.13053  -1.12928  -1.12898  -1.12892
  Beta  occ. eigenvalues --   -1.12863  -1.12831  -1.12618  -1.12597  -1.12570
  Beta  occ. eigenvalues --   -0.18106  -0.13121  -0.12194
  Beta virt. eigenvalues --   -0.07044  -0.05702  -0.05029  -0.04436  -0.02725
  Beta virt. eigenvalues --   -0.02189  -0.01619  -0.01400  -0.00857  -0.00322
  Beta virt. eigenvalues --   -0.00158   0.00124   0.00418   0.00874   0.00903

 Mulliken charges and spin densities:
               1          2
     1  Na  -0.146285   0.492473
     2  Na   0.125368  -0.047163
     3  Na   0.380009   0.070908
     4  Na  -0.058387   0.014447
     5  Na  -0.104513  -0.078519
     6  Na  -0.567435   0.659298
     7  Na   0.371244  -0.111445
 Sum of Mulliken charges =  -0.00000   1.00000

 Dipole moment (field-independent basis, Debye):
    X=              0.2672    Y=             -0.2835    Z=              0.1984  Tot=              0.4372
 Quadrupole moment (field-independent basis, Debye-Ang):
   XX=            -57.5143   YY=            -65.2294   ZZ=            -72.6084
   XY=             -0.3606   XZ=              2.0096   YZ=              0.4639

 Normal termination of Gaussian 16 at Wed Dec  6 00:22:18 2023.
