 Gaussian 16, Revision B.01,
 Gaussian 16:  ES64L-G16RevB.01 20-Dec-2017

 -------------------------
 #P B3LYP/6-311+g(d) force
 -------------------------

 -----
 DPGEN
 -----
 Symbolic Z-matrix:
 Charge =  0 Multiplicity = 2

                         Standard orientation:
 ---------------------------------------------------------------------
 Center     Atomic      Atomic             Coordinates (Angstroms)
 Number     Number       Type             X           Y           Z
 ---------------------------------------------------------------------
      1         11           0       -2.744619   -0.701806   -1.488157
      2         11           0       -4.927772   -2.507144    0.285450
      3         11           0       -3.696238    0.958670    1.548915
      4         11           0       -1.607582    2.637320   -0.593135
      5         11           0        1.182672    0.582896   -0.150193
      6         11           0        4.603059    0.082209    0.225708
      7         11           0        7.190480   -1.052146    0.171412
 ---------------------------------------------------------------------

 SCF Done:  E(UB3LYP) =  -1136.11160175     A.U. after   21 cycles

 The electronic state is 2-A.
 Alpha  occ. eigenvalues --  -38.45391 -38.45333 -38.44119 -38.44088 -38.43997
 Alpha  occ. eigenvalues --  -38.43850 -38.43321  -2.21208  -2.21149  -2.19964
 Alpha  occ. eigenvalues --   -2.19921  -2.19808  -2.19643  -2.19177  -1.14904
 Alpha  occ. eigenvalues --   -1.14882  -1.14824  -1.14811  -1.14799  -1.14746
 Alpha  occ. eigenvalues --   -1.13724  -1.13605  -1.13582  -1.13581  -1.13581
 Alpha  occ. eigenvalues --   -1.13562  -1.13472  -1.13470  -1.13411  -1.13309
 Alpha  occ. eigenvalues --   -1.13308  -1.13274  -1.12849  -1.12818  -1.12817
 Alpha  occ. eigenvalues --   -0.16794  -0.14098  -0.12293  -0.10861
 Alpha virt. eigenvalues --   -0.07365  -0.05214  -0.04636  -0.03243  -0.02823
 Alpha virt. eigenvalues --   -0.02530  -0.02277  -0.02023  -0.01402  -0.01022
 Alpha virt. eigenvalues --   -0.00479  -0.00224   0.00209   0.00410   0.00505

  Beta  occ. eigenvalues --  -38.45370 -38.45270 -38.44079 -38.44074 -38.43937
  Beta  occ. eigenvalues --  -38.43838 -38.43321  -2.21170  -2.21034  -2.19907
  Beta  occ. eigenvalues --   -2.19881  -2.19695  -2.19623  -2.19185  -1.14874
  Beta  occ. eigenvalues --   -1.14846  -1.14787  -1.14746  -1.14725  -1.14656
  Beta  occ. eigenvalues --   -1.13672  -1.13600  -1.13572  -1.13524  -1.13524
  Beta  occ. eigenvalues --   -1.13523  -1.13394  -1.13391  -1.13346  -1.13295
  Beta  occ. eigenvalues --   -1.13285  -1.13265  -1.12831  -1.12829  -1.12804
  Beta  occ. eigenvalues --   -0.16275  -0.13564  -0.11973
  Beta virt. eigenvalues --   -0.07522  -0.06823  -0.05066  -0.04304  -0.02930
  Beta virt. eigenvalues --   -0.02469  -0.02205  -0.02031  -0.01870  -0.01299
  Beta virt. eigenvalues --   -0.00605  -0.00246   0.00020   0.00283   0.00480

 Mulliken charges and spin densities:
               1          2
     1  Na  -0.082910   0.123920
     2  Na   0.319432  -0.035775
     3  Na   0.176166   0.294736
     4  Na   0.746814   0.096621
     5  Na   0.443449   0.043913
     6  Na  -1.362969   0.263873
     7  Na  -0.239981   0.212712
 Sum of Mulliken charges =  -0.00000   1.00000

 Dipole moment (field-independent basis, Debye):
    X=             -1.9415    Y=              0.0419    Z=              0.1834  Tot=              1.9506
 Quadrupole moment (field-independent basis, Debye-Ang):
   XX=            -63.7745   YY=            -68.7652   ZZ=            -66.0886
   XY=             -2.1667   XZ=             -2.6516   YZ=             -1.6650

 Normal termination of Gaussian 16 at Thu Nov 30 08:55:03 2023.
