 Gaussian 16, Revision B.01,
 Gaussian 16:  ES64L-G16RevB.01 20-Dec-2017

 -------------------------
 #P B3LYP/6-311+g(d) force
 -------------------------

 -----
 DPGEN
 -----
 Symbolic Z-matrix:
 Charge =  0 Multiplicity = 2

                         Standard orientation:
 ---------------------------------------------------------------------
 Center     Atomic      Atomic             Coordinates (Angstroms)
 Number     Number       Type             X           Y           Z
 ---------------------------------------------------------------------
      1         11           0        1.547964    1.374106   -0.881390
      2         11           0        0.413000    1.507982    2.242302
      3         11           0        2.391321   -0.969885    1.210546
      4         11           0        1.878088   -1.906193   -1.528748
      5         11           0       -1.299986    1.969630   -1.652192
      6         11           0       -1.125421   -0.674485    0.218634
      7         11           0       -3.804967   -1.301155    0.390848
 ---------------------------------------------------------------------

 SCF Done:  E(UB3LYP) =  -1136.11438343     A.U. after   22 cycles

 The electronic state is 2-A.
 Alpha  occ. eigenvalues --  -38.44514 -38.44366 -38.43986 -38.43853 -38.43655
 Alpha  occ. eigenvalues --  -38.43469 -38.42698  -2.20386  -2.20255  -2.19945
 Alpha  occ. eigenvalues --   -2.19692  -2.19554  -2.19482  -2.18730  -1.14107
 Alpha  occ. eigenvalues --   -1.14014  -1.13993  -1.13943  -1.13898  -1.13855
 Alpha  occ. eigenvalues --   -1.13679  -1.13596  -1.13593  -1.13503  -1.13312
 Alpha  occ. eigenvalues --   -1.13302  -1.13223  -1.13181  -1.13176  -1.13172
 Alpha  occ. eigenvalues --   -1.13138  -1.13073  -1.12416  -1.12385  -1.12338
 Alpha  occ. eigenvalues --   -0.19107  -0.13254  -0.12369  -0.11686
 Alpha virt. eigenvalues --   -0.05726  -0.04940  -0.04414  -0.03497  -0.03092
 Alpha virt. eigenvalues --   -0.02596  -0.01510  -0.00874  -0.00761   0.00132
 Alpha virt. eigenvalues --    0.00244   0.00285   0.00590   0.00808   0.00874

  Beta  occ. eigenvalues --  -38.44459 -38.44294 -38.43964 -38.43851 -38.43628
  Beta  occ. eigenvalues --  -38.43436 -38.42683  -2.20289  -2.20124  -2.19908
  Beta  occ. eigenvalues --   -2.19688  -2.19505  -2.19428  -2.18708  -1.14031
  Beta  occ. eigenvalues --   -1.13942  -1.13930  -1.13847  -1.13808  -1.13762
  Beta  occ. eigenvalues --   -1.13648  -1.13574  -1.13546  -1.13498  -1.13308
  Beta  occ. eigenvalues --   -1.13299  -1.13178  -1.13148  -1.13142  -1.13127
  Beta  occ. eigenvalues --   -1.13077  -1.13033  -1.12382  -1.12356  -1.12330
  Beta  occ. eigenvalues --   -0.18288  -0.13022  -0.11440
  Beta virt. eigenvalues --   -0.08295  -0.05533  -0.04615  -0.03968  -0.02928
  Beta virt. eigenvalues --   -0.02627  -0.02018  -0.01460  -0.00716  -0.00434
  Beta virt. eigenvalues --    0.00192   0.00346   0.00419   0.00629   0.00864

 Mulliken charges and spin densities:
               1          2
     1  Na   0.159547   0.449636
     2  Na   0.236255   0.267617
     3  Na   0.798364   0.053033
     4  Na   0.543176  -0.068290
     5  Na   0.120687  -0.039803
     6  Na  -1.913212   0.204768
     7  Na   0.055182   0.133040
 Sum of Mulliken charges =  -0.00000   1.00000

 Dipole moment (field-independent basis, Debye):
    X=              0.2303    Y=              0.6891    Z=              0.0524  Tot=              0.7284
 Quadrupole moment (field-independent basis, Debye-Ang):
   XX=            -61.8568   YY=            -71.7191   ZZ=            -61.7424
   XY=             -2.3982   XZ=              1.4709   YZ=              0.1187

 Normal termination of Gaussian 16 at Fri Dec  8 18:46:32 2023.
