 Gaussian 16, Revision B.01,
 Gaussian 16:  ES64L-G16RevB.01 20-Dec-2017

 -------------------------
 #P B3LYP/6-311+g(d) force
 -------------------------

 -----
 DPGEN
 -----
 Symbolic Z-matrix:
 Charge =  0 Multiplicity = 2

                         Standard orientation:
 ---------------------------------------------------------------------
 Center     Atomic      Atomic             Coordinates (Angstroms)
 Number     Number       Type             X           Y           Z
 ---------------------------------------------------------------------
      1         11           0       -0.182353    0.303511   -1.804521
      2         11           0        0.443657   -0.012272    1.898383
      3         11           0       -2.884405   -1.074208    0.430555
      4         11           0       -0.210752   -2.578588   -0.471357
      5         11           0        1.839746    2.271464   -0.054341
      6         11           0       -1.727839    2.410723   -0.015227
      7         11           0        2.721945   -1.320630    0.016507
 ---------------------------------------------------------------------

 SCF Done:  E(UB3LYP) =  -1136.13784558     A.U. after   19 cycles

 The electronic state is 2-A.
 Alpha  occ. eigenvalues --  -38.43696 -38.43650 -38.43648 -38.43577 -38.43497
 Alpha  occ. eigenvalues --  -38.43350 -38.43113  -2.19547  -2.19517  -2.19490
 Alpha  occ. eigenvalues --   -2.19452  -2.19440  -2.19334  -2.19050  -1.13276
 Alpha  occ. eigenvalues --   -1.13233  -1.13207  -1.13206  -1.13186  -1.13180
 Alpha  occ. eigenvalues --   -1.13171  -1.13150  -1.13130  -1.13120  -1.13119
 Alpha  occ. eigenvalues --   -1.13095  -1.13082  -1.13056  -1.13031  -1.13015
 Alpha  occ. eigenvalues --   -1.12970  -1.12940  -1.12724  -1.12695  -1.12672
 Alpha  occ. eigenvalues --   -0.19024  -0.12829  -0.12820  -0.10991
 Alpha virt. eigenvalues --   -0.05377  -0.05078  -0.04580  -0.03198  -0.03166
 Alpha virt. eigenvalues --   -0.02618  -0.01290  -0.01132  -0.00168  -0.00094
 Alpha virt. eigenvalues --    0.00059   0.00373   0.00858   0.00920   0.00955

  Beta  occ. eigenvalues --  -38.43692 -38.43642 -38.43642 -38.43573 -38.43418
  Beta  occ. eigenvalues --  -38.43272 -38.43098  -2.19543  -2.19509  -2.19478
  Beta  occ. eigenvalues --   -2.19449  -2.19294  -2.19191  -2.19028  -1.13262
  Beta  occ. eigenvalues --   -1.13218  -1.13191  -1.13177  -1.13173  -1.13170
  Beta  occ. eigenvalues --   -1.13161  -1.13128  -1.13121  -1.13116  -1.13095
  Beta  occ. eigenvalues --   -1.13082  -1.13005  -1.12959  -1.12938  -1.12922
  Beta  occ. eigenvalues --   -1.12872  -1.12843  -1.12701  -1.12664  -1.12648
  Beta  occ. eigenvalues --   -0.18276  -0.12587  -0.12553
  Beta virt. eigenvalues --   -0.07069  -0.05384  -0.04988  -0.04562  -0.02420
  Beta virt. eigenvalues --   -0.02349  -0.01573  -0.01204  -0.01074  -0.00213
  Beta virt. eigenvalues --   -0.00067   0.00130   0.00391   0.00867   0.00948

 Mulliken charges and spin densities:
               1          2
     1  Na  -0.158776   0.523073
     2  Na  -0.455833   0.751093
     3  Na  -0.076846  -0.000529
     4  Na   0.272367   0.045798
     5  Na   0.135137  -0.149824
     6  Na   0.074903  -0.085920
     7  Na   0.209048  -0.083690
 Sum of Mulliken charges =  -0.00000   1.00000

 Dipole moment (field-independent basis, Debye):
    X=              0.0445    Y=              0.3239    Z=              0.1404  Tot=              0.3558
 Quadrupole moment (field-independent basis, Debye-Ang):
   XX=            -58.4448   YY=            -62.8141   ZZ=            -72.8728
   XY=             -0.2974   XZ=             -1.6511   YZ=              0.5407

 Normal termination of Gaussian 16 at Thu Dec  7 23:26:42 2023.
