 Gaussian 16, Revision B.01,
 Gaussian 16:  ES64L-G16RevB.01 20-Dec-2017

 -------------------------
 #P B3LYP/6-311+g(d) force
 -------------------------

 -----
 DPGEN
 -----
 Symbolic Z-matrix:
 Charge =  0 Multiplicity = 2

                         Standard orientation:
 ---------------------------------------------------------------------
 Center     Atomic      Atomic             Coordinates (Angstroms)
 Number     Number       Type             X           Y           Z
 ---------------------------------------------------------------------
      1         11           0       -3.118303    0.561821    0.292441
      2         11           0        2.663000   -1.646045   -0.004810
      3         11           0       -1.490963   -2.358500   -0.988907
      4         11           0        0.137963   -1.313619    2.054061
      5         11           0       -0.319143    0.651581   -1.727006
      6         11           0       -0.418500    2.510559    0.788340
      7         11           0        2.545945    1.594203   -0.414118
 ---------------------------------------------------------------------

 SCF Done:  E(UB3LYP) =  -1136.13339627     A.U. after   18 cycles

 The electronic state is 2-A.
 Alpha  occ. eigenvalues --  -38.44224 -38.43896 -38.43889 -38.43712 -38.43512
 Alpha  occ. eigenvalues --  -38.43510 -38.43237  -2.20056  -2.19736  -2.19716
 Alpha  occ. eigenvalues --   -2.19549  -2.19472  -2.19386  -2.19134  -1.13729
 Alpha  occ. eigenvalues --   -1.13724  -1.13695  -1.13449  -1.13392  -1.13381
 Alpha  occ. eigenvalues --   -1.13375  -1.13359  -1.13323  -1.13260  -1.13197
 Alpha  occ. eigenvalues --   -1.13187  -1.13169  -1.13126  -1.13106  -1.13051
 Alpha  occ. eigenvalues --   -1.13027  -1.13013  -1.12807  -1.12781  -1.12755
 Alpha  occ. eigenvalues --   -0.18420  -0.13133  -0.12373  -0.11111
 Alpha virt. eigenvalues --   -0.05797  -0.05089  -0.04282  -0.03534  -0.03373
 Alpha virt. eigenvalues --   -0.02681  -0.01499  -0.00920  -0.00339  -0.00078
 Alpha virt. eigenvalues --   -0.00002   0.00380   0.00701   0.00841   0.00856

  Beta  occ. eigenvalues --  -38.44217 -38.43890 -38.43828 -38.43682 -38.43505
  Beta  occ. eigenvalues --  -38.43452 -38.43216  -2.20047  -2.19720  -2.19611
  Beta  occ. eigenvalues --   -2.19497  -2.19376  -2.19368  -2.19098  -1.13727
  Beta  occ. eigenvalues --   -1.13701  -1.13683  -1.13419  -1.13387  -1.13361
  Beta  occ. eigenvalues --   -1.13302  -1.13285  -1.13259  -1.13208  -1.13156
  Beta  occ. eigenvalues --   -1.13133  -1.13124  -1.13070  -1.13043  -1.13033
  Beta  occ. eigenvalues --   -1.13015  -1.12975  -1.12782  -1.12751  -1.12717
  Beta  occ. eigenvalues --   -0.17726  -0.12895  -0.12133
  Beta virt. eigenvalues --   -0.07272  -0.05720  -0.05033  -0.04043  -0.02882
  Beta virt. eigenvalues --   -0.02707  -0.01714  -0.01421  -0.00848  -0.00290
  Beta virt. eigenvalues --   -0.00005   0.00091   0.00425   0.00808   0.00862

 Mulliken charges and spin densities:
               1          2
     1  Na   0.097459   0.049481
     2  Na   0.044148  -0.027536
     3  Na   0.138402   0.007706
     4  Na  -0.446448   0.414539
     5  Na  -0.010320   0.260362
     6  Na  -0.119932   0.302275
     7  Na   0.296691  -0.006827
 Sum of Mulliken charges =  -0.00000   1.00000

 Dipole moment (field-independent basis, Debye):
    X=             -0.2657    Y=             -0.1940    Z=              0.1396  Tot=              0.3574
 Quadrupole moment (field-independent basis, Debye-Ang):
   XX=            -57.6970   YY=            -67.3512   ZZ=            -70.6429
   XY=              0.2957   XZ=             -1.6483   YZ=              2.6216

 Normal termination of Gaussian 16 at Tue Dec  5 10:52:40 2023.
