 Gaussian 16, Revision B.01,
 Gaussian 16:  ES64L-G16RevB.01 20-Dec-2017

 -------------------------
 #P B3LYP/6-311+g(d) force
 -------------------------

 -----
 DPGEN
 -----
 Symbolic Z-matrix:
 Charge =  0 Multiplicity = 2

                         Standard orientation:
 ---------------------------------------------------------------------
 Center     Atomic      Atomic             Coordinates (Angstroms)
 Number     Number       Type             X           Y           Z
 ---------------------------------------------------------------------
      1         11           0        3.140636   -0.986467    1.288784
      2         11           0       -0.227029   -2.364162   -1.368695
      3         11           0       -2.678867    2.186560    0.940908
      4         11           0        0.185541    0.924750   -0.891247
      5         11           0       -3.194484   -0.402642   -0.913181
      6         11           0        3.538442    1.731875   -0.899100
      7         11           0       -0.764239   -1.089915    1.842531
 ---------------------------------------------------------------------

 SCF Done:  E(UB3LYP) =  -1136.12439022     A.U. after   23 cycles

 The electronic state is 2-A.
 Alpha  occ. eigenvalues --  -38.45041 -38.44867 -38.44120 -38.43994 -38.43773
 Alpha  occ. eigenvalues --  -38.43162 -38.42821  -2.20807  -2.20723  -2.19970
 Alpha  occ. eigenvalues --   -2.19886  -2.19570  -2.18997  -2.18675  -1.14489
 Alpha  occ. eigenvalues --   -1.14451  -1.14435  -1.14410  -1.14384  -1.14341
 Alpha  occ. eigenvalues --   -1.13676  -1.13609  -1.13592  -1.13577  -1.13555
 Alpha  occ. eigenvalues --   -1.13497  -1.13233  -1.13227  -1.13203  -1.12665
 Alpha  occ. eigenvalues --   -1.12649  -1.12646  -1.12365  -1.12316  -1.12306
 Alpha  occ. eigenvalues --   -0.17942  -0.13670  -0.11365  -0.11025
 Alpha virt. eigenvalues --   -0.06578  -0.05596  -0.04409  -0.03203  -0.02935
 Alpha virt. eigenvalues --   -0.02310  -0.02215  -0.01219  -0.00744  -0.00322
 Alpha virt. eigenvalues --   -0.00208   0.00142   0.00321   0.00529   0.00682

  Beta  occ. eigenvalues --  -38.45015 -38.44853 -38.44061 -38.43960 -38.43757
  Beta  occ. eigenvalues --  -38.43153 -38.42799  -2.20759  -2.20699  -2.19861
  Beta  occ. eigenvalues --   -2.19827  -2.19542  -2.18982  -2.18637  -1.14454
  Beta  occ. eigenvalues --   -1.14421  -1.14394  -1.14385  -1.14369  -1.14317
  Beta  occ. eigenvalues --   -1.13606  -1.13536  -1.13522  -1.13512  -1.13492
  Beta  occ. eigenvalues --   -1.13457  -1.13209  -1.13205  -1.13188  -1.12657
  Beta  occ. eigenvalues --   -1.12640  -1.12625  -1.12336  -1.12296  -1.12262
  Beta  occ. eigenvalues --   -0.17306  -0.13462  -0.11107
  Beta virt. eigenvalues --   -0.07333  -0.06380  -0.05164  -0.04149  -0.02824
  Beta virt. eigenvalues --   -0.02483  -0.02163  -0.01555  -0.00937  -0.00502
  Beta virt. eigenvalues --   -0.00237  -0.00086   0.00199   0.00440   0.00622

 Mulliken charges and spin densities:
               1          2
     1  Na  -0.019473   0.053074
     2  Na   0.095909   0.068536
     3  Na   0.422882  -0.044445
     4  Na  -1.528035   0.368481
     5  Na   0.920812   0.036951
     6  Na   0.418039   0.015566
     7  Na  -0.310133   0.501837
 Sum of Mulliken charges =  -0.00000   1.00000

 Dipole moment (field-independent basis, Debye):
    X=              0.0167    Y=             -0.6078    Z=              0.1330  Tot=              0.6224
 Quadrupole moment (field-independent basis, Debye-Ang):
   XX=            -53.6389   YY=            -71.4884   ZZ=            -69.5163
   XY=              0.1124   XZ=              2.1621   YZ=             -0.0392

 Normal termination of Gaussian 16 at Mon Dec  4 03:35:44 2023.
