 Gaussian 16, Revision B.01,
 Gaussian 16:  ES64L-G16RevB.01 20-Dec-2017

 -------------------------
 #P B3LYP/6-311+g(d) force
 -------------------------

 -----
 DPGEN
 -----
 Symbolic Z-matrix:
 Charge =  0 Multiplicity = 2

                         Standard orientation:
 ---------------------------------------------------------------------
 Center     Atomic      Atomic             Coordinates (Angstroms)
 Number     Number       Type             X           Y           Z
 ---------------------------------------------------------------------
      1         11           0        0.433454   -0.820467    2.526721
      2         11           0        3.041091   -0.052631    0.744882
      3         11           0       -4.305666    0.022041    0.346009
      4         11           0       -1.389103   -1.296411   -1.105526
      5         11           0        1.827040    3.010442   -0.895198
      6         11           0        1.528904   -2.878664   -1.353711
      7         11           0       -1.135720    2.015690   -0.263178
 ---------------------------------------------------------------------

 SCF Done:  E(UB3LYP) =  -1136.12055600     A.U. after   21 cycles

 The electronic state is 2-A.
 Alpha  occ. eigenvalues --  -38.45018 -38.44966 -38.44758 -38.43895 -38.43749
 Alpha  occ. eigenvalues --  -38.43746 -38.42987  -2.20784  -2.20777  -2.20554
 Alpha  occ. eigenvalues --   -2.19743  -2.19581  -2.19551  -2.18802  -1.14454
 Alpha  occ. eigenvalues --   -1.14448  -1.14448  -1.14409  -1.14403  -1.14391
 Alpha  occ. eigenvalues --   -1.14240  -1.14210  -1.14174  -1.13452  -1.13420
 Alpha  occ. eigenvalues --   -1.13369  -1.13289  -1.13265  -1.13206  -1.13201
 Alpha  occ. eigenvalues --   -1.13187  -1.13164  -1.12469  -1.12454  -1.12438
 Alpha  occ. eigenvalues --   -0.17142  -0.13255  -0.12215  -0.11150
 Alpha virt. eigenvalues --   -0.06772  -0.04938  -0.04767  -0.03568  -0.02948
 Alpha virt. eigenvalues --   -0.02450  -0.02377  -0.01263  -0.00835  -0.00395
 Alpha virt. eigenvalues --   -0.00101   0.00001   0.00168   0.00630   0.00802

  Beta  occ. eigenvalues --  -38.45011 -38.44867 -38.44749 -38.43870 -38.43745
  Beta  occ. eigenvalues --  -38.43696 -38.42974  -2.20770  -2.20593  -2.20542
  Beta  occ. eigenvalues --   -2.19699  -2.19575  -2.19460  -2.18777  -1.14444
  Beta  occ. eigenvalues --   -1.14437  -1.14394  -1.14332  -1.14283  -1.14268
  Beta  occ. eigenvalues --   -1.14203  -1.14195  -1.14168  -1.13426  -1.13391
  Beta  occ. eigenvalues --   -1.13317  -1.13278  -1.13256  -1.13180  -1.13143
  Beta  occ. eigenvalues --   -1.13133  -1.13107  -1.12451  -1.12436  -1.12423
  Beta  occ. eigenvalues --   -0.16576  -0.13048  -0.11711
  Beta virt. eigenvalues --   -0.07493  -0.06540  -0.04885  -0.04403  -0.03044
  Beta virt. eigenvalues --   -0.02485  -0.02220  -0.01792  -0.01121  -0.00647
  Beta virt. eigenvalues --   -0.00297   0.00040   0.00196   0.00257   0.00713

 Mulliken charges and spin densities:
               1          2
     1  Na  -0.051509   0.278344
     2  Na   0.049648   0.339465
     3  Na   0.805150   0.145741
     4  Na  -0.641102   0.189294
     5  Na   0.409831  -0.152205
     6  Na   0.129118   0.028888
     7  Na  -0.701136   0.170472
 Sum of Mulliken charges =  -0.00000   1.00000

 Dipole moment (field-independent basis, Debye):
    X=             -0.8307    Y=             -0.4879    Z=              0.6347  Tot=              1.1536
 Quadrupole moment (field-independent basis, Debye-Ang):
   XX=            -50.0470   YY=            -73.9161   ZZ=            -71.4655
   XY=             -0.9393   XZ=             -4.0870   YZ=              0.1576

 Normal termination of Gaussian 16 at Sun Dec  3 17:55:22 2023.
