 Gaussian 16, Revision B.01,
 Gaussian 16:  ES64L-G16RevB.01 20-Dec-2017

 -------------------------
 #P B3LYP/6-311+g(d) force
 -------------------------

 -----
 DPGEN
 -----
 Symbolic Z-matrix:
 Charge =  0 Multiplicity = 2

                         Standard orientation:
 ---------------------------------------------------------------------
 Center     Atomic      Atomic             Coordinates (Angstroms)
 Number     Number       Type             X           Y           Z
 ---------------------------------------------------------------------
      1         11           0       -0.904558   -1.844649    0.361530
      2         11           0       -3.450052   -0.541142   -0.834536
      3         11           0        2.550484    1.674529   -0.040141
      4         11           0       -1.484506    2.047428    1.087000
      5         11           0        2.734866   -1.564676   -0.833052
      6         11           0        0.616383   -0.697372    2.147842
      7         11           0       -0.062616    0.925882   -1.888642
 ---------------------------------------------------------------------

 SCF Done:  E(UB3LYP) =  -1136.12046277     A.U. after   21 cycles

 The electronic state is 2-A.
 Alpha  occ. eigenvalues --  -38.44631 -38.44349 -38.44117 -38.43914 -38.43842
 Alpha  occ. eigenvalues --  -38.43675 -38.42994  -2.20459  -2.20168  -2.19944
 Alpha  occ. eigenvalues --   -2.19876  -2.19680  -2.19540  -2.18980  -1.14152
 Alpha  occ. eigenvalues --   -1.14109  -1.14073  -1.13848  -1.13838  -1.13825
 Alpha  occ. eigenvalues --   -1.13785  -1.13623  -1.13592  -1.13564  -1.13467
 Alpha  occ. eigenvalues --   -1.13428  -1.13373  -1.13343  -1.13320  -1.13228
 Alpha  occ. eigenvalues --   -1.13195  -1.13146  -1.12652  -1.12599  -1.12542
 Alpha  occ. eigenvalues --   -0.18594  -0.13491  -0.11696  -0.11368
 Alpha virt. eigenvalues --   -0.06066  -0.05336  -0.03933  -0.03317  -0.03174
 Alpha virt. eigenvalues --   -0.02843  -0.01933  -0.01089  -0.00337  -0.00048
 Alpha virt. eigenvalues --    0.00259   0.00328   0.00532   0.00664   0.00817

  Beta  occ. eigenvalues --  -38.44606 -38.44325 -38.44069 -38.43848 -38.43844
  Beta  occ. eigenvalues --  -38.43648 -38.42983  -2.20414  -2.20123  -2.19857
  Beta  occ. eigenvalues --   -2.19757  -2.19687  -2.19490  -2.18965  -1.14120
  Beta  occ. eigenvalues --   -1.14071  -1.14045  -1.13815  -1.13794  -1.13766
  Beta  occ. eigenvalues --   -1.13752  -1.13560  -1.13522  -1.13505  -1.13387
  Beta  occ. eigenvalues --   -1.13371  -1.13341  -1.13331  -1.13312  -1.13199
  Beta  occ. eigenvalues --   -1.13147  -1.13111  -1.12613  -1.12573  -1.12538
  Beta  occ. eigenvalues --   -0.17832  -0.13201  -0.11213
  Beta virt. eigenvalues --   -0.07812  -0.05864  -0.05034  -0.03547  -0.03144
  Beta virt. eigenvalues --   -0.02578  -0.01911  -0.01777  -0.00838  -0.00213
  Beta virt. eigenvalues --    0.00062   0.00301   0.00353   0.00652   0.00719

 Mulliken charges and spin densities:
               1          2
     1  Na  -0.567503  -0.148683
     2  Na   0.403710   0.075876
     3  Na   0.121295  -0.038727
     4  Na  -0.293026   0.013991
     5  Na  -0.038423  -0.063688
     6  Na   0.508961   0.697395
     7  Na  -0.135014   0.463836
 Sum of Mulliken charges =  -0.00000   1.00000

 Dipole moment (field-independent basis, Debye):
    X=             -0.0554    Y=              0.3274    Z=             -0.3736  Tot=              0.4998
 Quadrupole moment (field-independent basis, Debye-Ang):
   XX=            -52.6736   YY=            -73.5535   ZZ=            -68.2522
   XY=             -1.4251   XZ=              0.8362   YZ=              6.9533

 Normal termination of Gaussian 16 at Fri Dec  8 06:06:07 2023.
