 Gaussian 16, Revision B.01,
 Gaussian 16:  ES64L-G16RevB.01 20-Dec-2017

 -------------------------
 #P B3LYP/6-311+g(d) force
 -------------------------

 -----
 DPGEN
 -----
 Symbolic Z-matrix:
 Charge =  0 Multiplicity = 2

                         Standard orientation:
 ---------------------------------------------------------------------
 Center     Atomic      Atomic             Coordinates (Angstroms)
 Number     Number       Type             X           Y           Z
 ---------------------------------------------------------------------
      1         11           0        1.482726    2.774455   -0.169736
      2         11           0       -2.312324    1.872906    0.266759
      3         11           0       -0.044560   -0.331906    1.996287
      4         11           0        2.719992   -0.441114    0.229437
      5         11           0       -0.092800    0.265721   -1.786407
      6         11           0       -2.705734   -1.468098   -0.185485
      7         11           0        0.952699   -2.671964   -0.350855
 ---------------------------------------------------------------------

 SCF Done:  E(UB3LYP) =  -1136.13685347     A.U. after   19 cycles

 The electronic state is 2-A.
 Alpha  occ. eigenvalues --  -38.43918 -38.43775 -38.43669 -38.43537 -38.43395
 Alpha  occ. eigenvalues --  -38.43373 -38.43320  -2.19756  -2.19610  -2.19586
 Alpha  occ. eigenvalues --   -2.19481  -2.19287  -2.19276  -2.19216  -1.13440
 Alpha  occ. eigenvalues --   -1.13433  -1.13388  -1.13313  -1.13284  -1.13276
 Alpha  occ. eigenvalues --   -1.13254  -1.13244  -1.13216  -1.13206  -1.13122
 Alpha  occ. eigenvalues --   -1.13114  -1.12968  -1.12953  -1.12920  -1.12914
 Alpha  occ. eigenvalues --   -1.12898  -1.12889  -1.12871  -1.12860  -1.12845
 Alpha  occ. eigenvalues --   -0.18887  -0.13157  -0.12397  -0.11006
 Alpha virt. eigenvalues --   -0.05396  -0.05140  -0.04649  -0.03405  -0.02927
 Alpha virt. eigenvalues --   -0.02689  -0.01303  -0.01146  -0.00244  -0.00139
 Alpha virt. eigenvalues --   -0.00003   0.00379   0.00853   0.00869   0.00942

  Beta  occ. eigenvalues --  -38.43912 -38.43771 -38.43581 -38.43528 -38.43394
  Beta  occ. eigenvalues --  -38.43363 -38.43248  -2.19748  -2.19606  -2.19469
  Beta  occ. eigenvalues --   -2.19424  -2.19274  -2.19217  -2.19144  -1.13436
  Beta  occ. eigenvalues --   -1.13405  -1.13386  -1.13295  -1.13272  -1.13259
  Beta  occ. eigenvalues --   -1.13240  -1.13179  -1.13119  -1.13098  -1.13093
  Beta  occ. eigenvalues --   -1.13053  -1.12929  -1.12906  -1.12893  -1.12879
  Beta  occ. eigenvalues --   -1.12864  -1.12860  -1.12851  -1.12811  -1.12779
  Beta  occ. eigenvalues --   -0.18123  -0.12911  -0.12171
  Beta virt. eigenvalues --   -0.07063  -0.05400  -0.05065  -0.04619  -0.02557
  Beta virt. eigenvalues --   -0.02195  -0.01638  -0.01228  -0.01060  -0.00276
  Beta virt. eigenvalues --   -0.00172   0.00119   0.00396   0.00868   0.00924

 Mulliken charges and spin densities:
               1          2
     1  Na   0.041987  -0.095687
     2  Na   0.031648  -0.072295
     3  Na  -0.368922   0.602792
     4  Na   0.323251   0.078347
     5  Na  -0.287959   0.608009
     6  Na   0.107706  -0.088189
     7  Na   0.152288  -0.032977
 Sum of Mulliken charges =  -0.00000   1.00000

 Dipole moment (field-independent basis, Debye):
    X=             -0.4305    Y=              0.1008    Z=              0.1104  Tot=              0.4557
 Quadrupole moment (field-independent basis, Debye-Ang):
   XX=            -59.8629   YY=            -61.7893   ZZ=            -72.8767
   XY=              0.4308   XZ=              0.0342   YZ=              1.5414

 Normal termination of Gaussian 16 at Tue Dec  5 13:50:50 2023.
