 Gaussian 16, Revision B.01,
 Gaussian 16:  ES64L-G16RevB.01 20-Dec-2017

 -------------------------
 #P B3LYP/6-311+g(d) force
 -------------------------

 -----
 DPGEN
 -----
 Symbolic Z-matrix:
 Charge =  0 Multiplicity = 2

                         Standard orientation:
 ---------------------------------------------------------------------
 Center     Atomic      Atomic             Coordinates (Angstroms)
 Number     Number       Type             X           Y           Z
 ---------------------------------------------------------------------
      1         11           0        0.174405   -0.135121   -1.528429
      2         11           0       -0.370525    2.877279   -0.019074
      3         11           0       -3.432865    0.616439   -0.067579
      4         11           0       -1.908252   -2.306554   -0.157184
      5         11           0        2.402509   -2.261522   -0.184963
      6         11           0        2.845877    1.520635   -0.153855
      7         11           0        0.288851   -0.311156    2.111084
 ---------------------------------------------------------------------

 SCF Done:  E(UB3LYP) =  -1136.13443409     A.U. after   20 cycles

 The electronic state is 2-A.
 Alpha  occ. eigenvalues --  -38.44463 -38.44290 -38.43968 -38.43825 -38.43488
 Alpha  occ. eigenvalues --  -38.43216 -38.43200  -2.20252  -2.20108  -2.19773
 Alpha  occ. eigenvalues --   -2.19663  -2.19348  -2.19176  -2.19024  -1.13921
 Alpha  occ. eigenvalues --   -1.13919  -1.13895  -1.13788  -1.13769  -1.13741
 Alpha  occ. eigenvalues --   -1.13453  -1.13430  -1.13413  -1.13359  -1.13326
 Alpha  occ. eigenvalues --   -1.13287  -1.13014  -1.12970  -1.12963  -1.12868
 Alpha  occ. eigenvalues --   -1.12825  -1.12800  -1.12701  -1.12690  -1.12653
 Alpha  occ. eigenvalues --   -0.18227  -0.13163  -0.12152  -0.10422
 Alpha virt. eigenvalues --   -0.05999  -0.05700  -0.04489  -0.03111  -0.02664
 Alpha virt. eigenvalues --   -0.02432  -0.01853  -0.01437  -0.00685  -0.00410
 Alpha virt. eigenvalues --   -0.00038   0.00300   0.00698   0.00784   0.00850

  Beta  occ. eigenvalues --  -38.44465 -38.44285 -38.43963 -38.43819 -38.43384
  Beta  occ. eigenvalues --  -38.43197 -38.43163  -2.20256  -2.20102  -2.19768
  Beta  occ. eigenvalues --   -2.19656  -2.19156  -2.19079  -2.19021  -1.13926
  Beta  occ. eigenvalues --   -1.13911  -1.13899  -1.13775  -1.13752  -1.13740
  Beta  occ. eigenvalues --   -1.13441  -1.13418  -1.13408  -1.13351  -1.13304
  Beta  occ. eigenvalues --   -1.13283  -1.12886  -1.12836  -1.12827  -1.12795
  Beta  occ. eigenvalues --   -1.12763  -1.12731  -1.12687  -1.12669  -1.12655
  Beta  occ. eigenvalues --   -0.17526  -0.12972  -0.11941
  Beta virt. eigenvalues --   -0.06490  -0.05929  -0.05715  -0.04455  -0.02394
  Beta virt. eigenvalues --   -0.01919  -0.01766  -0.01424  -0.01308  -0.00734
  Beta virt. eigenvalues --   -0.00440   0.00133   0.00344   0.00770   0.00781

 Mulliken charges and spin densities:
               1          2
     1  Na  -0.227405   0.393325
     2  Na   0.002175  -0.040181
     3  Na  -0.041069  -0.021733
     4  Na   0.328970  -0.042253
     5  Na   0.234333  -0.075351
     6  Na   0.220199  -0.016850
     7  Na  -0.517203   0.803044
 Sum of Mulliken charges =  -0.00000   1.00000

 Dipole moment (field-independent basis, Debye):
    X=              0.0809    Y=             -0.0980    Z=              0.0703  Tot=              0.1452
 Quadrupole moment (field-independent basis, Debye-Ang):
   XX=            -52.2116   YY=            -63.6177   ZZ=            -76.6074
   XY=             -0.8101   XZ=             -0.3138   YZ=              0.4663

 Normal termination of Gaussian 16 at Fri Dec  8 04:47:28 2023.
