 Gaussian 16, Revision B.01,
 Gaussian 16:  ES64L-G16RevB.01 20-Dec-2017

 -------------------------
 #P B3LYP/6-311+g(d) force
 -------------------------

 -----
 DPGEN
 -----
 Symbolic Z-matrix:
 Charge =  0 Multiplicity = 2

                         Standard orientation:
 ---------------------------------------------------------------------
 Center     Atomic      Atomic             Coordinates (Angstroms)
 Number     Number       Type             X           Y           Z
 ---------------------------------------------------------------------
      1         11           0        1.656000   -3.224386    0.552299
      2         11           0       -1.700027   -0.978214    2.182222
      3         11           0       -3.437687    0.866981   -1.516348
      4         11           0        2.725597   -0.425779   -1.318123
      5         11           0       -0.930196    2.009297    0.942792
      6         11           0        2.639858    3.160584    0.347433
      7         11           0       -0.953544   -1.408483   -1.190275
 ---------------------------------------------------------------------

 SCF Done:  E(UB3LYP) =  -1136.12230336     A.U. after   21 cycles

 The electronic state is 2-A.
 Alpha  occ. eigenvalues --  -38.44610 -38.44580 -38.44369 -38.44369 -38.44144
 Alpha  occ. eigenvalues --  -38.43918 -38.43436  -2.20443  -2.20392  -2.20142
 Alpha  occ. eigenvalues --   -2.20134  -2.19995  -2.19725  -2.19174  -1.14112
 Alpha  occ. eigenvalues --   -1.14080  -1.14054  -1.14050  -1.14042  -1.14000
 Alpha  occ. eigenvalues --   -1.13837  -1.13823  -1.13810  -1.13797  -1.13782
 Alpha  occ. eigenvalues --   -1.13724  -1.13694  -1.13682  -1.13589  -1.13430
 Alpha  occ. eigenvalues --   -1.13401  -1.13323  -1.12855  -1.12834  -1.12820
 Alpha  occ. eigenvalues --   -0.17221  -0.13128  -0.11815  -0.11387
 Alpha virt. eigenvalues --   -0.05922  -0.05714  -0.05256  -0.03361  -0.02896
 Alpha virt. eigenvalues --   -0.02662  -0.01974  -0.01203  -0.00688  -0.00462
 Alpha virt. eigenvalues --   -0.00359   0.00007   0.00247   0.00326   0.00640

  Beta  occ. eigenvalues --  -38.44521 -38.44513 -38.44372 -38.44356 -38.44120
  Beta  occ. eigenvalues --  -38.43898 -38.43445  -2.20279  -2.20269  -2.20149
  Beta  occ. eigenvalues --   -2.20109  -2.19955  -2.19692  -2.19191  -1.13996
  Beta  occ. eigenvalues --   -1.13968  -1.13959  -1.13958  -1.13939  -1.13923
  Beta  occ. eigenvalues --   -1.13830  -1.13815  -1.13803  -1.13795  -1.13776
  Beta  occ. eigenvalues --   -1.13711  -1.13667  -1.13641  -1.13550  -1.13397
  Beta  occ. eigenvalues --   -1.13365  -1.13309  -1.12866  -1.12844  -1.12832
  Beta  occ. eigenvalues --   -0.16546  -0.12823  -0.11750
  Beta virt. eigenvalues --   -0.07566  -0.05776  -0.05357  -0.04868  -0.03048
  Beta virt. eigenvalues --   -0.02347  -0.02192  -0.01607  -0.01062  -0.00494
  Beta virt. eigenvalues --   -0.00300  -0.00180   0.00170   0.00361   0.00473

 Mulliken charges and spin densities:
               1          2
     1  Na   0.389671   0.050547
     2  Na   0.081439   0.284616
     3  Na   0.246394   0.083257
     4  Na  -0.137396  -0.010129
     5  Na  -0.355433   0.293067
     6  Na   0.119206  -0.100451
     7  Na  -0.343880   0.399093
 Sum of Mulliken charges =  -0.00000   1.00000

 Dipole moment (field-independent basis, Debye):
    X=             -0.6596    Y=             -0.9934    Z=              0.1760  Tot=              1.2053
 Quadrupole moment (field-independent basis, Debye-Ang):
   XX=            -61.3458   YY=            -65.7943   ZZ=            -69.2529
   XY=             -4.4016   XZ=              0.6806   YZ=             -3.1972

 Normal termination of Gaussian 16 at Sun Dec  3 23:17:30 2023.
