 Gaussian 16, Revision B.01,
 Gaussian 16:  ES64L-G16RevB.01 20-Dec-2017

 -------------------------
 #P B3LYP/6-311+g(d) force
 -------------------------

 -----
 DPGEN
 -----
 Symbolic Z-matrix:
 Charge =  0 Multiplicity = 2

                         Standard orientation:
 ---------------------------------------------------------------------
 Center     Atomic      Atomic             Coordinates (Angstroms)
 Number     Number       Type             X           Y           Z
 ---------------------------------------------------------------------
      1         11           0       -2.738192    1.157786   -0.292533
      2         11           0        0.282436    0.429452   -1.684217
      3         11           0       -0.118679   -0.608776    1.852151
      4         11           0       -3.344631   -1.964345    0.050216
      5         11           0        3.330142    0.466072    0.460345
      6         11           0        2.434347   -2.292225   -0.618885
      7         11           0        0.154577    2.812036    0.232924
 ---------------------------------------------------------------------

 SCF Done:  E(UB3LYP) =  -1136.12602008     A.U. after   21 cycles

 The electronic state is 2-A.
 Alpha  occ. eigenvalues --  -38.45044 -38.44125 -38.43944 -38.43921 -38.43900
 Alpha  occ. eigenvalues --  -38.43652 -38.42672  -2.20875  -2.19956  -2.19809
 Alpha  occ. eigenvalues --   -2.19783  -2.19687  -2.19582  -2.18560  -1.14558
 Alpha  occ. eigenvalues --   -1.14535  -1.14514  -1.13644  -1.13604  -1.13556
 Alpha  occ. eigenvalues --   -1.13510  -1.13478  -1.13471  -1.13450  -1.13436
 Alpha  occ. eigenvalues --   -1.13421  -1.13345  -1.13340  -1.13311  -1.13272
 Alpha  occ. eigenvalues --   -1.13241  -1.13189  -1.12249  -1.12216  -1.12189
 Alpha  occ. eigenvalues --   -0.18242  -0.13824  -0.11719  -0.10505
 Alpha virt. eigenvalues --   -0.06521  -0.05582  -0.04303  -0.03454  -0.02727
 Alpha virt. eigenvalues --   -0.02260  -0.02169  -0.01277  -0.00759  -0.00235
 Alpha virt. eigenvalues --   -0.00127   0.00254   0.00559   0.00641   0.00742

  Beta  occ. eigenvalues --  -38.45037 -38.44046 -38.43925 -38.43914 -38.43908
  Beta  occ. eigenvalues --  -38.43593 -38.42665  -2.20866  -2.19813  -2.19796
  Beta  occ. eigenvalues --   -2.19751  -2.19703  -2.19474  -2.18551  -1.14551
  Beta  occ. eigenvalues --   -1.14520  -1.14496  -1.13547  -1.13506  -1.13500
  Beta  occ. eigenvalues --   -1.13470  -1.13456  -1.13444  -1.13433  -1.13411
  Beta  occ. eigenvalues --   -1.13384  -1.13354  -1.13344  -1.13319  -1.13195
  Beta  occ. eigenvalues --   -1.13167  -1.13107  -1.12243  -1.12212  -1.12159
  Beta  occ. eigenvalues --   -0.17531  -0.13642  -0.11550
  Beta virt. eigenvalues --   -0.06686  -0.06342  -0.05510  -0.04154  -0.02846
  Beta virt. eigenvalues --   -0.02185  -0.01931  -0.01481  -0.01041  -0.00743
  Beta virt. eigenvalues --   -0.00211   0.00049   0.00283   0.00697   0.00724

 Mulliken charges and spin densities:
               1          2
     1  Na   0.167497   0.034558
     2  Na   0.109151   0.283734
     3  Na  -0.400327   0.513956
     4  Na   0.033986  -0.088134
     5  Na   0.207797   0.102574
     6  Na   0.003841   0.064412
     7  Na  -0.121945   0.088900
 Sum of Mulliken charges =  -0.00000   1.00000

 Dipole moment (field-independent basis, Debye):
    X=              0.6383    Y=             -0.1089    Z=              0.1503  Tot=              0.6647
 Quadrupole moment (field-independent basis, Debye-Ang):
   XX=            -55.0220   YY=            -64.7680   ZZ=            -75.3240
   XY=              1.2046   XZ=              1.8027   YZ=              2.4503

 Normal termination of Gaussian 16 at Thu Dec  7 11:00:17 2023.
