 Gaussian 16, Revision B.01,
 Gaussian 16:  ES64L-G16RevB.01 20-Dec-2017

 -------------------------
 #P B3LYP/6-311+g(d) force
 -------------------------

 -----
 DPGEN
 -----
 Symbolic Z-matrix:
 Charge =  0 Multiplicity = 2

                         Standard orientation:
 ---------------------------------------------------------------------
 Center     Atomic      Atomic             Coordinates (Angstroms)
 Number     Number       Type             X           Y           Z
 ---------------------------------------------------------------------
      1         11           0        0.279393    0.174196    2.056601
      2         11           0        0.370909    3.388481    0.191329
      3         11           0        0.614736    0.325021   -1.619799
      4         11           0        3.517766   -0.481928   -0.138117
      5         11           0        0.673318   -2.651834   -0.151357
      6         11           0       -2.705004   -2.138684    0.135970
      7         11           0       -2.751119    1.384747   -0.474627
 ---------------------------------------------------------------------

 SCF Done:  E(UB3LYP) =  -1136.13271849     A.U. after   19 cycles

 The electronic state is 2-A.
 Alpha  occ. eigenvalues --  -38.44473 -38.44229 -38.44018 -38.43689 -38.43664
 Alpha  occ. eigenvalues --  -38.43580 -38.43472  -2.20272  -2.20016  -2.19802
 Alpha  occ. eigenvalues --   -2.19549  -2.19513  -2.19381  -2.19370  -1.13946
 Alpha  occ. eigenvalues --   -1.13924  -1.13913  -1.13701  -1.13683  -1.13638
 Alpha  occ. eigenvalues --   -1.13475  -1.13462  -1.13442  -1.13269  -1.13230
 Alpha  occ. eigenvalues --   -1.13178  -1.13167  -1.13137  -1.13127  -1.13064
 Alpha  occ. eigenvalues --   -1.13038  -1.13030  -1.13028  -1.13016  -1.12988
 Alpha  occ. eigenvalues --   -0.17950  -0.12859  -0.12378  -0.10437
 Alpha virt. eigenvalues --   -0.06089  -0.05405  -0.04907  -0.03068  -0.02793
 Alpha virt. eigenvalues --   -0.02468  -0.01874  -0.01430  -0.00709  -0.00471
 Alpha virt. eigenvalues --   -0.00047   0.00294   0.00716   0.00760   0.00827

  Beta  occ. eigenvalues --  -38.44470 -38.44217 -38.44016 -38.43681 -38.43582
  Beta  occ. eigenvalues --  -38.43565 -38.43418  -2.20268  -2.19995  -2.19801
  Beta  occ. eigenvalues --   -2.19539  -2.19377  -2.19330  -2.19283  -1.13937
  Beta  occ. eigenvalues --   -1.13914  -1.13909  -1.13675  -1.13667  -1.13627
  Beta  occ. eigenvalues --   -1.13470  -1.13451  -1.13440  -1.13258  -1.13195
  Beta  occ. eigenvalues --   -1.13162  -1.13059  -1.13042  -1.13024  -1.13021
  Beta  occ. eigenvalues --   -1.13012  -1.12997  -1.12992  -1.12960  -1.12914
  Beta  occ. eigenvalues --   -0.17256  -0.12629  -0.12213
  Beta virt. eigenvalues --   -0.06609  -0.06010  -0.05284  -0.04863  -0.02349
  Beta virt. eigenvalues --   -0.02155  -0.01787  -0.01458  -0.01332  -0.00712
  Beta virt. eigenvalues --   -0.00493   0.00121   0.00346   0.00727   0.00794

 Mulliken charges and spin densities:
               1          2
     1  Na  -0.227186   0.696688
     2  Na  -0.032949  -0.060849
     3  Na   0.193354   0.306136
     4  Na   0.267846  -0.025514
     5  Na  -0.018783   0.070427
     6  Na  -0.162077  -0.041926
     7  Na  -0.020205   0.055039
 Sum of Mulliken charges =  -0.00000   1.00000

 Dipole moment (field-independent basis, Debye):
    X=              0.5449    Y=              0.3550    Z=              0.0612  Tot=              0.6532
 Quadrupole moment (field-independent basis, Debye-Ang):
   XX=            -55.7515   YY=            -61.1081   ZZ=            -76.1811
   XY=              0.0053   XZ=              0.6600   YZ=              0.0405

 Normal termination of Gaussian 16 at Thu Dec  7 13:19:45 2023.
