 Gaussian 16, Revision B.01,
 Gaussian 16:  ES64L-G16RevB.01 20-Dec-2017

 -------------------------
 #P B3LYP/6-311+g(d) force
 -------------------------

 -----
 DPGEN
 -----
 Symbolic Z-matrix:
 Charge =  0 Multiplicity = 2

                         Standard orientation:
 ---------------------------------------------------------------------
 Center     Atomic      Atomic             Coordinates (Angstroms)
 Number     Number       Type             X           Y           Z
 ---------------------------------------------------------------------
      1         11           0       -2.308021    2.293597    0.760567
      2         11           0       -1.166804   -2.131754    1.451080
      3         11           0       -2.817144   -0.889486   -0.884831
      4         11           0        0.933736   -1.786266   -1.956684
      5         11           0        3.262368    0.641077   -0.594251
      6         11           0        0.063284    1.995481   -1.134112
      7         11           0        2.032581   -0.122648    2.358232
 ---------------------------------------------------------------------

 SCF Done:  E(UB3LYP) =  -1136.12329600     A.U. after   21 cycles

 The electronic state is 2-A.
 Alpha  occ. eigenvalues --  -38.44876 -38.44799 -38.44315 -38.44057 -38.43709
 Alpha  occ. eigenvalues --  -38.43379 -38.43322  -2.20679  -2.20589  -2.20141
 Alpha  occ. eigenvalues --   -2.19882  -2.19518  -2.19208  -2.19168  -1.14327
 Alpha  occ. eigenvalues --   -1.14314  -1.14309  -1.14261  -1.14232  -1.14196
 Alpha  occ. eigenvalues --   -1.13852  -1.13808  -1.13754  -1.13553  -1.13543
 Alpha  occ. eigenvalues --   -1.13532  -1.13190  -1.13172  -1.13158  -1.12988
 Alpha  occ. eigenvalues --   -1.12861  -1.12852  -1.12826  -1.12823  -1.12744
 Alpha  occ. eigenvalues --   -0.17481  -0.13302  -0.11854  -0.11617
 Alpha virt. eigenvalues --   -0.05874  -0.05243  -0.05017  -0.03501  -0.03338
 Alpha virt. eigenvalues --   -0.03050  -0.01429  -0.00847  -0.00662  -0.00153
 Alpha virt. eigenvalues --   -0.00091   0.00116   0.00374   0.00426   0.00791

  Beta  occ. eigenvalues --  -38.44792 -38.44725 -38.44315 -38.44057 -38.43696
  Beta  occ. eigenvalues --  -38.43375 -38.43314  -2.20522  -2.20453  -2.20141
  Beta  occ. eigenvalues --   -2.19886  -2.19495  -2.19201  -2.19154  -1.14220
  Beta  occ. eigenvalues --   -1.14211  -1.14198  -1.14163  -1.14145  -1.14098
  Beta  occ. eigenvalues --   -1.13853  -1.13801  -1.13755  -1.13551  -1.13545
  Beta  occ. eigenvalues --   -1.13517  -1.13176  -1.13154  -1.13133  -1.12978
  Beta  occ. eigenvalues --   -1.12854  -1.12843  -1.12817  -1.12811  -1.12734
  Beta  occ. eigenvalues --   -0.16799  -0.13113  -0.11525
  Beta virt. eigenvalues --   -0.07975  -0.05636  -0.04887  -0.04427  -0.03328
  Beta virt. eigenvalues --   -0.02766  -0.02400  -0.01412  -0.00652  -0.00273
  Beta virt. eigenvalues --   -0.00043   0.00049   0.00204   0.00436   0.00600

 Mulliken charges and spin densities:
               1          2
     1  Na   0.327575   0.025106
     2  Na  -0.244371   0.136086
     3  Na   0.286125   0.052072
     4  Na  -0.061857   0.327847
     5  Na   0.550253   0.023036
     6  Na  -0.704300   0.122072
     7  Na  -0.153425   0.313781
 Sum of Mulliken charges =  -0.00000   1.00000

 Dipole moment (field-independent basis, Debye):
    X=              0.3056    Y=             -0.3765    Z=              0.0027  Tot=              0.4849
 Quadrupole moment (field-independent basis, Debye-Ang):
   XX=            -59.9747   YY=            -75.5253   ZZ=            -63.7843
   XY=              1.0599   XZ=             -0.9194   YZ=              3.0414

 Normal termination of Gaussian 16 at Mon Dec  4 00:05:12 2023.
