 Gaussian 16, Revision B.01,
 Gaussian 16:  ES64L-G16RevB.01 20-Dec-2017

 -------------------------
 #P B3LYP/6-311+g(d) force
 -------------------------

 -----
 DPGEN
 -----
 Symbolic Z-matrix:
 Charge =  0 Multiplicity = 2

                         Standard orientation:
 ---------------------------------------------------------------------
 Center     Atomic      Atomic             Coordinates (Angstroms)
 Number     Number       Type             X           Y           Z
 ---------------------------------------------------------------------
      1         11           0       -2.979782   -1.336867   -0.425508
      2         11           0        1.337945    2.544628   -0.023991
      3         11           0        0.782730   -2.671798    0.268366
      4         11           0       -0.014216    0.043804   -1.668741
      5         11           0       -2.041940    1.928114    0.143945
      6         11           0        3.066126   -0.446303   -0.285458
      7         11           0       -0.150863   -0.061578    1.991386
 ---------------------------------------------------------------------

 SCF Done:  E(UB3LYP) =  -1136.13858736     A.U. after   19 cycles

 The electronic state is 2-A.
 Alpha  occ. eigenvalues --  -38.43977 -38.43905 -38.43544 -38.43483 -38.43276
 Alpha  occ. eigenvalues --  -38.43236 -38.43076  -2.19790  -2.19769  -2.19476
 Alpha  occ. eigenvalues --   -2.19383  -2.19268  -2.19117  -2.18955  -1.13465
 Alpha  occ. eigenvalues --   -1.13449  -1.13448  -1.13430  -1.13426  -1.13418
 Alpha  occ. eigenvalues --   -1.13165  -1.13143  -1.13088  -1.13079  -1.13036
 Alpha  occ. eigenvalues --   -1.12998  -1.12953  -1.12914  -1.12883  -1.12795
 Alpha  occ. eigenvalues --   -1.12775  -1.12738  -1.12629  -1.12617  -1.12587
 Alpha  occ. eigenvalues --   -0.18953  -0.13200  -0.12386  -0.10936
 Alpha virt. eigenvalues --   -0.05606  -0.05083  -0.04465  -0.03266  -0.02900
 Alpha virt. eigenvalues --   -0.02594  -0.01597  -0.01039  -0.00230  -0.00107
 Alpha virt. eigenvalues --   -0.00002   0.00349   0.00804   0.00910   0.00918

  Beta  occ. eigenvalues --  -38.43968 -38.43899 -38.43475 -38.43449 -38.43227
  Beta  occ. eigenvalues --  -38.43212 -38.43073  -2.19776  -2.19762  -2.19372
  Beta  occ. eigenvalues --   -2.19301  -2.19152  -2.19105  -2.18952  -1.13444
  Beta  occ. eigenvalues --   -1.13442  -1.13438  -1.13418  -1.13418  -1.13402
  Beta  occ. eigenvalues --   -1.13101  -1.13041  -1.13031  -1.12995  -1.12966
  Beta  occ. eigenvalues --   -1.12959  -1.12876  -1.12843  -1.12797  -1.12775
  Beta  occ. eigenvalues --   -1.12741  -1.12732  -1.12623  -1.12604  -1.12573
  Beta  occ. eigenvalues --   -0.18219  -0.12934  -0.12120
  Beta virt. eigenvalues --   -0.07019  -0.05543  -0.05075  -0.04438  -0.02489
  Beta virt. eigenvalues --   -0.02113  -0.01545  -0.01480  -0.00982  -0.00245
  Beta virt. eigenvalues --   -0.00156   0.00116   0.00373   0.00868   0.00904

 Mulliken charges and spin densities:
               1          2
     1  Na   0.050179  -0.036351
     2  Na   0.130102  -0.057747
     3  Na   0.196164  -0.033706
     4  Na  -0.405026   0.549056
     5  Na   0.292609  -0.007207
     6  Na   0.120208  -0.040390
     7  Na  -0.384237   0.626345
 Sum of Mulliken charges =  -0.00000   1.00000

 Dipole moment (field-independent basis, Debye):
    X=             -0.1047    Y=             -0.1142    Z=              0.0531  Tot=              0.1638
 Quadrupole moment (field-independent basis, Debye-Ang):
   XX=            -55.9034   YY=            -64.2579   ZZ=            -73.4448
   XY=              0.7662   XZ=              0.1414   YZ=              0.5584

 Normal termination of Gaussian 16 at Fri Dec  8 05:24:57 2023.
