 Gaussian 16, Revision B.01,
 Gaussian 16:  ES64L-G16RevB.01 20-Dec-2017

 -------------------------
 #P B3LYP/6-311+g(d) force
 -------------------------

 -----
 DPGEN
 -----
 Symbolic Z-matrix:
 Charge =  0 Multiplicity = 2

                         Standard orientation:
 ---------------------------------------------------------------------
 Center     Atomic      Atomic             Coordinates (Angstroms)
 Number     Number       Type             X           Y           Z
 ---------------------------------------------------------------------
      1         11           0        0.384200    2.865198    0.516231
      2         11           0        3.478322    0.235082   -0.458008
      3         11           0        0.019135   -0.212436    2.096152
      4         11           0        0.211060    0.634257   -1.247190
      5         11           0       -3.376885    1.085101   -0.657694
      6         11           0       -2.082727   -2.294026    0.075964
      7         11           0        1.366894   -2.313176   -0.325454
 ---------------------------------------------------------------------

 SCF Done:  E(UB3LYP) =  -1136.12872580     A.U. after   21 cycles

 The electronic state is 2-A.
 Alpha  occ. eigenvalues --  -38.44426 -38.44369 -38.43731 -38.43596 -38.43578
 Alpha  occ. eigenvalues --  -38.43425 -38.43126  -2.20198  -2.20191  -2.19629
 Alpha  occ. eigenvalues --   -2.19475  -2.19429  -2.19395  -2.19022  -1.13871
 Alpha  occ. eigenvalues --   -1.13861  -1.13850  -1.13840  -1.13828  -1.13823
 Alpha  occ. eigenvalues --   -1.13403  -1.13307  -1.13261  -1.13240  -1.13133
 Alpha  occ. eigenvalues --   -1.13090  -1.13076  -1.13068  -1.13058  -1.13032
 Alpha  occ. eigenvalues --   -1.13005  -1.12994  -1.12717  -1.12692  -1.12634
 Alpha  occ. eigenvalues --   -0.18429  -0.13043  -0.12329  -0.10728
 Alpha virt. eigenvalues --   -0.06170  -0.05129  -0.04460  -0.03062  -0.02909
 Alpha virt. eigenvalues --   -0.02336  -0.02095  -0.01129  -0.00584  -0.00211
 Alpha virt. eigenvalues --   -0.00076   0.00238   0.00725   0.00815   0.00859

  Beta  occ. eigenvalues --  -38.44394 -38.44354 -38.43629 -38.43583 -38.43577
  Beta  occ. eigenvalues --  -38.43403 -38.43119  -2.20164  -2.20140  -2.19451
  Beta  occ. eigenvalues --   -2.19443  -2.19397  -2.19391  -2.19013  -1.13836
  Beta  occ. eigenvalues --   -1.13833  -1.13824  -1.13802  -1.13801  -1.13790
  Beta  occ. eigenvalues --   -1.13380  -1.13194  -1.13139  -1.13114  -1.13086
  Beta  occ. eigenvalues --   -1.13074  -1.13059  -1.13052  -1.13042  -1.13019
  Beta  occ. eigenvalues --   -1.12978  -1.12969  -1.12712  -1.12679  -1.12611
  Beta  occ. eigenvalues --   -0.17788  -0.12640  -0.12106
  Beta virt. eigenvalues --   -0.07050  -0.05871  -0.05061  -0.04408  -0.02511
  Beta virt. eigenvalues --   -0.02201  -0.01876  -0.01419  -0.01089  -0.00492
  Beta virt. eigenvalues --   -0.00209   0.00075   0.00316   0.00775   0.00863

 Mulliken charges and spin densities:
               1          2
     1  Na   0.158718   0.132295
     2  Na   0.401272   0.082989
     3  Na  -0.114362   0.428448
     4  Na  -0.605014  -0.009156
     5  Na   0.078884   0.171698
     6  Na   0.039581   0.070696
     7  Na   0.040921   0.123031
 Sum of Mulliken charges =  -0.00000   1.00000

 Dipole moment (field-independent basis, Debye):
    X=              0.1477    Y=              0.2065    Z=              0.3516  Tot=              0.4337
 Quadrupole moment (field-independent basis, Debye-Ang):
   XX=            -54.6394   YY=            -65.2155   ZZ=            -73.3351
   XY=              1.0697   XZ=              0.4820   YZ=              1.0427

 Normal termination of Gaussian 16 at Tue Dec  5 19:31:05 2023.
