 Gaussian 16, Revision B.01,
 Gaussian 16:  ES64L-G16RevB.01 20-Dec-2017

 -------------------------
 #P B3LYP/6-311+g(d) force
 -------------------------

 -----
 DPGEN
 -----
 Symbolic Z-matrix:
 Charge =  0 Multiplicity = 2

                         Standard orientation:
 ---------------------------------------------------------------------
 Center     Atomic      Atomic             Coordinates (Angstroms)
 Number     Number       Type             X           Y           Z
 ---------------------------------------------------------------------
      1         11           0        4.297447   -0.926314   -0.092699
      2         11           0        2.987097    2.749925   -0.081366
      3         11           0        0.098828    3.402078   -0.495944
      4         11           0       -3.315370    2.106910    0.937426
      5         11           0       -1.806635   -3.159232   -0.440200
      6         11           0       -4.425521   -0.871011   -0.398978
      7         11           0        2.164154   -3.302355    0.571761
 ---------------------------------------------------------------------

 SCF Done:  E(UB3LYP) =  -1136.10562639     A.U. after   22 cycles

 The electronic state is 2-A.
 Alpha  occ. eigenvalues --  -38.44935 -38.44771 -38.44739 -38.44595 -38.44482
 Alpha  occ. eigenvalues --  -38.44425 -38.44231  -2.20701  -2.20555  -2.20500
 Alpha  occ. eigenvalues --   -2.20395  -2.20262  -2.20217  -2.20053  -1.14385
 Alpha  occ. eigenvalues --   -1.14372  -1.14358  -1.14246  -1.14218  -1.14198
 Alpha  occ. eigenvalues --   -1.14173  -1.14160  -1.14128  -1.14112  -1.14055
 Alpha  occ. eigenvalues --   -1.14043  -1.13917  -1.13906  -1.13877  -1.13867
 Alpha  occ. eigenvalues --   -1.13854  -1.13841  -1.13697  -1.13696  -1.13677
 Alpha  occ. eigenvalues --   -0.15395  -0.13990  -0.13430  -0.10918
 Alpha virt. eigenvalues --   -0.07786  -0.04779  -0.04638  -0.03521  -0.03473
 Alpha virt. eigenvalues --   -0.02562  -0.02204  -0.01972  -0.01339  -0.00910
 Alpha virt. eigenvalues --   -0.00588  -0.00272   0.00056   0.00326   0.00529

  Beta  occ. eigenvalues --  -38.44943 -38.44738 -38.44737 -38.44586 -38.44403
  Beta  occ. eigenvalues --  -38.44346 -38.44200  -2.20723  -2.20503  -2.20493
  Beta  occ. eigenvalues --   -2.20384  -2.20114  -2.20070  -2.19997  -1.14405
  Beta  occ. eigenvalues --   -1.14392  -1.14329  -1.14213  -1.14184  -1.14171
  Beta  occ. eigenvalues --   -1.14159  -1.14154  -1.14099  -1.14081  -1.14051
  Beta  occ. eigenvalues --   -1.14028  -1.13817  -1.13807  -1.13779  -1.13766
  Beta  occ. eigenvalues --   -1.13756  -1.13745  -1.13660  -1.13658  -1.13633
  Beta  occ. eigenvalues --   -0.14854  -0.13307  -0.12720
  Beta virt. eigenvalues --   -0.07883  -0.07758  -0.04324  -0.04204  -0.03219
  Beta virt. eigenvalues --   -0.03191  -0.02354  -0.02063  -0.01785  -0.01238
  Beta virt. eigenvalues --   -0.00545  -0.00258  -0.00088   0.00231   0.00387

 Mulliken charges and spin densities:
               1          2
     1  Na  -0.044134   0.155309
     2  Na   0.250972   0.107055
     3  Na  -0.373971   0.030552
     4  Na  -0.123737   0.371181
     5  Na  -0.008516   0.380098
     6  Na   0.197212  -0.024931
     7  Na   0.102174  -0.019263
 Sum of Mulliken charges =  -0.00000   1.00000

 Dipole moment (field-independent basis, Debye):
    X=              0.1874    Y=             -0.0698    Z=              0.0125  Tot=              0.2004
 Quadrupole moment (field-independent basis, Debye-Ang):
   XX=            -58.6163   YY=            -69.6443   ZZ=            -72.7644
   XY=              1.3932   XZ=              0.8498   YZ=             -0.4493

 Normal termination of Gaussian 16 at Sun Dec  3 23:11:55 2023.
