 Gaussian 16, Revision B.01,
 Gaussian 16:  ES64L-G16RevB.01 20-Dec-2017

 -------------------------
 #P B3LYP/6-311+g(d) force
 -------------------------

 -----
 DPGEN
 -----
 Symbolic Z-matrix:
 Charge =  0 Multiplicity = 2

                         Standard orientation:
 ---------------------------------------------------------------------
 Center     Atomic      Atomic             Coordinates (Angstroms)
 Number     Number       Type             X           Y           Z
 ---------------------------------------------------------------------
      1         11           0       -0.206699   -0.061560   -2.096933
      2         11           0       -0.076777   -1.863850    0.140815
      3         11           0       -2.583327   -0.776532    0.222251
      4         11           0       -1.211697    1.784316   -0.165485
      5         11           0        0.169617    0.384474    2.139210
      6         11           0        1.506793    1.503081   -0.183535
      7         11           0        2.402089   -0.969929   -0.056322
 ---------------------------------------------------------------------

 SCF Done:  E(UB3LYP) =  -1136.07997261     A.U. after   23 cycles

 The electronic state is 2-A.
 Alpha  occ. eigenvalues --  -38.44917 -38.44797 -38.44110 -38.43868 -38.43581
 Alpha  occ. eigenvalues --  -38.43211 -38.43138  -2.21047  -2.20884  -2.20212
 Alpha  occ. eigenvalues --   -2.19890  -2.19791  -2.19431  -2.19296  -1.14811
 Alpha  occ. eigenvalues --   -1.14704  -1.14635  -1.14629  -1.14521  -1.14480
 Alpha  occ. eigenvalues --   -1.14159  -1.14106  -1.13762  -1.13729  -1.13615
 Alpha  occ. eigenvalues --   -1.13566  -1.13488  -1.13390  -1.13281  -1.13055
 Alpha  occ. eigenvalues --   -1.13026  -1.12960  -1.12947  -1.12914  -1.12836
 Alpha  occ. eigenvalues --   -0.21623  -0.13728  -0.13152  -0.12358
 Alpha virt. eigenvalues --   -0.05124  -0.04139  -0.04020  -0.03869  -0.03403
 Alpha virt. eigenvalues --   -0.03268  -0.00998  -0.00420  -0.00251   0.00327
 Alpha virt. eigenvalues --    0.00801   0.00949   0.01016   0.01061   0.01122

  Beta  occ. eigenvalues --  -38.44814 -38.44699 -38.44103 -38.43862 -38.43562
  Beta  occ. eigenvalues --  -38.43191 -38.43121  -2.20862  -2.20706  -2.20205
  Beta  occ. eigenvalues --   -2.19883  -2.19765  -2.19402  -2.19274  -1.14693
  Beta  occ. eigenvalues --   -1.14566  -1.14525  -1.14495  -1.14388  -1.14353
  Beta  occ. eigenvalues --   -1.14156  -1.14103  -1.13726  -1.13713  -1.13610
  Beta  occ. eigenvalues --   -1.13562  -1.13450  -1.13303  -1.13273  -1.13023
  Beta  occ. eigenvalues --   -1.12958  -1.12945  -1.12923  -1.12856  -1.12829
  Beta  occ. eigenvalues --   -0.20663  -0.13383  -0.12031
  Beta virt. eigenvalues --   -0.08866  -0.05115  -0.03925  -0.03623  -0.03105
  Beta virt. eigenvalues --   -0.02670  -0.02415  -0.00925  -0.00230  -0.00156
  Beta virt. eigenvalues --    0.00343   0.00837   0.00969   0.01100   0.01129

 Mulliken charges and spin densities:
               1          2
     1  Na  -1.449197   0.462165
     2  Na   1.214187   0.067840
     3  Na  -0.062162  -0.005184
     4  Na   0.930944  -0.016243
     5  Na  -1.425075   0.500867
     6  Na   0.986890  -0.020021
     7  Na  -0.195587   0.010576
 Sum of Mulliken charges =  -0.00000   1.00000

 Dipole moment (field-independent basis, Debye):
    X=             -0.2398    Y=             -0.0307    Z=              0.1604  Tot=              0.2901
 Quadrupole moment (field-independent basis, Debye-Ang):
   XX=            -61.8082   YY=            -75.0763   ZZ=            -61.9768
   XY=             -0.1532   XZ=             -0.6742   YZ=             -1.0249

 Normal termination of Gaussian 16 at Fri Dec  8 00:19:43 2023.
