 Gaussian 16, Revision B.01,
 Gaussian 16:  ES64L-G16RevB.01 20-Dec-2017

 -------------------------
 #P B3LYP/6-311+g(d) force
 -------------------------

 -----
 DPGEN
 -----
 Symbolic Z-matrix:
 Charge =  0 Multiplicity = 2

                         Standard orientation:
 ---------------------------------------------------------------------
 Center     Atomic      Atomic             Coordinates (Angstroms)
 Number     Number       Type             X           Y           Z
 ---------------------------------------------------------------------
      1         11           0       -3.523349    1.901765   -0.189579
      2         11           0       -0.949210   -3.581125    0.526102
      3         11           0       -3.502473   -2.113364   -0.659850
      4         11           0       -1.121923    3.473311    0.863378
      5         11           0        2.884325   -2.903505    0.164258
      6         11           0        2.516399    3.171525   -0.524206
      7         11           0        3.696231    0.051393   -0.180101
 ---------------------------------------------------------------------

 SCF Done:  E(UB3LYP) =  -1136.10780673     A.U. after   20 cycles

 The electronic state is 2-A.
 Alpha  occ. eigenvalues --  -38.44913 -38.44705 -38.44616 -38.44504 -38.44418
 Alpha  occ. eigenvalues --  -38.44351 -38.44075  -2.20686  -2.20499  -2.20422
 Alpha  occ. eigenvalues --   -2.20297  -2.20233  -2.20155  -2.19902  -1.14370
 Alpha  occ. eigenvalues --   -1.14358  -1.14333  -1.14259  -1.14163  -1.14143
 Alpha  occ. eigenvalues --   -1.14069  -1.14053  -1.14016  -1.13956  -1.13952
 Alpha  occ. eigenvalues --   -1.13947  -1.13930  -1.13904  -1.13900  -1.13799
 Alpha  occ. eigenvalues --   -1.13786  -1.13775  -1.13544  -1.13539  -1.13521
 Alpha  occ. eigenvalues --   -0.15551  -0.13954  -0.13726  -0.11141
 Alpha virt. eigenvalues --   -0.07502  -0.04587  -0.04409  -0.03657  -0.03546
 Alpha virt. eigenvalues --   -0.02395  -0.02266  -0.01746  -0.01629  -0.00900
 Alpha virt. eigenvalues --   -0.00462  -0.00089   0.00077   0.00411   0.00518

  Beta  occ. eigenvalues --  -38.44904 -38.44695 -38.44576 -38.44470 -38.44412
  Beta  occ. eigenvalues --  -38.44270 -38.44010  -2.20674  -2.20485  -2.20352
  Beta  occ. eigenvalues --   -2.20237  -2.20230  -2.20006  -2.19782  -1.14357
  Beta  occ. eigenvalues --   -1.14353  -1.14305  -1.14220  -1.14158  -1.14127
  Beta  occ. eigenvalues --   -1.14023  -1.14009  -1.13964  -1.13914  -1.13912
  Beta  occ. eigenvalues --   -1.13909  -1.13906  -1.13883  -1.13879  -1.13698
  Beta  occ. eigenvalues --   -1.13690  -1.13675  -1.13467  -1.13457  -1.13441
  Beta  occ. eigenvalues --   -0.14973  -0.13160  -0.12929
  Beta virt. eigenvalues --   -0.08041  -0.07661  -0.04118  -0.03938  -0.03418
  Beta virt. eigenvalues --   -0.03266  -0.02146  -0.02002  -0.01586  -0.01465
  Beta virt. eigenvalues --   -0.00471  -0.00321   0.00155   0.00204   0.00373

 Mulliken charges and spin densities:
               1          2
     1  Na   0.083141   0.151621
     2  Na  -0.256078   0.028059
     3  Na   0.197471   0.126471
     4  Na  -0.192912  -0.000452
     5  Na   0.433813   0.285558
     6  Na  -0.063805   0.324168
     7  Na  -0.201631   0.084574
 Sum of Mulliken charges =  -0.00000   1.00000

 Dipole moment (field-independent basis, Debye):
    X=             -0.7020    Y=              0.0170    Z=             -0.0059  Tot=              0.7023
 Quadrupole moment (field-independent basis, Debye-Ang):
   XX=            -64.9649   YY=            -64.6502   ZZ=            -71.5172
   XY=              0.2081   XZ=              2.5096   YZ=             -0.6584

 Normal termination of Gaussian 16 at Sun Dec  3 15:53:33 2023.
