 Gaussian 16, Revision B.01,
 Gaussian 16:  ES64L-G16RevB.01 20-Dec-2017

 -------------------------
 #P B3LYP/6-311+g(d) force
 -------------------------

 -----
 DPGEN
 -----
 Symbolic Z-matrix:
 Charge =  0 Multiplicity = 2

                         Standard orientation:
 ---------------------------------------------------------------------
 Center     Atomic      Atomic             Coordinates (Angstroms)
 Number     Number       Type             X           Y           Z
 ---------------------------------------------------------------------
      1         11           0        2.928875   -1.562361    0.423642
      2         11           0       -3.203531    0.338861   -0.236901
      3         11           0       -0.707742    3.028994    0.472305
      4         11           0        2.426070    1.560763   -0.825799
      5         11           0        0.041767   -0.036327    1.584806
      6         11           0       -0.146965   -0.366567   -1.364839
      7         11           0       -1.338474   -2.963364   -0.053214
 ---------------------------------------------------------------------

 SCF Done:  E(UB3LYP) =  -1136.13171157     A.U. after   21 cycles

 The electronic state is 2-A.
 Alpha  occ. eigenvalues --  -38.44519 -38.44155 -38.43927 -38.43479 -38.43335
 Alpha  occ. eigenvalues --  -38.43005 -38.42984  -2.20331  -2.19970  -2.19753
 Alpha  occ. eigenvalues --   -2.19349  -2.19161  -2.19028  -2.18990  -1.14025
 Alpha  occ. eigenvalues --   -1.13992  -1.13949  -1.13642  -1.13623  -1.13614
 Alpha  occ. eigenvalues --   -1.13460  -1.13413  -1.13372  -1.13051  -1.12993
 Alpha  occ. eigenvalues --   -1.12974  -1.12894  -1.12850  -1.12809  -1.12801
 Alpha  occ. eigenvalues --   -1.12645  -1.12630  -1.12616  -1.12591  -1.12578
 Alpha  occ. eigenvalues --   -0.18588  -0.13161  -0.12382  -0.10110
 Alpha virt. eigenvalues --   -0.05999  -0.05209  -0.04769  -0.03025  -0.02629
 Alpha virt. eigenvalues --   -0.01881  -0.01809  -0.01444  -0.00539  -0.00393
 Alpha virt. eigenvalues --    0.00058   0.00318   0.00735   0.00797   0.00849

  Beta  occ. eigenvalues --  -38.44514 -38.44146 -38.43926 -38.43448 -38.43325
  Beta  occ. eigenvalues --  -38.42934 -38.42933  -2.20325  -2.19954  -2.19753
  Beta  occ. eigenvalues --   -2.19294  -2.19146  -2.18934  -2.18862  -1.14013
  Beta  occ. eigenvalues --   -1.13984  -1.13941  -1.13627  -1.13607  -1.13597
  Beta  occ. eigenvalues --   -1.13457  -1.13405  -1.13367  -1.13005  -1.12943
  Beta  occ. eigenvalues --   -1.12940  -1.12836  -1.12809  -1.12794  -1.12785
  Beta  occ. eigenvalues --   -1.12578  -1.12561  -1.12531  -1.12505  -1.12480
  Beta  occ. eigenvalues --   -0.17935  -0.12873  -0.12114
  Beta virt. eigenvalues --   -0.06343  -0.05976  -0.05138  -0.04658  -0.02330
  Beta virt. eigenvalues --   -0.01960  -0.01791  -0.01361  -0.00917  -0.00529
  Beta virt. eigenvalues --   -0.00348   0.00171   0.00373   0.00743   0.00845

 Mulliken charges and spin densities:
               1          2
     1  Na   0.033858   0.050841
     2  Na   0.033927  -0.024921
     3  Na  -0.013668   0.040733
     4  Na   0.079447   0.163836
     5  Na  -0.126572   0.611321
     6  Na   0.065984   0.194988
     7  Na  -0.072976  -0.036797
 Sum of Mulliken charges =  -0.00000   1.00000

 Dipole moment (field-independent basis, Debye):
    X=             -0.3276    Y=             -0.3816    Z=              0.0977  Tot=              0.5123
 Quadrupole moment (field-independent basis, Debye-Ang):
   XX=            -53.6865   YY=            -58.7885   ZZ=            -77.3030
   XY=             -0.8664   XZ=              0.1142   YZ=             -1.0346

 Normal termination of Gaussian 16 at Thu Dec  7 18:55:48 2023.
