 Gaussian 16, Revision B.01,
 Gaussian 16:  ES64L-G16RevB.01 20-Dec-2017

 -------------------------
 #P B3LYP/6-311+g(d) force
 -------------------------

 -----
 DPGEN
 -----
 Symbolic Z-matrix:
 Charge =  0 Multiplicity = 2

                         Standard orientation:
 ---------------------------------------------------------------------
 Center     Atomic      Atomic             Coordinates (Angstroms)
 Number     Number       Type             X           Y           Z
 ---------------------------------------------------------------------
      1         11           0       -0.019077   -1.131266   -1.186363
      2         11           0        2.933082   -2.235932   -0.077638
      3         11           0        2.675721    1.477839   -0.379707
      4         11           0       -2.918034   -1.683425    0.009980
      5         11           0       -0.728692   -0.517787    2.381035
      6         11           0       -1.857306    1.330288   -1.648894
      7         11           0       -0.085694    2.760283    0.901586
 ---------------------------------------------------------------------

 SCF Done:  E(UB3LYP) =  -1136.12760895     A.U. after   20 cycles

 The electronic state is 2-A.
 Alpha  occ. eigenvalues --  -38.44776 -38.44392 -38.44230 -38.44131 -38.43474
 Alpha  occ. eigenvalues --  -38.43220 -38.42931  -2.20611  -2.20181  -2.20104
 Alpha  occ. eigenvalues --   -2.19976  -2.19261  -2.19177  -2.18777  -1.14254
 Alpha  occ. eigenvalues --   -1.14241  -1.14231  -1.13870  -1.13856  -1.13824
 Alpha  occ. eigenvalues --   -1.13798  -1.13741  -1.13702  -1.13660  -1.13633
 Alpha  occ. eigenvalues --   -1.13609  -1.12951  -1.12923  -1.12900  -1.12860
 Alpha  occ. eigenvalues --   -1.12853  -1.12776  -1.12446  -1.12436  -1.12426
 Alpha  occ. eigenvalues --   -0.18101  -0.12946  -0.11958  -0.11685
 Alpha virt. eigenvalues --   -0.05862  -0.05178  -0.04239  -0.03536  -0.03351
 Alpha virt. eigenvalues --   -0.02957  -0.01578  -0.01166  -0.00362  -0.00158
 Alpha virt. eigenvalues --    0.00154   0.00301   0.00521   0.00726   0.00787

  Beta  occ. eigenvalues --  -38.44668 -38.44394 -38.44171 -38.44129 -38.43477
  Beta  occ. eigenvalues --  -38.43191 -38.42920  -2.20411  -2.20185  -2.19997
  Beta  occ. eigenvalues --   -2.19976  -2.19268  -2.19126  -2.18760  -1.14123
  Beta  occ. eigenvalues --   -1.14104  -1.14085  -1.13865  -1.13859  -1.13804
  Beta  occ. eigenvalues --   -1.13743  -1.13673  -1.13664  -1.13635  -1.13616
  Beta  occ. eigenvalues --   -1.13584  -1.12950  -1.12925  -1.12905  -1.12827
  Beta  occ. eigenvalues --   -1.12802  -1.12739  -1.12433  -1.12427  -1.12397
  Beta  occ. eigenvalues --   -0.17334  -0.12759  -0.11826
  Beta virt. eigenvalues --   -0.07611  -0.05776  -0.05034  -0.03969  -0.02848
  Beta virt. eigenvalues --   -0.02603  -0.02241  -0.01529  -0.01050  -0.00221
  Beta virt. eigenvalues --   -0.00073   0.00223   0.00354   0.00686   0.00743

 Mulliken charges and spin densities:
               1          2
     1  Na  -0.433786   0.370048
     2  Na   0.388990  -0.040685
     3  Na  -0.140824  -0.059975
     4  Na   0.212406   0.067038
     5  Na  -0.208047   0.452407
     6  Na   0.170752   0.028384
     7  Na   0.010509   0.182783
 Sum of Mulliken charges =  -0.00000   1.00000

 Dipole moment (field-independent basis, Debye):
    X=             -0.3987    Y=             -0.1253    Z=              0.2487  Tot=              0.4863
 Quadrupole moment (field-independent basis, Debye-Ang):
   XX=            -58.6558   YY=            -68.1206   ZZ=            -68.8310
   XY=              1.7727   XZ=              1.3699   YZ=             -2.4514

 Normal termination of Gaussian 16 at Sun Dec  3 20:45:54 2023.
