 Gaussian 16, Revision B.01,
 Gaussian 16:  ES64L-G16RevB.01 20-Dec-2017

 -------------------------
 #P B3LYP/6-311+g(d) force
 -------------------------

 -----
 DPGEN
 -----
 Symbolic Z-matrix:
 Charge =  0 Multiplicity = 2

                         Standard orientation:
 ---------------------------------------------------------------------
 Center     Atomic      Atomic             Coordinates (Angstroms)
 Number     Number       Type             X           Y           Z
 ---------------------------------------------------------------------
      1         11           0        2.242359    2.140559   -0.928252
      2         11           0       -2.715377    0.625590    1.857467
      3         11           0       -2.756247   -1.035515   -1.639788
      4         11           0        3.514972   -0.877366    0.675284
      5         11           0        0.376167   -2.842273   -1.412023
      6         11           0       -0.682956    2.619418   -1.040529
      7         11           0        0.021083   -0.630413    2.487841
 ---------------------------------------------------------------------

 SCF Done:  E(UB3LYP) =  -1136.11120226     A.U. after   23 cycles

 The electronic state is 2-A.
 Alpha  occ. eigenvalues --  -38.45374 -38.45238 -38.45077 -38.44644 -38.44231
 Alpha  occ. eigenvalues --  -38.43247 -38.43244  -2.21187  -2.21005  -2.20817
 Alpha  occ. eigenvalues --   -2.20469  -2.19983  -2.19074  -2.19055  -1.14874
 Alpha  occ. eigenvalues --   -1.14830  -1.14800  -1.14675  -1.14653  -1.14625
 Alpha  occ. eigenvalues --   -1.14496  -1.14474  -1.14433  -1.14165  -1.14103
 Alpha  occ. eigenvalues --   -1.14076  -1.13661  -1.13642  -1.13623  -1.12911
 Alpha  occ. eigenvalues --   -1.12743  -1.12710  -1.12707  -1.12684  -1.12610
 Alpha  occ. eigenvalues --   -0.16801  -0.12835  -0.12602  -0.11796
 Alpha virt. eigenvalues --   -0.06305  -0.05253  -0.05047  -0.03671  -0.03339
 Alpha virt. eigenvalues --   -0.02994  -0.01665  -0.01041  -0.00703  -0.00482
 Alpha virt. eigenvalues --   -0.00206  -0.00060   0.00308   0.00379   0.00498

  Beta  occ. eigenvalues --  -38.45291 -38.45185 -38.45037 -38.44601 -38.44228
  Beta  occ. eigenvalues --  -38.43251 -38.43235  -2.21036  -2.20907  -2.20744
  Beta  occ. eigenvalues --   -2.20393  -2.19979  -2.19077  -2.19043  -1.14766
  Beta  occ. eigenvalues --   -1.14732  -1.14684  -1.14605  -1.14588  -1.14553
  Beta  occ. eigenvalues --   -1.14446  -1.14427  -1.14371  -1.14094  -1.14058
  Beta  occ. eigenvalues --   -1.14019  -1.13653  -1.13640  -1.13623  -1.12908
  Beta  occ. eigenvalues --   -1.12741  -1.12710  -1.12697  -1.12680  -1.12608
  Beta  occ. eigenvalues --   -0.16034  -0.12635  -0.11550
  Beta virt. eigenvalues --   -0.08649  -0.06049  -0.04876  -0.04653  -0.03381
  Beta virt. eigenvalues --   -0.02873  -0.02457  -0.01530  -0.00657  -0.00607
  Beta virt. eigenvalues --   -0.00392  -0.00115   0.00088   0.00390   0.00426

 Mulliken charges and spin densities:
               1          2
     1  Na   0.685235  -0.186309
     2  Na   0.798600  -0.056190
     3  Na   0.070147   0.205247
     4  Na  -0.343988   0.089473
     5  Na   0.028233   0.197557
     6  Na  -0.769165   0.268603
     7  Na  -0.469062   0.481618
 Sum of Mulliken charges =  -0.00000   1.00000

 Dipole moment (field-independent basis, Debye):
    X=             -0.7242    Y=             -0.9854    Z=              0.2600  Tot=              1.2503
 Quadrupole moment (field-independent basis, Debye-Ang):
   XX=            -58.3769   YY=            -75.3641   ZZ=            -66.6726
   XY=             -3.0885   XZ=              1.5944   YZ=              3.4462

 Normal termination of Gaussian 16 at Sun Dec  3 19:52:09 2023.
