 Gaussian 16, Revision B.01,
 Gaussian 16:  ES64L-G16RevB.01 20-Dec-2017

 -------------------------
 #P B3LYP/6-311+g(d) force
 -------------------------

 -----
 DPGEN
 -----
 Symbolic Z-matrix:
 Charge =  0 Multiplicity = 2

                         Standard orientation:
 ---------------------------------------------------------------------
 Center     Atomic      Atomic             Coordinates (Angstroms)
 Number     Number       Type             X           Y           Z
 ---------------------------------------------------------------------
      1         11           0        0.544113   -2.698534   -0.355866
      2         11           0        3.077458   -0.167411    0.119788
      3         11           0       -0.167197   -0.167105    2.071005
      4         11           0       -2.199493   -1.435103    0.074321
      5         11           0        0.169666    0.122599   -1.716559
      6         11           0        1.085855    2.693733    0.039551
      7         11           0       -2.510402    1.651821   -0.232241
 ---------------------------------------------------------------------

 SCF Done:  E(UB3LYP) =  -1136.13593742     A.U. after   20 cycles

 The electronic state is 2-A.
 Alpha  occ. eigenvalues --  -38.43904 -38.43803 -38.43543 -38.43531 -38.43245
 Alpha  occ. eigenvalues --  -38.43244 -38.43132  -2.19738  -2.19727  -2.19412
 Alpha  occ. eigenvalues --   -2.19380  -2.19262  -2.19236  -2.19058  -1.13425
 Alpha  occ. eigenvalues --   -1.13413  -1.13406  -1.13378  -1.13355  -1.13335
 Alpha  occ. eigenvalues --   -1.13139  -1.13099  -1.13071  -1.13054  -1.13041
 Alpha  occ. eigenvalues --   -1.13006  -1.12995  -1.12923  -1.12899  -1.12892
 Alpha  occ. eigenvalues --   -1.12877  -1.12844  -1.12712  -1.12690  -1.12665
 Alpha  occ. eigenvalues --   -0.19223  -0.13067  -0.12600  -0.11171
 Alpha virt. eigenvalues --   -0.05438  -0.04844  -0.04572  -0.03320  -0.03012
 Alpha virt. eigenvalues --   -0.02801  -0.01333  -0.00965  -0.00116  -0.00063
 Alpha virt. eigenvalues --    0.00082   0.00373   0.00885   0.00934   0.00976

  Beta  occ. eigenvalues --  -38.43902 -38.43707 -38.43538 -38.43528 -38.43234
  Beta  occ. eigenvalues --  -38.43173 -38.43121  -2.19736  -2.19551  -2.19406
  Beta  occ. eigenvalues --   -2.19377  -2.19222  -2.19133  -2.19043  -1.13408
  Beta  occ. eigenvalues --   -1.13389  -1.13380  -1.13310  -1.13231  -1.13213
  Beta  occ. eigenvalues --   -1.13136  -1.13086  -1.13052  -1.13039  -1.13026
  Beta  occ. eigenvalues --   -1.12998  -1.12974  -1.12875  -1.12861  -1.12825
  Beta  occ. eigenvalues --   -1.12812  -1.12772  -1.12687  -1.12660  -1.12651
  Beta  occ. eigenvalues --   -0.18450  -0.12820  -0.12337
  Beta virt. eigenvalues --   -0.07184  -0.05434  -0.04804  -0.04564  -0.02480
  Beta virt. eigenvalues --   -0.02219  -0.01707  -0.01260  -0.00895  -0.00168
  Beta virt. eigenvalues --   -0.00017   0.00126   0.00387   0.00899   0.00953

 Mulliken charges and spin densities:
               1          2
     1  Na   0.271811  -0.023089
     2  Na   0.049792  -0.057666
     3  Na  -0.637808   0.652210
     4  Na   0.566146   0.145825
     5  Na  -0.379000   0.453130
     6  Na   0.040765  -0.087169
     7  Na   0.088293  -0.083241
 Sum of Mulliken charges =  -0.00000   1.00000

 Dipole moment (field-independent basis, Debye):
    X=              0.3515    Y=              0.2799    Z=              0.2154  Tot=              0.4983
 Quadrupole moment (field-independent basis, Debye-Ang):
   XX=            -59.1513   YY=            -63.3250   ZZ=            -72.1244
   XY=             -1.0281   XZ=              0.8675   YZ=              0.5667

 Normal termination of Gaussian 16 at Tue Dec  5 14:51:17 2023.
