 Gaussian 16, Revision B.01,
 Gaussian 16:  ES64L-G16RevB.01 20-Dec-2017

 -------------------------
 #P B3LYP/6-311+g(d) force
 -------------------------

 -----
 DPGEN
 -----
 Symbolic Z-matrix:
 Charge =  0 Multiplicity = 2

                         Standard orientation:
 ---------------------------------------------------------------------
 Center     Atomic      Atomic             Coordinates (Angstroms)
 Number     Number       Type             X           Y           Z
 ---------------------------------------------------------------------
      1         11           0       -0.448549   -2.409629   -0.298747
      2         11           0       -7.016744    2.924153    0.076808
      3         11           0       -6.384422    0.076169   -0.573661
      4         11           0       -2.952761   -1.679508    1.109284
      5         11           0        8.088929    2.124721    0.241062
      6         11           0        2.509562   -1.138024   -0.408614
      7         11           0        6.203987    0.102118   -0.146131
 ---------------------------------------------------------------------

 SCF Done:  E(UB3LYP) =  -1136.10247238     A.U. after   18 cycles

 The electronic state is 2-A.
 Alpha  occ. eigenvalues --  -38.44982 -38.44782 -38.44738 -38.44587 -38.44390
 Alpha  occ. eigenvalues --  -38.44026 -38.43948  -2.20814  -2.20597  -2.20545
 Alpha  occ. eigenvalues --   -2.20435  -2.20188  -2.19877  -2.19786  -1.14507
 Alpha  occ. eigenvalues --   -1.14442  -1.14432  -1.14260  -1.14237  -1.14236
 Alpha  occ. eigenvalues --   -1.14228  -1.14223  -1.14186  -1.14184  -1.14051
 Alpha  occ. eigenvalues --   -1.14050  -1.13846  -1.13838  -1.13826  -1.13571
 Alpha  occ. eigenvalues --   -1.13529  -1.13525  -1.13439  -1.13425  -1.13421
 Alpha  occ. eigenvalues --   -0.15448  -0.14274  -0.13390  -0.11559
 Alpha virt. eigenvalues --   -0.06758  -0.05293  -0.03951  -0.03455  -0.03095
 Alpha virt. eigenvalues --   -0.02847  -0.02459  -0.02214  -0.01788  -0.01027
 Alpha virt. eigenvalues --   -0.00835  -0.00485  -0.00255   0.00442   0.00493

  Beta  occ. eigenvalues --  -38.44903 -38.44710 -38.44686 -38.44546 -38.44396
  Beta  occ. eigenvalues --  -38.44030 -38.43951  -2.20668  -2.20493  -2.20418
  Beta  occ. eigenvalues --   -2.20358  -2.20202  -2.19894  -2.19798  -1.14413
  Beta  occ. eigenvalues --   -1.14341  -1.14333  -1.14229  -1.14178  -1.14150
  Beta  occ. eigenvalues --   -1.14148  -1.14115  -1.14114  -1.14110  -1.13998
  Beta  occ. eigenvalues --   -1.13997  -1.13858  -1.13849  -1.13815  -1.13555
  Beta  occ. eigenvalues --   -1.13545  -1.13508  -1.13439  -1.13439  -1.13402
  Beta  occ. eigenvalues --   -0.14641  -0.13718  -0.13009
  Beta virt. eigenvalues --   -0.08356  -0.06233  -0.04921  -0.03700  -0.03247
  Beta virt. eigenvalues --   -0.02852  -0.02651  -0.02296  -0.01965  -0.01621
  Beta virt. eigenvalues --   -0.00638  -0.00520  -0.00124  -0.00084   0.00529

 Mulliken charges and spin densities:
               1          2
     1  Na  -0.571995   0.071153
     2  Na   0.195449   0.102418
     3  Na  -0.102525  -0.006863
     4  Na  -0.051453   0.315952
     5  Na   0.615981   0.172017
     6  Na  -0.366747   0.436714
     7  Na   0.281291  -0.091391
 Sum of Mulliken charges =  -0.00000   1.00000

 Dipole moment (field-independent basis, Debye):
    X=             -0.8413    Y=              1.0152    Z=              0.3081  Tot=              1.3540
 Quadrupole moment (field-independent basis, Debye-Ang):
   XX=            -58.2523   YY=            -60.9061   ZZ=            -72.5133
   XY=              2.3213   XZ=             -0.4967   YZ=              3.0863

 Normal termination of Gaussian 16 at Mon Dec  4 02:31:44 2023.
