 Gaussian 16, Revision B.01,
 Gaussian 16:  ES64L-G16RevB.01 20-Dec-2017

 -------------------------
 #P B3LYP/6-311+g(d) force
 -------------------------

 -----
 DPGEN
 -----
 Symbolic Z-matrix:
 Charge =  0 Multiplicity = 2

                         Standard orientation:
 ---------------------------------------------------------------------
 Center     Atomic      Atomic             Coordinates (Angstroms)
 Number     Number       Type             X           Y           Z
 ---------------------------------------------------------------------
      1         11           0        2.172836    1.850888    0.168509
      2         11           0       -1.993660    2.342827   -0.352820
      3         11           0        0.092989    0.070741   -1.729861
      4         11           0        2.990072   -1.173506   -0.420901
      5         11           0       -0.246196    0.545290    2.032656
      6         11           0       -2.880399   -1.381703   -0.324725
      7         11           0       -0.135642   -2.254537    0.627142
 ---------------------------------------------------------------------

 SCF Done:  E(UB3LYP) =  -1136.13215747     A.U. after   20 cycles

 The electronic state is 2-A.
 Alpha  occ. eigenvalues --  -38.44148 -38.43870 -38.43850 -38.43718 -38.43555
 Alpha  occ. eigenvalues --  -38.43536 -38.42764  -2.19996  -2.19733  -2.19728
 Alpha  occ. eigenvalues --   -2.19652  -2.19527  -2.19358  -2.18726  -1.13701
 Alpha  occ. eigenvalues --   -1.13655  -1.13621  -1.13475  -1.13424  -1.13408
 Alpha  occ. eigenvalues --   -1.13389  -1.13376  -1.13337  -1.13305  -1.13266
 Alpha  occ. eigenvalues --   -1.13262  -1.13215  -1.13169  -1.13146  -1.13032
 Alpha  occ. eigenvalues --   -1.13012  -1.12985  -1.12419  -1.12381  -1.12346
 Alpha  occ. eigenvalues --   -0.18980  -0.13344  -0.12061  -0.11255
 Alpha virt. eigenvalues --   -0.05686  -0.05392  -0.03809  -0.03462  -0.03026
 Alpha virt. eigenvalues --   -0.02798  -0.01683  -0.01142  -0.00157  -0.00036
 Alpha virt. eigenvalues --    0.00173   0.00352   0.00750   0.00824   0.00969

  Beta  occ. eigenvalues --  -38.44145 -38.43864 -38.43842 -38.43622 -38.43530
  Beta  occ. eigenvalues --  -38.43491 -38.42743  -2.19993  -2.19724  -2.19717
  Beta  occ. eigenvalues --   -2.19477  -2.19411  -2.19350  -2.18692  -1.13701
  Beta  occ. eigenvalues --   -1.13634  -1.13621  -1.13470  -1.13401  -1.13384
  Beta  occ. eigenvalues --   -1.13375  -1.13358  -1.13300  -1.13220  -1.13151
  Beta  occ. eigenvalues --   -1.13144  -1.13135  -1.13094  -1.13063  -1.13009
  Beta  occ. eigenvalues --   -1.12996  -1.12977  -1.12397  -1.12339  -1.12311
  Beta  occ. eigenvalues --   -0.18222  -0.13089  -0.11828
  Beta virt. eigenvalues --   -0.07278  -0.05623  -0.05358  -0.03782  -0.02707
  Beta virt. eigenvalues --   -0.02250  -0.01731  -0.01570  -0.01102  -0.00105
  Beta virt. eigenvalues --    0.00032   0.00165   0.00375   0.00815   0.00846

 Mulliken charges and spin densities:
               1          2
     1  Na   0.277969  -0.021187
     2  Na   0.009281  -0.070328
     3  Na  -0.440773   0.490206
     4  Na   0.071014   0.013892
     5  Na  -0.269741   0.438216
     6  Na  -0.030473  -0.056189
     7  Na   0.382724   0.205390
 Sum of Mulliken charges =  -0.00000   1.00000

 Dipole moment (field-independent basis, Debye):
    X=             -0.0608    Y=              0.2291    Z=             -0.1237  Tot=              0.2674
 Quadrupole moment (field-independent basis, Debye-Ang):
   XX=            -54.2524   YY=            -68.0801   ZZ=            -71.7422
   XY=             -0.3576   XZ=              0.7930   YZ=              0.1122

 Normal termination of Gaussian 16 at Tue Dec  5 12:02:39 2023.
