 Gaussian 16, Revision B.01,
 Gaussian 16:  ES64L-G16RevB.01 20-Dec-2017

 -------------------------
 #P B3LYP/6-311+g(d) force
 -------------------------

 -----
 DPGEN
 -----
 Symbolic Z-matrix:
 Charge =  0 Multiplicity = 2

                         Standard orientation:
 ---------------------------------------------------------------------
 Center     Atomic      Atomic             Coordinates (Angstroms)
 Number     Number       Type             X           Y           Z
 ---------------------------------------------------------------------
      1         11           0        1.333980    3.148693   -1.582775
      2         11           0        3.080452    0.299046    0.608419
      3         11           0       -2.723893   -0.542058    1.082216
      4         11           0        2.801366   -3.037039   -0.726440
      5         11           0       -5.282415   -0.364484   -0.957151
      6         11           0        0.254318    0.998190    2.415682
      7         11           0        0.536191   -0.502349   -0.839950
 ---------------------------------------------------------------------

 SCF Done:  E(UB3LYP) =  -1136.11113769     A.U. after   23 cycles

 The electronic state is 2-A.
 Alpha  occ. eigenvalues --  -38.45190 -38.44754 -38.44684 -38.44596 -38.44012
 Alpha  occ. eigenvalues --  -38.43559 -38.42882  -2.21053  -2.20647  -2.20471
 Alpha  occ. eigenvalues --   -2.20377  -2.19855  -2.19369  -2.18678  -1.14814
 Alpha  occ. eigenvalues --   -1.14743  -1.14622  -1.14344  -1.14325  -1.14241
 Alpha  occ. eigenvalues --   -1.14124  -1.14112  -1.14066  -1.14026  -1.14025
 Alpha  occ. eigenvalues --   -1.14009  -1.13521  -1.13503  -1.13465  -1.13059
 Alpha  occ. eigenvalues --   -1.13042  -1.13007  -1.12355  -1.12348  -1.12318
 Alpha  occ. eigenvalues --   -0.17431  -0.13443  -0.11763  -0.11303
 Alpha virt. eigenvalues --   -0.07248  -0.05354  -0.04221  -0.03276  -0.02814
 Alpha virt. eigenvalues --   -0.02566  -0.02301  -0.01406  -0.01354  -0.00804
 Alpha virt. eigenvalues --   -0.00398  -0.00241   0.00038   0.00548   0.00609

  Beta  occ. eigenvalues --  -38.45192 -38.44750 -38.44582 -38.44548 -38.43948
  Beta  occ. eigenvalues --  -38.43558 -38.42897  -2.21060  -2.20642  -2.20287
  Beta  occ. eigenvalues --   -2.20281  -2.19736  -2.19373  -2.18708  -1.14820
  Beta  occ. eigenvalues --   -1.14722  -1.14639  -1.14342  -1.14297  -1.14245
  Beta  occ. eigenvalues --   -1.13993  -1.13978  -1.13965  -1.13963  -1.13951
  Beta  occ. eigenvalues --   -1.13943  -1.13439  -1.13419  -1.13388  -1.13069
  Beta  occ. eigenvalues --   -1.13051  -1.12968  -1.12377  -1.12367  -1.12334
  Beta  occ. eigenvalues --   -0.16937  -0.12966  -0.11326
  Beta virt. eigenvalues --   -0.07767  -0.06976  -0.04947  -0.04004  -0.02929
  Beta virt. eigenvalues --   -0.02479  -0.02346  -0.02000  -0.01197  -0.00828
  Beta virt. eigenvalues --   -0.00567  -0.00260  -0.00019   0.00089   0.00612

 Mulliken charges and spin densities:
               1          2
     1  Na  -0.057304   0.385982
     2  Na   1.137944   0.135989
     3  Na   0.088255  -0.011646
     4  Na   0.176494  -0.187944
     5  Na   0.025146   0.261734
     6  Na  -0.089300   0.094411
     7  Na  -1.281236   0.321474
 Sum of Mulliken charges =  -0.00000   1.00000

 Dipole moment (field-independent basis, Debye):
    X=              0.4264    Y=              0.8368    Z=              0.1569  Tot=              0.9522
 Quadrupole moment (field-independent basis, Debye-Ang):
   XX=            -59.4292   YY=            -69.9778   ZZ=            -67.6405
   XY=              1.0629   XZ=              7.8020   YZ=             -0.7772

 Normal termination of Gaussian 16 at Tue Nov 28 19:19:23 2023.
