 Gaussian 16, Revision B.01,
 Gaussian 16:  ES64L-G16RevB.01 20-Dec-2017

 -------------------------
 #P B3LYP/6-311+g(d) force
 -------------------------

 -----
 DPGEN
 -----
 Symbolic Z-matrix:
 Charge =  0 Multiplicity = 2

                         Standard orientation:
 ---------------------------------------------------------------------
 Center     Atomic      Atomic             Coordinates (Angstroms)
 Number     Number       Type             X           Y           Z
 ---------------------------------------------------------------------
      1         11           0       -0.081682    0.008195   -1.686082
      2         11           0       -2.918866    0.877546   -0.019890
      3         11           0        0.061093    3.059596   -0.069014
      4         11           0        0.503144    0.280557    1.968161
      5         11           0       -1.984632   -2.224572    0.146126
      6         11           0        1.510102   -2.601914   -0.068414
      7         11           0        2.910840    0.600592   -0.270888
 ---------------------------------------------------------------------

 SCF Done:  E(UB3LYP) =  -1136.14058080     A.U. after   19 cycles

 The electronic state is 2-A.
 Alpha  occ. eigenvalues --  -38.43833 -38.43722 -38.43663 -38.43551 -38.43490
 Alpha  occ. eigenvalues --  -38.43418 -38.43091  -2.19701  -2.19567  -2.19496
 Alpha  occ. eigenvalues --   -2.19398  -2.19345  -2.19325  -2.19067  -1.13391
 Alpha  occ. eigenvalues --   -1.13381  -1.13324  -1.13261  -1.13238  -1.13212
 Alpha  occ. eigenvalues --   -1.13173  -1.13167  -1.13126  -1.13081  -1.13067
 Alpha  occ. eigenvalues --   -1.13042  -1.13012  -1.13004  -1.12988  -1.12972
 Alpha  occ. eigenvalues --   -1.12953  -1.12937  -1.12746  -1.12697  -1.12689
 Alpha  occ. eigenvalues --   -0.18727  -0.12984  -0.12637  -0.10645
 Alpha virt. eigenvalues --   -0.05501  -0.05075  -0.04983  -0.03131  -0.02930
 Alpha virt. eigenvalues --   -0.02459  -0.01310  -0.01247  -0.00399  -0.00353
 Alpha virt. eigenvalues --   -0.00000   0.00373   0.00851   0.00884   0.00890

  Beta  occ. eigenvalues --  -38.43824 -38.43720 -38.43659 -38.43547 -38.43487
  Beta  occ. eigenvalues --  -38.43331 -38.43021  -2.19688  -2.19566  -2.19492
  Beta  occ. eigenvalues --   -2.19394  -2.19341  -2.19164  -2.18940  -1.13384
  Beta  occ. eigenvalues --   -1.13337  -1.13320  -1.13262  -1.13223  -1.13208
  Beta  occ. eigenvalues --   -1.13166  -1.13142  -1.13127  -1.13078  -1.13043
  Beta  occ. eigenvalues --   -1.13038  -1.13008  -1.12985  -1.12973  -1.12884
  Beta  occ. eigenvalues --   -1.12840  -1.12822  -1.12660  -1.12603  -1.12597
  Beta  occ. eigenvalues --   -0.17998  -0.12751  -0.12404
  Beta virt. eigenvalues --   -0.06734  -0.05503  -0.05082  -0.04892  -0.02343
  Beta virt. eigenvalues --   -0.02154  -0.01405  -0.01226  -0.01176  -0.00459
  Beta virt. eigenvalues --   -0.00406   0.00143   0.00397   0.00858   0.00888

 Mulliken charges and spin densities:
               1          2
     1  Na  -0.212282   0.565677
     2  Na   0.079204  -0.070609
     3  Na   0.163281  -0.117841
     4  Na  -0.500126   0.802423
     5  Na   0.006555  -0.047232
     6  Na   0.124127  -0.048279
     7  Na   0.339241  -0.084139
 Sum of Mulliken charges =  -0.00000   1.00000

 Dipole moment (field-independent basis, Debye):
    X=              0.1153    Y=              0.1472    Z=              0.0757  Tot=              0.2017
 Quadrupole moment (field-independent basis, Debye-Ang):
   XX=            -58.8728   YY=            -59.7599   ZZ=            -74.7797
   XY=             -0.3683   XZ=             -1.2635   YZ=             -0.6597

 Normal termination of Gaussian 16 at Thu Dec  7 22:13:52 2023.
