 Gaussian 16, Revision B.01,
 Gaussian 16:  ES64L-G16RevB.01 20-Dec-2017

 -------------------------
 #P B3LYP/6-311+g(d) force
 -------------------------

 -----
 DPGEN
 -----
 Symbolic Z-matrix:
 Charge =  0 Multiplicity = 2

                         Standard orientation:
 ---------------------------------------------------------------------
 Center     Atomic      Atomic             Coordinates (Angstroms)
 Number     Number       Type             X           Y           Z
 ---------------------------------------------------------------------
      1         11           0       -2.456330    2.491456    0.624607
      2         11           0       -0.495048   -2.323315   -0.783298
      3         11           0        2.946802   -1.491564    0.825883
      4         11           0        0.472365    0.639502   -1.512806
      5         11           0       -3.154101   -0.836365   -0.730161
      6         11           0        3.257527    1.904902   -0.515978
      7         11           0       -0.571214   -0.384616    2.091754
 ---------------------------------------------------------------------

 SCF Done:  E(UB3LYP) =  -1136.12248020     A.U. after   23 cycles

 The electronic state is 2-A.
 Alpha  occ. eigenvalues --  -38.44761 -38.44735 -38.44534 -38.44089 -38.44044
 Alpha  occ. eigenvalues --  -38.43471 -38.42707  -2.20610  -2.20514  -2.20371
 Alpha  occ. eigenvalues --   -2.19973  -2.19843  -2.19248  -2.18634  -1.14302
 Alpha  occ. eigenvalues --   -1.14274  -1.14226  -1.14194  -1.14159  -1.14145
 Alpha  occ. eigenvalues --   -1.14047  -1.14023  -1.13964  -1.13669  -1.13655
 Alpha  occ. eigenvalues --   -1.13604  -1.13498  -1.13489  -1.13468  -1.12918
 Alpha  occ. eigenvalues --   -1.12907  -1.12894  -1.12332  -1.12298  -1.12254
 Alpha  occ. eigenvalues --   -0.18016  -0.13526  -0.11488  -0.11195
 Alpha virt. eigenvalues --   -0.06377  -0.05857  -0.04016  -0.03323  -0.02909
 Alpha virt. eigenvalues --   -0.02679  -0.02167  -0.01434  -0.00583  -0.00243
 Alpha virt. eigenvalues --   -0.00055   0.00188   0.00519   0.00538   0.00660

  Beta  occ. eigenvalues --  -38.44743 -38.44712 -38.44454 -38.44043 -38.44033
  Beta  occ. eigenvalues --  -38.43465 -38.42691  -2.20580  -2.20471  -2.20223
  Beta  occ. eigenvalues --   -2.19889  -2.19826  -2.19239  -2.18608  -1.14284
  Beta  occ. eigenvalues --   -1.14242  -1.14199  -1.14159  -1.14132  -1.14111
  Beta  occ. eigenvalues --   -1.13950  -1.13926  -1.13848  -1.13610  -1.13596
  Beta  occ. eigenvalues --   -1.13553  -1.13482  -1.13470  -1.13447  -1.12908
  Beta  occ. eigenvalues --   -1.12898  -1.12887  -1.12314  -1.12287  -1.12202
  Beta  occ. eigenvalues --   -0.17341  -0.13282  -0.11162
  Beta virt. eigenvalues --   -0.07468  -0.06206  -0.05591  -0.03810  -0.02910
  Beta virt. eigenvalues --   -0.02286  -0.02061  -0.01822  -0.01190  -0.00526
  Beta virt. eigenvalues --   -0.00110  -0.00032   0.00249   0.00641   0.00693

 Mulliken charges and spin densities:
               1          2
     1  Na  -0.102351   0.048600
     2  Na   0.302167   0.184177
     3  Na   0.109030   0.174126
     4  Na  -0.252330   0.152795
     5  Na   0.272616  -0.046186
     6  Na   0.020881  -0.006506
     7  Na  -0.350013   0.492994
 Sum of Mulliken charges =  -0.00000   1.00000

 Dipole moment (field-independent basis, Debye):
    X=              0.2724    Y=             -0.2845    Z=              0.3403  Tot=              0.5205
 Quadrupole moment (field-independent basis, Debye-Ang):
   XX=            -52.9876   YY=            -70.2502   ZZ=            -71.8676
   XY=              0.2372   XZ=              3.5003   YZ=              0.0747

 Normal termination of Gaussian 16 at Tue Dec  5 18:44:56 2023.
