 Gaussian 16, Revision B.01,
 Gaussian 16:  ES64L-G16RevB.01 20-Dec-2017

 -------------------------
 #P B3LYP/6-311+g(d) force
 -------------------------

 -----
 DPGEN
 -----
 Symbolic Z-matrix:
 Charge =  0 Multiplicity = 2

                         Standard orientation:
 ---------------------------------------------------------------------
 Center     Atomic      Atomic             Coordinates (Angstroms)
 Number     Number       Type             X           Y           Z
 ---------------------------------------------------------------------
      1         11           0        1.868007   -0.817367    2.466435
      2         11           0        3.450188   -0.736355   -0.026372
      3         11           0       -2.850485   -0.774189   -0.712065
      4         11           0        2.945353    2.463884   -0.959254
      5         11           0       -5.488558    0.929352    0.642192
      6         11           0        0.123824   -2.016207   -1.534700
      7         11           0       -0.048329    0.950883    0.123765
 ---------------------------------------------------------------------

 SCF Done:  E(UB3LYP) =  -1136.10662725     A.U. after   28 cycles

 The electronic state is 2-A.
 Alpha  occ. eigenvalues --  -38.45208 -38.45126 -38.44897 -38.44510 -38.43673
 Alpha  occ. eigenvalues --  -38.43513 -38.43423  -2.21085  -2.21006  -2.20758
 Alpha  occ. eigenvalues --   -2.20306  -2.19501  -2.19337  -2.19278  -1.14902
 Alpha  occ. eigenvalues --   -1.14722  -1.14671  -1.14655  -1.14608  -1.14595
 Alpha  occ. eigenvalues --   -1.14488  -1.14422  -1.14369  -1.13944  -1.13942
 Alpha  occ. eigenvalues --   -1.13921  -1.13187  -1.13173  -1.13143  -1.12995
 Alpha  occ. eigenvalues --   -1.12991  -1.12970  -1.12964  -1.12958  -1.12904
 Alpha  occ. eigenvalues --   -0.17825  -0.14215  -0.11587  -0.11524
 Alpha virt. eigenvalues --   -0.07428  -0.05222  -0.04226  -0.03460  -0.03081
 Alpha virt. eigenvalues --   -0.02463  -0.02175  -0.01756  -0.01477  -0.00721
 Alpha virt. eigenvalues --   -0.00383  -0.00186   0.00109   0.00580   0.00667

  Beta  occ. eigenvalues --  -38.45116 -38.45103 -38.44902 -38.44412 -38.43681
  Beta  occ. eigenvalues --  -38.43471 -38.43422  -2.20996  -2.20888  -2.20772
  Beta  occ. eigenvalues --   -2.20123  -2.19519  -2.19283  -2.19260  -1.14814
  Beta  occ. eigenvalues --   -1.14654  -1.14624  -1.14579  -1.14533  -1.14508
  Beta  occ. eigenvalues --   -1.14464  -1.14442  -1.14390  -1.13818  -1.13817
  Beta  occ. eigenvalues --   -1.13801  -1.13200  -1.13173  -1.13158  -1.12983
  Beta  occ. eigenvalues --   -1.12966  -1.12941  -1.12933  -1.12920  -1.12858
  Beta  occ. eigenvalues --   -0.17407  -0.13385  -0.10939
  Beta virt. eigenvalues --   -0.08056  -0.07422  -0.04876  -0.03996  -0.03015
  Beta virt. eigenvalues --   -0.02937  -0.02206  -0.01827  -0.01435  -0.00911
  Beta virt. eigenvalues --   -0.00464  -0.00187   0.00022   0.00118   0.00633

 Mulliken charges and spin densities:
               1          2
     1  Na   0.037647   0.214593
     2  Na   0.806707   0.340291
     3  Na  -0.530681   0.332061
     4  Na   0.454554   0.120166
     5  Na   0.300828   0.299418
     6  Na   0.367303  -0.265220
     7  Na  -1.436357  -0.041309
 Sum of Mulliken charges =  -0.00000   1.00000

 Dipole moment (field-independent basis, Debye):
    X=              0.8303    Y=             -0.3746    Z=              0.3579  Tot=              0.9787
 Quadrupole moment (field-independent basis, Debye-Ang):
   XX=            -63.1746   YY=            -71.9452   ZZ=            -67.4625
   XY=             -3.5998   XZ=             -3.3416   YZ=              2.8985

 Normal termination of Gaussian 16 at Tue Nov 28 22:41:49 2023.
