 Gaussian 16, Revision B.01,
 Gaussian 16:  ES64L-G16RevB.01 20-Dec-2017

 -------------------------
 #P B3LYP/6-311+g(d) force
 -------------------------

 -----
 DPGEN
 -----
 Symbolic Z-matrix:
 Charge =  0 Multiplicity = 2

                         Standard orientation:
 ---------------------------------------------------------------------
 Center     Atomic      Atomic             Coordinates (Angstroms)
 Number     Number       Type             X           Y           Z
 ---------------------------------------------------------------------
      1         11           0       -0.016837   -1.869816   -1.464553
      2         11           0        3.270961   -1.176174    0.668725
      3         11           0        0.095409    3.316537    0.610825
      4         11           0       -1.829688    1.073626   -1.136006
      5         11           0       -3.075680   -1.371314    0.679004
      6         11           0       -0.181655   -0.624669    1.759075
      7         11           0        1.737491    0.651810   -1.117071
 ---------------------------------------------------------------------

 SCF Done:  E(UB3LYP) =  -1136.13128099     A.U. after   19 cycles

 The electronic state is 2-A.
 Alpha  occ. eigenvalues --  -38.44178 -38.43955 -38.43917 -38.43813 -38.43420
 Alpha  occ. eigenvalues --  -38.43262 -38.42960  -2.20021  -2.19868  -2.19826
 Alpha  occ. eigenvalues --   -2.19672  -2.19325  -2.19239  -2.18764  -1.13748
 Alpha  occ. eigenvalues --   -1.13665  -1.13642  -1.13607  -1.13540  -1.13496
 Alpha  occ. eigenvalues --   -1.13482  -1.13456  -1.13453  -1.13342  -1.13318
 Alpha  occ. eigenvalues --   -1.13289  -1.13026  -1.12992  -1.12946  -1.12930
 Alpha  occ. eigenvalues --   -1.12899  -1.12828  -1.12427  -1.12425  -1.12403
 Alpha  occ. eigenvalues --   -0.18736  -0.13293  -0.11918  -0.11331
 Alpha virt. eigenvalues --   -0.05863  -0.04753  -0.04511  -0.03450  -0.02915
 Alpha virt. eigenvalues --   -0.02624  -0.01754  -0.00930  -0.00628   0.00100
 Alpha virt. eigenvalues --    0.00313   0.00339   0.00552   0.00831   0.00832

  Beta  occ. eigenvalues --  -38.44169 -38.43891 -38.43852 -38.43802 -38.43399
  Beta  occ. eigenvalues --  -38.43237 -38.42954  -2.20005  -2.19756  -2.19708
  Beta  occ. eigenvalues --   -2.19656  -2.19289  -2.19199  -2.18754  -1.13740
  Beta  occ. eigenvalues --   -1.13642  -1.13630  -1.13528  -1.13455  -1.13415
  Beta  occ. eigenvalues --   -1.13398  -1.13381  -1.13369  -1.13331  -1.13280
  Beta  occ. eigenvalues --   -1.13270  -1.12995  -1.12950  -1.12912  -1.12903
  Beta  occ. eigenvalues --   -1.12849  -1.12803  -1.12420  -1.12411  -1.12398
  Beta  occ. eigenvalues --   -0.17938  -0.13086  -0.11766
  Beta virt. eigenvalues --   -0.07336  -0.05743  -0.04520  -0.04311  -0.02925
  Beta virt. eigenvalues --   -0.02382  -0.01720  -0.01625  -0.00874  -0.00262
  Beta virt. eigenvalues --    0.00099   0.00347   0.00442   0.00678   0.00845

 Mulliken charges and spin densities:
               1          2
     1  Na  -0.335900   0.189030
     2  Na  -0.053722  -0.164022
     3  Na  -0.017218  -0.214797
     4  Na  -0.108728   0.223925
     5  Na   0.539666  -0.096492
     6  Na  -0.443534   0.662003
     7  Na   0.419437   0.400352
 Sum of Mulliken charges =  -0.00000   1.00000

 Dipole moment (field-independent basis, Debye):
    X=              0.0027    Y=             -0.6754    Z=              0.2860  Tot=              0.7335
 Quadrupole moment (field-independent basis, Debye-Ang):
   XX=            -56.4897   YY=            -68.1234   ZZ=            -69.2091
   XY=              0.0885   XZ=              1.7616   YZ=              1.4511

 Normal termination of Gaussian 16 at Mon Dec  4 00:14:51 2023.
