 Gaussian 16, Revision B.01,
 Gaussian 16:  ES64L-G16RevB.01 20-Dec-2017

 -------------------------
 #P B3LYP/6-311+g(d) force
 -------------------------

 -----
 DPGEN
 -----
 Symbolic Z-matrix:
 Charge =  0 Multiplicity = 2

                         Standard orientation:
 ---------------------------------------------------------------------
 Center     Atomic      Atomic             Coordinates (Angstroms)
 Number     Number       Type             X           Y           Z
 ---------------------------------------------------------------------
      1         11           0       -0.107850    0.268805    2.019564
      2         11           0        3.233465   -0.719569    1.237998
      3         11           0        1.596703   -1.293145   -1.752065
      4         11           0       -4.063196   -0.148552    0.511500
      5         11           0        1.939124    2.199035   -0.502698
      6         11           0       -1.092090   -2.195505   -0.520053
      7         11           0       -1.506156    1.888931   -0.994246
 ---------------------------------------------------------------------

 SCF Done:  E(UB3LYP) =  -1136.12507449     A.U. after   23 cycles

 The electronic state is 2-A.
 Alpha  occ. eigenvalues --  -38.45308 -38.44926 -38.44875 -38.43571 -38.43305
 Alpha  occ. eigenvalues --  -38.43205 -38.43125  -2.21068  -2.20745  -2.20690
 Alpha  occ. eigenvalues --   -2.19387  -2.19179  -2.19033  -2.18963  -1.14744
 Alpha  occ. eigenvalues --   -1.14724  -1.14695  -1.14431  -1.14392  -1.14376
 Alpha  occ. eigenvalues --   -1.14346  -1.14326  -1.14321  -1.13071  -1.13055
 Alpha  occ. eigenvalues --   -1.13008  -1.12910  -1.12813  -1.12808  -1.12708
 Alpha  occ. eigenvalues --   -1.12689  -1.12671  -1.12645  -1.12636  -1.12562
 Alpha  occ. eigenvalues --   -0.17895  -0.13581  -0.11355  -0.11239
 Alpha virt. eigenvalues --   -0.06972  -0.05090  -0.04425  -0.03309  -0.02925
 Alpha virt. eigenvalues --   -0.02587  -0.02486  -0.01135  -0.00733  -0.00244
 Alpha virt. eigenvalues --    0.00129   0.00162   0.00226   0.00673   0.00775

  Beta  occ. eigenvalues --  -38.45304 -38.44866 -38.44839 -38.43548 -38.43259
  Beta  occ. eigenvalues --  -38.43190 -38.43115  -2.21061  -2.20635  -2.20625
  Beta  occ. eigenvalues --   -2.19347  -2.19095  -2.19009  -2.18948  -1.14735
  Beta  occ. eigenvalues --   -1.14721  -1.14690  -1.14358  -1.14313  -1.14303
  Beta  occ. eigenvalues --   -1.14297  -1.14282  -1.14255  -1.13046  -1.13023
  Beta  occ. eigenvalues --   -1.12973  -1.12854  -1.12757  -1.12747  -1.12684
  Beta  occ. eigenvalues --   -1.12672  -1.12646  -1.12634  -1.12608  -1.12546
  Beta  occ. eigenvalues --   -0.17214  -0.13411  -0.11020
  Beta virt. eigenvalues --   -0.07493  -0.06759  -0.04984  -0.03938  -0.03083
  Beta virt. eigenvalues --   -0.02440  -0.02181  -0.01730  -0.00949  -0.00513
  Beta virt. eigenvalues --   -0.00200   0.00171   0.00200   0.00363   0.00760

 Mulliken charges and spin densities:
               1          2
     1  Na  -0.246071   0.519725
     2  Na   0.369018   0.046984
     3  Na   0.055743   0.351861
     4  Na   0.638739   0.036650
     5  Na  -0.120249   0.079637
     6  Na  -0.383370  -0.093048
     7  Na  -0.313810   0.058191
 Sum of Mulliken charges =  -0.00000   1.00000

 Dipole moment (field-independent basis, Debye):
    X=             -0.6063    Y=              0.0440    Z=              0.7113  Tot=              0.9356
 Quadrupole moment (field-independent basis, Debye-Ang):
   XX=            -45.8651   YY=            -78.3562   ZZ=            -69.4945
   XY=             -0.1351   XZ=             -0.5660   YZ=             -2.6932

 Normal termination of Gaussian 16 at Fri Dec  8 07:27:12 2023.
