 Gaussian 16, Revision B.01,
 Gaussian 16:  ES64L-G16RevB.01 20-Dec-2017

 -------------------------
 #P B3LYP/6-311+g(d) force
 -------------------------

 -----
 DPGEN
 -----
 Symbolic Z-matrix:
 Charge =  0 Multiplicity = 2

                         Standard orientation:
 ---------------------------------------------------------------------
 Center     Atomic      Atomic             Coordinates (Angstroms)
 Number     Number       Type             X           Y           Z
 ---------------------------------------------------------------------
      1         11           0       -3.364178   -0.249356   -0.243390
      2         11           0        3.693923    0.329097   -0.044433
      3         11           0        1.413237    3.001687    0.455983
      4         11           0       -2.031148    2.808473   -0.140075
      5         11           0        1.828733   -2.788596   -0.318442
      6         11           0       -1.521607   -2.960504    0.662663
      7         11           0       -0.018959   -0.140801   -0.372307
 ---------------------------------------------------------------------

 SCF Done:  E(UB3LYP) =  -1136.12791965     A.U. after   64 cycles

 The electronic state is 2-A.
 Alpha  occ. eigenvalues --  -38.44432 -38.44204 -38.44117 -38.43895 -38.43723
 Alpha  occ. eigenvalues --  -38.43430 -38.43053  -2.20267  -2.20040  -2.19925
 Alpha  occ. eigenvalues --   -2.19838  -2.19599  -2.19301  -2.18903  -1.13979
 Alpha  occ. eigenvalues --   -1.13945  -1.13879  -1.13720  -1.13713  -1.13682
 Alpha  occ. eigenvalues --   -1.13600  -1.13573  -1.13569  -1.13561  -1.13485
 Alpha  occ. eigenvalues --   -1.13481  -1.13262  -1.13252  -1.13234  -1.12955
 Alpha  occ. eigenvalues --   -1.12943  -1.12934  -1.12558  -1.12547  -1.12538
 Alpha  occ. eigenvalues --   -0.17574  -0.13760  -0.13628  -0.09397
 Alpha virt. eigenvalues --   -0.06803  -0.05719  -0.04361  -0.03060  -0.02660
 Alpha virt. eigenvalues --   -0.02278  -0.01929  -0.01621  -0.01452  -0.00222
 Alpha virt. eigenvalues --    0.00140   0.00401   0.00435   0.00650   0.00781

  Beta  occ. eigenvalues --  -38.44418 -38.44187 -38.44086 -38.43908 -38.43686
  Beta  occ. eigenvalues --  -38.43383 -38.42996  -2.20249  -2.20016  -2.19870
  Beta  occ. eigenvalues --   -2.19858  -2.19535  -2.19215  -2.18797  -1.13974
  Beta  occ. eigenvalues --   -1.13937  -1.13819  -1.13711  -1.13704  -1.13609
  Beta  occ. eigenvalues --   -1.13576  -1.13565  -1.13541  -1.13507  -1.13500
  Beta  occ. eigenvalues --   -1.13499  -1.13221  -1.13215  -1.13164  -1.12896
  Beta  occ. eigenvalues --   -1.12885  -1.12877  -1.12485  -1.12477  -1.12467
  Beta  occ. eigenvalues --   -0.17316  -0.13122  -0.12928
  Beta virt. eigenvalues --   -0.06896  -0.06153  -0.05423  -0.04227  -0.02483
  Beta virt. eigenvalues --   -0.02191  -0.01957  -0.01872  -0.01332  -0.01189
  Beta virt. eigenvalues --   -0.00107   0.00404   0.00452   0.00559   0.00733

 Mulliken charges and spin densities:
               1          2
     1  Na   0.657797   0.210136
     2  Na   0.745684   0.219733
     3  Na   0.137191   0.278335
     4  Na   1.184101   0.114370
     5  Na   1.075763   0.120580
     6  Na   0.646168   0.235890
     7  Na  -4.446703  -0.179044
 Sum of Mulliken charges =  -0.00000   1.00000

 Dipole moment (field-independent basis, Debye):
    X=             -0.0367    Y=             -0.4376    Z=              0.1727  Tot=              0.4719
 Quadrupole moment (field-independent basis, Debye-Ang):
   XX=            -62.3959   YY=            -62.7036   ZZ=            -72.0817
   XY=              0.7011   XZ=             -0.2828   YZ=              0.0615

 Normal termination of Gaussian 16 at Wed Nov 29 15:49:10 2023.
