 Gaussian 16, Revision B.01,
 Gaussian 16:  ES64L-G16RevB.01 20-Dec-2017

 -------------------------
 #P B3LYP/6-311+g(d) force
 -------------------------

 -----
 DPGEN
 -----
 Symbolic Z-matrix:
 Charge =  0 Multiplicity = 2

                         Standard orientation:
 ---------------------------------------------------------------------
 Center     Atomic      Atomic             Coordinates (Angstroms)
 Number     Number       Type             X           Y           Z
 ---------------------------------------------------------------------
      1         11           0        2.175637   -0.458526   -0.716263
      2         11           0        2.928202   -3.228658    0.663895
      3         11           0       -2.650465    0.283499   -0.975281
      4         11           0        2.854160    3.399427    0.985970
      5         11           0       -5.300546   -0.022133    1.059938
      6         11           0       -0.313593   -2.217413   -0.234926
      7         11           0        0.306606    2.243804   -0.783333
 ---------------------------------------------------------------------

 SCF Done:  E(UB3LYP) =  -1136.12033886     A.U. after   19 cycles

 The electronic state is 2-A.
 Alpha  occ. eigenvalues --  -38.44835 -38.44563 -38.44220 -38.44192 -38.44074
 Alpha  occ. eigenvalues --  -38.43689 -38.43049  -2.20686  -2.20465  -2.20027
 Alpha  occ. eigenvalues --   -2.20007  -2.19877  -2.19546  -2.18885  -1.14436
 Alpha  occ. eigenvalues --   -1.14368  -1.14277  -1.14167  -1.14150  -1.14067
 Alpha  occ. eigenvalues --   -1.13691  -1.13676  -1.13669  -1.13662  -1.13639
 Alpha  occ. eigenvalues --   -1.13628  -1.13513  -1.13512  -1.13495  -1.13247
 Alpha  occ. eigenvalues --   -1.13220  -1.13153  -1.12575  -1.12562  -1.12530
 Alpha  occ. eigenvalues --   -0.17148  -0.13536  -0.13000  -0.10593
 Alpha virt. eigenvalues --   -0.06264  -0.05686  -0.04263  -0.04015  -0.02738
 Alpha virt. eigenvalues --   -0.02079  -0.01969  -0.01557  -0.01229  -0.00740
 Alpha virt. eigenvalues --   -0.00268  -0.00117   0.00077   0.00430   0.00613

  Beta  occ. eigenvalues --  -38.44823 -38.44559 -38.44181 -38.44164 -38.43970
  Beta  occ. eigenvalues --  -38.43679 -38.43046  -2.20665  -2.20463  -2.19975
  Beta  occ. eigenvalues --   -2.19935  -2.19684  -2.19532  -2.18889  -1.14419
  Beta  occ. eigenvalues --   -1.14355  -1.14255  -1.14153  -1.14125  -1.14075
  Beta  occ. eigenvalues --   -1.13654  -1.13640  -1.13620  -1.13612  -1.13609
  Beta  occ. eigenvalues --   -1.13583  -1.13382  -1.13380  -1.13370  -1.13240
  Beta  occ. eigenvalues --   -1.13214  -1.13116  -1.12587  -1.12573  -1.12470
  Beta  occ. eigenvalues --   -0.16677  -0.13021  -0.12513
  Beta virt. eigenvalues --   -0.07295  -0.05925  -0.05311  -0.04030  -0.03752
  Beta virt. eigenvalues --   -0.02650  -0.01842  -0.01387  -0.01341  -0.00989
  Beta virt. eigenvalues --   -0.00509   0.00029   0.00093   0.00294   0.00569

 Mulliken charges and spin densities:
               1          2
     1  Na  -0.906598   0.044332
     2  Na   0.670009   0.162807
     3  Na  -0.353757  -0.129572
     4  Na   0.434292   0.299248
     5  Na   0.010096   0.570151
     6  Na   0.131059   0.064662
     7  Na   0.014900  -0.011629
 Sum of Mulliken charges =  -0.00000   1.00000

 Dipole moment (field-independent basis, Debye):
    X=              1.5471    Y=             -0.8637    Z=              0.5515  Tot=              1.8557
 Quadrupole moment (field-independent basis, Debye-Ang):
   XX=            -68.1756   YY=            -61.6142   ZZ=            -68.6092
   XY=             -0.9832   XZ=              1.6242   YZ=             -0.8655

 Normal termination of Gaussian 16 at Wed Nov 29 01:09:26 2023.
