 Gaussian 16, Revision B.01,
 Gaussian 16:  ES64L-G16RevB.01 20-Dec-2017

 -------------------------
 #P B3LYP/6-311+g(d) force
 -------------------------

 -----
 DPGEN
 -----
 Symbolic Z-matrix:
 Charge =  0 Multiplicity = 2

                         Standard orientation:
 ---------------------------------------------------------------------
 Center     Atomic      Atomic             Coordinates (Angstroms)
 Number     Number       Type             X           Y           Z
 ---------------------------------------------------------------------
      1         11           0       -0.299670   -0.490396    1.904118
      2         11           0       -2.648179    1.845435    0.014245
      3         11           0        1.062112   -2.523714   -0.065357
      4         11           0        0.839702    2.630841    0.017723
      5         11           0        0.197122   -0.108473   -1.715900
      6         11           0        3.190116    0.373066    0.115455
      7         11           0       -2.341203   -1.726758   -0.270284
 ---------------------------------------------------------------------

 SCF Done:  E(UB3LYP) =  -1136.13671232     A.U. after   19 cycles

 The electronic state is 2-A.
 Alpha  occ. eigenvalues --  -38.43994 -38.43794 -38.43765 -38.43425 -38.43313
 Alpha  occ. eigenvalues --  -38.43308 -38.43217  -2.19832  -2.19653  -2.19598
 Alpha  occ. eigenvalues --   -2.19370  -2.19248  -2.19217  -2.19174  -1.13508
 Alpha  occ. eigenvalues --   -1.13495  -1.13477  -1.13357  -1.13334  -1.13283
 Alpha  occ. eigenvalues --   -1.13269  -1.13253  -1.13236  -1.13094  -1.13029
 Alpha  occ. eigenvalues --   -1.13003  -1.12986  -1.12919  -1.12881  -1.12853
 Alpha  occ. eigenvalues --   -1.12841  -1.12837  -1.12808  -1.12797  -1.12792
 Alpha  occ. eigenvalues --   -0.18970  -0.13094  -0.12592  -0.10744
 Alpha virt. eigenvalues --   -0.05547  -0.05336  -0.04542  -0.03170  -0.02880
 Alpha virt. eigenvalues --   -0.02467  -0.01538  -0.01128  -0.00244  -0.00201
 Alpha virt. eigenvalues --   -0.00004   0.00352   0.00812   0.00882   0.00925

  Beta  occ. eigenvalues --  -38.43992 -38.43795 -38.43755 -38.43340 -38.43304
  Beta  occ. eigenvalues --  -38.43301 -38.43141  -2.19832  -2.19639  -2.19601
  Beta  occ. eigenvalues --   -2.19231  -2.19213  -2.19169  -2.19080  -1.13510
  Beta  occ. eigenvalues --   -1.13483  -1.13471  -1.13348  -1.13289  -1.13281
  Beta  occ. eigenvalues --   -1.13258  -1.13253  -1.13238  -1.13035  -1.12956
  Beta  occ. eigenvalues --   -1.12903  -1.12884  -1.12874  -1.12835  -1.12818
  Beta  occ. eigenvalues --   -1.12815  -1.12799  -1.12774  -1.12717  -1.12714
  Beta  occ. eigenvalues --   -0.18226  -0.12868  -0.12343
  Beta virt. eigenvalues --   -0.06794  -0.05508  -0.05336  -0.04504  -0.02386
  Beta virt. eigenvalues --   -0.02096  -0.01463  -0.01406  -0.01068  -0.00307
  Beta virt. eigenvalues --   -0.00231   0.00137   0.00380   0.00859   0.00886

 Mulliken charges and spin densities:
               1          2
     1  Na  -0.550438   0.778525
     2  Na  -0.099828  -0.102475
     3  Na   0.531677  -0.048658
     4  Na   0.022986  -0.101455
     5  Na  -0.321403   0.603711
     6  Na   0.043228  -0.055841
     7  Na   0.373777  -0.073807
 Sum of Mulliken charges =  -0.00000   1.00000

 Dipole moment (field-independent basis, Debye):
    X=             -0.0299    Y=             -0.0188    Z=              0.0972  Tot=              0.1034
 Quadrupole moment (field-independent basis, Debye-Ang):
   XX=            -55.2937   YY=            -63.7767   ZZ=            -74.3654
   XY=             -0.2926   XZ=              1.1038   YZ=              0.8331

 Normal termination of Gaussian 16 at Tue Dec  5 19:43:18 2023.
