 Gaussian 16, Revision B.01,
 Gaussian 16:  ES64L-G16RevB.01 20-Dec-2017

 -------------------------
 #P B3LYP/6-311+g(d) force
 -------------------------

 -----
 DPGEN
 -----
 Symbolic Z-matrix:
 Charge =  0 Multiplicity = 2

                         Standard orientation:
 ---------------------------------------------------------------------
 Center     Atomic      Atomic             Coordinates (Angstroms)
 Number     Number       Type             X           Y           Z
 ---------------------------------------------------------------------
      1         11           0       -2.693875    1.890448    0.068241
      2         11           0        1.145407    2.428962   -0.470328
      3         11           0        4.697492   -0.005588    0.492989
      4         11           0        2.152103   -1.805434   -0.491031
      5         11           0       -0.190786   -0.100484   -0.020278
      6         11           0       -2.409432   -1.030936    2.041672
      7         11           0       -2.700909   -1.376969   -1.621264
 ---------------------------------------------------------------------

 SCF Done:  E(UB3LYP) =  -1136.10263347     A.U. after   28 cycles

 The electronic state is 2-A.
 Alpha  occ. eigenvalues --  -38.45422 -38.44734 -38.44359 -38.44344 -38.44229
 Alpha  occ. eigenvalues --  -38.43260 -38.42974  -2.21199  -2.20561  -2.20200
 Alpha  occ. eigenvalues --   -2.20183  -2.20090  -2.19401  -2.18811  -1.14859
 Alpha  occ. eigenvalues --   -1.14851  -1.14819  -1.14239  -1.14208  -1.14177
 Alpha  occ. eigenvalues --   -1.13978  -1.13881  -1.13869  -1.13845  -1.13800
 Alpha  occ. eigenvalues --   -1.13796  -1.13787  -1.13704  -1.13691  -1.13118
 Alpha  occ. eigenvalues --   -1.13069  -1.13052  -1.12507  -1.12461  -1.12386
 Alpha  occ. eigenvalues --   -0.17999  -0.14235  -0.11056  -0.10459
 Alpha virt. eigenvalues --   -0.07627  -0.05529  -0.04041  -0.03177  -0.02954
 Alpha virt. eigenvalues --   -0.02102  -0.01992  -0.01705  -0.00791  -0.00604
 Alpha virt. eigenvalues --   -0.00188   0.00079   0.00247   0.00610   0.00664

  Beta  occ. eigenvalues --  -38.45376 -38.44688 -38.44362 -38.44339 -38.44162
  Beta  occ. eigenvalues --  -38.43233 -38.42966  -2.21113  -2.20477  -2.20208
  Beta  occ. eigenvalues --   -2.20178  -2.19966  -2.19356  -2.18797  -1.14799
  Beta  occ. eigenvalues --   -1.14792  -1.14762  -1.14179  -1.14150  -1.14112
  Beta  occ. eigenvalues --   -1.13975  -1.13881  -1.13850  -1.13847  -1.13794
  Beta  occ. eigenvalues --   -1.13773  -1.13713  -1.13620  -1.13600  -1.13082
  Beta  occ. eigenvalues --   -1.13049  -1.12983  -1.12493  -1.12447  -1.12380
  Beta  occ. eigenvalues --   -0.17448  -0.13794  -0.10885
  Beta virt. eigenvalues --   -0.07238  -0.06777  -0.05474  -0.03663  -0.02955
  Beta virt. eigenvalues --   -0.02789  -0.01557  -0.01502  -0.01403  -0.00515
  Beta virt. eigenvalues --   -0.00393  -0.00038   0.00115   0.00440   0.00673

 Mulliken charges and spin densities:
               1          2
     1  Na   1.604395   0.117075
     2  Na   0.415914  -0.198784
     3  Na   0.032401   0.230807
     4  Na   0.724039   0.122372
     5  Na  -3.638758   0.234748
     6  Na   0.398103   0.392971
     7  Na   0.463906   0.100812
 Sum of Mulliken charges =  -0.00000   1.00000

 Dipole moment (field-independent basis, Debye):
    X=              0.1032    Y=              0.0770    Z=             -0.2073  Tot=              0.2440
 Quadrupole moment (field-independent basis, Debye-Ang):
   XX=            -48.5333   YY=            -73.4126   ZZ=            -69.9047
   XY=              1.5359   XZ=              5.3701   YZ=             -0.4242

 Normal termination of Gaussian 16 at Fri Dec  8 17:34:08 2023.
