 Gaussian 16, Revision B.01,
 Gaussian 16:  ES64L-G16RevB.01 20-Dec-2017

 -------------------------
 #P B3LYP/6-311+g(d) force
 -------------------------

 -----
 DPGEN
 -----
 Symbolic Z-matrix:
 Charge =  0 Multiplicity = 2

                         Standard orientation:
 ---------------------------------------------------------------------
 Center     Atomic      Atomic             Coordinates (Angstroms)
 Number     Number       Type             X           Y           Z
 ---------------------------------------------------------------------
      1         11           0       -2.269000   -1.810700   -0.220079
      2         11           0       -2.442575    1.741453    0.112722
      3         11           0       -0.251127   -0.121276   -1.704283
      4         11           0        0.026786   -0.047456    2.038528
      5         11           0        0.966247   -2.625304    0.131326
      6         11           0        3.086880    0.056706   -0.234696
      7         11           0        0.882789    2.806577   -0.123518
 ---------------------------------------------------------------------

 SCF Done:  E(UB3LYP) =  -1136.14026765     A.U. after   19 cycles

 The electronic state is 2-A.
 Alpha  occ. eigenvalues --  -38.43644 -38.43608 -38.43583 -38.43509 -38.43490
 Alpha  occ. eigenvalues --  -38.43302 -38.43258  -2.19519  -2.19475  -2.19435
 Alpha  occ. eigenvalues --   -2.19395  -2.19349  -2.19261  -2.19204  -1.13205
 Alpha  occ. eigenvalues --   -1.13178  -1.13160  -1.13148  -1.13147  -1.13130
 Alpha  occ. eigenvalues --   -1.13126  -1.13118  -1.13094  -1.13082  -1.13042
 Alpha  occ. eigenvalues --   -1.13028  -1.13015  -1.13011  -1.12973  -1.12933
 Alpha  occ. eigenvalues --   -1.12896  -1.12872  -1.12860  -1.12837  -1.12822
 Alpha  occ. eigenvalues --   -0.18959  -0.12823  -0.12777  -0.10949
 Alpha virt. eigenvalues --   -0.05245  -0.05062  -0.04843  -0.03115  -0.03081
 Alpha virt. eigenvalues --   -0.02670  -0.01264  -0.01108  -0.00243  -0.00187
 Alpha virt. eigenvalues --   -0.00004   0.00371   0.00875   0.00921   0.00932

  Beta  occ. eigenvalues --  -38.43641 -38.43578 -38.43513 -38.43506 -38.43481
  Beta  occ. eigenvalues --  -38.43294 -38.43189  -2.19472  -2.19430  -2.19383
  Beta  occ. eigenvalues --   -2.19348  -2.19342  -2.19194  -2.19135  -1.13161
  Beta  occ. eigenvalues --   -1.13144  -1.13133  -1.13120  -1.13116  -1.13087
  Beta  occ. eigenvalues --   -1.13081  -1.13071  -1.13033  -1.13017  -1.13013
  Beta  occ. eigenvalues --   -1.13013  -1.12999  -1.12992  -1.12973  -1.12892
  Beta  occ. eigenvalues --   -1.12835  -1.12826  -1.12820  -1.12776  -1.12769
  Beta  occ. eigenvalues --   -0.18210  -0.12579  -0.12523
  Beta virt. eigenvalues --   -0.07000  -0.05252  -0.05052  -0.04784  -0.02309
  Beta virt. eigenvalues --   -0.02267  -0.01599  -0.01189  -0.01036  -0.00299
  Beta virt. eigenvalues --   -0.00236   0.00122   0.00388   0.00901   0.00916

 Mulliken charges and spin densities:
               1          2
     1  Na   0.426602  -0.026208
     2  Na   0.123778  -0.069880
     3  Na  -0.344879   0.543378
     4  Na  -0.501216   0.737741
     5  Na   0.297508  -0.006143
     6  Na  -0.013148  -0.082437
     7  Na   0.011355  -0.096451
 Sum of Mulliken charges =  -0.00000   1.00000

 Dipole moment (field-independent basis, Debye):
    X=             -0.0126    Y=              0.1168    Z=              0.1449  Tot=              0.1866
 Quadrupole moment (field-independent basis, Debye-Ang):
   XX=            -59.0472   YY=            -61.6784   ZZ=            -73.3156
   XY=             -0.0752   XZ=             -0.7065   YZ=             -0.1164

 Normal termination of Gaussian 16 at Tue Dec  5 12:19:37 2023.
