 Gaussian 16, Revision B.01,
 Gaussian 16:  ES64L-G16RevB.01 20-Dec-2017

 -------------------------
 #P B3LYP/6-311+g(d) force
 -------------------------

 -----
 DPGEN
 -----
 Symbolic Z-matrix:
 Charge =  0 Multiplicity = 2

                         Standard orientation:
 ---------------------------------------------------------------------
 Center     Atomic      Atomic             Coordinates (Angstroms)
 Number     Number       Type             X           Y           Z
 ---------------------------------------------------------------------
      1         11           0       -2.175436    2.161295    0.097203
      2         11           0        1.945391    2.408801    0.188878
      3         11           0        0.264023    0.485390   -1.591453
      4         11           0        0.284162   -0.101974    1.686885
      5         11           0       -0.466398   -2.680817    0.104935
      6         11           0       -3.008711   -0.947344   -0.222115
      7         11           0        3.156968   -1.325351   -0.264333
 ---------------------------------------------------------------------

 SCF Done:  E(UB3LYP) =  -1136.13146048     A.U. after   23 cycles

 The electronic state is 2-A.
 Alpha  occ. eigenvalues --  -38.44686 -38.44053 -38.43942 -38.43891 -38.43205
 Alpha  occ. eigenvalues --  -38.43130 -38.42893  -2.20468  -2.19901  -2.19815
 Alpha  occ. eigenvalues --   -2.19730  -2.19105  -2.19100  -2.18874  -1.14143
 Alpha  occ. eigenvalues --   -1.14113  -1.14110  -1.13611  -1.13572  -1.13527
 Alpha  occ. eigenvalues --   -1.13510  -1.13494  -1.13462  -1.13398  -1.13383
 Alpha  occ. eigenvalues --   -1.13351  -1.12844  -1.12806  -1.12765  -1.12740
 Alpha  occ. eigenvalues --   -1.12722  -1.12700  -1.12552  -1.12495  -1.12472
 Alpha  occ. eigenvalues --   -0.18759  -0.13350  -0.12384  -0.10190
 Alpha virt. eigenvalues --   -0.06156  -0.05585  -0.04355  -0.03123  -0.02641
 Alpha virt. eigenvalues --   -0.01975  -0.01969  -0.01371  -0.00547  -0.00257
 Alpha virt. eigenvalues --    0.00015   0.00313   0.00744   0.00773   0.00897

  Beta  occ. eigenvalues --  -38.44678 -38.44044 -38.43938 -38.43888 -38.43197
  Beta  occ. eigenvalues --  -38.43071 -38.42810  -2.20455  -2.19889  -2.19811
  Beta  occ. eigenvalues --   -2.19727  -2.19093  -2.18993  -2.18724  -1.14117
  Beta  occ. eigenvalues --   -1.14105  -1.14104  -1.13602  -1.13539  -1.13530
  Beta  occ. eigenvalues --   -1.13503  -1.13493  -1.13437  -1.13388  -1.13372
  Beta  occ. eigenvalues --   -1.13347  -1.12820  -1.12739  -1.12731  -1.12711
  Beta  occ. eigenvalues --   -1.12666  -1.12620  -1.12451  -1.12386  -1.12367
  Beta  occ. eigenvalues --   -0.18066  -0.13101  -0.12135
  Beta virt. eigenvalues --   -0.06383  -0.06083  -0.05536  -0.04347  -0.02374
  Beta virt. eigenvalues --   -0.01945  -0.01813  -0.01310  -0.00989  -0.00596
  Beta virt. eigenvalues --   -0.00286   0.00158   0.00356   0.00776   0.00797

 Mulliken charges and spin densities:
               1          2
     1  Na   0.315623  -0.011732
     2  Na   0.180858  -0.125622
     3  Na  -0.488092   0.614160
     4  Na  -0.319262   0.581110
     5  Na   0.322148   0.004683
     6  Na  -0.061407  -0.005267
     7  Na   0.050132  -0.057332
 Sum of Mulliken charges =  -0.00000   1.00000

 Dipole moment (field-independent basis, Debye):
    X=              0.5106    Y=              0.2132    Z=              0.0053  Tot=              0.5534
 Quadrupole moment (field-independent basis, Debye-Ang):
   XX=            -51.7088   YY=            -62.4233   ZZ=            -77.2222
   XY=             -0.6814   XZ=              0.0058   YZ=              1.5369

 Normal termination of Gaussian 16 at Thu Dec  7 12:35:54 2023.
