 Gaussian 16, Revision B.01,
 Gaussian 16:  ES64L-G16RevB.01 20-Dec-2017

 -------------------------
 #P B3LYP/6-311+g(d) force
 -------------------------

 -----
 DPGEN
 -----
 Symbolic Z-matrix:
 Charge =  0 Multiplicity = 2

                         Standard orientation:
 ---------------------------------------------------------------------
 Center     Atomic      Atomic             Coordinates (Angstroms)
 Number     Number       Type             X           Y           Z
 ---------------------------------------------------------------------
      1         11           0        0.253597    0.004219    2.017176
      2         11           0       -2.512472    1.930415   -0.172500
      3         11           0        0.530018    2.000375   -1.015012
      4         11           0       -3.534551   -1.229062    0.436155
      5         11           0       -0.716641   -1.605871   -1.217730
      6         11           0        2.395618   -1.881657   -0.365353
      7         11           0        3.584430    0.781581    0.317263
 ---------------------------------------------------------------------

 SCF Done:  E(UB3LYP) =  -1136.11953672     A.U. after   24 cycles

 The electronic state is 2-A.
 Alpha  occ. eigenvalues --  -38.45410 -38.45046 -38.44802 -38.43933 -38.43902
 Alpha  occ. eigenvalues --  -38.43157 -38.42685  -2.21248  -2.20861  -2.20612
 Alpha  occ. eigenvalues --   -2.19786  -2.19775  -2.19042  -2.18561  -1.14958
 Alpha  occ. eigenvalues --   -1.14894  -1.14874  -1.14549  -1.14504  -1.14467
 Alpha  occ. eigenvalues --   -1.14281  -1.14277  -1.14251  -1.13477  -1.13465
 Alpha  occ. eigenvalues --   -1.13443  -1.13434  -1.13425  -1.13416  -1.12729
 Alpha  occ. eigenvalues --   -1.12685  -1.12674  -1.12246  -1.12207  -1.12198
 Alpha  occ. eigenvalues --   -0.18341  -0.14229  -0.11537  -0.10537
 Alpha virt. eigenvalues --   -0.07410  -0.05751  -0.03980  -0.03384  -0.02951
 Alpha virt. eigenvalues --   -0.02543  -0.02171  -0.01446  -0.00530  -0.00498
 Alpha virt. eigenvalues --    0.00061   0.00145   0.00354   0.00630   0.00668

  Beta  occ. eigenvalues --  -38.45402 -38.44978 -38.44796 -38.43929 -38.43888
  Beta  occ. eigenvalues --  -38.43112 -38.42654  -2.21236  -2.20735  -2.20602
  Beta  occ. eigenvalues --   -2.19772  -2.19766  -2.18961  -2.18505  -1.14955
  Beta  occ. eigenvalues --   -1.14875  -1.14859  -1.14459  -1.14420  -1.14372
  Beta  occ. eigenvalues --   -1.14274  -1.14270  -1.14239  -1.13457  -1.13455
  Beta  occ. eigenvalues --   -1.13432  -1.13427  -1.13409  -1.13384  -1.12677
  Beta  occ. eigenvalues --   -1.12615  -1.12611  -1.12211  -1.12162  -1.12149
  Beta  occ. eigenvalues --   -0.17670  -0.14056  -0.11239
  Beta virt. eigenvalues --   -0.07223  -0.06762  -0.05777  -0.03344  -0.03190
  Beta virt. eigenvalues --   -0.02719  -0.01937  -0.01412  -0.01301  -0.00533
  Beta virt. eigenvalues --   -0.00196   0.00101   0.00161   0.00534   0.00721

 Mulliken charges and spin densities:
               1          2
     1  Na  -0.430339   0.391778
     2  Na  -0.091165   0.008699
     3  Na  -0.355654   0.122560
     4  Na   0.604179   0.095047
     5  Na  -0.304617   0.168561
     6  Na  -0.271628   0.013677
     7  Na   0.849224   0.199678
 Sum of Mulliken charges =  -0.00000   1.00000

 Dipole moment (field-independent basis, Debye):
    X=              0.2075    Y=              0.0822    Z=              0.4937  Tot=              0.5418
 Quadrupole moment (field-independent basis, Debye-Ang):
   XX=            -44.7591   YY=            -75.6401   ZZ=            -74.0069
   XY=              1.2272   XZ=             -1.2456   YZ=             -0.3370

 Normal termination of Gaussian 16 at Thu Dec  7 11:52:11 2023.
