 Gaussian 16, Revision B.01,
 Gaussian 16:  ES64L-G16RevB.01 20-Dec-2017

 -------------------------
 #P B3LYP/6-311+g(d) force
 -------------------------

 -----
 DPGEN
 -----
 Symbolic Z-matrix:
 Charge =  0 Multiplicity = 2

                         Standard orientation:
 ---------------------------------------------------------------------
 Center     Atomic      Atomic             Coordinates (Angstroms)
 Number     Number       Type             X           Y           Z
 ---------------------------------------------------------------------
      1         11           0       -1.611399    2.725061   -0.714189
      2         11           0        2.691321   -1.015193   -0.580929
      3         11           0        1.957269    1.784819    0.917345
      4         11           0       -0.154428    0.268010    1.863244
      5         11           0       -2.955663   -1.368015    0.409674
      6         11           0        0.139262   -2.581978   -0.048816
      7         11           0       -0.066362    0.187296   -1.846329
 ---------------------------------------------------------------------

 SCF Done:  E(UB3LYP) =  -1136.12743730     A.U. after   19 cycles

 The electronic state is 2-A.
 Alpha  occ. eigenvalues --  -38.44008 -38.43871 -38.43864 -38.43827 -38.43788
 Alpha  occ. eigenvalues --  -38.43333 -38.43145  -2.19992  -2.19756  -2.19751
 Alpha  occ. eigenvalues --   -2.19685  -2.19674  -2.19260  -2.19082  -1.13900
 Alpha  occ. eigenvalues --   -1.13631  -1.13584  -1.13471  -1.13431  -1.13389
 Alpha  occ. eigenvalues --   -1.13369  -1.13361  -1.13341  -1.13331  -1.13330
 Alpha  occ. eigenvalues --   -1.13323  -1.13313  -1.13310  -1.13298  -1.12997
 Alpha  occ. eigenvalues --   -1.12921  -1.12885  -1.12754  -1.12745  -1.12677
 Alpha  occ. eigenvalues --   -0.19009  -0.12778  -0.12637  -0.11638
 Alpha virt. eigenvalues --   -0.05334  -0.05029  -0.04236  -0.03420  -0.03281
 Alpha virt. eigenvalues --   -0.02948  -0.01382  -0.01148  -0.00234   0.00099
 Alpha virt. eigenvalues --    0.00208   0.00330   0.00816   0.00884   0.00941

  Beta  occ. eigenvalues --  -38.43930 -38.43859 -38.43847 -38.43795 -38.43711
  Beta  occ. eigenvalues --  -38.43323 -38.43140  -2.19852  -2.19698  -2.19665
  Beta  occ. eigenvalues --   -2.19643  -2.19612  -2.19247  -2.19077  -1.13806
  Beta  occ. eigenvalues --   -1.13534  -1.13490  -1.13395  -1.13348  -1.13336
  Beta  occ. eigenvalues --   -1.13331  -1.13326  -1.13308  -1.13298  -1.13289
  Beta  occ. eigenvalues --   -1.13280  -1.13276  -1.13272  -1.13237  -1.12990
  Beta  occ. eigenvalues --   -1.12906  -1.12858  -1.12752  -1.12726  -1.12664
  Beta  occ. eigenvalues --   -0.18301  -0.12497  -0.12271
  Beta virt. eigenvalues --   -0.07704  -0.05285  -0.04920  -0.04164  -0.02689
  Beta virt. eigenvalues --   -0.02574  -0.01959  -0.01267  -0.01011  -0.00109
  Beta virt. eigenvalues --    0.00103   0.00222   0.00368   0.00883   0.00900

 Mulliken charges and spin densities:
               1          2
     1  Na  -0.177884   0.007544
     2  Na   0.197860   0.052841
     3  Na   0.422825   0.157129
     4  Na  -0.288604   0.295788
     5  Na  -0.029248  -0.068453
     6  Na   0.052078   0.117071
     7  Na  -0.177027   0.438079
 Sum of Mulliken charges =  -0.00000   1.00000

 Dipole moment (field-independent basis, Debye):
    X=             -0.3868    Y=              0.2279    Z=             -0.0657  Tot=              0.4537
 Quadrupole moment (field-independent basis, Debye-Ang):
   XX=            -59.2872   YY=            -64.9248   ZZ=            -71.0696
   XY=             -0.3095   XZ=             -0.3795   YZ=             -0.2652

 Normal termination of Gaussian 16 at Tue Dec  5 14:18:55 2023.
