 Gaussian 16, Revision B.01,
 Gaussian 16:  ES64L-G16RevB.01 20-Dec-2017

 -------------------------
 #P B3LYP/6-311+g(d) force
 -------------------------

 -----
 DPGEN
 -----
 Symbolic Z-matrix:
 Charge =  0 Multiplicity = 2

                         Standard orientation:
 ---------------------------------------------------------------------
 Center     Atomic      Atomic             Coordinates (Angstroms)
 Number     Number       Type             X           Y           Z
 ---------------------------------------------------------------------
      1         11           0        1.409232    2.711118    0.411086
      2         11           0        2.558561   -0.226829   -1.533453
      3         11           0        2.069417   -1.174420    1.556864
      4         11           0        0.086123   -2.223091   -0.935967
      5         11           0       -2.886788   -0.810202   -0.686568
      6         11           0       -1.678821    2.251691   -0.591131
      7         11           0       -1.557725   -0.528267    1.779168
 ---------------------------------------------------------------------

 SCF Done:  E(UB3LYP) =  -1136.12685522     A.U. after   19 cycles

 The electronic state is 2-A.
 Alpha  occ. eigenvalues --  -38.44265 -38.44185 -38.44104 -38.44027 -38.43622
 Alpha  occ. eigenvalues --  -38.43485 -38.43466  -2.20189  -2.20043  -2.19967
 Alpha  occ. eigenvalues --   -2.19962  -2.19458  -2.19370  -2.19280  -1.14046
 Alpha  occ. eigenvalues --   -1.13833  -1.13792  -1.13736  -1.13721  -1.13662
 Alpha  occ. eigenvalues --   -1.13632  -1.13606  -1.13605  -1.13582  -1.13576
 Alpha  occ. eigenvalues --   -1.13551  -1.13140  -1.13127  -1.13102  -1.13050
 Alpha  occ. eigenvalues --   -1.13030  -1.12997  -1.12948  -1.12939  -1.12917
 Alpha  occ. eigenvalues --   -0.18322  -0.13695  -0.12206  -0.11108
 Alpha virt. eigenvalues --   -0.05536  -0.05385  -0.04901  -0.03936  -0.02940
 Alpha virt. eigenvalues --   -0.02723  -0.01172  -0.00647  -0.00465  -0.00155
 Alpha virt. eigenvalues --   -0.00019   0.00409   0.00447   0.00602   0.00796

  Beta  occ. eigenvalues --  -38.44213 -38.44150 -38.44061 -38.44014 -38.43616
  Beta  occ. eigenvalues --  -38.43485 -38.43437  -2.20097  -2.19978  -2.19940
  Beta  occ. eigenvalues --   -2.19890  -2.19449  -2.19321  -2.19281  -1.13991
  Beta  occ. eigenvalues --   -1.13769  -1.13727  -1.13696  -1.13665  -1.13615
  Beta  occ. eigenvalues --   -1.13582  -1.13578  -1.13560  -1.13552  -1.13518
  Beta  occ. eigenvalues --   -1.13511  -1.13133  -1.13114  -1.13098  -1.13019
  Beta  occ. eigenvalues --   -1.12974  -1.12959  -1.12942  -1.12936  -1.12920
  Beta  occ. eigenvalues --   -0.17659  -0.13505  -0.12065
  Beta virt. eigenvalues --   -0.07228  -0.05431  -0.05305  -0.04235  -0.03685
  Beta virt. eigenvalues --   -0.02383  -0.01772  -0.01129  -0.00605  -0.00195
  Beta virt. eigenvalues --   -0.00019   0.00036   0.00487   0.00604   0.00803

 Mulliken charges and spin densities:
               1          2
     1  Na  -0.150498   0.039354
     2  Na   0.126388   0.088079
     3  Na   0.040517   0.234368
     4  Na  -0.180227   0.297430
     5  Na   0.805316   0.182018
     6  Na  -0.177654  -0.044945
     7  Na  -0.463842   0.203697
 Sum of Mulliken charges =  -0.00000   1.00000

 Dipole moment (field-independent basis, Debye):
    X=              0.1030    Y=             -0.1955    Z=             -0.0658  Tot=              0.2306
 Quadrupole moment (field-independent basis, Debye-Ang):
   XX=            -58.9717   YY=            -71.5015   ZZ=            -67.7542
   XY=              0.7093   XZ=              1.5763   YZ=              0.0073

 Normal termination of Gaussian 16 at Tue Dec  5 18:42:03 2023.
