 Gaussian 16, Revision B.01,
 Gaussian 16:  ES64L-G16RevB.01 20-Dec-2017

 -------------------------
 #P B3LYP/6-311+g(d) force
 -------------------------

 -----
 DPGEN
 -----
 Symbolic Z-matrix:
 Charge =  0 Multiplicity = 2

                         Standard orientation:
 ---------------------------------------------------------------------
 Center     Atomic      Atomic             Coordinates (Angstroms)
 Number     Number       Type             X           Y           Z
 ---------------------------------------------------------------------
      1         11           0        1.760362   -2.306959    0.600287
      2         11           0        1.792128    1.362294   -0.753798
      3         11           0       -1.556634    0.676517   -1.386018
      4         11           0       -1.439864   -1.577566    0.910885
      5         11           0       -4.566456   -0.706495   -0.436844
      6         11           0       -0.437044    2.902183    1.491516
      7         11           0        4.447508   -0.349973   -0.426028
 ---------------------------------------------------------------------

 SCF Done:  E(UB3LYP) =  -1136.12229107     A.U. after   21 cycles

 The electronic state is 2-A.
 Alpha  occ. eigenvalues --  -38.44768 -38.44312 -38.43939 -38.43646 -38.43625
 Alpha  occ. eigenvalues --  -38.43562 -38.43538  -2.20627  -2.20079  -2.19761
 Alpha  occ. eigenvalues --   -2.19528  -2.19471  -2.19412  -2.19397  -1.14347
 Alpha  occ. eigenvalues --   -1.14313  -1.14210  -1.13755  -1.13747  -1.13694
 Alpha  occ. eigenvalues --   -1.13418  -1.13412  -1.13377  -1.13235  -1.13191
 Alpha  occ. eigenvalues --   -1.13185  -1.13162  -1.13125  -1.13112  -1.13102
 Alpha  occ. eigenvalues --   -1.13079  -1.13069  -1.13054  -1.12996  -1.12975
 Alpha  occ. eigenvalues --   -0.17347  -0.13970  -0.12078  -0.10828
 Alpha virt. eigenvalues --   -0.06816  -0.05035  -0.04343  -0.03456  -0.02776
 Alpha virt. eigenvalues --   -0.02737  -0.01850  -0.01237  -0.01036  -0.00506
 Alpha virt. eigenvalues --   -0.00249   0.00032   0.00437   0.00672   0.00729

  Beta  occ. eigenvalues --  -38.44762 -38.44306 -38.43885 -38.43602 -38.43575
  Beta  occ. eigenvalues --  -38.43524 -38.43522  -2.20617  -2.20070  -2.19660
  Beta  occ. eigenvalues --   -2.19453  -2.19389  -2.19378  -2.19329  -1.14333
  Beta  occ. eigenvalues --   -1.14308  -1.14197  -1.13749  -1.13740  -1.13688
  Beta  occ. eigenvalues --   -1.13345  -1.13341  -1.13315  -1.13186  -1.13141
  Beta  occ. eigenvalues --   -1.13137  -1.13098  -1.13076  -1.13066  -1.13050
  Beta  occ. eigenvalues --   -1.13038  -1.13028  -1.13001  -1.12940  -1.12919
  Beta  occ. eigenvalues --   -0.16835  -0.13415  -0.11657
  Beta virt. eigenvalues --   -0.07281  -0.06661  -0.04834  -0.03819  -0.03147
  Beta virt. eigenvalues --   -0.02600  -0.02468  -0.01430  -0.00975  -0.00681
  Beta virt. eigenvalues --   -0.00330  -0.00125   0.00213   0.00607   0.00783

 Mulliken charges and spin densities:
               1          2
     1  Na  -0.248420   0.039493
     2  Na  -0.458728   0.175143
     3  Na   0.109462  -0.007571
     4  Na  -0.281310   0.213461
     5  Na   0.463570   0.272064
     6  Na   0.063637   0.066941
     7  Na   0.351789   0.240471
 Sum of Mulliken charges =  -0.00000   1.00000

 Dipole moment (field-independent basis, Debye):
    X=             -0.6929    Y=              0.6173    Z=              0.5642  Tot=              1.0861
 Quadrupole moment (field-independent basis, Debye-Ang):
   XX=            -61.2805   YY=            -72.4292   ZZ=            -64.8383
   XY=             -2.1020   XZ=             -1.4625   YZ=              2.2140

 Normal termination of Gaussian 16 at Tue Nov 28 21:40:58 2023.
