 Gaussian 16, Revision B.01,
 Gaussian 16:  ES64L-G16RevB.01 20-Dec-2017

 -------------------------
 #P B3LYP/6-311+g(d) force
 -------------------------

 -----
 DPGEN
 -----
 Symbolic Z-matrix:
 Charge =  0 Multiplicity = 2

                         Standard orientation:
 ---------------------------------------------------------------------
 Center     Atomic      Atomic             Coordinates (Angstroms)
 Number     Number       Type             X           Y           Z
 ---------------------------------------------------------------------
      1         11           0        2.626951    0.229180   -2.029022
      2         11           0       -0.889751   -2.553719   -0.550921
      3         11           0       -3.445656    0.144932   -1.068635
      4         11           0       -0.949449    2.575784   -0.597043
      5         11           0        1.902625   -2.019754    0.296201
      6         11           0       -0.762996   -0.634972    2.616486
      7         11           0        1.518275    2.258549    1.332933
 ---------------------------------------------------------------------

 SCF Done:  E(UB3LYP) =  -1136.12094508     A.U. after   19 cycles

 The electronic state is 2-A.
 Alpha  occ. eigenvalues --  -38.45342 -38.44724 -38.43983 -38.43946 -38.43792
 Alpha  occ. eigenvalues --  -38.43701 -38.43556  -2.21133  -2.20504  -2.19792
 Alpha  occ. eigenvalues --   -2.19781  -2.19570  -2.19506  -2.19428  -1.14787
 Alpha  occ. eigenvalues --   -1.14765  -1.14749  -1.14166  -1.14160  -1.14121
 Alpha  occ. eigenvalues --   -1.13538  -1.13503  -1.13447  -1.13435  -1.13418
 Alpha  occ. eigenvalues --   -1.13417  -1.13241  -1.13228  -1.13204  -1.13179
 Alpha  occ. eigenvalues --   -1.13171  -1.13127  -1.13103  -1.13072  -1.13056
 Alpha  occ. eigenvalues --   -0.17298  -0.12620  -0.12399  -0.11713
 Alpha virt. eigenvalues --   -0.05890  -0.05068  -0.04874  -0.03745  -0.03580
 Alpha virt. eigenvalues --   -0.02909  -0.01100  -0.00911  -0.00763  -0.00255
 Alpha virt. eigenvalues --   -0.00199   0.00237   0.00349   0.00477   0.00697

  Beta  occ. eigenvalues --  -38.45250 -38.44675 -38.43965 -38.43947 -38.43763
  Beta  occ. eigenvalues --  -38.43698 -38.43555  -2.20961  -2.20414  -2.19783
  Beta  occ. eigenvalues --   -2.19760  -2.19518  -2.19502  -2.19431  -1.14668
  Beta  occ. eigenvalues --   -1.14649  -1.14625  -1.14106  -1.14098  -1.14060
  Beta  occ. eigenvalues --   -1.13543  -1.13488  -1.13425  -1.13418  -1.13417
  Beta  occ. eigenvalues --   -1.13388  -1.13203  -1.13196  -1.13173  -1.13167
  Beta  occ. eigenvalues --   -1.13166  -1.13119  -1.13106  -1.13074  -1.13032
  Beta  occ. eigenvalues --   -0.16617  -0.12446  -0.12016
  Beta virt. eigenvalues --   -0.08090  -0.05462  -0.04929  -0.04412  -0.03535
  Beta virt. eigenvalues --   -0.02955  -0.02229  -0.00972  -0.00770  -0.00451
  Beta virt. eigenvalues --   -0.00193  -0.00133   0.00399   0.00454   0.00673

 Mulliken charges and spin densities:
               1          2
     1  Na  -0.072444   0.113666
     2  Na   0.103997   0.059119
     3  Na   0.057517   0.082076
     4  Na  -0.116308   0.058064
     5  Na   0.323998   0.139163
     6  Na  -0.206528   0.373450
     7  Na  -0.090232   0.174463
 Sum of Mulliken charges =  -0.00000   1.00000

 Dipole moment (field-independent basis, Debye):
    X=              0.2200    Y=             -0.0925    Z=              0.1726  Tot=              0.2945
 Quadrupole moment (field-independent basis, Debye-Ang):
   XX=            -66.0560   YY=            -70.6675   ZZ=            -62.7932
   XY=              2.0119   XZ=             -0.6824   YZ=             -0.5849

 Normal termination of Gaussian 16 at Sun Dec  3 20:34:15 2023.
