 Gaussian 16, Revision B.01,
 Gaussian 16:  ES64L-G16RevB.01 20-Dec-2017

 -------------------------
 #P B3LYP/6-311+g(d) force
 -------------------------

 -----
 DPGEN
 -----
 Symbolic Z-matrix:
 Charge =  0 Multiplicity = 2

                         Standard orientation:
 ---------------------------------------------------------------------
 Center     Atomic      Atomic             Coordinates (Angstroms)
 Number     Number       Type             X           Y           Z
 ---------------------------------------------------------------------
      1         11           0        1.565536    3.086833   -0.134122
      2         11           0       -3.123780    1.430073   -0.263767
      3         11           0        0.609215   -2.494835    0.386346
      4         11           0       -2.356724   -1.907460   -0.207601
      5         11           0        3.344550   -0.984550   -0.302258
      6         11           0       -0.096225    0.636900    2.327543
      7         11           0        0.057427    0.233039   -1.806141
 ---------------------------------------------------------------------

 SCF Done:  E(UB3LYP) =  -1136.12546484     A.U. after   21 cycles

 The electronic state is 2-A.
 Alpha  occ. eigenvalues --  -38.44735 -38.44683 -38.44180 -38.44058 -38.43928
 Alpha  occ. eigenvalues --  -38.43702 -38.42907  -2.20508  -2.20468  -2.19989
 Alpha  occ. eigenvalues --   -2.19805  -2.19790  -2.19564  -2.18815  -1.14179
 Alpha  occ. eigenvalues --   -1.14162  -1.14153  -1.14147  -1.14132  -1.14098
 Alpha  occ. eigenvalues --   -1.13641  -1.13621  -1.13603  -1.13486  -1.13482
 Alpha  occ. eigenvalues --   -1.13463  -1.13458  -1.13424  -1.13409  -1.13274
 Alpha  occ. eigenvalues --   -1.13219  -1.13198  -1.12492  -1.12474  -1.12457
 Alpha  occ. eigenvalues --   -0.17878  -0.12803  -0.12077  -0.10930
 Alpha virt. eigenvalues --   -0.06540  -0.05394  -0.04207  -0.03218  -0.03162
 Alpha virt. eigenvalues --   -0.02818  -0.01991  -0.01322  -0.00702  -0.00195
 Alpha virt. eigenvalues --   -0.00097   0.00309   0.00621   0.00684   0.00747

  Beta  occ. eigenvalues --  -38.44731 -38.44681 -38.44074 -38.44063 -38.43872
  Beta  occ. eigenvalues --  -38.43697 -38.42896  -2.20503  -2.20464  -2.19817
  Beta  occ. eigenvalues --   -2.19792  -2.19687  -2.19559  -2.18798  -1.14167
  Beta  occ. eigenvalues --   -1.14156  -1.14149  -1.14146  -1.14119  -1.14096
  Beta  occ. eigenvalues --   -1.13508  -1.13486  -1.13480  -1.13475  -1.13466
  Beta  occ. eigenvalues --   -1.13453  -1.13412  -1.13357  -1.13332  -1.13270
  Beta  occ. eigenvalues --   -1.13198  -1.13192  -1.12485  -1.12466  -1.12415
  Beta  occ. eigenvalues --   -0.17160  -0.12631  -0.11889
  Beta virt. eigenvalues --   -0.07008  -0.06529  -0.05226  -0.04149  -0.02511
  Beta virt. eigenvalues --   -0.02405  -0.01918  -0.01855  -0.01224  -0.00741
  Beta virt. eigenvalues --   -0.00196   0.00056   0.00352   0.00669   0.00739

 Mulliken charges and spin densities:
               1          2
     1  Na  -0.089859  -0.118683
     2  Na   0.138514  -0.020532
     3  Na   0.048545   0.175286
     4  Na   0.087034   0.083466
     5  Na   0.156348  -0.006726
     6  Na  -0.361719   0.591921
     7  Na   0.021138   0.295268
 Sum of Mulliken charges =  -0.00000   1.00000

 Dipole moment (field-independent basis, Debye):
    X=              0.0072    Y=              0.5397    Z=             -0.0975  Tot=              0.5485
 Quadrupole moment (field-independent basis, Debye-Ang):
   XX=            -54.9029   YY=            -66.1620   ZZ=            -73.5609
   XY=             -0.8711   XZ=             -0.1766   YZ=             -0.2726

 Normal termination of Gaussian 16 at Thu Dec  7 20:29:45 2023.
