 Gaussian 16, Revision B.01,
 Gaussian 16:  ES64L-G16RevB.01 20-Dec-2017

 -------------------------
 #P B3LYP/6-311+g(d) force
 -------------------------

 -----
 DPGEN
 -----
 Symbolic Z-matrix:
 Charge =  0 Multiplicity = 2

                         Standard orientation:
 ---------------------------------------------------------------------
 Center     Atomic      Atomic             Coordinates (Angstroms)
 Number     Number       Type             X           Y           Z
 ---------------------------------------------------------------------
      1         11           0        3.016727   -2.086686   -0.698288
      2         11           0       -6.489216   -1.307162    0.701340
      3         11           0       -0.179023    2.742444   -0.887673
      4         11           0       -4.035096    0.746980   -0.228077
      5         11           0        2.240600    0.953011    1.551909
      6         11           0        5.798450   -0.193025    0.316451
      7         11           0       -0.352441   -0.855561   -0.755662
 ---------------------------------------------------------------------

 SCF Done:  E(UB3LYP) =  -1136.11336812     A.U. after   22 cycles

 The electronic state is 2-A.
 Alpha  occ. eigenvalues --  -38.45894 -38.44557 -38.44467 -38.44424 -38.44322
 Alpha  occ. eigenvalues --  -38.43680 -38.43675  -2.21649  -2.20328  -2.20243
 Alpha  occ. eigenvalues --   -2.20239  -2.20140  -2.19453  -2.19431  -1.15349
 Alpha  occ. eigenvalues --   -1.15317  -1.15243  -1.14002  -1.13981  -1.13960
 Alpha  occ. eigenvalues --   -1.13932  -1.13908  -1.13901  -1.13896  -1.13866
 Alpha  occ. eigenvalues --   -1.13850  -1.13820  -1.13797  -1.13741  -1.13141
 Alpha  occ. eigenvalues --   -1.13139  -1.13111  -1.13098  -1.13096  -1.13016
 Alpha  occ. eigenvalues --   -0.16616  -0.13517  -0.11624  -0.11252
 Alpha virt. eigenvalues --   -0.07164  -0.05779  -0.04615  -0.03324  -0.03046
 Alpha virt. eigenvalues --   -0.02786  -0.02071  -0.01722  -0.01368  -0.00919
 Alpha virt. eigenvalues --   -0.00623  -0.00139   0.00012   0.00219   0.00464

  Beta  occ. eigenvalues --  -38.45860 -38.44534 -38.44442 -38.44367 -38.44271
  Beta  occ. eigenvalues --  -38.43683 -38.43677  -2.21589  -2.20284  -2.20193
  Beta  occ. eigenvalues --   -2.20140  -2.20048  -2.19447  -2.19445  -1.15299
  Beta  occ. eigenvalues --   -1.15272  -1.15197  -1.13970  -1.13945  -1.13932
  Beta  occ. eigenvalues --   -1.13876  -1.13866  -1.13866  -1.13835  -1.13826
  Beta  occ. eigenvalues --   -1.13762  -1.13760  -1.13734  -1.13651  -1.13137
  Beta  occ. eigenvalues --   -1.13133  -1.13116  -1.13107  -1.13105  -1.13020
  Beta  occ. eigenvalues --   -0.15868  -0.13416  -0.11525
  Beta virt. eigenvalues --   -0.07350  -0.06962  -0.05401  -0.04289  -0.03120
  Beta virt. eigenvalues --   -0.02735  -0.02266  -0.01698  -0.01605  -0.01084
  Beta virt. eigenvalues --   -0.00844  -0.00479   0.00055   0.00250   0.00356

 Mulliken charges and spin densities:
               1          2
     1  Na  -0.095575  -0.032320
     2  Na   0.314707  -0.066567
     3  Na   0.287834   0.188347
     4  Na  -0.109966   0.053806
     5  Na  -0.030038   0.328179
     6  Na   0.121535   0.115513
     7  Na  -0.488497   0.413043
 Sum of Mulliken charges =  -0.00000   1.00000

 Dipole moment (field-independent basis, Debye):
    X=              2.0472    Y=              0.5356    Z=              0.0633  Tot=              2.1170
 Quadrupole moment (field-independent basis, Debye-Ang):
   XX=            -66.5132   YY=            -66.2163   ZZ=            -68.7849
   XY=              2.8117   XZ=             -1.4880   YZ=             -2.2810

 Normal termination of Gaussian 16 at Sun Dec  3 18:37:07 2023.
