 Gaussian 16, Revision B.01,
 Gaussian 16:  ES64L-G16RevB.01 20-Dec-2017

 -------------------------
 #P B3LYP/6-311+g(d) force
 -------------------------

 -----
 DPGEN
 -----
 Symbolic Z-matrix:
 Charge =  0 Multiplicity = 2

                         Standard orientation:
 ---------------------------------------------------------------------
 Center     Atomic      Atomic             Coordinates (Angstroms)
 Number     Number       Type             X           Y           Z
 ---------------------------------------------------------------------
      1         11           0        0.118885   -0.518908   -1.074217
      2         11           0       -3.001169   -1.485704   -0.926910
      3         11           0        3.225048    0.346564   -0.554804
      4         11           0        1.537239   -2.552489    0.385074
      5         11           0        0.475942    0.418472    2.117692
      6         11           0        0.178817    2.882449   -0.858619
      7         11           0       -2.534761    0.909615    0.911782
 ---------------------------------------------------------------------

 SCF Done:  E(UB3LYP) =  -1136.12583156     A.U. after   21 cycles

 The electronic state is 2-A.
 Alpha  occ. eigenvalues --  -38.44759 -38.43836 -38.43766 -38.43717 -38.43666
 Alpha  occ. eigenvalues --  -38.43249 -38.42988  -2.20588  -2.19744  -2.19663
 Alpha  occ. eigenvalues --   -2.19570  -2.19551  -2.19069  -2.19059  -1.14281
 Alpha  occ. eigenvalues --   -1.14244  -1.14201  -1.13459  -1.13410  -1.13390
 Alpha  occ. eigenvalues --   -1.13352  -1.13343  -1.13312  -1.13291  -1.13233
 Alpha  occ. eigenvalues --   -1.13190  -1.13188  -1.13168  -1.13149  -1.12770
 Alpha  occ. eigenvalues --   -1.12761  -1.12707  -1.12694  -1.12682  -1.12669
 Alpha  occ. eigenvalues --   -0.18640  -0.13497  -0.11811  -0.11105
 Alpha virt. eigenvalues --   -0.06043  -0.04875  -0.04454  -0.03408  -0.02863
 Alpha virt. eigenvalues --   -0.02355  -0.01920  -0.00952  -0.00504  -0.00013
 Alpha virt. eigenvalues --    0.00089   0.00334   0.00663   0.00796   0.00848

  Beta  occ. eigenvalues --  -38.44744 -38.43750 -38.43740 -38.43700 -38.43658
  Beta  occ. eigenvalues --  -38.43235 -38.42955  -2.20564  -2.19637  -2.19569
  Beta  occ. eigenvalues --   -2.19539  -2.19538  -2.19033  -2.19013  -1.14255
  Beta  occ. eigenvalues --   -1.14227  -1.14181  -1.13387  -1.13365  -1.13346
  Beta  occ. eigenvalues --   -1.13288  -1.13279  -1.13234  -1.13212  -1.13203
  Beta  occ. eigenvalues --   -1.13168  -1.13157  -1.13146  -1.13144  -1.12745
  Beta  occ. eigenvalues --   -1.12700  -1.12687  -1.12668  -1.12655  -1.12630
  Beta  occ. eigenvalues --   -0.17932  -0.13266  -0.11533
  Beta virt. eigenvalues --   -0.07233  -0.05944  -0.04767  -0.04135  -0.02835
  Beta virt. eigenvalues --   -0.02230  -0.01831  -0.01477  -0.00873  -0.00320
  Beta virt. eigenvalues --    0.00054   0.00132   0.00383   0.00725   0.00821

 Mulliken charges and spin densities:
               1          2
     1  Na  -0.408109   0.099366
     2  Na  -0.008364   0.009807
     3  Na   0.651204  -0.004000
     4  Na   0.066147   0.192647
     5  Na  -0.232910   0.431115
     6  Na  -0.288850   0.070314
     7  Na   0.220883   0.200750
 Sum of Mulliken charges =  -0.00000   1.00000

 Dipole moment (field-independent basis, Debye):
    X=              0.7012    Y=              0.0542    Z=              0.2076  Tot=              0.7332
 Quadrupole moment (field-independent basis, Debye-Ang):
   XX=            -54.4103   YY=            -67.0385   ZZ=            -71.3028
   XY=             -0.2669   XZ=             -0.0771   YZ=             -1.0226

 Normal termination of Gaussian 16 at Sun Dec  3 19:53:54 2023.
