 Gaussian 16, Revision B.01,
 Gaussian 16:  ES64L-G16RevB.01 20-Dec-2017

 -------------------------
 #P B3LYP/6-311+g(d) force
 -------------------------

 -----
 DPGEN
 -----
 Symbolic Z-matrix:
 Charge =  0 Multiplicity = 2

                         Standard orientation:
 ---------------------------------------------------------------------
 Center     Atomic      Atomic             Coordinates (Angstroms)
 Number     Number       Type             X           Y           Z
 ---------------------------------------------------------------------
      1         11           0       -0.089337   -1.034096    1.417856
      2         11           0       -3.775056   -2.266933    0.040731
      3         11           0       -4.413224    0.983879   -0.717902
      4         11           0        2.111833    2.132238    0.311545
      5         11           0        2.610130   -1.809447   -0.826072
      6         11           0       -1.594898    2.128871    0.033321
      7         11           0        5.150552   -0.134512   -0.259480
 ---------------------------------------------------------------------

 SCF Done:  E(UB3LYP) =  -1136.11132425     A.U. after   24 cycles

 The electronic state is 2-A.
 Alpha  occ. eigenvalues --  -38.44896 -38.44879 -38.44491 -38.44391 -38.44365
 Alpha  occ. eigenvalues --  -38.44237 -38.43262  -2.20702  -2.20689  -2.20244
 Alpha  occ. eigenvalues --   -2.20204  -2.20154  -2.20071  -2.19089  -1.14396
 Alpha  occ. eigenvalues --   -1.14384  -1.14365  -1.14345  -1.14324  -1.14283
 Alpha  occ. eigenvalues --   -1.13923  -1.13911  -1.13903  -1.13889  -1.13857
 Alpha  occ. eigenvalues --   -1.13851  -1.13819  -1.13796  -1.13772  -1.13716
 Alpha  occ. eigenvalues --   -1.13711  -1.13698  -1.12768  -1.12751  -1.12724
 Alpha  occ. eigenvalues --   -0.16688  -0.14541  -0.11539  -0.11029
 Alpha virt. eigenvalues --   -0.07251  -0.05337  -0.04696  -0.03407  -0.03242
 Alpha virt. eigenvalues --   -0.02741  -0.01879  -0.01701  -0.01042  -0.00822
 Alpha virt. eigenvalues --   -0.00207  -0.00008   0.00090   0.00408   0.00583

  Beta  occ. eigenvalues --  -38.44904 -38.44781 -38.44492 -38.44392 -38.44316
  Beta  occ. eigenvalues --  -38.44188 -38.43243  -2.20720  -2.20509  -2.20247
  Beta  occ. eigenvalues --   -2.20157  -2.20114  -2.19978  -2.19056  -1.14402
  Beta  occ. eigenvalues --   -1.14376  -1.14357  -1.14234  -1.14210  -1.14152
  Beta  occ. eigenvalues --   -1.13927  -1.13907  -1.13893  -1.13859  -1.13823
  Beta  occ. eigenvalues --   -1.13820  -1.13791  -1.13766  -1.13742  -1.13661
  Beta  occ. eigenvalues --   -1.13648  -1.13635  -1.12748  -1.12732  -1.12683
  Beta  occ. eigenvalues --   -0.15989  -0.14030  -0.11040
  Beta virt. eigenvalues --   -0.07938  -0.06821  -0.04886  -0.04251  -0.03284
  Beta virt. eigenvalues --   -0.02755  -0.02336  -0.01737  -0.01429  -0.00820
  Beta virt. eigenvalues --   -0.00559  -0.00099   0.00126   0.00304   0.00480

 Mulliken charges and spin densities:
               1          2
     1  Na  -0.512225   0.646346
     2  Na  -0.005940  -0.053257
     3  Na   0.649554   0.119887
     4  Na  -0.116808   0.045838
     5  Na   0.010363  -0.091177
     6  Na  -0.329361   0.116625
     7  Na   0.304416   0.215739
 Sum of Mulliken charges =  -0.00000   1.00000

 Dipole moment (field-independent basis, Debye):
    X=              0.6626    Y=             -0.3061    Z=             -0.0095  Tot=              0.7299
 Quadrupole moment (field-independent basis, Debye-Ang):
   XX=            -60.9663   YY=            -68.8758   ZZ=            -70.6159
   XY=              3.2832   XZ=              2.4238   YZ=             -0.5184

 Normal termination of Gaussian 16 at Sun Dec  3 15:31:05 2023.
