 Gaussian 16, Revision B.01,
 Gaussian 16:  ES64L-G16RevB.01 20-Dec-2017

 -------------------------
 #P B3LYP/6-311+g(d) force
 -------------------------

 -----
 DPGEN
 -----
 Symbolic Z-matrix:
 Charge =  0 Multiplicity = 2

                         Standard orientation:
 ---------------------------------------------------------------------
 Center     Atomic      Atomic             Coordinates (Angstroms)
 Number     Number       Type             X           Y           Z
 ---------------------------------------------------------------------
      1         11           0       -3.040586    0.813557   -0.027241
      2         11           0        2.703601   -1.872080   -0.208490
      3         11           0       -0.364750    2.739467    0.051905
      4         11           0        2.777677    1.171074    0.085971
      5         11           0        0.168018    0.164585   -1.278355
      6         11           0       -0.060416   -0.627912    1.639456
      7         11           0       -2.183545   -2.388690   -0.263247
 ---------------------------------------------------------------------

 SCF Done:  E(UB3LYP) =  -1136.12630499     A.U. after   23 cycles

 The electronic state is 2-A.
 Alpha  occ. eigenvalues --  -38.44477 -38.44242 -38.44225 -38.43810 -38.43105
 Alpha  occ. eigenvalues --  -38.42795 -38.42757  -2.20343  -2.20146  -2.20105
 Alpha  occ. eigenvalues --   -2.19650  -2.19204  -2.18736  -2.18715  -1.14012
 Alpha  occ. eigenvalues --   -1.14009  -1.13989  -1.13919  -1.13833  -1.13788
 Alpha  occ. eigenvalues --   -1.13756  -1.13739  -1.13688  -1.13315  -1.13308
 Alpha  occ. eigenvalues --   -1.13299  -1.12977  -1.12889  -1.12807  -1.12440
 Alpha  occ. eigenvalues --   -1.12398  -1.12354  -1.12346  -1.12332  -1.12330
 Alpha  occ. eigenvalues --   -0.19122  -0.13971  -0.12245  -0.09900
 Alpha virt. eigenvalues --   -0.06193  -0.05734  -0.04297  -0.03233  -0.02341
 Alpha virt. eigenvalues --   -0.02081  -0.01563  -0.01334  -0.00684  -0.00222
 Alpha virt. eigenvalues --    0.00052   0.00311   0.00687   0.00779   0.00879

  Beta  occ. eigenvalues --  -38.44471 -38.44234 -38.44217 -38.43804 -38.43058
  Beta  occ. eigenvalues --  -38.42788 -38.42673  -2.20335  -2.20136  -2.20094
  Beta  occ. eigenvalues --   -2.19642  -2.19121  -2.18707  -2.18582  -1.14008
  Beta  occ. eigenvalues --   -1.13992  -1.13975  -1.13916  -1.13828  -1.13748
  Beta  occ. eigenvalues --   -1.13746  -1.13709  -1.13684  -1.13309  -1.13297
  Beta  occ. eigenvalues --   -1.13281  -1.12898  -1.12832  -1.12746  -1.12386
  Beta  occ. eigenvalues --   -1.12346  -1.12337  -1.12308  -1.12225  -1.12222
  Beta  occ. eigenvalues --   -0.18415  -0.13683  -0.12023
  Beta virt. eigenvalues --   -0.06180  -0.06019  -0.05689  -0.04281  -0.02440
  Beta virt. eigenvalues --   -0.01975  -0.01641  -0.01292  -0.00749  -0.00658
  Beta virt. eigenvalues --   -0.00217   0.00224   0.00366   0.00738   0.00785

 Mulliken charges and spin densities:
               1          2
     1  Na   0.244518   0.089009
     2  Na   0.379802   0.019355
     3  Na   0.221961   0.073434
     4  Na   0.441865   0.181261
     5  Na  -0.994797   0.148958
     6  Na  -0.534203   0.473003
     7  Na   0.240854   0.014980
 Sum of Mulliken charges =  -0.00000   1.00000

 Dipole moment (field-independent basis, Debye):
    X=              0.0127    Y=             -0.3114    Z=              0.2354  Tot=              0.3905
 Quadrupole moment (field-independent basis, Debye-Ang):
   XX=            -50.2875   YY=            -62.0700   ZZ=            -78.3378
   XY=             -0.6486   XZ=              0.4566   YZ=              2.1110

 Normal termination of Gaussian 16 at Sat Dec  9 05:53:29 2023.
