 Gaussian 16, Revision B.01,
 Gaussian 16:  ES64L-G16RevB.01 20-Dec-2017

 -------------------------
 #P B3LYP/6-311+g(d) force
 -------------------------

 -----
 DPGEN
 -----
 Symbolic Z-matrix:
 Charge =  0 Multiplicity = 2

                         Standard orientation:
 ---------------------------------------------------------------------
 Center     Atomic      Atomic             Coordinates (Angstroms)
 Number     Number       Type             X           Y           Z
 ---------------------------------------------------------------------
      1         11           0       -0.026008   -0.242911    1.664879
      2         11           0       -0.004116   -0.151518   -1.567443
      3         11           0        0.727650    2.850364    0.145733
      4         11           0        3.591480    0.283157   -0.258401
      5         11           0        1.905598   -2.513717    0.172134
      6         11           0       -3.402279   -1.742512   -0.151990
      7         11           0       -2.792325    1.517138   -0.004912
 ---------------------------------------------------------------------

 SCF Done:  E(UB3LYP) =  -1136.12655848     A.U. after   24 cycles

 The electronic state is 2-A.
 Alpha  occ. eigenvalues --  -38.45032 -38.44475 -38.44364 -38.44362 -38.43496
 Alpha  occ. eigenvalues --  -38.42964 -38.42666  -2.20834  -2.20361  -2.20197
 Alpha  occ. eigenvalues --   -2.20145  -2.19355  -2.18904  -2.18495  -1.14503
 Alpha  occ. eigenvalues --   -1.14487  -1.14468  -1.14100  -1.14007  -1.13965
 Alpha  occ. eigenvalues --   -1.13885  -1.13878  -1.13843  -1.13809  -1.13789
 Alpha  occ. eigenvalues --   -1.13760  -1.13031  -1.13017  -1.12997  -1.12608
 Alpha  occ. eigenvalues --   -1.12516  -1.12507  -1.12168  -1.12167  -1.12133
 Alpha  occ. eigenvalues --   -0.18251  -0.13767  -0.11716  -0.09986
 Alpha virt. eigenvalues --   -0.06887  -0.05637  -0.04309  -0.03241  -0.02632
 Alpha virt. eigenvalues --   -0.02269  -0.01906  -0.01556  -0.00825  -0.00402
 Alpha virt. eigenvalues --   -0.00122   0.00154   0.00580   0.00685   0.00717

  Beta  occ. eigenvalues --  -38.45010 -38.44442 -38.44359 -38.44357 -38.43486
  Beta  occ. eigenvalues --  -38.42870 -38.42663  -2.20794  -2.20301  -2.20190
  Beta  occ. eigenvalues --   -2.20137  -2.19340  -2.18732  -2.18493  -1.14463
  Beta  occ. eigenvalues --   -1.14459  -1.14442  -1.14042  -1.13969  -1.13920
  Beta  occ. eigenvalues --   -1.13883  -1.13864  -1.13829  -1.13797  -1.13779
  Beta  occ. eigenvalues --   -1.13755  -1.13021  -1.13005  -1.12964  -1.12493
  Beta  occ. eigenvalues --   -1.12402  -1.12376  -1.12169  -1.12156  -1.12120
  Beta  occ. eigenvalues --   -0.17609  -0.13479  -0.11477
  Beta virt. eigenvalues --   -0.06722  -0.06254  -0.05608  -0.04255  -0.02605
  Beta virt. eigenvalues --   -0.02423  -0.01630  -0.01526  -0.01065  -0.00789
  Beta virt. eigenvalues --   -0.00376   0.00062   0.00233   0.00667   0.00723

 Mulliken charges and spin densities:
               1          2
     1  Na   0.015667   0.416504
     2  Na  -0.183718   0.364184
     3  Na  -0.298390  -0.032399
     4  Na   0.071429   0.168771
     5  Na   0.161515   0.027435
     6  Na   0.090866   0.027745
     7  Na   0.142631   0.027759
 Sum of Mulliken charges =  -0.00000   1.00000

 Dipole moment (field-independent basis, Debye):
    X=              0.0100    Y=             -0.1231    Z=              0.0917  Tot=              0.1538
 Quadrupole moment (field-independent basis, Debye-Ang):
   XX=            -51.6537   YY=            -65.1959   ZZ=            -76.3121
   XY=              0.2108   XZ=              0.1350   YZ=              0.8255

 Normal termination of Gaussian 16 at Thu Dec  7 18:44:58 2023.
