 Gaussian 16, Revision B.01,
 Gaussian 16:  ES64L-G16RevB.01 20-Dec-2017

 -------------------------
 #P B3LYP/6-311+g(d) force
 -------------------------

 -----
 DPGEN
 -----
 Symbolic Z-matrix:
 Charge =  0 Multiplicity = 2

                         Standard orientation:
 ---------------------------------------------------------------------
 Center     Atomic      Atomic             Coordinates (Angstroms)
 Number     Number       Type             X           Y           Z
 ---------------------------------------------------------------------
      1         11           0       -3.127758   -0.643901   -1.442210
      2         11           0        3.367810   -1.039701   -1.045685
      3         11           0        1.723469   -0.267482    2.254852
      4         11           0       -1.504724    2.620297   -0.475345
      5         11           0       -2.596877   -1.403861    1.878783
      6         11           0        1.437591    2.348526    0.146757
      7         11           0        0.700490   -1.613878   -1.317152
 ---------------------------------------------------------------------

 SCF Done:  E(UB3LYP) =  -1136.11409149     A.U. after   20 cycles

 The electronic state is 2-A.
 Alpha  occ. eigenvalues --  -38.45105 -38.45098 -38.44377 -38.44371 -38.44295
 Alpha  occ. eigenvalues --  -38.43439 -38.43023  -2.20913  -2.20861  -2.20266
 Alpha  occ. eigenvalues --   -2.20160  -2.20152  -2.19257  -2.18877  -1.14572
 Alpha  occ. eigenvalues --   -1.14561  -1.14526  -1.14521  -1.14511  -1.14485
 Alpha  occ. eigenvalues --   -1.14237  -1.13894  -1.13865  -1.13825  -1.13808
 Alpha  occ. eigenvalues --   -1.13799  -1.13792  -1.13774  -1.13664  -1.12984
 Alpha  occ. eigenvalues --   -1.12914  -1.12884  -1.12548  -1.12544  -1.12500
 Alpha  occ. eigenvalues --   -0.17311  -0.13619  -0.11817  -0.11409
 Alpha virt. eigenvalues --   -0.06147  -0.05666  -0.05105  -0.03508  -0.03008
 Alpha virt. eigenvalues --   -0.02797  -0.01795  -0.01099  -0.00580  -0.00438
 Alpha virt. eigenvalues --   -0.00133   0.00036   0.00226   0.00245   0.00604

  Beta  occ. eigenvalues --  -38.45045 -38.45029 -38.44371 -38.44359 -38.44264
  Beta  occ. eigenvalues --  -38.43425 -38.43027  -2.20771  -2.20762  -2.20234
  Beta  occ. eigenvalues --   -2.20152  -2.20106  -2.19231  -2.18885  -1.14476
  Beta  occ. eigenvalues --   -1.14458  -1.14454  -1.14439  -1.14428  -1.14418
  Beta  occ. eigenvalues --   -1.14202  -1.13870  -1.13836  -1.13822  -1.13806
  Beta  occ. eigenvalues --   -1.13794  -1.13752  -1.13735  -1.13632  -1.12972
  Beta  occ. eigenvalues --   -1.12891  -1.12868  -1.12553  -1.12531  -1.12510
  Beta  occ. eigenvalues --   -0.16734  -0.13388  -0.11585
  Beta virt. eigenvalues --   -0.07818  -0.05497  -0.05318  -0.04850  -0.03346
  Beta virt. eigenvalues --   -0.02368  -0.02267  -0.01715  -0.00707  -0.00379
  Beta virt. eigenvalues --   -0.00210   0.00010   0.00188   0.00307   0.00402

 Mulliken charges and spin densities:
               1          2
     1  Na  -0.150951   0.168259
     2  Na   1.259282  -0.154129
     3  Na  -0.171325   0.471873
     4  Na   0.119547   0.040563
     5  Na   0.139035   0.176497
     6  Na  -0.185157   0.000256
     7  Na  -1.010432   0.296681
 Sum of Mulliken charges =  -0.00000   1.00000

 Dipole moment (field-independent basis, Debye):
    X=              0.0508    Y=             -0.6693    Z=              0.3328  Tot=              0.7492
 Quadrupole moment (field-independent basis, Debye-Ang):
   XX=            -55.1940   YY=            -77.9266   ZZ=            -66.2125
   XY=              0.6399   XZ=              1.3825   YZ=             -2.3179

 Normal termination of Gaussian 16 at Sun Dec  3 16:38:33 2023.
