 Gaussian 16, Revision B.01,
 Gaussian 16:  ES64L-G16RevB.01 20-Dec-2017

 -------------------------
 #P B3LYP/6-311+g(d) force
 -------------------------

 -----
 DPGEN
 -----
 Symbolic Z-matrix:
 Charge =  0 Multiplicity = 2

                         Standard orientation:
 ---------------------------------------------------------------------
 Center     Atomic      Atomic             Coordinates (Angstroms)
 Number     Number       Type             X           Y           Z
 ---------------------------------------------------------------------
      1         11           0        0.192674    0.210161    1.995645
      2         11           0        1.879649    2.540356   -0.017138
      3         11           0        0.362670   -2.887450   -0.273673
      4         11           0       -0.181694    0.094776   -1.664965
      5         11           0        2.683230   -1.035086   -0.068992
      6         11           0       -2.947494   -1.219658    0.326055
      7         11           0       -1.989036    2.296901   -0.296932
 ---------------------------------------------------------------------

 SCF Done:  E(UB3LYP) =  -1136.13714188     A.U. after   19 cycles

 The electronic state is 2-A.
 Alpha  occ. eigenvalues --  -38.43959 -38.43886 -38.43738 -38.43546 -38.43530
 Alpha  occ. eigenvalues --  -38.43414 -38.43174  -2.19793  -2.19684  -2.19555
 Alpha  occ. eigenvalues --   -2.19442  -2.19438  -2.19305  -2.19151  -1.13510
 Alpha  occ. eigenvalues --   -1.13451  -1.13408  -1.13356  -1.13342  -1.13324
 Alpha  occ. eigenvalues --   -1.13233  -1.13228  -1.13224  -1.13194  -1.13123
 Alpha  occ. eigenvalues --   -1.13098  -1.13083  -1.13058  -1.13044  -1.12977
 Alpha  occ. eigenvalues --   -1.12937  -1.12903  -1.12826  -1.12789  -1.12760
 Alpha  occ. eigenvalues --   -0.18679  -0.12954  -0.12547  -0.10731
 Alpha virt. eigenvalues --   -0.05571  -0.05110  -0.04844  -0.03145  -0.02957
 Alpha virt. eigenvalues --   -0.02517  -0.01419  -0.01271  -0.00404  -0.00267
 Alpha virt. eigenvalues --   -0.00002   0.00360   0.00832   0.00863   0.00902

  Beta  occ. eigenvalues --  -38.43950 -38.43880 -38.43736 -38.43524 -38.43457
  Beta  occ. eigenvalues --  -38.43407 -38.43107  -2.19780  -2.19676  -2.19554
  Beta  occ. eigenvalues --   -2.19430  -2.19297  -2.19276  -2.19029  -1.13491
  Beta  occ. eigenvalues --   -1.13429  -1.13403  -1.13338  -1.13332  -1.13321
  Beta  occ. eigenvalues --   -1.13226  -1.13223  -1.13213  -1.13191  -1.13084
  Beta  occ. eigenvalues --   -1.13061  -1.12998  -1.12962  -1.12954  -1.12930
  Beta  occ. eigenvalues --   -1.12916  -1.12896  -1.12743  -1.12698  -1.12677
  Beta  occ. eigenvalues --   -0.17952  -0.12686  -0.12321
  Beta virt. eigenvalues --   -0.06844  -0.05550  -0.05024  -0.04845  -0.02349
  Beta virt. eigenvalues --   -0.02214  -0.01477  -0.01323  -0.01179  -0.00452
  Beta virt. eigenvalues --   -0.00316   0.00129   0.00382   0.00835   0.00890

 Mulliken charges and spin densities:
               1          2
     1  Na  -0.460326   0.786166
     2  Na   0.118896  -0.113157
     3  Na   0.144270  -0.004685
     4  Na  -0.132331   0.470504
     5  Na   0.232650  -0.027584
     6  Na  -0.007333  -0.004793
     7  Na   0.104174  -0.106451
 Sum of Mulliken charges =  -0.00000   1.00000

 Dipole moment (field-independent basis, Debye):
    X=             -0.2165    Y=              0.3016    Z=              0.1410  Tot=              0.3972
 Quadrupole moment (field-independent basis, Debye-Ang):
   XX=            -58.8975   YY=            -60.0361   ZZ=            -74.5255
   XY=              0.9043   XZ=             -0.9460   YZ=             -0.3641

 Normal termination of Gaussian 16 at Thu Dec  7 16:02:03 2023.
