 Gaussian 16, Revision B.01,
 Gaussian 16:  ES64L-G16RevB.01 20-Dec-2017

 -------------------------
 #P B3LYP/6-311+g(d) force
 -------------------------

 -----
 DPGEN
 -----
 Symbolic Z-matrix:
 Charge =  0 Multiplicity = 2

                         Standard orientation:
 ---------------------------------------------------------------------
 Center     Atomic      Atomic             Coordinates (Angstroms)
 Number     Number       Type             X           Y           Z
 ---------------------------------------------------------------------
      1         11           0        1.131963   -2.691671    0.164322
      2         11           0        2.936328    0.005401   -0.668968
      3         11           0        0.806920    0.175014    1.913821
      4         11           0       -0.184545    0.269189   -1.717110
      5         11           0       -3.707558    0.932227    0.047840
      6         11           0       -1.969536   -1.726574    0.054831
      7         11           0        0.986428    3.036414    0.205265
 ---------------------------------------------------------------------

 SCF Done:  E(UB3LYP) =  -1136.13045647     A.U. after   21 cycles

 The electronic state is 2-A.
 Alpha  occ. eigenvalues --  -38.44668 -38.44356 -38.43682 -38.43540 -38.43488
 Alpha  occ. eigenvalues --  -38.43363 -38.42896  -2.20445  -2.20244  -2.19608
 Alpha  occ. eigenvalues --   -2.19413  -2.19359  -2.19275  -2.18793  -1.14129
 Alpha  occ. eigenvalues --   -1.14103  -1.14080  -1.13932  -1.13916  -1.13855
 Alpha  occ. eigenvalues --   -1.13310  -1.13257  -1.13224  -1.13092  -1.13066
 Alpha  occ. eigenvalues --   -1.13061  -1.13017  -1.13001  -1.12977  -1.12966
 Alpha  occ. eigenvalues --   -1.12933  -1.12906  -1.12460  -1.12454  -1.12437
 Alpha  occ. eigenvalues --   -0.18623  -0.13299  -0.12168  -0.10771
 Alpha virt. eigenvalues --   -0.06410  -0.04886  -0.04403  -0.03301  -0.02786
 Alpha virt. eigenvalues --   -0.02520  -0.01950  -0.01091  -0.00602  -0.00148
 Alpha virt. eigenvalues --    0.00013   0.00304   0.00663   0.00785   0.00871

  Beta  occ. eigenvalues --  -38.44674 -38.44330 -38.43615 -38.43533 -38.43405
  Beta  occ. eigenvalues --  -38.43357 -38.42890  -2.20458  -2.20200  -2.19487
  Beta  occ. eigenvalues --   -2.19350  -2.19268  -2.19260  -2.18786  -1.14138
  Beta  occ. eigenvalues --   -1.14107  -1.14088  -1.13903  -1.13855  -1.13828
  Beta  occ. eigenvalues --   -1.13230  -1.13177  -1.13128  -1.13041  -1.13005
  Beta  occ. eigenvalues --   -1.12988  -1.12973  -1.12958  -1.12952  -1.12920
  Beta  occ. eigenvalues --   -1.12898  -1.12888  -1.12457  -1.12452  -1.12401
  Beta  occ. eigenvalues --   -0.17878  -0.13123  -0.11934
  Beta virt. eigenvalues --   -0.06809  -0.06331  -0.04806  -0.04407  -0.02627
  Beta virt. eigenvalues --   -0.02062  -0.01900  -0.01431  -0.01011  -0.00609
  Beta virt. eigenvalues --   -0.00095   0.00118   0.00345   0.00753   0.00863

 Mulliken charges and spin densities:
               1          2
     1  Na   0.148980   0.080134
     2  Na   0.407586   0.125039
     3  Na  -0.218548   0.627658
     4  Na  -0.046761   0.403646
     5  Na   0.022930  -0.096472
     6  Na  -0.140740  -0.021359
     7  Na  -0.173448  -0.118646
 Sum of Mulliken charges =  -0.00000   1.00000

 Dipole moment (field-independent basis, Debye):
    X=             -0.1861    Y=              0.5433    Z=              0.0022  Tot=              0.5743
 Quadrupole moment (field-independent basis, Debye-Ang):
   XX=            -55.3717   YY=            -63.8613   ZZ=            -74.2583
   XY=             -2.9280   XZ=             -2.0068   YZ=              0.0883

 Normal termination of Gaussian 16 at Thu Dec  7 09:07:52 2023.
