 Gaussian 16, Revision B.01,
 Gaussian 16:  ES64L-G16RevB.01 20-Dec-2017

 -------------------------
 #P B3LYP/6-311+g(d) force
 -------------------------

 -----
 DPGEN
 -----
 Symbolic Z-matrix:
 Charge =  0 Multiplicity = 2

                         Standard orientation:
 ---------------------------------------------------------------------
 Center     Atomic      Atomic             Coordinates (Angstroms)
 Number     Number       Type             X           Y           Z
 ---------------------------------------------------------------------
      1         11           0       -2.061219    1.193950   -0.862636
      2         11           0       -4.422412    0.976793    0.950128
      3         11           0       -3.393128   -1.503020   -0.262159
      4         11           0        0.827489   -2.697973   -0.676153
      5         11           0        3.912128   -2.497242    0.600202
      6         11           0        1.686375    1.099766    0.634294
      7         11           0        3.450768    3.427727   -0.383676
 ---------------------------------------------------------------------

 SCF Done:  E(UB3LYP) =  -1136.10321247     A.U. after   24 cycles

 The electronic state is 2-A.
 Alpha  occ. eigenvalues --  -38.46084 -38.45708 -38.44384 -38.44001 -38.43571
 Alpha  occ. eigenvalues --  -38.43423 -38.43356  -2.21963  -2.21608  -2.20329
 Alpha  occ. eigenvalues --   -2.19777  -2.19381  -2.19220  -2.19129  -1.15673
 Alpha  occ. eigenvalues --   -1.15647  -1.15605  -1.15295  -1.15261  -1.15233
 Alpha  occ. eigenvalues --   -1.13985  -1.13970  -1.13929  -1.13476  -1.13435
 Alpha  occ. eigenvalues --   -1.13428  -1.13063  -1.13061  -1.12984  -1.12876
 Alpha  occ. eigenvalues --   -1.12870  -1.12858  -1.12822  -1.12806  -1.12740
 Alpha  occ. eigenvalues --   -0.17381  -0.14111  -0.11776  -0.10282
 Alpha virt. eigenvalues --   -0.07335  -0.05479  -0.04797  -0.03662  -0.02778
 Alpha virt. eigenvalues --   -0.02672  -0.01958  -0.01564  -0.01169  -0.00514
 Alpha virt. eigenvalues --   -0.00348  -0.00147   0.00052   0.00230   0.00364

  Beta  occ. eigenvalues --  -38.46065 -38.45679 -38.44314 -38.44014 -38.43566
  Beta  occ. eigenvalues --  -38.43365 -38.43357  -2.21935  -2.21561  -2.20198
  Beta  occ. eigenvalues --   -2.19802  -2.19373  -2.19135  -2.19110  -1.15660
  Beta  occ. eigenvalues --   -1.15613  -1.15555  -1.15254  -1.15235  -1.15162
  Beta  occ. eigenvalues --   -1.13892  -1.13890  -1.13838  -1.13492  -1.13452
  Beta  occ. eigenvalues --   -1.13444  -1.13059  -1.13044  -1.12984  -1.12833
  Beta  occ. eigenvalues --   -1.12825  -1.12803  -1.12795  -1.12780  -1.12699
  Beta  occ. eigenvalues --   -0.16730  -0.13818  -0.11566
  Beta virt. eigenvalues --   -0.07099  -0.06710  -0.05186  -0.04388  -0.03325
  Beta virt. eigenvalues --   -0.02648  -0.02437  -0.01552  -0.01341  -0.00757
  Beta virt. eigenvalues --   -0.00396  -0.00098   0.00047   0.00124   0.00371

 Mulliken charges and spin densities:
               1          2
     1  Na  -0.487423   0.244619
     2  Na   0.454263   0.360122
     3  Na   0.208383   0.076881
     4  Na  -0.188257   0.083229
     5  Na   0.323787   0.313893
     6  Na  -0.614953  -0.053170
     7  Na   0.304200  -0.025573
 Sum of Mulliken charges =  -0.00000   1.00000

 Dipole moment (field-independent basis, Debye):
    X=             -1.9839    Y=              0.3892    Z=             -0.3454  Tot=              2.0510
 Quadrupole moment (field-independent basis, Debye-Ang):
   XX=            -58.7793   YY=            -69.9306   ZZ=            -70.7024
   XY=              8.2173   XZ=              0.0211   YZ=             -3.2572

 Normal termination of Gaussian 16 at Fri Dec  8 19:09:13 2023.
