 Gaussian 16, Revision B.01,
 Gaussian 16:  ES64L-G16RevB.01 20-Dec-2017

 -------------------------
 #P B3LYP/6-311+g(d) force
 -------------------------

 -----
 DPGEN
 -----
 Symbolic Z-matrix:
 Charge =  0 Multiplicity = 2

                         Standard orientation:
 ---------------------------------------------------------------------
 Center     Atomic      Atomic             Coordinates (Angstroms)
 Number     Number       Type             X           Y           Z
 ---------------------------------------------------------------------
      1         11           0        0.066428    1.019401    1.294985
      2         11           0        1.772291    3.559047   -0.383958
      3         11           0        3.343997    0.571043   -0.219382
      4         11           0        3.212351   -2.838368   -0.376603
      5         11           0       -0.206107   -1.984001    0.648487
      6         11           0       -2.508470   -0.452157   -0.883288
      7         11           0       -5.680490    0.125034   -0.080242
 ---------------------------------------------------------------------

 SCF Done:  E(UB3LYP) =  -1136.12031117     A.U. after   20 cycles

 The electronic state is 2-A.
 Alpha  occ. eigenvalues --  -38.44797 -38.44633 -38.44051 -38.43999 -38.43905
 Alpha  occ. eigenvalues --  -38.43572 -38.43368  -2.20601  -2.20512  -2.19889
 Alpha  occ. eigenvalues --   -2.19842  -2.19801  -2.19380  -2.19170  -1.14232
 Alpha  occ. eigenvalues --   -1.14232  -1.14224  -1.14223  -1.14182  -1.14110
 Alpha  occ. eigenvalues --   -1.13584  -1.13581  -1.13564  -1.13512  -1.13505
 Alpha  occ. eigenvalues --   -1.13495  -1.13493  -1.13440  -1.13359  -1.13047
 Alpha  occ. eigenvalues --   -1.13041  -1.13011  -1.12832  -1.12828  -1.12798
 Alpha  occ. eigenvalues --   -0.17167  -0.13971  -0.12152  -0.11414
 Alpha virt. eigenvalues --   -0.06032  -0.05187  -0.04799  -0.03700  -0.03077
 Alpha virt. eigenvalues --   -0.02221  -0.01459  -0.01338  -0.01238  -0.00910
 Alpha virt. eigenvalues --   -0.00629  -0.00107   0.00445   0.00546   0.00576

  Beta  occ. eigenvalues --  -38.44691 -38.44593 -38.44019 -38.44004 -38.43872
  Beta  occ. eigenvalues --  -38.43568 -38.43340  -2.20442  -2.20402  -2.19859
  Beta  occ. eigenvalues --   -2.19829  -2.19743  -2.19374  -2.19118  -1.14173
  Beta  occ. eigenvalues --   -1.14138  -1.14097  -1.14096  -1.14095  -1.14049
  Beta  occ. eigenvalues --   -1.13566  -1.13545  -1.13526  -1.13522  -1.13497
  Beta  occ. eigenvalues --   -1.13451  -1.13439  -1.13401  -1.13320  -1.13041
  Beta  occ. eigenvalues --   -1.13034  -1.13008  -1.12797  -1.12784  -1.12769
  Beta  occ. eigenvalues --   -0.16619  -0.13127  -0.11898
  Beta virt. eigenvalues --   -0.07942  -0.05684  -0.04998  -0.04485  -0.03328
  Beta virt. eigenvalues --   -0.02752  -0.02021  -0.01177  -0.01082  -0.00926
  Beta virt. eigenvalues --   -0.00505  -0.00400   0.00072   0.00558   0.00593

 Mulliken charges and spin densities:
               1          2
     1  Na   0.025201   0.231497
     2  Na   0.255050   0.008673
     3  Na  -0.475381   0.270844
     4  Na   0.365778   0.153696
     5  Na  -0.273040  -0.116799
     6  Na  -0.032604   0.001908
     7  Na   0.134995   0.450182
 Sum of Mulliken charges =  -0.00000   1.00000

 Dipole moment (field-independent basis, Debye):
    X=             -0.6040    Y=              0.4730    Z=              0.1836  Tot=              0.7888
 Quadrupole moment (field-independent basis, Debye-Ang):
   XX=            -66.2491   YY=            -65.0454   ZZ=            -68.1767
   XY=             -0.2070   XZ=             -3.3310   YZ=             -0.8529

 Normal termination of Gaussian 16 at Tue Nov 28 20:41:25 2023.
