 Gaussian 16, Revision B.01,
 Gaussian 16:  ES64L-G16RevB.01 20-Dec-2017

 -------------------------
 #P B3LYP/6-311+g(d) force
 -------------------------

 -----
 DPGEN
 -----
 Symbolic Z-matrix:
 Charge =  0 Multiplicity = 2

                         Standard orientation:
 ---------------------------------------------------------------------
 Center     Atomic      Atomic             Coordinates (Angstroms)
 Number     Number       Type             X           Y           Z
 ---------------------------------------------------------------------
      1         11           0       -6.128715   -0.624252   -1.211881
      2         11           0       -4.048687   -2.101525    0.572398
      3         11           0        4.397001    0.236782   -0.155326
      4         11           0        1.030884    0.807375   -1.818433
      5         11           0        6.817289   -1.741252    0.125798
      6         11           0       -1.525148    0.488299    2.096746
      7         11           0       -0.542624    2.934572    0.390698
 ---------------------------------------------------------------------

 SCF Done:  E(UB3LYP) =  -1136.10549075     A.U. after   19 cycles

 The electronic state is 2-A.
 Alpha  occ. eigenvalues --  -38.44852 -38.44749 -38.44720 -38.44606 -38.44273
 Alpha  occ. eigenvalues --  -38.43777 -38.43461  -2.20658  -2.20552  -2.20511
 Alpha  occ. eigenvalues --   -2.20427  -2.20061  -2.19576  -2.19248  -1.14370
 Alpha  occ. eigenvalues --   -1.14328  -1.14313  -1.14203  -1.14188  -1.14178
 Alpha  occ. eigenvalues --   -1.14159  -1.14157  -1.14157  -1.14077  -1.14057
 Alpha  occ. eigenvalues --   -1.14036  -1.13728  -1.13717  -1.13711  -1.13244
 Alpha  occ. eigenvalues --   -1.13220  -1.13219  -1.12925  -1.12922  -1.12882
 Alpha  occ. eigenvalues --   -0.15774  -0.13758  -0.12609  -0.10880
 Alpha virt. eigenvalues --   -0.07092  -0.05353  -0.04531  -0.03434  -0.03020
 Alpha virt. eigenvalues --   -0.02526  -0.02183  -0.01859  -0.01518  -0.01235
 Alpha virt. eigenvalues --   -0.00691  -0.00195   0.00050   0.00245   0.00454

  Beta  occ. eigenvalues --  -38.44864 -38.44689 -38.44664 -38.44529 -38.44281
  Beta  occ. eigenvalues --  -38.43734 -38.43468  -2.20686  -2.20452  -2.20392
  Beta  occ. eigenvalues --   -2.20283  -2.20079  -2.19497  -2.19267  -1.14369
  Beta  occ. eigenvalues --   -1.14351  -1.14308  -1.14142  -1.14118  -1.14116
  Beta  occ. eigenvalues --   -1.14093  -1.14080  -1.14058  -1.13979  -1.13961
  Beta  occ. eigenvalues --   -1.13948  -1.13743  -1.13730  -1.13703  -1.13195
  Beta  occ. eigenvalues --   -1.13166  -1.13165  -1.12942  -1.12938  -1.12860
  Beta  occ. eigenvalues --   -0.15143  -0.13302  -0.12203
  Beta virt. eigenvalues --   -0.07680  -0.06645  -0.04897  -0.04377  -0.03177
  Beta virt. eigenvalues --   -0.02712  -0.02255  -0.01967  -0.01725  -0.01165
  Beta virt. eigenvalues --   -0.01087  -0.00425   0.00102   0.00204   0.00351

 Mulliken charges and spin densities:
               1          2
     1  Na   0.143140   0.146196
     2  Na  -0.091428  -0.059303
     3  Na  -0.526162  -0.078128
     4  Na  -0.213752   0.465399
     5  Na   0.560922   0.183925
     6  Na  -0.022323   0.385117
     7  Na   0.149603  -0.043206
 Sum of Mulliken charges =  -0.00000   1.00000

 Dipole moment (field-independent basis, Debye):
    X=             -1.8055    Y=              0.6233    Z=             -0.2510  Tot=              1.9265
 Quadrupole moment (field-independent basis, Debye-Ang):
   XX=            -70.4232   YY=            -62.5572   ZZ=            -70.3915
   XY=             -7.9284   XZ=              5.8765   YZ=             -2.5348

 Normal termination of Gaussian 16 at Sun Dec  3 20:25:20 2023.
