 Gaussian 16, Revision B.01,
 Gaussian 16:  ES64L-G16RevB.01 20-Dec-2017

 -------------------------
 #P B3LYP/6-311+g(d) force
 -------------------------

 -----
 DPGEN
 -----
 Symbolic Z-matrix:
 Charge =  0 Multiplicity = 2

                         Standard orientation:
 ---------------------------------------------------------------------
 Center     Atomic      Atomic             Coordinates (Angstroms)
 Number     Number       Type             X           Y           Z
 ---------------------------------------------------------------------
      1         11           0       -1.219618   -1.119842    2.088497
      2         11           0       -3.707940   -1.264362   -0.938881
      3         11           0       -2.746091    2.356449   -0.358728
      4         11           0        4.499132    0.131975   -1.199727
      5         11           0        0.578610    1.963711    0.544823
      6         11           0        2.854620   -0.593554    1.004731
      7         11           0       -0.258713   -1.474377   -1.140716
 ---------------------------------------------------------------------

 SCF Done:  E(UB3LYP) =  -1136.11352833     A.U. after   23 cycles

 The electronic state is 2-A.
 Alpha  occ. eigenvalues --  -38.45382 -38.44905 -38.44898 -38.44334 -38.44161
 Alpha  occ. eigenvalues --  -38.43111 -38.42820  -2.21187  -2.20747  -2.20706
 Alpha  occ. eigenvalues --   -2.20225  -2.19969  -2.18901  -2.18644  -1.14859
 Alpha  occ. eigenvalues --   -1.14828  -1.14803  -1.14522  -1.14393  -1.14383
 Alpha  occ. eigenvalues --   -1.14362  -1.14357  -1.14325  -1.13876  -1.13873
 Alpha  occ. eigenvalues --   -1.13861  -1.13642  -1.13612  -1.13585  -1.12578
 Alpha  occ. eigenvalues --   -1.12553  -1.12537  -1.12342  -1.12318  -1.12256
 Alpha  occ. eigenvalues --   -0.17566  -0.14296  -0.11330  -0.10818
 Alpha virt. eigenvalues --   -0.06877  -0.05406  -0.04998  -0.03076  -0.02908
 Alpha virt. eigenvalues --   -0.02556  -0.02235  -0.01519  -0.01258  -0.00357
 Alpha virt. eigenvalues --   -0.00102   0.00190   0.00221   0.00456   0.00566

  Beta  occ. eigenvalues --  -38.45321 -38.44909 -38.44840 -38.44328 -38.44114
  Beta  occ. eigenvalues --  -38.43086 -38.42816  -2.21077  -2.20717  -2.20639
  Beta  occ. eigenvalues --   -2.20220  -2.19881  -2.18855  -2.18637  -1.14780
  Beta  occ. eigenvalues --   -1.14751  -1.14718  -1.14454  -1.14394  -1.14377
  Beta  occ. eigenvalues --   -1.14335  -1.14288  -1.14283  -1.13879  -1.13870
  Beta  occ. eigenvalues --   -1.13806  -1.13581  -1.13551  -1.13523  -1.12547
  Beta  occ. eigenvalues --   -1.12523  -1.12499  -1.12341  -1.12294  -1.12261
  Beta  occ. eigenvalues --   -0.16934  -0.13662  -0.10746
  Beta virt. eigenvalues --   -0.07804  -0.06606  -0.04885  -0.04672  -0.02926
  Beta virt. eigenvalues --   -0.02700  -0.01903  -0.01874  -0.01200  -0.01029
  Beta virt. eigenvalues --   -0.00165   0.00014   0.00222   0.00319   0.00568

 Mulliken charges and spin densities:
               1          2
     1  Na   0.098548   0.243818
     2  Na   0.275924   0.312857
     3  Na  -0.203259   0.133423
     4  Na   0.323608   0.175580
     5  Na  -0.556987  -0.021829
     6  Na   0.456578   0.228465
     7  Na  -0.394410  -0.072314
 Sum of Mulliken charges =  -0.00000   1.00000

 Dipole moment (field-independent basis, Debye):
    X=              0.3796    Y=             -0.9788    Z=              0.2866  Tot=              1.0882
 Quadrupole moment (field-independent basis, Debye-Ang):
   XX=            -56.5100   YY=            -81.5353   ZZ=            -61.7715
   XY=              2.4214   XZ=             -4.0087   YZ=             -3.6816

 Normal termination of Gaussian 16 at Mon Dec  4 03:26:12 2023.
