 Gaussian 16, Revision B.01,
 Gaussian 16:  ES64L-G16RevB.01 20-Dec-2017

 -------------------------
 #P B3LYP/6-311+g(d) force
 -------------------------

 -----
 DPGEN
 -----
 Symbolic Z-matrix:
 Charge =  0 Multiplicity = 2

                         Standard orientation:
 ---------------------------------------------------------------------
 Center     Atomic      Atomic             Coordinates (Angstroms)
 Number     Number       Type             X           Y           Z
 ---------------------------------------------------------------------
      1         11           0       -0.902765   -0.397995   -1.315836
      2         11           0       -1.752620    1.487950    1.246101
      3         11           0       -4.773402   -0.766093    1.010850
      4         11           0       -7.039972    0.059218   -0.691094
      5         11           0        6.220215   -1.454755    0.839938
      6         11           0        2.823004   -0.861856   -0.632066
      7         11           0        5.425539    1.933531   -0.457892
 ---------------------------------------------------------------------

 SCF Done:  E(UB3LYP) =  -1136.10206028     A.U. after   29 cycles

 The electronic state is 2-A.
 Alpha  occ. eigenvalues --  -38.46440 -38.45577 -38.44127 -38.44025 -38.43880
 Alpha  occ. eigenvalues --  -38.43209 -38.43050  -2.22164  -2.21348  -2.19933
 Alpha  occ. eigenvalues --   -2.19822  -2.19658  -2.19037  -2.18872  -1.15851
 Alpha  occ. eigenvalues --   -1.15837  -1.15788  -1.15011  -1.15009  -1.14943
 Alpha  occ. eigenvalues --   -1.13593  -1.13579  -1.13562  -1.13513  -1.13498
 Alpha  occ. eigenvalues --   -1.13398  -1.13342  -1.13318  -1.13295  -1.12817
 Alpha  occ. eigenvalues --   -1.12706  -1.12675  -1.12508  -1.12505  -1.12468
 Alpha  occ. eigenvalues --   -0.15507  -0.14394  -0.11816  -0.09869
 Alpha virt. eigenvalues --   -0.07721  -0.05461  -0.04766  -0.03553  -0.02866
 Alpha virt. eigenvalues --   -0.02271  -0.02223  -0.02005  -0.01345  -0.00876
 Alpha virt. eigenvalues --   -0.00661  -0.00205   0.00103   0.00163   0.00238

  Beta  occ. eigenvalues --  -38.46461 -38.45511 -38.44070 -38.43958 -38.43888
  Beta  occ. eigenvalues --  -38.43212 -38.43021  -2.22205  -2.21223  -2.19825
  Beta  occ. eigenvalues --   -2.19698  -2.19676  -2.19047  -2.18819  -1.15881
  Beta  occ. eigenvalues --   -1.15849  -1.15815  -1.14924  -1.14919  -1.14860
  Beta  occ. eigenvalues --   -1.13523  -1.13510  -1.13489  -1.13427  -1.13411
  Beta  occ. eigenvalues --   -1.13358  -1.13333  -1.13313  -1.13276  -1.12806
  Beta  occ. eigenvalues --   -1.12715  -1.12673  -1.12471  -1.12468  -1.12440
  Beta  occ. eigenvalues --   -0.15020  -0.14055  -0.11376
  Beta virt. eigenvalues --   -0.07288  -0.06740  -0.05060  -0.04534  -0.03387
  Beta virt. eigenvalues --   -0.02613  -0.02074  -0.01891  -0.01724  -0.01104
  Beta virt. eigenvalues --   -0.00579  -0.00552  -0.00051   0.00266   0.00299

 Mulliken charges and spin densities:
               1          2
     1  Na  -0.214041  -0.096818
     2  Na   0.128886   0.285376
     3  Na  -0.298721  -0.046142
     4  Na   0.223773   0.147305
     5  Na   0.706517   0.003095
     6  Na  -0.704326   0.313867
     7  Na   0.157911   0.393316
 Sum of Mulliken charges =  -0.00000   1.00000

 Dipole moment (field-independent basis, Debye):
    X=              4.3417    Y=              0.0863    Z=              0.4548  Tot=              4.3663
 Quadrupole moment (field-independent basis, Debye-Ang):
   XX=            -64.4025   YY=            -65.7698   ZZ=            -67.1786
   XY=             -9.9730   XZ=              8.5570   YZ=             -4.0828

 Normal termination of Gaussian 16 at Sun Dec  3 20:37:19 2023.
