 Gaussian 16, Revision B.01,
 Gaussian 16:  ES64L-G16RevB.01 20-Dec-2017

 -------------------------
 #P B3LYP/6-311+g(d) force
 -------------------------

 -----
 DPGEN
 -----
 Symbolic Z-matrix:
 Charge =  0 Multiplicity = 2

                         Standard orientation:
 ---------------------------------------------------------------------
 Center     Atomic      Atomic             Coordinates (Angstroms)
 Number     Number       Type             X           Y           Z
 ---------------------------------------------------------------------
      1         11           0       -0.226910   -0.203075   -1.791842
      2         11           0        0.871591   -2.491261    0.117413
      3         11           0        1.186307    2.511052   -0.299428
      4         11           0       -2.507195   -1.492085   -0.145422
      5         11           0       -2.343598    1.715336    0.140116
      6         11           0        3.273377   -0.165759    0.088441
      7         11           0       -0.253572    0.125792    1.890723
 ---------------------------------------------------------------------

 SCF Done:  E(UB3LYP) =  -1136.13631426     A.U. after   19 cycles

 The electronic state is 2-A.
 Alpha  occ. eigenvalues --  -38.44271 -38.43654 -38.43560 -38.43504 -38.43378
 Alpha  occ. eigenvalues --  -38.43155 -38.42965  -2.20091  -2.19580  -2.19475
 Alpha  occ. eigenvalues --   -2.19467  -2.19382  -2.19014  -2.18876  -1.13756
 Alpha  occ. eigenvalues --   -1.13753  -1.13742  -1.13335  -1.13267  -1.13225
 Alpha  occ. eigenvalues --   -1.13209  -1.13141  -1.13120  -1.13088  -1.13074
 Alpha  occ. eigenvalues --   -1.13057  -1.13051  -1.13008  -1.12991  -1.12695
 Alpha  occ. eigenvalues --   -1.12680  -1.12639  -1.12564  -1.12544  -1.12489
 Alpha  occ. eigenvalues --   -0.19235  -0.13363  -0.12357  -0.11022
 Alpha virt. eigenvalues --   -0.05802  -0.05028  -0.04223  -0.03343  -0.02892
 Alpha virt. eigenvalues --   -0.02611  -0.01603  -0.00934  -0.00156  -0.00053
 Alpha virt. eigenvalues --    0.00020   0.00354   0.00818   0.00932   0.00955

  Beta  occ. eigenvalues --  -38.44273 -38.43644 -38.43551 -38.43418 -38.43297
  Beta  occ. eigenvalues --  -38.43148 -38.42957  -2.20096  -2.19567  -2.19458
  Beta  occ. eigenvalues --   -2.19314  -2.19235  -2.19004  -2.18865  -1.13761
  Beta  occ. eigenvalues --   -1.13747  -1.13743  -1.13316  -1.13233  -1.13203
  Beta  occ. eigenvalues --   -1.13169  -1.13094  -1.13078  -1.13034  -1.12974
  Beta  occ. eigenvalues --   -1.12964  -1.12956  -1.12907  -1.12890  -1.12685
  Beta  occ. eigenvalues --   -1.12654  -1.12636  -1.12558  -1.12505  -1.12485
  Beta  occ. eigenvalues --   -0.18475  -0.13120  -0.12078
  Beta virt. eigenvalues --   -0.07054  -0.05753  -0.05029  -0.04219  -0.02534
  Beta virt. eigenvalues --   -0.02066  -0.01564  -0.01505  -0.00881  -0.00187
  Beta virt. eigenvalues --   -0.00072   0.00116   0.00374   0.00868   0.00931

 Mulliken charges and spin densities:
               1          2
     1  Na  -0.436774   0.651445
     2  Na   0.190153  -0.091275
     3  Na   0.065117  -0.096834
     4  Na   0.507723  -0.021593
     5  Na   0.303405  -0.035157
     6  Na  -0.131377  -0.096563
     7  Na  -0.498247   0.689977
 Sum of Mulliken charges =  -0.00000   1.00000

 Dipole moment (field-independent basis, Debye):
    X=              0.1462    Y=              0.0393    Z=              0.0785  Tot=              0.1706
 Quadrupole moment (field-independent basis, Debye-Ang):
   XX=            -54.6127   YY=            -66.2909   ZZ=            -73.0586
   XY=              0.0308   XZ=              0.2339   YZ=             -0.6546

 Normal termination of Gaussian 16 at Thu Dec  7 11:22:25 2023.
