 Gaussian 16, Revision B.01,
 Gaussian 16:  ES64L-G16RevB.01 20-Dec-2017

 -------------------------
 #P B3LYP/6-311+g(d) force
 -------------------------

 -----
 DPGEN
 -----
 Symbolic Z-matrix:
 Charge =  0 Multiplicity = 2

                         Standard orientation:
 ---------------------------------------------------------------------
 Center     Atomic      Atomic             Coordinates (Angstroms)
 Number     Number       Type             X           Y           Z
 ---------------------------------------------------------------------
      1         11           0        3.590130   -0.590384   -0.400486
      2         11           0        0.801934   -0.213030   -0.503086
      3         11           0       -0.012155   -0.907443    1.898714
      4         11           0       -1.355476    0.391635   -1.869886
      5         11           0        0.470690    2.441065    0.431414
      6         11           0       -1.853784    0.847727    0.685614
      7         11           0       -1.641338   -1.969570   -0.242286
 ---------------------------------------------------------------------

 SCF Done:  E(UB3LYP) =  -1136.06656968     A.U. after   24 cycles

 The electronic state is 2-A.
 Alpha  occ. eigenvalues --  -38.45023 -38.44723 -38.44639 -38.43921 -38.43469
 Alpha  occ. eigenvalues --  -38.43192 -38.43163  -2.21197  -2.20855  -2.20466
 Alpha  occ. eigenvalues --   -2.20223  -2.19930  -2.19279  -2.19193  -1.15147
 Alpha  occ. eigenvalues --   -1.14963  -1.14816  -1.14713  -1.14521  -1.14423
 Alpha  occ. eigenvalues --   -1.14257  -1.14085  -1.14078  -1.13912  -1.13849
 Alpha  occ. eigenvalues --   -1.13800  -1.13577  -1.13508  -1.13502  -1.12980
 Alpha  occ. eigenvalues --   -1.12928  -1.12874  -1.12865  -1.12813  -1.12758
 Alpha  occ. eigenvalues --   -0.21127  -0.13320  -0.12593  -0.12207
 Alpha virt. eigenvalues --   -0.05905  -0.04073  -0.03597  -0.03360  -0.02917
 Alpha virt. eigenvalues --   -0.02880  -0.01426  -0.00669  -0.00340   0.00277
 Alpha virt. eigenvalues --    0.00571   0.00759   0.00797   0.00956   0.01095

  Beta  occ. eigenvalues --  -38.44939 -38.44640 -38.44633 -38.43882 -38.43433
  Beta  occ. eigenvalues --  -38.43181 -38.43147  -2.21046  -2.20706  -2.20455
  Beta  occ. eigenvalues --   -2.20163  -2.19875  -2.19258  -2.19176  -1.15058
  Beta  occ. eigenvalues --   -1.14849  -1.14723  -1.14600  -1.14398  -1.14315
  Beta  occ. eigenvalues --   -1.14243  -1.14076  -1.14071  -1.13868  -1.13797
  Beta  occ. eigenvalues --   -1.13709  -1.13507  -1.13482  -1.13431  -1.12973
  Beta  occ. eigenvalues --   -1.12865  -1.12856  -1.12845  -1.12785  -1.12742
  Beta  occ. eigenvalues --   -0.20213  -0.13023  -0.11991
  Beta virt. eigenvalues --   -0.08258  -0.05667  -0.03992  -0.03198  -0.02836
  Beta virt. eigenvalues --   -0.02348  -0.01837  -0.01333  -0.00604  -0.00101
  Beta virt. eigenvalues --    0.00330   0.00605   0.00776   0.00961   0.00991

 Mulliken charges and spin densities:
               1          2
     1  Na   0.025873  -0.107425
     2  Na  -0.442859  -0.136779
     3  Na   0.158196   0.510957
     4  Na   0.339709   0.254338
     5  Na  -0.171599   0.092605
     6  Na   0.143424   0.209605
     7  Na  -0.052745   0.176700
 Sum of Mulliken charges =  -0.00000   1.00000

 Dipole moment (field-independent basis, Debye):
    X=              0.3714    Y=              0.0667    Z=              0.0928  Tot=              0.3886
 Quadrupole moment (field-independent basis, Debye-Ang):
   XX=            -58.2158   YY=            -70.0839   ZZ=            -65.0323
   XY=              1.2396   XZ=              0.3353   YZ=              1.3325

 Normal termination of Gaussian 16 at Fri Dec  8 17:45:17 2023.
