 Gaussian 16, Revision B.01,
 Gaussian 16:  ES64L-G16RevB.01 20-Dec-2017

 -------------------------
 #P B3LYP/6-311+g(d) force
 -------------------------

 -----
 DPGEN
 -----
 Symbolic Z-matrix:
 Charge =  0 Multiplicity = 2

                         Standard orientation:
 ---------------------------------------------------------------------
 Center     Atomic      Atomic             Coordinates (Angstroms)
 Number     Number       Type             X           Y           Z
 ---------------------------------------------------------------------
      1         11           0        0.248222   -0.123429    2.254340
      2         11           0       -1.048683   -2.747160    0.013765
      3         11           0        2.195999    2.037748   -0.344041
      4         11           0       -3.363106   -0.155381   -0.429255
      5         11           0        0.326070   -0.134773   -1.499336
      6         11           0       -1.271131    2.647054    0.181071
      7         11           0        2.912628   -1.524060   -0.176543
 ---------------------------------------------------------------------

 SCF Done:  E(UB3LYP) =  -1136.13523686     A.U. after   19 cycles

 The electronic state is 2-A.
 Alpha  occ. eigenvalues --  -38.44220 -38.44165 -38.43829 -38.43739 -38.43534
 Alpha  occ. eigenvalues --  -38.43272 -38.43265  -2.20039  -2.19960  -2.19679
 Alpha  occ. eigenvalues --   -2.19600  -2.19362  -2.19263  -2.19089  -1.13732
 Alpha  occ. eigenvalues --   -1.13695  -1.13670  -1.13632  -1.13612  -1.13606
 Alpha  occ. eigenvalues --   -1.13342  -1.13331  -1.13307  -1.13294  -1.13251
 Alpha  occ. eigenvalues --   -1.13214  -1.13070  -1.13031  -1.12983  -1.12941
 Alpha  occ. eigenvalues --   -1.12896  -1.12881  -1.12760  -1.12758  -1.12727
 Alpha  occ. eigenvalues --   -0.18346  -0.13025  -0.12248  -0.10797
 Alpha virt. eigenvalues --   -0.05869  -0.05294  -0.04561  -0.03113  -0.02858
 Alpha virt. eigenvalues --   -0.02722  -0.01714  -0.01168  -0.00555  -0.00315
 Alpha virt. eigenvalues --   -0.00048   0.00314   0.00754   0.00825   0.00876

  Beta  occ. eigenvalues --  -38.44216 -38.44159 -38.43730 -38.43717 -38.43530
  Beta  occ. eigenvalues --  -38.43262 -38.43225  -2.20034  -2.19950  -2.19588
  Beta  occ. eigenvalues --   -2.19472  -2.19358  -2.19179  -2.19086  -1.13721
  Beta  occ. eigenvalues --   -1.13687  -1.13661  -1.13616  -1.13607  -1.13601
  Beta  occ. eigenvalues --   -1.13324  -1.13232  -1.13205  -1.13193  -1.13163
  Beta  occ. eigenvalues --   -1.13144  -1.13061  -1.13012  -1.12979  -1.12881
  Beta  occ. eigenvalues --   -1.12841  -1.12819  -1.12757  -1.12739  -1.12727
  Beta  occ. eigenvalues --   -0.17647  -0.12787  -0.12052
  Beta virt. eigenvalues --   -0.06839  -0.05824  -0.05264  -0.04500  -0.02410
  Beta virt. eigenvalues --   -0.02077  -0.01654  -0.01609  -0.01114  -0.00582
  Beta virt. eigenvalues --   -0.00345   0.00118   0.00360   0.00822   0.00845

 Mulliken charges and spin densities:
               1          2
     1  Na  -0.513028   0.753164
     2  Na   0.155185   0.014785
     3  Na   0.265161   0.021185
     4  Na  -0.006805   0.010136
     5  Na  -0.222531   0.176699
     6  Na   0.065103   0.039505
     7  Na   0.256915  -0.015474
 Sum of Mulliken charges =  -0.00000   1.00000

 Dipole moment (field-independent basis, Debye):
    X=              0.2295    Y=             -0.1996    Z=              0.1377  Tot=              0.3339
 Quadrupole moment (field-independent basis, Debye-Ang):
   XX=            -54.9939   YY=            -63.9911   ZZ=            -74.4876
   XY=             -0.7079   XZ=              0.4554   YZ=             -0.0588

 Normal termination of Gaussian 16 at Thu Dec  7 23:14:14 2023.
