 Gaussian 16, Revision B.01,
 Gaussian 16:  ES64L-G16RevB.01 20-Dec-2017

 -------------------------
 #P B3LYP/6-311+g(d) force
 -------------------------

 -----
 DPGEN
 -----
 Symbolic Z-matrix:
 Charge =  0 Multiplicity = 2

                         Standard orientation:
 ---------------------------------------------------------------------
 Center     Atomic      Atomic             Coordinates (Angstroms)
 Number     Number       Type             X           Y           Z
 ---------------------------------------------------------------------
      1         11           0       -1.474547    2.737052    0.333204
      2         11           0       -0.295112    0.121542    2.077119
      3         11           0        2.959021   -1.537298    0.217370
      4         11           0       -0.044372    0.224975   -1.705398
      5         11           0        2.470027    1.863981   -0.430856
      6         11           0       -2.923803   -0.747726   -0.497169
      7         11           0       -0.691214   -2.662526    0.005730
 ---------------------------------------------------------------------

 SCF Done:  E(UB3LYP) =  -1136.13424497     A.U. after   20 cycles

 The electronic state is 2-A.
 Alpha  occ. eigenvalues --  -38.44011 -38.44002 -38.43933 -38.43841 -38.43472
 Alpha  occ. eigenvalues --  -38.43456 -38.43173  -2.19833  -2.19829  -2.19784
 Alpha  occ. eigenvalues --   -2.19723  -2.19426  -2.19278  -2.19074  -1.13557
 Alpha  occ. eigenvalues --   -1.13535  -1.13500  -1.13493  -1.13462  -1.13459
 Alpha  occ. eigenvalues --   -1.13452  -1.13434  -1.13413  -1.13387  -1.13357
 Alpha  occ. eigenvalues --   -1.13344  -1.13105  -1.13065  -1.13052  -1.12956
 Alpha  occ. eigenvalues --   -1.12930  -1.12914  -1.12752  -1.12729  -1.12707
 Alpha  occ. eigenvalues --   -0.18530  -0.13071  -0.12270  -0.10997
 Alpha virt. eigenvalues --   -0.05480  -0.05450  -0.04534  -0.03238  -0.02986
 Alpha virt. eigenvalues --   -0.02753  -0.01507  -0.01228  -0.00409  -0.00215
 Alpha virt. eigenvalues --   -0.00029   0.00344   0.00774   0.00848   0.00907

  Beta  occ. eigenvalues --  -38.44003 -38.44001 -38.43918 -38.43747 -38.43449
  Beta  occ. eigenvalues --  -38.43408 -38.43167  -2.19813  -2.19809  -2.19787
  Beta  occ. eigenvalues --   -2.19550  -2.19310  -2.19268  -2.19068  -1.13542
  Beta  occ. eigenvalues --   -1.13514  -1.13481  -1.13471  -1.13456  -1.13451
  Beta  occ. eigenvalues --   -1.13434  -1.13424  -1.13411  -1.13274  -1.13235
  Beta  occ. eigenvalues --   -1.13218  -1.13028  -1.12984  -1.12971  -1.12932
  Beta  occ. eigenvalues --   -1.12916  -1.12905  -1.12751  -1.12715  -1.12682
  Beta  occ. eigenvalues --   -0.17799  -0.12830  -0.12016
  Beta virt. eigenvalues --   -0.07101  -0.05412  -0.05378  -0.04493  -0.02528
  Beta virt. eigenvalues --   -0.02232  -0.01723  -0.01393  -0.01128  -0.00423
  Beta virt. eigenvalues --   -0.00257   0.00104   0.00377   0.00827   0.00878

 Mulliken charges and spin densities:
               1          2
     1  Na   0.026588  -0.072295
     2  Na  -0.401182   0.726681
     3  Na  -0.116098  -0.033892
     4  Na  -0.083275   0.386539
     5  Na   0.113805  -0.066174
     6  Na   0.508966   0.056312
     7  Na  -0.048804   0.002829
 Sum of Mulliken charges =  -0.00000   1.00000

 Dipole moment (field-independent basis, Debye):
    X=              0.1360    Y=              0.1973    Z=              0.1122  Tot=              0.2646
 Quadrupole moment (field-independent basis, Debye-Ang):
   XX=            -57.3668   YY=            -63.7701   ZZ=            -73.3055
   XY=             -0.5786   XZ=              0.9952   YZ=             -0.3044

 Normal termination of Gaussian 16 at Thu Dec  7 02:59:23 2023.
