 Gaussian 16, Revision B.01,
 Gaussian 16:  ES64L-G16RevB.01 20-Dec-2017

 -------------------------
 #P B3LYP/6-311+g(d) force
 -------------------------

 -----
 DPGEN
 -----
 Symbolic Z-matrix:
 Charge =  0 Multiplicity = 2

                         Standard orientation:
 ---------------------------------------------------------------------
 Center     Atomic      Atomic             Coordinates (Angstroms)
 Number     Number       Type             X           Y           Z
 ---------------------------------------------------------------------
      1         11           0        2.170935    1.440530   -0.256740
      2         11           0        5.469945    0.210009    0.381965
      3         11           0        3.588455   -1.807915   -0.120644
      4         11           0        0.263985   -1.090302   -0.364286
      5         11           0       -1.245116    2.227371   -0.077835
      6         11           0       -3.598757   -0.407015    0.593181
      7         11           0       -6.649447   -0.572679   -0.155641
 ---------------------------------------------------------------------

 SCF Done:  E(UB3LYP) =  -1136.11638895     A.U. after   20 cycles

 The electronic state is 2-A.
 Alpha  occ. eigenvalues --  -38.44661 -38.44445 -38.44340 -38.44326 -38.43989
 Alpha  occ. eigenvalues --  -38.43985 -38.43613  -2.20538  -2.20275  -2.20262
 Alpha  occ. eigenvalues --   -2.20202  -2.19883  -2.19760  -2.19434  -1.14264
 Alpha  occ. eigenvalues --   -1.14231  -1.14186  -1.14124  -1.13932  -1.13919
 Alpha  occ. eigenvalues --   -1.13917  -1.13913  -1.13879  -1.13821  -1.13815
 Alpha  occ. eigenvalues --   -1.13717  -1.13569  -1.13547  -1.13464  -1.13440
 Alpha  occ. eigenvalues --   -1.13420  -1.13419  -1.13115  -1.13105  -1.13043
 Alpha  occ. eigenvalues --   -0.17559  -0.14479  -0.11957  -0.11132
 Alpha virt. eigenvalues --   -0.06944  -0.05527  -0.04388  -0.03628  -0.02927
 Alpha virt. eigenvalues --   -0.02589  -0.02329  -0.01419  -0.00954  -0.00645
 Alpha virt. eigenvalues --   -0.00358   0.00006   0.00096   0.00342   0.00715

  Beta  occ. eigenvalues --  -38.44632 -38.44414 -38.44309 -38.44293 -38.43995
  Beta  occ. eigenvalues --  -38.43918 -38.43610  -2.20487  -2.20222  -2.20205
  Beta  occ. eigenvalues --   -2.20141  -2.19779  -2.19755  -2.19427  -1.14206
  Beta  occ. eigenvalues --   -1.14200  -1.14134  -1.14081  -1.13894  -1.13889
  Beta  occ. eigenvalues --   -1.13875  -1.13869  -1.13843  -1.13780  -1.13765
  Beta  occ. eigenvalues --   -1.13663  -1.13485  -1.13463  -1.13452  -1.13432
  Beta  occ. eigenvalues --   -1.13431  -1.13349  -1.13106  -1.13100  -1.13047
  Beta  occ. eigenvalues --   -0.16820  -0.14324  -0.11860
  Beta virt. eigenvalues --   -0.07191  -0.06818  -0.04877  -0.04172  -0.03469
  Beta virt. eigenvalues --   -0.02589  -0.02259  -0.01807  -0.01365  -0.00825
  Beta virt. eigenvalues --   -0.00344   0.00014   0.00166   0.00242   0.00505

 Mulliken charges and spin densities:
               1          2
     1  Na  -0.165827   0.129495
     2  Na   0.326668   0.142142
     3  Na   1.134607  -0.065970
     4  Na  -1.120642   0.600456
     5  Na   0.152037   0.287878
     6  Na  -0.870946  -0.026551
     7  Na   0.544102  -0.067450
 Sum of Mulliken charges =  -0.00000   1.00000

 Dipole moment (field-independent basis, Debye):
    X=              1.0221    Y=              0.4662    Z=             -0.1309  Tot=              1.1310
 Quadrupole moment (field-independent basis, Debye-Ang):
   XX=            -57.0892   YY=            -67.9964   ZZ=            -72.4469
   XY=             -2.6303   XZ=              3.2754   YZ=             -0.2106

 Normal termination of Gaussian 16 at Tue Nov 28 23:38:16 2023.
