 Gaussian 16, Revision B.01,
 Gaussian 16:  ES64L-G16RevB.01 20-Dec-2017

 -------------------------
 #P B3LYP/6-311+g(d) force
 -------------------------

 -----
 DPGEN
 -----
 Symbolic Z-matrix:
 Charge =  0 Multiplicity = 2

                         Standard orientation:
 ---------------------------------------------------------------------
 Center     Atomic      Atomic             Coordinates (Angstroms)
 Number     Number       Type             X           Y           Z
 ---------------------------------------------------------------------
      1         11           0        0.428801   -0.159772   -1.224676
      2         11           0       -0.660944    0.206342    2.260738
      3         11           0        1.322440   -2.630889    0.010918
      4         11           0       -2.864322    1.364978   -0.768436
      5         11           0       -2.342012   -1.999369   -0.160165
      6         11           0        0.599134    2.881864    0.053089
      7         11           0        3.516901    0.336845   -0.171468
 ---------------------------------------------------------------------

 SCF Done:  E(UB3LYP) =  -1136.13239893     A.U. after   19 cycles

 The electronic state is 2-A.
 Alpha  occ. eigenvalues --  -38.44546 -38.43998 -38.43731 -38.43635 -38.43617
 Alpha  occ. eigenvalues --  -38.43482 -38.43101  -2.20340  -2.19813  -2.19566
 Alpha  occ. eigenvalues --   -2.19497  -2.19468  -2.19298  -2.19133  -1.14021
 Alpha  occ. eigenvalues --   -1.13997  -1.13971  -1.13485  -1.13470  -1.13446
 Alpha  occ. eigenvalues --   -1.13313  -1.13241  -1.13232  -1.13201  -1.13146
 Alpha  occ. eigenvalues --   -1.13124  -1.13093  -1.13087  -1.13081  -1.13004
 Alpha  occ. eigenvalues --   -1.12965  -1.12918  -1.12814  -1.12767  -1.12736
 Alpha  occ. eigenvalues --   -0.18272  -0.13125  -0.12250  -0.10531
 Alpha virt. eigenvalues --   -0.06020  -0.05288  -0.04622  -0.03083  -0.02724
 Alpha virt. eigenvalues --   -0.02423  -0.01896  -0.01169  -0.00577  -0.00476
 Alpha virt. eigenvalues --   -0.00060   0.00287   0.00722   0.00813   0.00839

  Beta  occ. eigenvalues --  -38.44546 -38.43971 -38.43724 -38.43633 -38.43507
  Beta  occ. eigenvalues --  -38.43478 -38.43072  -2.20341  -2.19765  -2.19558
  Beta  occ. eigenvalues --   -2.19495  -2.19295  -2.19266  -2.19082  -1.14014
  Beta  occ. eigenvalues --   -1.13998  -1.13974  -1.13443  -1.13437  -1.13410
  Beta  occ. eigenvalues --   -1.13307  -1.13233  -1.13215  -1.13186  -1.13131
  Beta  occ. eigenvalues --   -1.13086  -1.13007  -1.12984  -1.12957  -1.12950
  Beta  occ. eigenvalues --   -1.12927  -1.12918  -1.12764  -1.12737  -1.12698
  Beta  occ. eigenvalues --   -0.17624  -0.12865  -0.12071
  Beta virt. eigenvalues --   -0.06619  -0.05906  -0.05245  -0.04559  -0.02440
  Beta virt. eigenvalues --   -0.01983  -0.01819  -0.01384  -0.01099  -0.00547
  Beta virt. eigenvalues --   -0.00505   0.00140   0.00359   0.00811   0.00827

 Mulliken charges and spin densities:
               1          2
     1  Na  -0.157334   0.112523
     2  Na  -0.549040   0.666946
     3  Na   0.097320   0.001844
     4  Na   0.110840   0.147435
     5  Na   0.281070   0.083532
     6  Na   0.078136   0.001008
     7  Na   0.139008  -0.013288
 Sum of Mulliken charges =  -0.00000   1.00000

 Dipole moment (field-independent basis, Debye):
    X=              0.3686    Y=              0.0330    Z=              0.2164  Tot=              0.4287
 Quadrupole moment (field-independent basis, Debye-Ang):
   XX=            -53.6298   YY=            -63.3286   ZZ=            -75.3707
   XY=              0.6465   XZ=              1.7887   YZ=             -0.9909

 Normal termination of Gaussian 16 at Thu Dec  7 18:52:03 2023.
