 Gaussian 16, Revision B.01,
 Gaussian 16:  ES64L-G16RevB.01 20-Dec-2017

 -------------------------
 #P B3LYP/6-311+g(d) force
 -------------------------

 -----
 DPGEN
 -----
 Symbolic Z-matrix:
 Charge =  0 Multiplicity = 2

                         Standard orientation:
 ---------------------------------------------------------------------
 Center     Atomic      Atomic             Coordinates (Angstroms)
 Number     Number       Type             X           Y           Z
 ---------------------------------------------------------------------
      1         11           0       -0.612648   -0.164421    2.061420
      2         11           0       -1.493346   -1.469459   -1.362676
      3         11           0       -4.104275   -0.619591    0.724423
      4         11           0       -1.422110    1.854939   -0.963426
      5         11           0        1.424863   -0.535580   -1.203763
      6         11           0        1.997184    2.426401    0.264902
      7         11           0        4.210333   -1.492288    0.479119
 ---------------------------------------------------------------------

 SCF Done:  E(UB3LYP) =  -1136.11575038     A.U. after   29 cycles

 The electronic state is 2-A.
 Alpha  occ. eigenvalues --  -38.45826 -38.44981 -38.44091 -38.43914 -38.43771
 Alpha  occ. eigenvalues --  -38.43499 -38.43183  -2.21615  -2.20767  -2.20014
 Alpha  occ. eigenvalues --   -2.19713  -2.19521  -2.19355  -2.19122  -1.15301
 Alpha  occ. eigenvalues --   -1.15259  -1.15215  -1.14436  -1.14431  -1.14399
 Alpha  occ. eigenvalues --   -1.13731  -1.13655  -1.13616  -1.13403  -1.13374
 Alpha  occ. eigenvalues --   -1.13325  -1.13198  -1.13190  -1.13173  -1.13045
 Alpha  occ. eigenvalues --   -1.13021  -1.12960  -1.12844  -1.12778  -1.12709
 Alpha  occ. eigenvalues --   -0.18304  -0.13509  -0.11555  -0.10816
 Alpha virt. eigenvalues --   -0.07260  -0.05504  -0.04333  -0.03289  -0.02820
 Alpha virt. eigenvalues --   -0.02516  -0.02327  -0.01505  -0.01082  -0.00209
 Alpha virt. eigenvalues --   -0.00090   0.00168   0.00283   0.00459   0.00557

  Beta  occ. eigenvalues --  -38.45762 -38.44972 -38.44019 -38.43903 -38.43792
  Beta  occ. eigenvalues --  -38.43473 -38.43140  -2.21496  -2.20751  -2.19887
  Beta  occ. eigenvalues --   -2.19693  -2.19560  -2.19310  -2.19050  -1.15216
  Beta  occ. eigenvalues --   -1.15177  -1.15126  -1.14424  -1.14413  -1.14386
  Beta  occ. eigenvalues --   -1.13639  -1.13560  -1.13514  -1.13389  -1.13357
  Beta  occ. eigenvalues --   -1.13312  -1.13225  -1.13215  -1.13197  -1.13007
  Beta  occ. eigenvalues --   -1.12972  -1.12936  -1.12788  -1.12710  -1.12654
  Beta  occ. eigenvalues --   -0.17424  -0.13448  -0.10736
  Beta virt. eigenvalues --   -0.07560  -0.06874  -0.05393  -0.03927  -0.02847
  Beta virt. eigenvalues --   -0.02509  -0.01943  -0.01786  -0.01281  -0.00840
  Beta virt. eigenvalues --   -0.00184  -0.00056   0.00282   0.00379   0.00532

 Mulliken charges and spin densities:
               1          2
     1  Na  -0.358253   0.458492
     2  Na   0.184780   0.180894
     3  Na   0.402878   0.126403
     4  Na  -0.072230   0.140687
     5  Na  -0.531075   0.123192
     6  Na   0.110985   0.055101
     7  Na   0.262916  -0.084771
 Sum of Mulliken charges =  -0.00000   1.00000

 Dipole moment (field-independent basis, Debye):
    X=             -1.4545    Y=              0.6709    Z=              0.8690  Tot=              1.8223
 Quadrupole moment (field-independent basis, Debye-Ang):
   XX=            -52.9309   YY=            -74.3767   ZZ=            -69.1529
   XY=              2.9864   XZ=              2.8578   YZ=             -0.6849

 Normal termination of Gaussian 16 at Thu Dec  7 06:26:45 2023.
