 Gaussian 16, Revision B.01,
 Gaussian 16:  ES64L-G16RevB.01 20-Dec-2017

 -------------------------
 #P B3LYP/6-311+g(d) force
 -------------------------

 -----
 DPGEN
 -----
 Symbolic Z-matrix:
 Charge =  0 Multiplicity = 2

                         Standard orientation:
 ---------------------------------------------------------------------
 Center     Atomic      Atomic             Coordinates (Angstroms)
 Number     Number       Type             X           Y           Z
 ---------------------------------------------------------------------
      1         11           0       -1.104168    2.361751    0.621858
      2         11           0       -3.354592    0.795433    0.174930
      3         11           0        2.472963    1.832964   -0.862447
      4         11           0        3.245893   -1.277097    0.187715
      5         11           0        0.909074   -0.815671    1.945581
      6         11           0        0.039319   -0.341994   -1.574013
      7         11           0       -2.208489   -2.555387   -0.493623
 ---------------------------------------------------------------------

 SCF Done:  E(UB3LYP) =  -1136.11902328     A.U. after   21 cycles

 The electronic state is 2-A.
 Alpha  occ. eigenvalues --  -38.44842 -38.44839 -38.44528 -38.44109 -38.43806
 Alpha  occ. eigenvalues --  -38.43284 -38.43003  -2.20711  -2.20705  -2.20401
 Alpha  occ. eigenvalues --   -2.19955  -2.19718  -2.19092  -2.18894  -1.14484
 Alpha  occ. eigenvalues --   -1.14480  -1.14351  -1.14349  -1.14341  -1.14300
 Alpha  occ. eigenvalues --   -1.14039  -1.14028  -1.14004  -1.13639  -1.13594
 Alpha  occ. eigenvalues --   -1.13588  -1.13411  -1.13361  -1.13337  -1.12764
 Alpha  occ. eigenvalues --   -1.12738  -1.12737  -1.12602  -1.12529  -1.12511
 Alpha  occ. eigenvalues --   -0.18247  -0.14055  -0.11750  -0.10997
 Alpha virt. eigenvalues --   -0.06605  -0.05546  -0.03852  -0.03667  -0.03067
 Alpha virt. eigenvalues --   -0.02303  -0.02209  -0.01422  -0.00511  -0.00187
 Alpha virt. eigenvalues --    0.00025   0.00172   0.00441   0.00627   0.00716

  Beta  occ. eigenvalues --  -38.44832 -38.44828 -38.44449 -38.44072 -38.43751
  Beta  occ. eigenvalues --  -38.43274 -38.42992  -2.20695  -2.20692  -2.20256
  Beta  occ. eigenvalues --   -2.19889  -2.19618  -2.19075  -2.18876  -1.14475
  Beta  occ. eigenvalues --   -1.14439  -1.14344  -1.14339  -1.14307  -1.14290
  Beta  occ. eigenvalues --   -1.13950  -1.13921  -1.13906  -1.13580  -1.13551
  Beta  occ. eigenvalues --   -1.13542  -1.13341  -1.13299  -1.13254  -1.12743
  Beta  occ. eigenvalues --   -1.12730  -1.12726  -1.12592  -1.12518  -1.12484
  Beta  occ. eigenvalues --   -0.17635  -0.13723  -0.11353
  Beta virt. eigenvalues --   -0.07318  -0.06448  -0.05387  -0.03723  -0.03075
  Beta virt. eigenvalues --   -0.02312  -0.02136  -0.01596  -0.01191  -0.00521
  Beta virt. eigenvalues --   -0.00007   0.00056   0.00264   0.00650   0.00720

 Mulliken charges and spin densities:
               1          2
     1  Na  -0.049059   0.116665
     2  Na  -0.137699  -0.019919
     3  Na   0.270395   0.153076
     4  Na   0.254963   0.169419
     5  Na  -0.284082   0.335220
     6  Na  -0.277530   0.153301
     7  Na   0.223013   0.092238
 Sum of Mulliken charges =  -0.00000   1.00000

 Dipole moment (field-independent basis, Debye):
    X=              0.6741    Y=             -0.2715    Z=              0.0549  Tot=              0.7288
 Quadrupole moment (field-independent basis, Debye-Ang):
   XX=            -51.7220   YY=            -71.7137   ZZ=            -73.1692
   XY=              1.0605   XZ=             -2.2778   YZ=             -0.4885

 Normal termination of Gaussian 16 at Sun Dec  3 20:26:23 2023.
