 Gaussian 16, Revision B.01,
 Gaussian 16:  ES64L-G16RevB.01 20-Dec-2017

 -------------------------
 #P B3LYP/6-311+g(d) force
 -------------------------

 -----
 DPGEN
 -----
 Symbolic Z-matrix:
 Charge =  0 Multiplicity = 2

                         Standard orientation:
 ---------------------------------------------------------------------
 Center     Atomic      Atomic             Coordinates (Angstroms)
 Number     Number       Type             X           Y           Z
 ---------------------------------------------------------------------
      1         11           0       -1.814608    0.545991    1.115786
      2         11           0       -1.829498   -1.490809   -1.143014
      3         11           0        3.782737   -0.472381   -0.277414
      4         11           0        0.901296   -0.324596   -0.469114
      5         11           0        0.460983    2.283302    0.710586
      6         11           0       -1.137111    1.172594   -1.424014
      7         11           0       -0.363797   -1.714102    1.487186
 ---------------------------------------------------------------------

 SCF Done:  E(UB3LYP) =  -1136.07009466     A.U. after   23 cycles

 The electronic state is 2-A.
 Alpha  occ. eigenvalues --  -38.44647 -38.44364 -38.44320 -38.44254 -38.43867
 Alpha  occ. eigenvalues --  -38.43389 -38.43230  -2.20597  -2.20520  -2.20454
 Alpha  occ. eigenvalues --   -2.20440  -2.19979  -2.19588  -2.19435  -1.14648
 Alpha  occ. eigenvalues --   -1.14551  -1.14368  -1.14315  -1.14232  -1.14176
 Alpha  occ. eigenvalues --   -1.14146  -1.14088  -1.14077  -1.14009  -1.13939
 Alpha  occ. eigenvalues --   -1.13858  -1.13644  -1.13571  -1.13549  -1.13331
 Alpha  occ. eigenvalues --   -1.13210  -1.13174  -1.13075  -1.13044  -1.12952
 Alpha  occ. eigenvalues --   -0.21139  -0.13246  -0.12499  -0.12388
 Alpha virt. eigenvalues --   -0.06209  -0.04149  -0.03517  -0.03311  -0.03067
 Alpha virt. eigenvalues --   -0.02798  -0.01555  -0.00644  -0.00331   0.00235
 Alpha virt. eigenvalues --    0.00509   0.00638   0.00716   0.00941   0.01065

  Beta  occ. eigenvalues --  -38.44651 -38.44307 -38.44258 -38.44197 -38.43822
  Beta  occ. eigenvalues --  -38.43371 -38.43200  -2.20492  -2.20460  -2.20418
  Beta  occ. eigenvalues --   -2.20340  -2.19902  -2.19541  -2.19404  -1.14591
  Beta  occ. eigenvalues --   -1.14458  -1.14287  -1.14219  -1.14198  -1.14136
  Beta  occ. eigenvalues --   -1.14091  -1.14082  -1.14055  -1.13931  -1.13873
  Beta  occ. eigenvalues --   -1.13768  -1.13590  -1.13523  -1.13459  -1.13301
  Beta  occ. eigenvalues --   -1.13155  -1.13122  -1.13042  -1.13004  -1.12927
  Beta  occ. eigenvalues --   -0.20241  -0.13026  -0.12259
  Beta virt. eigenvalues --   -0.07972  -0.05993  -0.04074  -0.03371  -0.02645
  Beta virt. eigenvalues --   -0.02420  -0.01867  -0.01333  -0.00563  -0.00091
  Beta virt. eigenvalues --    0.00298   0.00535   0.00669   0.00841   0.00937

 Mulliken charges and spin densities:
               1          2
     1  Na   0.268907   0.322334
     2  Na   0.265457  -0.129887
     3  Na   0.409386  -0.064502
     4  Na  -1.021770   0.388863
     5  Na  -0.069592   0.179433
     6  Na   0.348270   0.053688
     7  Na  -0.200657   0.250070
 Sum of Mulliken charges =  -0.00000   1.00000

 Dipole moment (field-independent basis, Debye):
    X=              0.2893    Y=             -0.0693    Z=              0.2546  Tot=              0.3916
 Quadrupole moment (field-independent basis, Debye-Ang):
   XX=            -57.3299   YY=            -69.9920   ZZ=            -66.3035
   XY=              1.5636   XZ=              1.2349   YZ=              1.0196

 Normal termination of Gaussian 16 at Fri Dec  8 18:16:53 2023.
