 Gaussian 16, Revision B.01,
 Gaussian 16:  ES64L-G16RevB.01 20-Dec-2017

 -------------------------
 #P B3LYP/6-311+g(d) force
 -------------------------

 -----
 DPGEN
 -----
 Symbolic Z-matrix:
 Charge =  0 Multiplicity = 2

                         Standard orientation:
 ---------------------------------------------------------------------
 Center     Atomic      Atomic             Coordinates (Angstroms)
 Number     Number       Type             X           Y           Z
 ---------------------------------------------------------------------
      1         11           0       -3.511586    0.043047   -0.069860
      2         11           0        3.255469   -1.404604    0.023358
      3         11           0        0.408246   -0.294851   -1.706544
      4         11           0       -1.403585    2.568810    0.159375
      5         11           0        2.458144    2.126693   -0.126028
      6         11           0       -1.424376   -2.365060   -0.325481
      7         11           0        0.217689   -0.674035    2.045180
 ---------------------------------------------------------------------

 SCF Done:  E(UB3LYP) =  -1136.12651270     A.U. after   22 cycles

 The electronic state is 2-A.
 Alpha  occ. eigenvalues --  -38.45067 -38.44875 -38.44187 -38.43769 -38.43672
 Alpha  occ. eigenvalues --  -38.43272 -38.43137  -2.20850  -2.20696  -2.19975
 Alpha  occ. eigenvalues --   -2.19624  -2.19589  -2.19176  -2.18939  -1.14526
 Alpha  occ. eigenvalues --   -1.14500  -1.14498  -1.14367  -1.14354  -1.14350
 Alpha  occ. eigenvalues --   -1.13656  -1.13637  -1.13608  -1.13312  -1.13282
 Alpha  occ. eigenvalues --   -1.13260  -1.13237  -1.13234  -1.13205  -1.12854
 Alpha  occ. eigenvalues --   -1.12825  -1.12804  -1.12616  -1.12610  -1.12580
 Alpha  occ. eigenvalues --   -0.18169  -0.13599  -0.11779  -0.10569
 Alpha virt. eigenvalues --   -0.06672  -0.05747  -0.03976  -0.03479  -0.02699
 Alpha virt. eigenvalues --   -0.02411  -0.02253  -0.01431  -0.00670  -0.00176
 Alpha virt. eigenvalues --   -0.00101   0.00237   0.00614   0.00630   0.00752

  Beta  occ. eigenvalues --  -38.45066 -38.44876 -38.44184 -38.43674 -38.43605
  Beta  occ. eigenvalues --  -38.43259 -38.43135  -2.20852  -2.20700  -2.19971
  Beta  occ. eigenvalues --   -2.19469  -2.19449  -2.19156  -2.18937  -1.14512
  Beta  occ. eigenvalues --   -1.14503  -1.14492  -1.14373  -1.14353  -1.14342
  Beta  occ. eigenvalues --   -1.13643  -1.13631  -1.13609  -1.13224  -1.13172
  Beta  occ. eigenvalues --   -1.13146  -1.13136  -1.13122  -1.13110  -1.12837
  Beta  occ. eigenvalues --   -1.12800  -1.12771  -1.12616  -1.12596  -1.12581
  Beta  occ. eigenvalues --   -0.17470  -0.13421  -0.11559
  Beta virt. eigenvalues --   -0.06684  -0.06569  -0.05744  -0.03914  -0.02741
  Beta virt. eigenvalues --   -0.02215  -0.01855  -0.01451  -0.01370  -0.00718
  Beta virt. eigenvalues --   -0.00194   0.00092   0.00271   0.00708   0.00760

 Mulliken charges and spin densities:
               1          2
     1  Na  -0.178820  -0.046277
     2  Na   0.283231  -0.042438
     3  Na  -0.117080   0.332919
     4  Na  -0.069740  -0.011926
     5  Na  -0.156533  -0.030434
     6  Na   0.732787   0.130214
     7  Na  -0.493843   0.667942
 Sum of Mulliken charges =  -0.00000   1.00000

 Dipole moment (field-independent basis, Debye):
    X=              0.5933    Y=             -0.3320    Z=              0.0684  Tot=              0.6833
 Quadrupole moment (field-independent basis, Debye-Ang):
   XX=            -48.4224   YY=            -69.2874   ZZ=            -75.7544
   XY=             -0.0992   XZ=              0.2648   YZ=              0.5295

 Normal termination of Gaussian 16 at Thu Dec  7 14:21:59 2023.
