 Gaussian 16, Revision B.01,
 Gaussian 16:  ES64L-G16RevB.01 20-Dec-2017

 -------------------------
 #P B3LYP/6-311+g(d) force
 -------------------------

 -----
 DPGEN
 -----
 Symbolic Z-matrix:
 Charge =  0 Multiplicity = 2

                         Standard orientation:
 ---------------------------------------------------------------------
 Center     Atomic      Atomic             Coordinates (Angstroms)
 Number     Number       Type             X           Y           Z
 ---------------------------------------------------------------------
      1         11           0       -1.527033    1.460918   -0.752991
      2         11           0        1.794878    2.338744   -0.392121
      3         11           0        3.363240   -0.359727    1.089140
      4         11           0        1.360666   -0.732568   -1.627629
      5         11           0       -2.268037   -1.699989   -1.248019
      6         11           0        0.425911   -1.898670    1.260940
      7         11           0       -3.149624    0.891292    1.670681
 ---------------------------------------------------------------------

 SCF Done:  E(UB3LYP) =  -1136.12565913     A.U. after   21 cycles

 The electronic state is 2-A.
 Alpha  occ. eigenvalues --  -38.44596 -38.44398 -38.44196 -38.44093 -38.43458
 Alpha  occ. eigenvalues --  -38.43068 -38.43031  -2.20435  -2.20258  -2.20026
 Alpha  occ. eigenvalues --   -2.20014  -2.19308  -2.18989  -2.18875  -1.14133
 Alpha  occ. eigenvalues --   -1.14066  -1.14037  -1.13930  -1.13915  -1.13883
 Alpha  occ. eigenvalues --   -1.13723  -1.13711  -1.13669  -1.13661  -1.13654
 Alpha  occ. eigenvalues --   -1.13627  -1.12998  -1.12968  -1.12928  -1.12691
 Alpha  occ. eigenvalues --   -1.12658  -1.12633  -1.12548  -1.12538  -1.12507
 Alpha  occ. eigenvalues --   -0.18183  -0.14069  -0.11510  -0.11229
 Alpha virt. eigenvalues --   -0.05878  -0.05408  -0.04865  -0.03380  -0.02753
 Alpha virt. eigenvalues --   -0.02518  -0.01837  -0.00901  -0.00678   0.00011
 Alpha virt. eigenvalues --    0.00083   0.00276   0.00337   0.00490   0.00563

  Beta  occ. eigenvalues --  -38.44527 -38.44365 -38.44170 -38.44054 -38.43444
  Beta  occ. eigenvalues --  -38.43060 -38.43027  -2.20305  -2.20196  -2.19979
  Beta  occ. eigenvalues --   -2.19945  -2.19283  -2.18981  -2.18870  -1.14048
  Beta  occ. eigenvalues --   -1.13975  -1.13948  -1.13883  -1.13878  -1.13837
  Beta  occ. eigenvalues --   -1.13683  -1.13673  -1.13640  -1.13608  -1.13597
  Beta  occ. eigenvalues --   -1.13569  -1.12985  -1.12946  -1.12898  -1.12670
  Beta  occ. eigenvalues --   -1.12635  -1.12619  -1.12539  -1.12529  -1.12504
  Beta  occ. eigenvalues --   -0.17553  -0.13641  -0.11247
  Beta virt. eigenvalues --   -0.07622  -0.05674  -0.05107  -0.04354  -0.03280
  Beta virt. eigenvalues --   -0.02209  -0.01780  -0.01666  -0.00713  -0.00364
  Beta virt. eigenvalues --    0.00072   0.00174   0.00352   0.00461   0.00625

 Mulliken charges and spin densities:
               1          2
     1  Na  -0.166258   0.139470
     2  Na  -0.086633  -0.060472
     3  Na   0.371523   0.110875
     4  Na   0.087035   0.313702
     5  Na   0.231294   0.082177
     6  Na  -0.567526   0.215900
     7  Na   0.130565   0.198348
 Sum of Mulliken charges =  -0.00000   1.00000

 Dipole moment (field-independent basis, Debye):
    X=              0.1099    Y=             -0.5835    Z=              0.3525  Tot=              0.6906
 Quadrupole moment (field-independent basis, Debye-Ang):
   XX=            -55.5015   YY=            -75.3508   ZZ=            -65.2692
   XY=              3.1908   XZ=              0.5183   YZ=              2.8671

 Normal termination of Gaussian 16 at Tue Nov 28 23:45:04 2023.
