 Gaussian 16, Revision B.01,
 Gaussian 16:  ES64L-G16RevB.01 20-Dec-2017

 -------------------------
 #P B3LYP/6-311+g(d) force
 -------------------------

 -----
 DPGEN
 -----
 Symbolic Z-matrix:
 Charge =  0 Multiplicity = 2

                         Standard orientation:
 ---------------------------------------------------------------------
 Center     Atomic      Atomic             Coordinates (Angstroms)
 Number     Number       Type             X           Y           Z
 ---------------------------------------------------------------------
      1         11           0        2.215333    1.954133    0.359461
      2         11           0       -0.232092    0.137466    1.914278
      3         11           0       -0.312270   -2.759506    0.009154
      4         11           0       -0.057506   -0.390811   -1.783129
      5         11           0       -3.160217   -0.432118    0.307340
      6         11           0       -1.435171    2.488622   -0.662487
      7         11           0        2.981924   -0.997787   -0.144618
 ---------------------------------------------------------------------

 SCF Done:  E(UB3LYP) =  -1136.13587901     A.U. after   19 cycles

 The electronic state is 2-A.
 Alpha  occ. eigenvalues --  -38.44356 -38.44048 -38.43652 -38.43466 -38.43409
 Alpha  occ. eigenvalues --  -38.43316 -38.43082  -2.20189  -2.19899  -2.19572
 Alpha  occ. eigenvalues --   -2.19380  -2.19327  -2.19158  -2.18972  -1.13873
 Alpha  occ. eigenvalues --   -1.13843  -1.13823  -1.13602  -1.13562  -1.13532
 Alpha  occ. eigenvalues --   -1.13249  -1.13208  -1.13197  -1.13114  -1.13036
 Alpha  occ. eigenvalues --   -1.12997  -1.12990  -1.12985  -1.12958  -1.12836
 Alpha  occ. eigenvalues --   -1.12806  -1.12789  -1.12655  -1.12632  -1.12570
 Alpha  occ. eigenvalues --   -0.18774  -0.13271  -0.12227  -0.10991
 Alpha virt. eigenvalues --   -0.05894  -0.04921  -0.04404  -0.03377  -0.02964
 Alpha virt. eigenvalues --   -0.02638  -0.01716  -0.00935  -0.00237  -0.00193
 Alpha virt. eigenvalues --    0.00010   0.00363   0.00818   0.00892   0.00896

  Beta  occ. eigenvalues --  -38.44349 -38.44047 -38.43572 -38.43460 -38.43334
  Beta  occ. eigenvalues --  -38.43297 -38.43076  -2.20178  -2.19899  -2.19425
  Beta  occ. eigenvalues --   -2.19320  -2.19243  -2.19125  -2.18965  -1.13853
  Beta  occ. eigenvalues --   -1.13828  -1.13815  -1.13605  -1.13543  -1.13533
  Beta  occ. eigenvalues --   -1.13153  -1.13103  -1.13094  -1.13025  -1.12991
  Beta  occ. eigenvalues --   -1.12969  -1.12951  -1.12937  -1.12892  -1.12800
  Beta  occ. eigenvalues --   -1.12776  -1.12768  -1.12640  -1.12607  -1.12562
  Beta  occ. eigenvalues --   -0.18045  -0.13030  -0.11951
  Beta virt. eigenvalues --   -0.07092  -0.05832  -0.04909  -0.04342  -0.02618
  Beta virt. eigenvalues --   -0.02201  -0.01630  -0.01592  -0.00853  -0.00246
  Beta virt. eigenvalues --   -0.00218   0.00111   0.00388   0.00866   0.00900

 Mulliken charges and spin densities:
               1          2
     1  Na   0.110443  -0.001476
     2  Na  -0.271015   0.640062
     3  Na   0.119939  -0.112642
     4  Na  -0.151159   0.570547
     5  Na   0.214811  -0.027343
     6  Na  -0.044090   0.020236
     7  Na   0.021071  -0.089383
 Sum of Mulliken charges =  -0.00000   1.00000

 Dipole moment (field-independent basis, Debye):
    X=             -0.2241    Y=             -0.1031    Z=              0.1283  Tot=              0.2780
 Quadrupole moment (field-independent basis, Debye-Ang):
   XX=            -55.1220   YY=            -65.7448   ZZ=            -73.1598
   XY=             -0.1725   XZ=             -0.1714   YZ=             -1.1972

 Normal termination of Gaussian 16 at Thu Dec  7 07:08:06 2023.
