 Gaussian 16, Revision B.01,
 Gaussian 16:  ES64L-G16RevB.01 20-Dec-2017

 -------------------------
 #P B3LYP/6-311+g(d) force
 -------------------------

 -----
 DPGEN
 -----
 Symbolic Z-matrix:
 Charge =  0 Multiplicity = 2

                         Standard orientation:
 ---------------------------------------------------------------------
 Center     Atomic      Atomic             Coordinates (Angstroms)
 Number     Number       Type             X           Y           Z
 ---------------------------------------------------------------------
      1         11           0        0.671456   -1.376157   -0.517033
      2         11           0        4.209811   -3.278228    0.189755
      3         11           0        3.063082    0.463326    0.502947
      4         11           0        2.612452    3.560096    0.078241
      5         11           0       -0.756289    1.731031   -0.343404
      6         11           0       -3.554853   -0.578463   -0.705143
      7         11           0       -6.245658   -0.521606    0.794637
 ---------------------------------------------------------------------

 SCF Done:  E(UB3LYP) =  -1136.11770240     A.U. after   21 cycles

 The electronic state is 2-A.
 Alpha  occ. eigenvalues --  -38.44801 -38.44691 -38.44575 -38.44323 -38.44157
 Alpha  occ. eigenvalues --  -38.43817 -38.43685  -2.20626  -2.20501  -2.20399
 Alpha  occ. eigenvalues --   -2.20062  -2.20026  -2.19641  -2.19503  -1.14357
 Alpha  occ. eigenvalues --   -1.14312  -1.14224  -1.14190  -1.14160  -1.14087
 Alpha  occ. eigenvalues --   -1.14059  -1.14025  -1.14023  -1.13742  -1.13737
 Alpha  occ. eigenvalues --   -1.13735  -1.13718  -1.13671  -1.13622  -1.13305
 Alpha  occ. eigenvalues --   -1.13288  -1.13248  -1.13184  -1.13182  -1.13154
 Alpha  occ. eigenvalues --   -0.16787  -0.14081  -0.12070  -0.11546
 Alpha virt. eigenvalues --   -0.06251  -0.05204  -0.04633  -0.03920  -0.02639
 Alpha virt. eigenvalues --   -0.02563  -0.02134  -0.01702  -0.01319  -0.00903
 Alpha virt. eigenvalues --   -0.00337  -0.00127   0.00046   0.00388   0.00658

  Beta  occ. eigenvalues --  -38.44765 -38.44656 -38.44488 -38.44312 -38.44135
  Beta  occ. eigenvalues --  -38.43778 -38.43688  -2.20564  -2.20441  -2.20237
  Beta  occ. eigenvalues --   -2.20040  -2.19987  -2.19568  -2.19517  -1.14323
  Beta  occ. eigenvalues --   -1.14273  -1.14161  -1.14151  -1.14104  -1.14041
  Beta  occ. eigenvalues --   -1.13953  -1.13914  -1.13913  -1.13723  -1.13719
  Beta  occ. eigenvalues --   -1.13705  -1.13693  -1.13658  -1.13588  -1.13247
  Beta  occ. eigenvalues --   -1.13239  -1.13206  -1.13202  -1.13197  -1.13102
  Beta  occ. eigenvalues --   -0.16143  -0.13255  -0.11837
  Beta virt. eigenvalues --   -0.08137  -0.06053  -0.04735  -0.04286  -0.03720
  Beta virt. eigenvalues --   -0.02439  -0.02304  -0.01619  -0.01521  -0.01170
  Beta virt. eigenvalues --   -0.00570  -0.00038   0.00020   0.00203   0.00447

 Mulliken charges and spin densities:
               1          2
     1  Na  -0.806261   0.216672
     2  Na   0.600936   0.077423
     3  Na  -1.056966   0.251731
     4  Na   0.979135   0.182733
     5  Na  -0.391408  -0.030153
     6  Na  -0.036688  -0.085782
     7  Na   0.711251   0.387375
 Sum of Mulliken charges =  -0.00000   1.00000

 Dipole moment (field-independent basis, Debye):
    X=              0.0154    Y=              0.1860    Z=              0.1190  Tot=              0.2213
 Quadrupole moment (field-independent basis, Debye-Ang):
   XX=            -59.9187   YY=            -62.2893   ZZ=            -71.8782
   XY=             -3.3617   XZ=             -2.3006   YZ=             -0.0486

 Normal termination of Gaussian 16 at Tue Nov 28 22:21:13 2023.
