 Gaussian 16, Revision B.01,
 Gaussian 16:  ES64L-G16RevB.01 20-Dec-2017

 -------------------------
 #P B3LYP/6-311+g(d) force
 -------------------------

 -----
 DPGEN
 -----
 Symbolic Z-matrix:
 Charge =  0 Multiplicity = 2

                         Standard orientation:
 ---------------------------------------------------------------------
 Center     Atomic      Atomic             Coordinates (Angstroms)
 Number     Number       Type             X           Y           Z
 ---------------------------------------------------------------------
      1         11           0       -0.000807   -0.283071    2.078604
      2         11           0        0.839938   -0.765238   -1.326902
      3         11           0        3.766433   -0.886993    0.304898
      4         11           0       -1.841860   -2.092557   -0.428855
      5         11           0       -3.710851    0.755047    0.603914
      6         11           0        2.127331    2.053964   -0.010469
      7         11           0       -1.180186    1.218847   -1.221190
 ---------------------------------------------------------------------

 SCF Done:  E(UB3LYP) =  -1136.11163850     A.U. after   32 cycles

 The electronic state is 2-A.
 Alpha  occ. eigenvalues --  -38.45666 -38.45383 -38.45154 -38.43228 -38.43098
 Alpha  occ. eigenvalues --  -38.43027 -38.42846  -2.21461  -2.21196  -2.20968
 Alpha  occ. eigenvalues --   -2.19163  -2.19085  -2.19011  -2.18743  -1.15141
 Alpha  occ. eigenvalues --   -1.15108  -1.15095  -1.14890  -1.14829  -1.14807
 Alpha  occ. eigenvalues --   -1.14650  -1.14617  -1.14595  -1.13081  -1.12818
 Alpha  occ. eigenvalues --   -1.12796  -1.12759  -1.12728  -1.12720  -1.12644
 Alpha  occ. eigenvalues --   -1.12617  -1.12589  -1.12425  -1.12390  -1.12371
 Alpha  occ. eigenvalues --   -0.18870  -0.14254  -0.11314  -0.10650
 Alpha virt. eigenvalues --   -0.07612  -0.05019  -0.04297  -0.03139  -0.03085
 Alpha virt. eigenvalues --   -0.02348  -0.02156  -0.01061  -0.00916  -0.00235
 Alpha virt. eigenvalues --   -0.00029   0.00211   0.00279   0.00637   0.00734

  Beta  occ. eigenvalues --  -38.45660 -38.45323 -38.45133 -38.43224 -38.43030
  Beta  occ. eigenvalues --  -38.42980 -38.42834  -2.21450  -2.21085  -2.20929
  Beta  occ. eigenvalues --   -2.19082  -2.19046  -2.18932  -2.18726  -1.15130
  Beta  occ. eigenvalues --   -1.15103  -1.15084  -1.14814  -1.14754  -1.14723
  Beta  occ. eigenvalues --   -1.14625  -1.14590  -1.14564  -1.12987  -1.12784
  Beta  occ. eigenvalues --   -1.12753  -1.12713  -1.12702  -1.12669  -1.12592
  Beta  occ. eigenvalues --   -1.12547  -1.12511  -1.12402  -1.12369  -1.12351
  Beta  occ. eigenvalues --   -0.18105  -0.14032  -0.10418
  Beta virt. eigenvalues --   -0.07550  -0.07203  -0.05035  -0.03723  -0.02812
  Beta virt. eigenvalues --   -0.02724  -0.01707  -0.01523  -0.00997  -0.00612
  Beta virt. eigenvalues --   -0.00230   0.00015   0.00226   0.00457   0.00706

 Mulliken charges and spin densities:
               1          2
     1  Na  -0.500070   0.435171
     2  Na   0.203353   0.104385
     3  Na   0.261603   0.153992
     4  Na   0.024780   0.104102
     5  Na   0.200799   0.203381
     6  Na   0.052398   0.043309
     7  Na  -0.242861  -0.044340
 Sum of Mulliken charges =  -0.00000   1.00000

 Dipole moment (field-independent basis, Debye):
    X=              0.5840    Y=             -0.3843    Z=              1.0328  Tot=              1.2472
 Quadrupole moment (field-independent basis, Debye-Ang):
   XX=            -43.5889   YY=            -78.4738   ZZ=            -69.9665
   XY=             -0.5112   XZ=             -0.2190   YZ=              1.1937

 Normal termination of Gaussian 16 at Thu Dec  7 04:40:51 2023.
