 Gaussian 16, Revision B.01,
 Gaussian 16:  ES64L-G16RevB.01 20-Dec-2017

 -------------------------
 #P B3LYP/6-311+g(d) force
 -------------------------

 -----
 DPGEN
 -----
 Symbolic Z-matrix:
 Charge =  0 Multiplicity = 2

                         Standard orientation:
 ---------------------------------------------------------------------
 Center     Atomic      Atomic             Coordinates (Angstroms)
 Number     Number       Type             X           Y           Z
 ---------------------------------------------------------------------
      1         11           0       -2.528270    2.263472   -0.313383
      2         11           0       -5.005963    0.054398   -0.494742
      3         11           0       -2.714121   -1.885445    0.250224
      4         11           0        0.892111   -1.688490   -0.583336
      5         11           0       -0.001430    0.977259    1.087791
      6         11           0        3.463002   -0.305100    0.979955
      7         11           0        5.894672    0.583906   -0.926510
 ---------------------------------------------------------------------

 SCF Done:  E(UB3LYP) =  -1136.11462505     A.U. after   22 cycles

 The electronic state is 2-A.
 Alpha  occ. eigenvalues --  -38.44984 -38.44855 -38.44463 -38.44368 -38.43777
 Alpha  occ. eigenvalues --  -38.43398 -38.43251  -2.20834  -2.20716  -2.20315
 Alpha  occ. eigenvalues --   -2.20254  -2.19629  -2.19255  -2.19020  -1.14508
 Alpha  occ. eigenvalues --   -1.14485  -1.14454  -1.14406  -1.14366  -1.14322
 Alpha  occ. eigenvalues --   -1.13997  -1.13987  -1.13951  -1.13930  -1.13906
 Alpha  occ. eigenvalues --   -1.13842  -1.13311  -1.13275  -1.13265  -1.12951
 Alpha  occ. eigenvalues --   -1.12929  -1.12881  -1.12686  -1.12685  -1.12657
 Alpha  occ. eigenvalues --   -0.17517  -0.14329  -0.12182  -0.11117
 Alpha virt. eigenvalues --   -0.06322  -0.06127  -0.04227  -0.03606  -0.03213
 Alpha virt. eigenvalues --   -0.02669  -0.01895  -0.01509  -0.00938  -0.00458
 Alpha virt. eigenvalues --   -0.00240  -0.00134   0.00181   0.00397   0.00627

  Beta  occ. eigenvalues --  -38.44911 -38.44779 -38.44442 -38.44322 -38.43761
  Beta  occ. eigenvalues --  -38.43393 -38.43269  -2.20702  -2.20578  -2.20276
  Beta  occ. eigenvalues --   -2.20174  -2.19601  -2.19245  -2.19054  -1.14419
  Beta  occ. eigenvalues --   -1.14396  -1.14349  -1.14298  -1.14275  -1.14224
  Beta  occ. eigenvalues --   -1.13971  -1.13960  -1.13910  -1.13869  -1.13856
  Beta  occ. eigenvalues --   -1.13771  -1.13278  -1.13259  -1.13243  -1.12940
  Beta  occ. eigenvalues --   -1.12921  -1.12889  -1.12709  -1.12708  -1.12676
  Beta  occ. eigenvalues --   -0.16749  -0.14150  -0.11085
  Beta virt. eigenvalues --   -0.08044  -0.06105  -0.05653  -0.03830  -0.03109
  Beta virt. eigenvalues --   -0.02714  -0.02492  -0.01565  -0.01212  -0.00818
  Beta virt. eigenvalues --   -0.00343  -0.00097   0.00084   0.00298   0.00573

 Mulliken charges and spin densities:
               1          2
     1  Na   0.357718   0.118298
     2  Na   0.133923   0.030409
     3  Na  -0.056854   0.395837
     4  Na  -0.120994   0.107528
     5  Na  -0.444183   0.376550
     6  Na   0.166868   0.065034
     7  Na  -0.036478  -0.093657
 Sum of Mulliken charges =  -0.00000   1.00000

 Dipole moment (field-independent basis, Debye):
    X=             -1.7792    Y=             -0.1875    Z=             -0.2710  Tot=              1.8095
 Quadrupole moment (field-independent basis, Debye-Ang):
   XX=            -75.7574   YY=            -66.7474   ZZ=            -66.3013
   XY=             -0.1463   XZ=             -2.0395   YZ=             -0.4430

 Normal termination of Gaussian 16 at Tue Nov 28 22:39:22 2023.
