 Gaussian 16, Revision B.01,
 Gaussian 16:  ES64L-G16RevB.01 20-Dec-2017

 -------------------------
 #P B3LYP/6-311+g(d) force
 -------------------------

 -----
 DPGEN
 -----
 Symbolic Z-matrix:
 Charge =  0 Multiplicity = 2

                         Standard orientation:
 ---------------------------------------------------------------------
 Center     Atomic      Atomic             Coordinates (Angstroms)
 Number     Number       Type             X           Y           Z
 ---------------------------------------------------------------------
      1         11           0        0.245794   -0.112941   -1.695618
      2         11           0        2.876622    1.088663   -0.005975
      3         11           0        2.379599   -1.877704    0.156428
      4         11           0       -3.211713    0.151185   -0.318600
      5         11           0       -1.325013   -2.597598    0.052372
      6         11           0       -0.473784    3.032358   -0.102908
      7         11           0       -0.491505    0.316037    1.914302
 ---------------------------------------------------------------------

 SCF Done:  E(UB3LYP) =  -1136.13642270     A.U. after   19 cycles

 The electronic state is 2-A.
 Alpha  occ. eigenvalues --  -38.44496 -38.44103 -38.43661 -38.43355 -38.43354
 Alpha  occ. eigenvalues --  -38.43306 -38.43220  -2.20317  -2.19971  -2.19538
 Alpha  occ. eigenvalues --   -2.19212  -2.19208  -2.19176  -2.19170  -1.13990
 Alpha  occ. eigenvalues --   -1.13979  -1.13954  -1.13701  -1.13637  -1.13598
 Alpha  occ. eigenvalues --   -1.13211  -1.13192  -1.13169  -1.12920  -1.12898
 Alpha  occ. eigenvalues --   -1.12889  -1.12859  -1.12851  -1.12848  -1.12839
 Alpha  occ. eigenvalues --   -1.12832  -1.12807  -1.12799  -1.12794  -1.12787
 Alpha  occ. eigenvalues --   -0.18618  -0.13365  -0.12268  -0.10502
 Alpha virt. eigenvalues --   -0.05984  -0.05036  -0.04756  -0.03334  -0.02756
 Alpha virt. eigenvalues --   -0.02332  -0.01714  -0.01079  -0.00483  -0.00377
 Alpha virt. eigenvalues --   -0.00004   0.00369   0.00785   0.00858   0.00899

  Beta  occ. eigenvalues --  -38.44490 -38.44099 -38.43656 -38.43351 -38.43349
  Beta  occ. eigenvalues --  -38.43223 -38.43152  -2.20308  -2.19968  -2.19533
  Beta  occ. eigenvalues --   -2.19204  -2.19168  -2.19058  -2.19050  -1.13977
  Beta  occ. eigenvalues --   -1.13958  -1.13951  -1.13702  -1.13617  -1.13591
  Beta  occ. eigenvalues --   -1.13207  -1.13182  -1.13153  -1.12899  -1.12861
  Beta  occ. eigenvalues --   -1.12851  -1.12842  -1.12822  -1.12808  -1.12782
  Beta  occ. eigenvalues --   -1.12759  -1.12726  -1.12710  -1.12708  -1.12705
  Beta  occ. eigenvalues --   -0.17898  -0.13142  -0.12037
  Beta virt. eigenvalues --   -0.06636  -0.05930  -0.05041  -0.04700  -0.02543
  Beta virt. eigenvalues --   -0.02004  -0.01611  -0.01317  -0.01007  -0.00529
  Beta virt. eigenvalues --   -0.00430   0.00145   0.00395   0.00825   0.00861

 Mulliken charges and spin densities:
               1          2
     1  Na  -0.224207   0.577100
     2  Na   0.212715  -0.056018
     3  Na   0.094055  -0.004926
     4  Na   0.162386  -0.071919
     5  Na   0.137453  -0.029017
     6  Na   0.032126  -0.152918
     7  Na  -0.414529   0.737699
 Sum of Mulliken charges =  -0.00000   1.00000

 Dipole moment (field-independent basis, Debye):
    X=             -0.2313    Y=              0.1046    Z=              0.0027  Tot=              0.2538
 Quadrupole moment (field-independent basis, Debye-Ang):
   XX=            -54.9006   YY=            -62.8950   ZZ=            -75.4139
   XY=             -0.1065   XZ=              1.6324   YZ=             -1.1239

 Normal termination of Gaussian 16 at Fri Dec  8 07:12:24 2023.
