 Gaussian 16, Revision B.01,
 Gaussian 16:  ES64L-G16RevB.01 20-Dec-2017

 -------------------------
 #P B3LYP/6-311+g(d) force
 -------------------------

 -----
 DPGEN
 -----
 Symbolic Z-matrix:
 Charge =  0 Multiplicity = 2

                         Standard orientation:
 ---------------------------------------------------------------------
 Center     Atomic      Atomic             Coordinates (Angstroms)
 Number     Number       Type             X           Y           Z
 ---------------------------------------------------------------------
      1         11           0       -3.226058   -2.588023   -0.755687
      2         11           0        3.438911   -2.366393   -0.057342
      3         11           0        1.313305    3.524227    0.305122
      4         11           0       -2.420659    3.014859   -0.604748
      5         11           0       -2.739748    0.382422    0.942310
      6         11           0       -0.238161   -2.706045    0.531134
      7         11           0        3.872409    0.738954   -0.360788
 ---------------------------------------------------------------------

 SCF Done:  E(UB3LYP) =  -1136.11399154     A.U. after   20 cycles

 The electronic state is 2-A.
 Alpha  occ. eigenvalues --  -38.45128 -38.44651 -38.44623 -38.44456 -38.44379
 Alpha  occ. eigenvalues --  -38.43605 -38.43384  -2.20914  -2.20493  -2.20402
 Alpha  occ. eigenvalues --   -2.20286  -2.20143  -2.19429  -2.19211  -1.14616
 Alpha  occ. eigenvalues --   -1.14596  -1.14528  -1.14194  -1.14168  -1.14115
 Alpha  occ. eigenvalues --   -1.14085  -1.14077  -1.14051  -1.13946  -1.13933
 Alpha  occ. eigenvalues --   -1.13903  -1.13815  -1.13798  -1.13748  -1.13111
 Alpha  occ. eigenvalues --   -1.13077  -1.13048  -1.12869  -1.12858  -1.12847
 Alpha  occ. eigenvalues --   -0.16119  -0.13865  -0.13287  -0.10418
 Alpha virt. eigenvalues --   -0.06980  -0.05666  -0.04084  -0.03397  -0.02796
 Alpha virt. eigenvalues --   -0.02627  -0.02408  -0.01930  -0.01419  -0.00515
 Alpha virt. eigenvalues --   -0.00248   0.00059   0.00419   0.00508   0.00619

  Beta  occ. eigenvalues --  -38.45118 -38.44624 -38.44618 -38.44422 -38.44313
  Beta  occ. eigenvalues --  -38.43576 -38.43344  -2.20900  -2.20448  -2.20398
  Beta  occ. eigenvalues --   -2.20223  -2.20022  -2.19377  -2.19135  -1.14608
  Beta  occ. eigenvalues --   -1.14591  -1.14489  -1.14159  -1.14142  -1.14087
  Beta  occ. eigenvalues --   -1.14077  -1.14063  -1.14013  -1.13900  -1.13887
  Beta  occ. eigenvalues --   -1.13863  -1.13735  -1.13718  -1.13654  -1.13065
  Beta  occ. eigenvalues --   -1.13042  -1.13015  -1.12826  -1.12805  -1.12792
  Beta  occ. eigenvalues --   -0.15732  -0.13308  -0.12582
  Beta virt. eigenvalues --   -0.07062  -0.06953  -0.05437  -0.03785  -0.03119
  Beta virt. eigenvalues --   -0.02495  -0.02193  -0.02073  -0.01745  -0.01269
  Beta virt. eigenvalues --   -0.00377   0.00084   0.00325   0.00480   0.00539

 Mulliken charges and spin densities:
               1          2
     1  Na   0.649525   0.162165
     2  Na   0.070016   0.153849
     3  Na  -0.110244   0.318770
     4  Na   0.120289   0.101881
     5  Na  -0.144465   0.109831
     6  Na  -0.413468   0.102682
     7  Na  -0.171654   0.050822
 Sum of Mulliken charges =  -0.00000   1.00000

 Dipole moment (field-independent basis, Debye):
    X=             -1.2343    Y=             -0.8894    Z=             -0.2757  Tot=              1.5462
 Quadrupole moment (field-independent basis, Debye-Ang):
   XX=            -64.1987   YY=            -68.2938   ZZ=            -68.8017
   XY=              2.1625   XZ=              1.9802   YZ=             -0.5155

 Normal termination of Gaussian 16 at Sun Dec  3 14:48:33 2023.
