 Gaussian 16, Revision B.01,
 Gaussian 16:  ES64L-G16RevB.01 20-Dec-2017

 -------------------------
 #P B3LYP/6-311+g(d) force
 -------------------------

 -----
 DPGEN
 -----
 Symbolic Z-matrix:
 Charge =  0 Multiplicity = 2

                         Standard orientation:
 ---------------------------------------------------------------------
 Center     Atomic      Atomic             Coordinates (Angstroms)
 Number     Number       Type             X           Y           Z
 ---------------------------------------------------------------------
      1         11           0        1.565675   -2.437817   -0.370282
      2         11           0       -0.186684    0.029152   -1.477534
      3         11           0        0.595804    2.833958    0.038553
      4         11           0       -2.605855    1.481958   -0.389892
      5         11           0       -2.248406   -2.148957    0.119782
      6         11           0       -0.474908   -0.092198    1.943117
      7         11           0        3.354373    0.333904    0.136257
 ---------------------------------------------------------------------

 SCF Done:  E(UB3LYP) =  -1136.13556473     A.U. after   20 cycles

 The electronic state is 2-A.
 Alpha  occ. eigenvalues --  -38.44211 -38.43902 -38.43703 -38.43535 -38.43364
 Alpha  occ. eigenvalues --  -38.43347 -38.42974  -2.20007  -2.19796  -2.19557
 Alpha  occ. eigenvalues --   -2.19388  -2.19287  -2.19198  -2.19021  -1.13678
 Alpha  occ. eigenvalues --   -1.13671  -1.13651  -1.13532  -1.13446  -1.13406
 Alpha  occ. eigenvalues --   -1.13250  -1.13224  -1.13188  -1.13099  -1.13046
 Alpha  occ. eigenvalues --   -1.13004  -1.12967  -1.12910  -1.12906  -1.12897
 Alpha  occ. eigenvalues --   -1.12857  -1.12821  -1.12695  -1.12661  -1.12625
 Alpha  occ. eigenvalues --   -0.18790  -0.13121  -0.12513  -0.10537
 Alpha virt. eigenvalues --   -0.05722  -0.05330  -0.04637  -0.03040  -0.02797
 Alpha virt. eigenvalues --   -0.02312  -0.01602  -0.01239  -0.00462  -0.00320
 Alpha virt. eigenvalues --    0.00015   0.00330   0.00800   0.00859   0.00879

  Beta  occ. eigenvalues --  -38.44214 -38.43885 -38.43695 -38.43526 -38.43343
  Beta  occ. eigenvalues --  -38.43273 -38.42913  -2.20012  -2.19771  -2.19548
  Beta  occ. eigenvalues --   -2.19373  -2.19194  -2.19120  -2.18911  -1.13682
  Beta  occ. eigenvalues --   -1.13667  -1.13654  -1.13506  -1.13407  -1.13392
  Beta  occ. eigenvalues --   -1.13237  -1.13192  -1.13186  -1.13082  -1.13024
  Beta  occ. eigenvalues --   -1.12997  -1.12901  -1.12856  -1.12842  -1.12817
  Beta  occ. eigenvalues --   -1.12790  -1.12774  -1.12616  -1.12574  -1.12550
  Beta  occ. eigenvalues --   -0.18081  -0.12896  -0.12245
  Beta virt. eigenvalues --   -0.06628  -0.05657  -0.05304  -0.04614  -0.02331
  Beta virt. eigenvalues --   -0.02025  -0.01531  -0.01268  -0.01145  -0.00488
  Beta virt. eigenvalues --   -0.00356   0.00157   0.00369   0.00856   0.00859

 Mulliken charges and spin densities:
               1          2
     1  Na   0.138902  -0.050676
     2  Na  -0.282979   0.365974
     3  Na   0.014090  -0.035035
     4  Na   0.448309   0.002352
     5  Na   0.242304  -0.048560
     6  Na  -0.452596   0.803908
     7  Na  -0.108030  -0.037962
 Sum of Mulliken charges =  -0.00000   1.00000

 Dipole moment (field-independent basis, Debye):
    X=              0.0014    Y=             -0.0033    Z=              0.1885  Tot=              0.1885
 Quadrupole moment (field-independent basis, Debye-Ang):
   XX=            -54.6233   YY=            -61.9885   ZZ=            -75.7741
   XY=              0.9728   XZ=              1.0192   YZ=              0.4297

 Normal termination of Gaussian 16 at Tue Dec  5 12:57:11 2023.
