 Gaussian 16, Revision B.01,
 Gaussian 16:  ES64L-G16RevB.01 20-Dec-2017

 -------------------------
 #P B3LYP/6-311+g(d) force
 -------------------------

 -----
 DPGEN
 -----
 Symbolic Z-matrix:
 Charge =  0 Multiplicity = 2

                         Standard orientation:
 ---------------------------------------------------------------------
 Center     Atomic      Atomic             Coordinates (Angstroms)
 Number     Number       Type             X           Y           Z
 ---------------------------------------------------------------------
      1         11           0       -2.813586   -1.673540    0.498958
      2         11           0        0.940048    1.046486   -2.214671
      3         11           0       -2.353299    2.102829   -0.607467
      4         11           0        0.578791   -1.069376    2.372690
      5         11           0        0.473658    2.731727    1.272819
      6         11           0        3.242909   -0.493382   -0.003194
      7         11           0       -0.068522   -2.644744   -1.319135
 ---------------------------------------------------------------------

 SCF Done:  E(UB3LYP) =  -1136.12550354     A.U. after   18 cycles

 The electronic state is 2-A.
 Alpha  occ. eigenvalues --  -38.44844 -38.44588 -38.44413 -38.44393 -38.43782
 Alpha  occ. eigenvalues --  -38.43665 -38.43453  -2.20637  -2.20392  -2.20191
 Alpha  occ. eigenvalues --   -2.20171  -2.19560  -2.19442  -2.19230  -1.14297
 Alpha  occ. eigenvalues --   -1.14277  -1.14252  -1.14061  -1.14041  -1.14003
 Alpha  occ. eigenvalues --   -1.13869  -1.13853  -1.13839  -1.13824  -1.13823
 Alpha  occ. eigenvalues --   -1.13798  -1.13232  -1.13221  -1.13215  -1.13122
 Alpha  occ. eigenvalues --   -1.13104  -1.13076  -1.12906  -1.12890  -1.12874
 Alpha  occ. eigenvalues --   -0.17172  -0.12299  -0.12053  -0.11791
 Alpha virt. eigenvalues --   -0.05679  -0.05213  -0.05064  -0.03666  -0.03412
 Alpha virt. eigenvalues --   -0.03382  -0.01104  -0.00919  -0.00708  -0.00309
 Alpha virt. eigenvalues --   -0.00007   0.00265   0.00453   0.00504   0.00566

  Beta  occ. eigenvalues --  -38.44764 -38.44524 -38.44390 -38.44369 -38.43787
  Beta  occ. eigenvalues --  -38.43665 -38.43455  -2.20489  -2.20273  -2.20150
  Beta  occ. eigenvalues --   -2.20128  -2.19572  -2.19442  -2.19234  -1.14195
  Beta  occ. eigenvalues --   -1.14179  -1.14143  -1.13977  -1.13964  -1.13915
  Beta  occ. eigenvalues --   -1.13836  -1.13818  -1.13813  -1.13795  -1.13789
  Beta  occ. eigenvalues --   -1.13766  -1.13234  -1.13231  -1.13209  -1.13113
  Beta  occ. eigenvalues --   -1.13105  -1.13079  -1.12900  -1.12893  -1.12878
  Beta  occ. eigenvalues --   -0.16400  -0.12164  -0.11931
  Beta virt. eigenvalues --   -0.07966  -0.05490  -0.04969  -0.04555  -0.03306
  Beta virt. eigenvalues --   -0.02849  -0.02592  -0.01066  -0.00832  -0.00557
  Beta virt. eigenvalues --   -0.00079   0.00016   0.00466   0.00560   0.00619

 Mulliken charges and spin densities:
               1          2
     1  Na  -0.015492   0.018084
     2  Na   0.132889   0.497299
     3  Na   0.016507   0.036112
     4  Na  -0.003548   0.587196
     5  Na  -0.177450  -0.000016
     6  Na   0.229789  -0.138487
     7  Na  -0.182695  -0.000188
 Sum of Mulliken charges =   0.00000   1.00000

 Dipole moment (field-independent basis, Debye):
    X=              0.4094    Y=              0.0563    Z=              0.0470  Tot=              0.4159
 Quadrupole moment (field-independent basis, Debye-Ang):
   XX=            -65.6875   YY=            -68.6870   ZZ=            -64.5276
   XY=             -0.4046   XZ=              0.3482   YZ=              1.5025

 Normal termination of Gaussian 16 at Sun Dec  3 19:28:50 2023.
