 Gaussian 16, Revision B.01,
 Gaussian 16:  ES64L-G16RevB.01 20-Dec-2017

 -------------------------
 #P B3LYP/6-311+g(d) force
 -------------------------

 -----
 DPGEN
 -----
 Symbolic Z-matrix:
 Charge =  0 Multiplicity = 2

                         Standard orientation:
 ---------------------------------------------------------------------
 Center     Atomic      Atomic             Coordinates (Angstroms)
 Number     Number       Type             X           Y           Z
 ---------------------------------------------------------------------
      1         11           0        0.490842   -0.627910    1.784380
      2         11           0       -0.207437    0.557555   -1.716050
      3         11           0       -0.545599   -2.674372   -0.000980
      4         11           0        2.585705    2.011961    0.234817
      5         11           0        2.746059   -1.350071   -0.562493
      6         11           0       -3.471638   -0.425894   -0.064631
      7         11           0       -1.597932    2.508731    0.324957
 ---------------------------------------------------------------------

 SCF Done:  E(UB3LYP) =  -1136.13125528     A.U. after   19 cycles

 The electronic state is 2-A.
 Alpha  occ. eigenvalues --  -38.44800 -38.44084 -38.44035 -38.43794 -38.43375
 Alpha  occ. eigenvalues --  -38.43291 -38.43084  -2.20581  -2.19940  -2.19835
 Alpha  occ. eigenvalues --   -2.19622  -2.19289  -2.19242  -2.18978  -1.14259
 Alpha  occ. eigenvalues --   -1.14229  -1.14226  -1.13620  -1.13604  -1.13581
 Alpha  occ. eigenvalues --   -1.13504  -1.13485  -1.13478  -1.13345  -1.13283
 Alpha  occ. eigenvalues --   -1.13238  -1.13036  -1.12974  -1.12933  -1.12893
 Alpha  occ. eigenvalues --   -1.12873  -1.12851  -1.12631  -1.12622  -1.12577
 Alpha  occ. eigenvalues --   -0.18420  -0.13310  -0.12215  -0.10323
 Alpha virt. eigenvalues --   -0.06223  -0.05498  -0.04365  -0.03297  -0.02777
 Alpha virt. eigenvalues --   -0.02151  -0.01971  -0.01236  -0.00574  -0.00313
 Alpha virt. eigenvalues --   -0.00021   0.00324   0.00725   0.00814   0.00848

  Beta  occ. eigenvalues --  -38.44802 -38.44068 -38.44029 -38.43788 -38.43312
  Beta  occ. eigenvalues --  -38.43218 -38.43075  -2.20585  -2.19914  -2.19828
  Beta  occ. eigenvalues --   -2.19614  -2.19175  -2.19108  -2.18966  -1.14251
  Beta  occ. eigenvalues --   -1.14232  -1.14230  -1.13603  -1.13569  -1.13559
  Beta  occ. eigenvalues --   -1.13484  -1.13479  -1.13472  -1.13333  -1.13265
  Beta  occ. eigenvalues --   -1.13232  -1.12960  -1.12896  -1.12848  -1.12811
  Beta  occ. eigenvalues --   -1.12780  -1.12758  -1.12612  -1.12574  -1.12570
  Beta  occ. eigenvalues --   -0.17717  -0.13123  -0.11984
  Beta virt. eigenvalues --   -0.06490  -0.06175  -0.05452  -0.04282  -0.02590
  Beta virt. eigenvalues --   -0.02054  -0.01886  -0.01240  -0.01087  -0.00590
  Beta virt. eigenvalues --   -0.00335   0.00130   0.00355   0.00788   0.00820

 Mulliken charges and spin densities:
               1          2
     1  Na  -0.254056   0.655408
     2  Na  -0.151989   0.518953
     3  Na   0.255337  -0.021339
     4  Na  -0.020689  -0.051765
     5  Na   0.181454   0.050437
     6  Na   0.005832  -0.077584
     7  Na  -0.015889  -0.074110
 Sum of Mulliken charges =  -0.00000   1.00000

 Dipole moment (field-independent basis, Debye):
    X=             -0.2581    Y=              0.1865    Z=             -0.0658  Tot=              0.3252
 Quadrupole moment (field-independent basis, Debye-Ang):
   XX=            -51.2882   YY=            -65.2165   ZZ=            -75.8394
   XY=              0.8739   XZ=             -1.1808   YZ=              2.8356

 Normal termination of Gaussian 16 at Fri Dec  8 07:14:41 2023.
