 Gaussian 16, Revision B.01,
 Gaussian 16:  ES64L-G16RevB.01 20-Dec-2017

 -------------------------
 #P B3LYP/6-311+g(d) force
 -------------------------

 -----
 DPGEN
 -----
 Symbolic Z-matrix:
 Charge =  0 Multiplicity = 2

                         Standard orientation:
 ---------------------------------------------------------------------
 Center     Atomic      Atomic             Coordinates (Angstroms)
 Number     Number       Type             X           Y           Z
 ---------------------------------------------------------------------
      1         11           0        2.193213    0.997916    1.481123
      2         11           0        5.251460   -0.851789    0.486407
      3         11           0        3.208799    2.340972   -1.149355
      4         11           0        2.343977   -1.780394   -0.992296
      5         11           0       -1.594048   -1.373270    0.152097
      6         11           0       -4.084535    0.505649    0.190103
      7         11           0       -7.318866    0.160916   -0.168078
 ---------------------------------------------------------------------

 SCF Done:  E(UB3LYP) =  -1136.10068869     A.U. after   42 cycles

 The electronic state is 2-A.
 Alpha  occ. eigenvalues --  -38.46098 -38.45482 -38.45267 -38.44788 -38.43658
 Alpha  occ. eigenvalues --  -38.43139 -38.43109  -2.21925  -2.21304  -2.21087
 Alpha  occ. eigenvalues --   -2.20574  -2.19439  -2.18963  -2.18904  -1.15636
 Alpha  occ. eigenvalues --   -1.15572  -1.15530  -1.14972  -1.14953  -1.14902
 Alpha  occ. eigenvalues --   -1.14754  -1.14733  -1.14691  -1.14274  -1.14246
 Alpha  occ. eigenvalues --   -1.14194  -1.13090  -1.13089  -1.13083  -1.12710
 Alpha  occ. eigenvalues --   -1.12633  -1.12617  -1.12570  -1.12552  -1.12490
 Alpha  occ. eigenvalues --   -0.17259  -0.13627  -0.11945  -0.10796
 Alpha virt. eigenvalues --   -0.07062  -0.06663  -0.03892  -0.03444  -0.02750
 Alpha virt. eigenvalues --   -0.02594  -0.02383  -0.01950  -0.01412  -0.01241
 Alpha virt. eigenvalues --   -0.00586  -0.00292   0.00119   0.00143   0.00386

  Beta  occ. eigenvalues --  -38.46066 -38.45405 -38.45209 -38.44787 -38.43617
  Beta  occ. eigenvalues --  -38.43146 -38.43090  -2.21870  -2.21162  -2.20982
  Beta  occ. eigenvalues --   -2.20576  -2.19363  -2.18980  -2.18869  -1.15578
  Beta  occ. eigenvalues --   -1.15527  -1.15499  -1.14875  -1.14848  -1.14807
  Beta  occ. eigenvalues --   -1.14669  -1.14661  -1.14625  -1.14273  -1.14254
  Beta  occ. eigenvalues --   -1.14173  -1.13038  -1.13037  -1.13035  -1.12705
  Beta  occ. eigenvalues --   -1.12646  -1.12619  -1.12545  -1.12526  -1.12479
  Beta  occ. eigenvalues --   -0.16591  -0.13352  -0.10604
  Beta virt. eigenvalues --   -0.07997  -0.06906  -0.06246  -0.03780  -0.02908
  Beta virt. eigenvalues --   -0.02525  -0.02324  -0.01863  -0.01625  -0.01147
  Beta virt. eigenvalues --   -0.01044  -0.00416  -0.00175   0.00149   0.00318

 Mulliken charges and spin densities:
               1          2
     1  Na  -0.184249   0.294401
     2  Na   0.394026   0.258115
     3  Na   0.114336   0.156954
     4  Na  -0.217238   0.095403
     5  Na  -0.134949  -0.051554
     6  Na  -0.508353   0.080495
     7  Na   0.536427   0.166186
 Sum of Mulliken charges =  -0.00000   1.00000

 Dipole moment (field-independent basis, Debye):
    X=              4.0062    Y=              0.7320    Z=              0.0444  Tot=              4.0727
 Quadrupole moment (field-independent basis, Debye-Ang):
   XX=            -62.1250   YY=            -75.1910   ZZ=            -63.2969
   XY=              0.5906   XZ=              0.6562   YZ=             -0.8381

 Normal termination of Gaussian 16 at Fri Dec  8 17:04:00 2023.
