 Gaussian 16, Revision B.01,
 Gaussian 16:  ES64L-G16RevB.01 20-Dec-2017

 -------------------------
 #P B3LYP/6-311+g(d) force
 -------------------------

 -----
 DPGEN
 -----
 Symbolic Z-matrix:
 Charge =  0 Multiplicity = 2

                         Standard orientation:
 ---------------------------------------------------------------------
 Center     Atomic      Atomic             Coordinates (Angstroms)
 Number     Number       Type             X           Y           Z
 ---------------------------------------------------------------------
      1         11           0        0.171781   -2.027939    1.228156
      2         11           0        2.853465   -1.351850   -0.508049
      3         11           0        3.653812    1.963559    0.440810
      4         11           0        0.192048    1.027219   -0.728888
      5         11           0       -1.639882   -1.842934   -1.854293
      6         11           0       -2.769274    2.255556   -0.744469
      7         11           0       -2.461950   -0.023611    2.166734
 ---------------------------------------------------------------------

 SCF Done:  E(UB3LYP) =  -1136.12328132     A.U. after   22 cycles

 The electronic state is 2-A.
 Alpha  occ. eigenvalues --  -38.44713 -38.44457 -38.44449 -38.44217 -38.43646
 Alpha  occ. eigenvalues --  -38.43496 -38.43045  -2.20510  -2.20282  -2.20267
 Alpha  occ. eigenvalues --   -2.19978  -2.19452  -2.19387  -2.18918  -1.14178
 Alpha  occ. eigenvalues --   -1.14146  -1.14122  -1.13978  -1.13961  -1.13934
 Alpha  occ. eigenvalues --   -1.13907  -1.13885  -1.13870  -1.13652  -1.13644
 Alpha  occ. eigenvalues --   -1.13608  -1.13172  -1.13107  -1.13095  -1.13088
 Alpha  occ. eigenvalues --   -1.13054  -1.12977  -1.12603  -1.12582  -1.12552
 Alpha  occ. eigenvalues --   -0.17629  -0.13382  -0.11574  -0.11195
 Alpha virt. eigenvalues --   -0.06357  -0.05637  -0.04426  -0.03180  -0.02886
 Alpha virt. eigenvalues --   -0.02636  -0.01917  -0.01485  -0.00892  -0.00311
 Alpha virt. eigenvalues --    0.00059   0.00217   0.00226   0.00477   0.00698

  Beta  occ. eigenvalues --  -38.44642 -38.44458 -38.44361 -38.44226 -38.43640
  Beta  occ. eigenvalues --  -38.43477 -38.43028  -2.20379  -2.20283  -2.20104
  Beta  occ. eigenvalues --   -2.19993  -2.19443  -2.19356  -2.18891  -1.14078
  Beta  occ. eigenvalues --   -1.14061  -1.14031  -1.13979  -1.13959  -1.13889
  Beta  occ. eigenvalues --   -1.13819  -1.13798  -1.13753  -1.13662  -1.13655
  Beta  occ. eigenvalues --   -1.13618  -1.13162  -1.13091  -1.13083  -1.13058
  Beta  occ. eigenvalues --   -1.13028  -1.12957  -1.12588  -1.12560  -1.12510
  Beta  occ. eigenvalues --   -0.17002  -0.13135  -0.11375
  Beta virt. eigenvalues --   -0.07301  -0.06144  -0.05476  -0.04053  -0.02902
  Beta virt. eigenvalues --   -0.02283  -0.02051  -0.01765  -0.01194  -0.00609
  Beta virt. eigenvalues --   -0.00151   0.00108   0.00272   0.00332   0.00575

 Mulliken charges and spin densities:
               1          2
     1  Na   0.155302   0.242219
     2  Na   1.011582   0.028094
     3  Na   0.307435  -0.127511
     4  Na  -1.762646   0.409637
     5  Na  -0.108329   0.204008
     6  Na   0.410930  -0.023219
     7  Na  -0.014274   0.266772
 Sum of Mulliken charges =  -0.00000   1.00000

 Dipole moment (field-independent basis, Debye):
    X=              0.0551    Y=             -0.3153    Z=             -0.1848  Tot=              0.3696
 Quadrupole moment (field-independent basis, Debye-Ang):
   XX=            -55.5707   YY=            -69.0771   ZZ=            -69.2109
   XY=             -0.4139   XZ=              1.8656   YZ=              3.5117

 Normal termination of Gaussian 16 at Tue Dec  5 19:07:15 2023.
