 Gaussian 16, Revision B.01,
 Gaussian 16:  ES64L-G16RevB.01 20-Dec-2017

 -------------------------
 #P B3LYP/6-311+g(d) force
 -------------------------

 -----
 DPGEN
 -----
 Symbolic Z-matrix:
 Charge =  0 Multiplicity = 2

                         Standard orientation:
 ---------------------------------------------------------------------
 Center     Atomic      Atomic             Coordinates (Angstroms)
 Number     Number       Type             X           Y           Z
 ---------------------------------------------------------------------
      1         11           0       -1.936952    2.110514    0.194190
      2         11           0        0.037429    0.355084    1.850634
      3         11           0       -3.300043   -1.481497   -0.277776
      4         11           0        0.413614   -2.585746    0.280039
      5         11           0        1.292689    2.593215   -0.277070
      6         11           0        3.173382   -0.974195    0.069644
      7         11           0        0.319880   -0.017374   -1.839661
 ---------------------------------------------------------------------

 SCF Done:  E(UB3LYP) =  -1136.13299877     A.U. after   20 cycles

 The electronic state is 2-A.
 Alpha  occ. eigenvalues --  -38.44142 -38.44028 -38.43792 -38.43566 -38.43520
 Alpha  occ. eigenvalues --  -38.43423 -38.43361  -2.19974  -2.19776  -2.19666
 Alpha  occ. eigenvalues --   -2.19501  -2.19471  -2.19309  -2.19257  -1.13653
 Alpha  occ. eigenvalues --   -1.13635  -1.13617  -1.13452  -1.13441  -1.13415
 Alpha  occ. eigenvalues --   -1.13409  -1.13332  -1.13279  -1.13198  -1.13175
 Alpha  occ. eigenvalues --   -1.13136  -1.13112  -1.13106  -1.13086  -1.12987
 Alpha  occ. eigenvalues --   -1.12978  -1.12924  -1.12913  -1.12909  -1.12876
 Alpha  occ. eigenvalues --   -0.18682  -0.13041  -0.12320  -0.10794
 Alpha virt. eigenvalues --   -0.05752  -0.05291  -0.04569  -0.03249  -0.02846
 Alpha virt. eigenvalues --   -0.02520  -0.01719  -0.01248  -0.00302  -0.00188
 Alpha virt. eigenvalues --   -0.00031   0.00312   0.00771   0.00844   0.00894

  Beta  occ. eigenvalues --  -38.44140 -38.44029 -38.43784 -38.43487 -38.43437
  Beta  occ. eigenvalues --  -38.43412 -38.43350  -2.19973  -2.19780  -2.19656
  Beta  occ. eigenvalues --   -2.19356  -2.19321  -2.19294  -2.19242  -1.13656
  Beta  occ. eigenvalues --   -1.13620  -1.13610  -1.13448  -1.13443  -1.13415
  Beta  occ. eigenvalues --   -1.13389  -1.13307  -1.13275  -1.13111  -1.13082
  Beta  occ. eigenvalues --   -1.13040  -1.13020  -1.13004  -1.12984  -1.12958
  Beta  occ. eigenvalues --   -1.12932  -1.12904  -1.12898  -1.12879  -1.12853
  Beta  occ. eigenvalues --   -0.17933  -0.12790  -0.12101
  Beta virt. eigenvalues --   -0.06889  -0.05685  -0.05248  -0.04535  -0.02427
  Beta virt. eigenvalues --   -0.02158  -0.01652  -0.01494  -0.01168  -0.00345
  Beta virt. eigenvalues --   -0.00198   0.00100   0.00336   0.00820   0.00849

 Mulliken charges and spin densities:
               1          2
     1  Na   0.166273  -0.040815
     2  Na  -0.056481   0.544466
     3  Na  -0.163705  -0.075830
     4  Na  -0.010341  -0.019521
     5  Na   0.172048  -0.107536
     6  Na   0.151634  -0.120163
     7  Na  -0.259426   0.819399
 Sum of Mulliken charges =  -0.00000   1.00000

 Dipole moment (field-independent basis, Debye):
    X=              0.2758    Y=              0.0872    Z=             -0.0120  Tot=              0.2895
 Quadrupole moment (field-independent basis, Debye-Ang):
   XX=            -55.1957   YY=            -64.0179   ZZ=            -74.2831
   XY=             -0.2730   XZ=              0.7190   YZ=             -0.4825

 Normal termination of Gaussian 16 at Thu Dec  7 22:06:34 2023.
