 Gaussian 16, Revision B.01,
 Gaussian 16:  ES64L-G16RevB.01 20-Dec-2017

 -------------------------
 #P B3LYP/6-311+g(d) force
 -------------------------

 -----
 DPGEN
 -----
 Symbolic Z-matrix:
 Charge =  0 Multiplicity = 2

                         Standard orientation:
 ---------------------------------------------------------------------
 Center     Atomic      Atomic             Coordinates (Angstroms)
 Number     Number       Type             X           Y           Z
 ---------------------------------------------------------------------
      1         11           0        0.730176   -1.519240   -1.078280
      2         11           0       -0.312629    3.283709    0.768658
      3         11           0       -2.345632    0.262539   -1.249532
      4         11           0        3.697074   -1.196166    0.627310
      5         11           0        1.427769    1.201925   -1.458103
      6         11           0       -0.298600   -0.166691    1.840994
      7         11           0       -2.898157   -1.866077    0.548954
 ---------------------------------------------------------------------

 SCF Done:  E(UB3LYP) =  -1136.12232720     A.U. after   22 cycles

 The electronic state is 2-A.
 Alpha  occ. eigenvalues --  -38.44517 -38.44325 -38.44124 -38.43860 -38.43805
 Alpha  occ. eigenvalues --  -38.43739 -38.42829  -2.20289  -2.20234  -2.20011
 Alpha  occ. eigenvalues --   -2.19748  -2.19727  -2.19686  -2.18627  -1.14015
 Alpha  occ. eigenvalues --   -1.13960  -1.13951  -1.13916  -1.13894  -1.13847
 Alpha  occ. eigenvalues --   -1.13712  -1.13678  -1.13641  -1.13629  -1.13403
 Alpha  occ. eigenvalues --   -1.13380  -1.13379  -1.13356  -1.13330  -1.13310
 Alpha  occ. eigenvalues --   -1.13282  -1.13210  -1.12294  -1.12293  -1.12263
 Alpha  occ. eigenvalues --   -0.18502  -0.13352  -0.11726  -0.11260
 Alpha virt. eigenvalues --   -0.06311  -0.04893  -0.04218  -0.03413  -0.02922
 Alpha virt. eigenvalues --   -0.02759  -0.02066  -0.01072  -0.00578  -0.00034
 Alpha virt. eigenvalues --    0.00269   0.00371   0.00644   0.00771   0.00822

  Beta  occ. eigenvalues --  -38.44510 -38.44295 -38.44049 -38.43855 -38.43768
  Beta  occ. eigenvalues --  -38.43704 -38.42820  -2.20276  -2.20182  -2.19873
  Beta  occ. eigenvalues --   -2.19742  -2.19665  -2.19626  -2.18612  -1.13984
  Beta  occ. eigenvalues --   -1.13952  -1.13935  -1.13910  -1.13847  -1.13805
  Beta  occ. eigenvalues --   -1.13636  -1.13608  -1.13544  -1.13528  -1.13394
  Beta  occ. eigenvalues --   -1.13358  -1.13351  -1.13324  -1.13279  -1.13270
  Beta  occ. eigenvalues --   -1.13208  -1.13175  -1.12284  -1.12271  -1.12255
  Beta  occ. eigenvalues --   -0.17706  -0.13187  -0.11547
  Beta virt. eigenvalues --   -0.07344  -0.06087  -0.04640  -0.04080  -0.02973
  Beta virt. eigenvalues --   -0.02442  -0.01919  -0.01771  -0.00937  -0.00321
  Beta virt. eigenvalues --   -0.00019   0.00302   0.00463   0.00764   0.00792

 Mulliken charges and spin densities:
               1          2
     1  Na  -0.083380   0.222393
     2  Na  -0.147338  -0.203342
     3  Na  -0.019822   0.203606
     4  Na  -0.051910  -0.089330
     5  Na   0.218451   0.171680
     6  Na  -0.463645   0.826616
     7  Na   0.547644  -0.131623
 Sum of Mulliken charges =  -0.00000   1.00000

 Dipole moment (field-independent basis, Debye):
    X=              0.2497    Y=             -0.4017    Z=              0.2246  Tot=              0.5236
 Quadrupole moment (field-independent basis, Debye-Ang):
   XX=            -55.2526   YY=            -69.2361   ZZ=            -69.4560
   XY=              0.7413   XZ=              2.2652   YZ=             -1.7244

 Normal termination of Gaussian 16 at Tue Dec  5 14:07:04 2023.
