 Gaussian 16, Revision B.01,
 Gaussian 16:  ES64L-G16RevB.01 20-Dec-2017

 -------------------------
 #P B3LYP/6-311+g(d) force
 -------------------------

 -----
 DPGEN
 -----
 Symbolic Z-matrix:
 Charge =  0 Multiplicity = 2

                         Standard orientation:
 ---------------------------------------------------------------------
 Center     Atomic      Atomic             Coordinates (Angstroms)
 Number     Number       Type             X           Y           Z
 ---------------------------------------------------------------------
      1         11           0       -1.705797    1.504171    1.031697
      2         11           0        1.856715    2.362212   -0.633228
      3         11           0        2.661293   -1.590647   -0.604969
      4         11           0        0.166095   -0.282444   -1.714098
      5         11           0        1.352233    0.218250    1.808177
      6         11           0       -0.770555   -2.046381    0.998567
      7         11           0       -3.559984   -0.165161   -0.886147
 ---------------------------------------------------------------------

 SCF Done:  E(UB3LYP) =  -1136.12972688     A.U. after   21 cycles

 The electronic state is 2-A.
 Alpha  occ. eigenvalues --  -38.44421 -38.43929 -38.43855 -38.43590 -38.43501
 Alpha  occ. eigenvalues --  -38.43370 -38.42944  -2.20241  -2.19830  -2.19805
 Alpha  occ. eigenvalues --   -2.19571  -2.19380  -2.19256  -2.18792  -1.13926
 Alpha  occ. eigenvalues --   -1.13896  -1.13866  -1.13628  -1.13510  -1.13476
 Alpha  occ. eigenvalues --   -1.13456  -1.13399  -1.13380  -1.13287  -1.13206
 Alpha  occ. eigenvalues --   -1.13183  -1.13069  -1.13048  -1.12991  -1.12957
 Alpha  occ. eigenvalues --   -1.12920  -1.12837  -1.12477  -1.12454  -1.12413
 Alpha  occ. eigenvalues --   -0.18945  -0.13545  -0.11733  -0.11407
 Alpha virt. eigenvalues --   -0.06014  -0.04893  -0.04219  -0.03217  -0.03015
 Alpha virt. eigenvalues --   -0.02787  -0.01796  -0.00832  -0.00632   0.00216
 Alpha virt. eigenvalues --    0.00256   0.00362   0.00497   0.00787   0.00881

  Beta  occ. eigenvalues --  -38.44406 -38.43917 -38.43793 -38.43521 -38.43483
  Beta  occ. eigenvalues --  -38.43340 -38.42936  -2.20214  -2.19789  -2.19714
  Beta  occ. eigenvalues --   -2.19448  -2.19351  -2.19205  -2.18780  -1.13911
  Beta  occ. eigenvalues --   -1.13870  -1.13849  -1.13580  -1.13470  -1.13417
  Beta  occ. eigenvalues --   -1.13392  -1.13364  -1.13321  -1.13195  -1.13119
  Beta  occ. eigenvalues --   -1.13097  -1.13040  -1.13005  -1.12977  -1.12920
  Beta  occ. eigenvalues --   -1.12856  -1.12808  -1.12457  -1.12448  -1.12399
  Beta  occ. eigenvalues --   -0.18149  -0.13312  -0.11204
  Beta virt. eigenvalues --   -0.07701  -0.05846  -0.04749  -0.03805  -0.02994
  Beta virt. eigenvalues --   -0.02254  -0.01891  -0.01678  -0.00764  -0.00312
  Beta virt. eigenvalues --    0.00249   0.00296   0.00377   0.00641   0.00843

 Mulliken charges and spin densities:
               1          2
     1  Na  -0.254044   0.040537
     2  Na  -0.160411  -0.075969
     3  Na   0.301410  -0.068362
     4  Na  -0.300881   0.653770
     5  Na   0.342481   0.424235
     6  Na  -0.184218   0.045239
     7  Na   0.255663  -0.019450
 Sum of Mulliken charges =  -0.00000   1.00000

 Dipole moment (field-independent basis, Debye):
    X=             -0.3452    Y=             -0.2998    Z=             -0.2459  Tot=              0.5191
 Quadrupole moment (field-independent basis, Debye-Ang):
   XX=            -53.5755   YY=            -72.9005   ZZ=            -67.4108
   XY=             -0.2621   XZ=              1.0122   YZ=             -0.6325

 Normal termination of Gaussian 16 at Wed Nov 29 16:44:21 2023.
