 Gaussian 16, Revision B.01,
 Gaussian 16:  ES64L-G16RevB.01 20-Dec-2017

 -------------------------
 #P B3LYP/6-311+g(d) force
 -------------------------

 -----
 DPGEN
 -----
 Symbolic Z-matrix:
 Charge =  0 Multiplicity = 2

                         Standard orientation:
 ---------------------------------------------------------------------
 Center     Atomic      Atomic             Coordinates (Angstroms)
 Number     Number       Type             X           Y           Z
 ---------------------------------------------------------------------
      1         11           0       -0.468147   -0.364553   -1.536558
      2         11           0       -0.788362    1.818093    0.560059
      3         11           0       -3.173310    0.001768   -0.361051
      4         11           0       -0.889972   -1.459453    1.042189
      5         11           0        1.353997    0.353129    1.668628
      6         11           0        1.925107   -1.759986   -0.407353
      7         11           0        2.040687    1.411003   -0.965915
 ---------------------------------------------------------------------

 SCF Done:  E(UB3LYP) =  -1136.10333084     A.U. after   21 cycles

 The electronic state is 2-A.
 Alpha  occ. eigenvalues --  -38.44344 -38.44028 -38.43759 -38.43579 -38.43220
 Alpha  occ. eigenvalues --  -38.43012 -38.42692  -2.20301  -2.20190  -2.19971
 Alpha  occ. eigenvalues --   -2.19597  -2.19352  -2.19038  -2.18786  -1.14070
 Alpha  occ. eigenvalues --   -1.13967  -1.13964  -1.13925  -1.13884  -1.13822
 Alpha  occ. eigenvalues --   -1.13743  -1.13622  -1.13587  -1.13261  -1.13244
 Alpha  occ. eigenvalues --   -1.13193  -1.13045  -1.12984  -1.12929  -1.12719
 Alpha  occ. eigenvalues --   -1.12695  -1.12632  -1.12509  -1.12446  -1.12353
 Alpha  occ. eigenvalues --   -0.20931  -0.14155  -0.12328  -0.11867
 Alpha virt. eigenvalues --   -0.05782  -0.04175  -0.04036  -0.03475  -0.02840
 Alpha virt. eigenvalues --   -0.02766  -0.01551  -0.00449  -0.00317   0.00300
 Alpha virt. eigenvalues --    0.00591   0.00783   0.00874   0.01020   0.01064

  Beta  occ. eigenvalues --  -38.44340 -38.43956 -38.43693 -38.43549 -38.43179
  Beta  occ. eigenvalues --  -38.43000 -38.42670  -2.20294  -2.20061  -2.19854
  Beta  occ. eigenvalues --   -2.19546  -2.19282  -2.19020  -2.18753  -1.14053
  Beta  occ. eigenvalues --   -1.13946  -1.13923  -1.13878  -1.13784  -1.13730
  Beta  occ. eigenvalues --   -1.13671  -1.13532  -1.13508  -1.13224  -1.13194
  Beta  occ. eigenvalues --   -1.13147  -1.12998  -1.12900  -1.12880  -1.12708
  Beta  occ. eigenvalues --   -1.12663  -1.12604  -1.12486  -1.12383  -1.12331
  Beta  occ. eigenvalues --   -0.20090  -0.13914  -0.11626
  Beta virt. eigenvalues --   -0.07968  -0.05678  -0.04158  -0.03407  -0.03204
  Beta virt. eigenvalues --   -0.02059  -0.01754  -0.01456  -0.00409  -0.00065
  Beta virt. eigenvalues --    0.00334   0.00641   0.00776   0.01015   0.01029

 Mulliken charges and spin densities:
               1          2
     1  Na  -0.068193   0.443757
     2  Na  -0.694773   0.111315
     3  Na   0.782474  -0.019626
     4  Na  -0.510391   0.190716
     5  Na   0.788984   0.299326
     6  Na  -0.125586  -0.058475
     7  Na  -0.172514   0.032986
 Sum of Mulliken charges =  -0.00000   1.00000

 Dipole moment (field-independent basis, Debye):
    X=             -0.3291    Y=              0.0425    Z=             -0.2008  Tot=              0.3879
 Quadrupole moment (field-independent basis, Debye-Ang):
   XX=            -53.7537   YY=            -74.5076   ZZ=            -66.6383
   XY=             -0.3205   XZ=             -0.7478   YZ=             -1.0759

 Normal termination of Gaussian 16 at Fri Dec  8 18:10:56 2023.
