 Gaussian 16, Revision B.01,
 Gaussian 16:  ES64L-G16RevB.01 20-Dec-2017

 -------------------------
 #P B3LYP/6-311+g(d) force
 -------------------------

 -----
 DPGEN
 -----
 Symbolic Z-matrix:
 Charge =  0 Multiplicity = 2

                         Standard orientation:
 ---------------------------------------------------------------------
 Center     Atomic      Atomic             Coordinates (Angstroms)
 Number     Number       Type             X           Y           Z
 ---------------------------------------------------------------------
      1         11           0       -2.663368    0.592933   -0.162413
      2         11           0        0.452802   -0.047792    2.171092
      3         11           0        3.242099    1.165069   -0.270172
      4         11           0       -0.992622    3.300237   -0.135442
      5         11           0        2.246982   -1.957675   -0.274875
      6         11           0       -2.136114   -2.537879    0.128607
      7         11           0       -0.149779   -0.514892   -1.456797
 ---------------------------------------------------------------------

 SCF Done:  E(UB3LYP) =  -1136.12524466     A.U. after   21 cycles

 The electronic state is 2-A.
 Alpha  occ. eigenvalues --  -38.44950 -38.44124 -38.43791 -38.43779 -38.43554
 Alpha  occ. eigenvalues --  -38.43447 -38.43386  -2.20732  -2.20007  -2.19640
 Alpha  occ. eigenvalues --   -2.19624  -2.19548  -2.19387  -2.19179  -1.14399
 Alpha  occ. eigenvalues --   -1.14393  -1.14379  -1.13753  -1.13653  -1.13618
 Alpha  occ. eigenvalues --   -1.13370  -1.13311  -1.13291  -1.13279  -1.13275
 Alpha  occ. eigenvalues --   -1.13249  -1.13237  -1.13210  -1.13124  -1.13053
 Alpha  occ. eigenvalues --   -1.13033  -1.13015  -1.12839  -1.12829  -1.12816
 Alpha  occ. eigenvalues --   -0.18350  -0.13541  -0.11983  -0.10566
 Alpha virt. eigenvalues --   -0.06202  -0.05201  -0.04738  -0.03406  -0.02681
 Alpha virt. eigenvalues --   -0.02359  -0.01878  -0.01221  -0.00653  -0.00396
 Alpha virt. eigenvalues --   -0.00039   0.00299   0.00643   0.00781   0.00849

  Beta  occ. eigenvalues --  -38.44948 -38.44111 -38.43790 -38.43671 -38.43506
  Beta  occ. eigenvalues --  -38.43440 -38.43389  -2.20729  -2.19987  -2.19640
  Beta  occ. eigenvalues --   -2.19463  -2.19424  -2.19377  -2.19186  -1.14394
  Beta  occ. eigenvalues --   -1.14382  -1.14374  -1.13734  -1.13616  -1.13603
  Beta  occ. eigenvalues --   -1.13361  -1.13305  -1.13263  -1.13240  -1.13165
  Beta  occ. eigenvalues --   -1.13136  -1.13109  -1.13096  -1.13070  -1.13040
  Beta  occ. eigenvalues --   -1.13005  -1.13001  -1.12840  -1.12829  -1.12820
  Beta  occ. eigenvalues --   -0.17646  -0.13308  -0.11844
  Beta virt. eigenvalues --   -0.06614  -0.06136  -0.05096  -0.04743  -0.02617
  Beta virt. eigenvalues --   -0.01928  -0.01764  -0.01444  -0.01131  -0.00699
  Beta virt. eigenvalues --   -0.00406   0.00142   0.00349   0.00683   0.00846

 Mulliken charges and spin densities:
               1          2
     1  Na   0.056788   0.081461
     2  Na  -0.565159   0.703308
     3  Na  -0.100501  -0.037593
     4  Na  -0.181256  -0.049772
     5  Na   0.396321   0.104377
     6  Na   0.379377   0.065121
     7  Na   0.014431   0.133098
 Sum of Mulliken charges =  -0.00000   1.00000

 Dipole moment (field-independent basis, Debye):
    X=              0.8762    Y=             -0.2414    Z=              0.1379  Tot=              0.9192
 Quadrupole moment (field-independent basis, Debye-Ang):
   XX=            -57.1169   YY=            -60.9932   ZZ=            -75.9662
   XY=              4.2224   XZ=             -1.4657   YZ=             -1.0483

 Normal termination of Gaussian 16 at Thu Dec  7 12:21:00 2023.
