 Gaussian 16, Revision B.01,
 Gaussian 16:  ES64L-G16RevB.01 20-Dec-2017

 -------------------------
 #P B3LYP/6-311+g(d) force
 -------------------------

 -----
 DPGEN
 -----
 Symbolic Z-matrix:
 Charge =  0 Multiplicity = 2

                         Standard orientation:
 ---------------------------------------------------------------------
 Center     Atomic      Atomic             Coordinates (Angstroms)
 Number     Number       Type             X           Y           Z
 ---------------------------------------------------------------------
      1         11           0        3.184757    0.957815    0.210723
      2         11           0       -0.574171    3.128413   -0.182761
      3         11           0        1.987322   -2.471115   -0.264329
      4         11           0        0.101783    0.205823    2.010394
      5         11           0        0.418471    0.542715   -1.659618
      6         11           0       -1.541910   -2.479592   -0.083570
      7         11           0       -3.576250    0.115940   -0.030839
 ---------------------------------------------------------------------

 SCF Done:  E(UB3LYP) =  -1136.13101037     A.U. after   21 cycles

 The electronic state is 2-A.
 Alpha  occ. eigenvalues --  -38.44820 -38.44736 -38.43813 -38.43683 -38.43621
 Alpha  occ. eigenvalues --  -38.43348 -38.43288  -2.20622  -2.20501  -2.19625
 Alpha  occ. eigenvalues --   -2.19493  -2.19477  -2.19210  -2.19176  -1.14301
 Alpha  occ. eigenvalues --   -1.14282  -1.14253  -1.14178  -1.14168  -1.14136
 Alpha  occ. eigenvalues --   -1.13342  -1.13281  -1.13248  -1.13166  -1.13159
 Alpha  occ. eigenvalues --   -1.13147  -1.13135  -1.13104  -1.13094  -1.12885
 Alpha  occ. eigenvalues --   -1.12854  -1.12847  -1.12839  -1.12833  -1.12816
 Alpha  occ. eigenvalues --   -0.17997  -0.12922  -0.12327  -0.10372
 Alpha virt. eigenvalues --   -0.06472  -0.05252  -0.04731  -0.03068  -0.02780
 Alpha virt. eigenvalues --   -0.02402  -0.02021  -0.01316  -0.00869  -0.00422
 Alpha virt. eigenvalues --   -0.00047   0.00311   0.00694   0.00704   0.00751

  Beta  occ. eigenvalues --  -38.44812 -38.44740 -38.43806 -38.43678 -38.43528
  Beta  occ. eigenvalues --  -38.43345 -38.43227  -2.20611  -2.20509  -2.19615
  Beta  occ. eigenvalues --   -2.19485  -2.19306  -2.19173  -2.19098  -1.14285
  Beta  occ. eigenvalues --   -1.14258  -1.14249  -1.14183  -1.14165  -1.14142
  Beta  occ. eigenvalues --   -1.13326  -1.13259  -1.13245  -1.13157  -1.13140
  Beta  occ. eigenvalues --   -1.13130  -1.13033  -1.12986  -1.12969  -1.12849
  Beta  occ. eigenvalues --   -1.12832  -1.12813  -1.12806  -1.12765  -1.12749
  Beta  occ. eigenvalues --   -0.17299  -0.12770  -0.12081
  Beta virt. eigenvalues --   -0.06547  -0.06379  -0.05226  -0.04657  -0.02383
  Beta virt. eigenvalues --   -0.02056  -0.01927  -0.01367  -0.01228  -0.00922
  Beta virt. eigenvalues --   -0.00450   0.00118   0.00353   0.00711   0.00795

 Mulliken charges and spin densities:
               1          2
     1  Na   0.288512  -0.048963
     2  Na   0.069638  -0.162440
     3  Na   0.033514  -0.002587
     4  Na  -0.271308   0.774120
     5  Na  -0.021365   0.569159
     6  Na  -0.090012  -0.055448
     7  Na  -0.008979  -0.073841
 Sum of Mulliken charges =  -0.00000   1.00000

 Dipole moment (field-independent basis, Debye):
    X=              0.1504    Y=              0.4290    Z=              0.1029  Tot=              0.4661
 Quadrupole moment (field-independent basis, Debye-Ang):
   XX=            -52.6456   YY=            -63.3386   ZZ=            -76.7898
   XY=             -0.9993   XZ=              0.4746   YZ=              0.9061

 Normal termination of Gaussian 16 at Thu Dec  7 08:45:30 2023.
