 Gaussian 16, Revision B.01,
 Gaussian 16:  ES64L-G16RevB.01 20-Dec-2017

 -------------------------
 #P B3LYP/6-311+g(d) force
 -------------------------

 -----
 DPGEN
 -----
 Symbolic Z-matrix:
 Charge =  0 Multiplicity = 2

                         Standard orientation:
 ---------------------------------------------------------------------
 Center     Atomic      Atomic             Coordinates (Angstroms)
 Number     Number       Type             X           Y           Z
 ---------------------------------------------------------------------
      1         11           0        2.188857    0.843525    1.302333
      2         11           0       -0.829140    0.724926   -1.040071
      3         11           0       -2.721158   -1.740002    0.768320
      4         11           0        1.390075   -2.041916   -1.069863
      5         11           0        4.162659   -1.141093    0.193417
      6         11           0       -4.861845    0.115886    0.151263
      7         11           0        0.670552    3.238675   -0.305400
 ---------------------------------------------------------------------

 SCF Done:  E(UB3LYP) =  -1136.11786344     A.U. after   20 cycles

 The electronic state is 2-A.
 Alpha  occ. eigenvalues --  -38.44523 -38.44472 -38.44169 -38.43741 -38.43626
 Alpha  occ. eigenvalues --  -38.43568 -38.42935  -2.20369  -2.20313  -2.20072
 Alpha  occ. eigenvalues --   -2.19596  -2.19526  -2.19450  -2.18802  -1.14210
 Alpha  occ. eigenvalues --   -1.14028  -1.14010  -1.13938  -1.13931  -1.13855
 Alpha  occ. eigenvalues --   -1.13780  -1.13729  -1.13708  -1.13271  -1.13262
 Alpha  occ. eigenvalues --   -1.13256  -1.13204  -1.13196  -1.13165  -1.13118
 Alpha  occ. eigenvalues --   -1.13081  -1.13049  -1.12471  -1.12450  -1.12438
 Alpha  occ. eigenvalues --   -0.17342  -0.14335  -0.12111  -0.10900
 Alpha virt. eigenvalues --   -0.06280  -0.04789  -0.04327  -0.03911  -0.03281
 Alpha virt. eigenvalues --   -0.02276  -0.01607  -0.01290  -0.00911  -0.00451
 Alpha virt. eigenvalues --   -0.00229  -0.00054   0.00470   0.00674   0.00733

  Beta  occ. eigenvalues --  -38.44523 -38.44424 -38.44126 -38.43689 -38.43590
  Beta  occ. eigenvalues --  -38.43541 -38.42933  -2.20374  -2.20224  -2.19995
  Beta  occ. eigenvalues --   -2.19502  -2.19462  -2.19402  -2.18800  -1.14179
  Beta  occ. eigenvalues --   -1.14036  -1.13997  -1.13879  -1.13869  -1.13812
  Beta  occ. eigenvalues --   -1.13722  -1.13675  -1.13643  -1.13210  -1.13196
  Beta  occ. eigenvalues --   -1.13187  -1.13163  -1.13142  -1.13116  -1.13071
  Beta  occ. eigenvalues --   -1.13049  -1.13009  -1.12463  -1.12447  -1.12437
  Beta  occ. eigenvalues --   -0.16672  -0.13835  -0.11980
  Beta virt. eigenvalues --   -0.07248  -0.06036  -0.04560  -0.03856  -0.03591
  Beta virt. eigenvalues --   -0.02883  -0.02122  -0.01199  -0.01133  -0.00527
  Beta virt. eigenvalues --   -0.00249  -0.00054   0.00122   0.00555   0.00719

 Mulliken charges and spin densities:
               1          2
     1  Na  -0.234819   0.261541
     2  Na  -1.096123   0.207215
     3  Na   0.114270   0.082760
     4  Na   0.082138   0.136685
     5  Na   0.240204   0.179373
     6  Na   0.227727   0.171766
     7  Na   0.666603  -0.039340
 Sum of Mulliken charges =  -0.00000   1.00000

 Dipole moment (field-independent basis, Debye):
    X=             -0.6377    Y=             -0.0527    Z=             -0.0252  Tot=              0.6403
 Quadrupole moment (field-independent basis, Debye-Ang):
   XX=            -62.7535   YY=            -67.3245   ZZ=            -68.5449
   XY=             -3.3109   XZ=              0.2271   YZ=             -1.7413

 Normal termination of Gaussian 16 at Tue Nov 28 22:35:52 2023.
