 Gaussian 16, Revision B.01,
 Gaussian 16:  ES64L-G16RevB.01 20-Dec-2017

 -------------------------
 #P B3LYP/6-311+g(d) force
 -------------------------

 -----
 DPGEN
 -----
 Symbolic Z-matrix:
 Charge =  0 Multiplicity = 2

                         Standard orientation:
 ---------------------------------------------------------------------
 Center     Atomic      Atomic             Coordinates (Angstroms)
 Number     Number       Type             X           Y           Z
 ---------------------------------------------------------------------
      1         11           0        0.410012    0.322224   -1.030286
      2         11           0       -2.587944    0.741155   -0.686286
      3         11           0       -0.454271    1.975433    0.843414
      4         11           0       -1.191109   -1.774059   -0.968786
      5         11           0       -1.101899   -0.715760    1.472614
      6         11           0        1.703698   -1.021289    1.114414
      7         11           0        3.221513    0.472296   -0.745086
 ---------------------------------------------------------------------

 SCF Done:  E(UB3LYP) =  -1136.06555776     A.U. after   23 cycles

 The electronic state is 2-A.
 Alpha  occ. eigenvalues --  -38.45026 -38.44192 -38.44138 -38.44083 -38.43943
 Alpha  occ. eigenvalues --  -38.43666 -38.43200  -2.20967  -2.20596  -2.20385
 Alpha  occ. eigenvalues --   -2.20301  -2.20044  -2.19810  -2.19311  -1.14832
 Alpha  occ. eigenvalues --   -1.14682  -1.14543  -1.14519  -1.14445  -1.14292
 Alpha  occ. eigenvalues --   -1.14209  -1.14118  -1.14083  -1.13980  -1.13933
 Alpha  occ. eigenvalues --   -1.13877  -1.13673  -1.13656  -1.13565  -1.13405
 Alpha  occ. eigenvalues --   -1.13347  -1.13306  -1.12998  -1.12913  -1.12845
 Alpha  occ. eigenvalues --   -0.21303  -0.14544  -0.12372  -0.11755
 Alpha virt. eigenvalues --   -0.06232  -0.04390  -0.03766  -0.03419  -0.02637
 Alpha virt. eigenvalues --   -0.02447  -0.01806  -0.00567  -0.00253   0.00269
 Alpha virt. eigenvalues --    0.00562   0.00679   0.00874   0.01015   0.01050

  Beta  occ. eigenvalues --  -38.45008 -38.44169 -38.44088 -38.44010 -38.43907
  Beta  occ. eigenvalues --  -38.43634 -38.43172  -2.20935  -2.20513  -2.20273
  Beta  occ. eigenvalues --   -2.20247  -2.19984  -2.19756  -2.19266  -1.14799
  Beta  occ. eigenvalues --   -1.14652  -1.14515  -1.14466  -1.14372  -1.14228
  Beta  occ. eigenvalues --   -1.14130  -1.14037  -1.14002  -1.13926  -1.13898
  Beta  occ. eigenvalues --   -1.13820  -1.13632  -1.13568  -1.13528  -1.13359
  Beta  occ. eigenvalues --   -1.13308  -1.13240  -1.12968  -1.12844  -1.12813
  Beta  occ. eigenvalues --   -0.20452  -0.14258  -0.11544
  Beta virt. eigenvalues --   -0.07986  -0.06076  -0.04032  -0.03373  -0.03191
  Beta virt. eigenvalues --   -0.01934  -0.01704  -0.01457  -0.00390  -0.00099
  Beta virt. eigenvalues --    0.00312   0.00627   0.00730   0.00968   0.01056

 Mulliken charges and spin densities:
               1          2
     1  Na  -1.316934   0.212755
     2  Na   0.732030  -0.072297
     3  Na   0.177455   0.194046
     4  Na   0.336086   0.165450
     5  Na  -0.241867   0.321299
     6  Na  -0.506600   0.051791
     7  Na   0.819829   0.126955
 Sum of Mulliken charges =  -0.00000   1.00000

 Dipole moment (field-independent basis, Debye):
    X=              0.4891    Y=              0.0619    Z=             -0.0140  Tot=              0.4932
 Quadrupole moment (field-independent basis, Debye-Ang):
   XX=            -52.1320   YY=            -75.6285   ZZ=            -66.7946
   XY=              0.3002   XZ=              0.5161   YZ=             -0.2655

 Normal termination of Gaussian 16 at Fri Dec  8 19:02:31 2023.
