 Gaussian 16, Revision B.01,
 Gaussian 16:  ES64L-G16RevB.01 20-Dec-2017

 -------------------------
 #P B3LYP/6-311+g(d) force
 -------------------------

 -----
 DPGEN
 -----
 Symbolic Z-matrix:
 Charge =  0 Multiplicity = 2

                         Standard orientation:
 ---------------------------------------------------------------------
 Center     Atomic      Atomic             Coordinates (Angstroms)
 Number     Number       Type             X           Y           Z
 ---------------------------------------------------------------------
      1         11           0        1.002087   -3.162756   -0.096711
      2         11           0       -2.427535   -1.618408   -0.375345
      3         11           0        0.663715    3.295307   -0.268888
      4         11           0       -2.908672    1.226263    0.134220
      5         11           0        3.260412    0.186353   -0.147070
      6         11           0        0.227004   -0.016475    2.185434
      7         11           0        0.182988    0.089717   -1.431641
 ---------------------------------------------------------------------

 SCF Done:  E(UB3LYP) =  -1136.13048915     A.U. after   19 cycles

 The electronic state is 2-A.
 Alpha  occ. eigenvalues --  -38.44679 -38.44127 -38.43943 -38.43932 -38.43638
 Alpha  occ. eigenvalues --  -38.43570 -38.43068  -2.20463  -2.19897  -2.19796
 Alpha  occ. eigenvalues --   -2.19712  -2.19481  -2.19463  -2.19032  -1.14154
 Alpha  occ. eigenvalues --   -1.14126  -1.14082  -1.13580  -1.13572  -1.13553
 Alpha  occ. eigenvalues --   -1.13534  -1.13441  -1.13423  -1.13387  -1.13371
 Alpha  occ. eigenvalues --   -1.13355  -1.13146  -1.13140  -1.13105  -1.13098
 Alpha  occ. eigenvalues --   -1.13093  -1.13076  -1.12730  -1.12681  -1.12650
 Alpha  occ. eigenvalues --   -0.18142  -0.12982  -0.12242  -0.10440
 Alpha virt. eigenvalues --   -0.06100  -0.05291  -0.04868  -0.03099  -0.02674
 Alpha virt. eigenvalues --   -0.02472  -0.01645  -0.01586  -0.00679  -0.00537
 Alpha virt. eigenvalues --   -0.00024   0.00319   0.00700   0.00812   0.00833

  Beta  occ. eigenvalues --  -38.44675 -38.44123 -38.43941 -38.43931 -38.43561
  Beta  occ. eigenvalues --  -38.43530 -38.43021  -2.20458  -2.19894  -2.19794
  Beta  occ. eigenvalues --   -2.19712  -2.19451  -2.19279  -2.18948  -1.14142
  Beta  occ. eigenvalues --   -1.14114  -1.14082  -1.13573  -1.13568  -1.13547
  Beta  occ. eigenvalues --   -1.13534  -1.13426  -1.13418  -1.13373  -1.13372
  Beta  occ. eigenvalues --   -1.13356  -1.13129  -1.13079  -1.13069  -1.13008
  Beta  occ. eigenvalues --   -1.12963  -1.12951  -1.12664  -1.12619  -1.12589
  Beta  occ. eigenvalues --   -0.17448  -0.12775  -0.12052
  Beta virt. eigenvalues --   -0.06506  -0.06102  -0.05188  -0.04860  -0.02338
  Beta virt. eigenvalues --   -0.02005  -0.01559  -0.01520  -0.01378  -0.00720
  Beta virt. eigenvalues --   -0.00564   0.00141   0.00365   0.00713   0.00855

 Mulliken charges and spin densities:
               1          2
     1  Na   0.109845  -0.024871
     2  Na   0.228751   0.036888
     3  Na   0.074343  -0.025192
     4  Na   0.173201   0.048912
     5  Na   0.118514  -0.064686
     6  Na  -0.515231   0.805774
     7  Na  -0.189422   0.223175
 Sum of Mulliken charges =  -0.00000   1.00000

 Dipole moment (field-independent basis, Debye):
    X=              0.5602    Y=              0.1709    Z=              0.1091  Tot=              0.5957
 Quadrupole moment (field-independent basis, Debye-Ang):
   XX=            -57.2160   YY=            -58.5539   ZZ=            -76.8048
   XY=             -1.0057   XZ=             -0.1853   YZ=              0.4283

 Normal termination of Gaussian 16 at Thu Dec  7 14:50:13 2023.
