 Gaussian 16, Revision B.01,
 Gaussian 16:  ES64L-G16RevB.01 20-Dec-2017

 -------------------------
 #P B3LYP/6-311+g(d) force
 -------------------------

 -----
 DPGEN
 -----
 Symbolic Z-matrix:
 Charge =  0 Multiplicity = 2

                         Standard orientation:
 ---------------------------------------------------------------------
 Center     Atomic      Atomic             Coordinates (Angstroms)
 Number     Number       Type             X           Y           Z
 ---------------------------------------------------------------------
      1         11           0        0.802506   -0.485376    1.560320
      2         11           0        2.512996   -2.082203   -0.721625
      3         11           0        4.246639    1.027205    0.994315
      4         11           0        1.454753    1.372442   -1.613302
      5         11           0       -2.719990    2.055915   -0.082115
      6         11           0       -4.633500   -0.577403    0.594761
      7         11           0       -1.663404   -1.310580   -0.732354
 ---------------------------------------------------------------------

 SCF Done:  E(UB3LYP) =  -1136.10986941     A.U. after   31 cycles

 The electronic state is 2-A.
 Alpha  occ. eigenvalues --  -38.45398 -38.44818 -38.44576 -38.44459 -38.44379
 Alpha  occ. eigenvalues --  -38.43381 -38.43074  -2.21241  -2.20617  -2.20366
 Alpha  occ. eigenvalues --   -2.20297  -2.20181  -2.19234  -2.18869  -1.14930
 Alpha  occ. eigenvalues --   -1.14909  -1.14844  -1.14319  -1.14280  -1.14220
 Alpha  occ. eigenvalues --   -1.14055  -1.14036  -1.14022  -1.13956  -1.13938
 Alpha  occ. eigenvalues --   -1.13895  -1.13860  -1.13833  -1.13788  -1.12945
 Alpha  occ. eigenvalues --   -1.12926  -1.12829  -1.12543  -1.12521  -1.12495
 Alpha  occ. eigenvalues --   -0.17496  -0.14611  -0.10741  -0.10353
 Alpha virt. eigenvalues --   -0.07180  -0.06017  -0.04832  -0.03294  -0.02909
 Alpha virt. eigenvalues --   -0.02195  -0.01862  -0.01647  -0.01352  -0.00775
 Alpha virt. eigenvalues --   -0.00453   0.00086   0.00235   0.00423   0.00435

  Beta  occ. eigenvalues --  -38.45378 -38.44821 -38.44571 -38.44407 -38.44318
  Beta  occ. eigenvalues --  -38.43373 -38.43039  -2.21207  -2.20624  -2.20359
  Beta  occ. eigenvalues --   -2.20198  -2.20071  -2.19223  -2.18803  -1.14896
  Beta  occ. eigenvalues --   -1.14880  -1.14821  -1.14314  -1.14289  -1.14217
  Beta  occ. eigenvalues --   -1.14054  -1.14034  -1.13983  -1.13888  -1.13869
  Beta  occ. eigenvalues --   -1.13840  -1.13787  -1.13759  -1.13697  -1.12939
  Beta  occ. eigenvalues --   -1.12892  -1.12821  -1.12499  -1.12468  -1.12456
  Beta  occ. eigenvalues --   -0.16875  -0.14191  -0.10177
  Beta virt. eigenvalues --   -0.07174  -0.06914  -0.05892  -0.04287  -0.03043
  Beta virt. eigenvalues --   -0.02609  -0.01872  -0.01467  -0.01394  -0.00898
  Beta virt. eigenvalues --   -0.00654  -0.00242   0.00103   0.00340   0.00477

 Mulliken charges and spin densities:
               1          2
     1  Na  -0.223386  -0.128747
     2  Na   0.396966   0.106942
     3  Na   0.019092   0.261168
     4  Na  -0.355214   0.329725
     5  Na  -0.124942   0.111576
     6  Na   0.478618   0.253793
     7  Na  -0.191134   0.065543
 Sum of Mulliken charges =  -0.00000   1.00000

 Dipole moment (field-independent basis, Debye):
    X=             -0.7303    Y=             -0.7935    Z=              0.0721  Tot=              1.0809
 Quadrupole moment (field-independent basis, Debye-Ang):
   XX=            -63.7139   YY=            -75.6744   ZZ=            -63.9424
   XY=             -4.1364   XZ=             -4.8487   YZ=              2.9138

 Normal termination of Gaussian 16 at Thu Dec  7 18:24:51 2023.
