 Gaussian 16, Revision B.01,
 Gaussian 16:  ES64L-G16RevB.01 20-Dec-2017

 -------------------------
 #P B3LYP/6-311+g(d) force
 -------------------------

 -----
 DPGEN
 -----
 Symbolic Z-matrix:
 Charge =  0 Multiplicity = 2

                         Standard orientation:
 ---------------------------------------------------------------------
 Center     Atomic      Atomic             Coordinates (Angstroms)
 Number     Number       Type             X           Y           Z
 ---------------------------------------------------------------------
      1         11           0        2.313935    1.850780   -0.283537
      2         11           0       -0.659940   -3.004308   -0.161372
      3         11           0       -3.350204   -0.551338   -0.166884
      4         11           0       -1.318499    2.919944    0.005461
      5         11           0        0.409416   -0.133980    2.353026
      6         11           0        2.924431   -1.403566   -0.469578
      7         11           0       -0.319138    0.322468   -1.277115
 ---------------------------------------------------------------------

 SCF Done:  E(UB3LYP) =  -1136.13280605     A.U. after   19 cycles

 The electronic state is 2-A.
 Alpha  occ. eigenvalues --  -38.44412 -38.43915 -38.43799 -38.43771 -38.43754
 Alpha  occ. eigenvalues --  -38.43752 -38.43021  -2.20202  -2.19726  -2.19633
 Alpha  occ. eigenvalues --   -2.19622  -2.19584  -2.19548  -2.19027  -1.13885
 Alpha  occ. eigenvalues --   -1.13862  -1.13830  -1.13414  -1.13392  -1.13368
 Alpha  occ. eigenvalues --   -1.13352  -1.13329  -1.13290  -1.13274  -1.13250
 Alpha  occ. eigenvalues --   -1.13233  -1.13232  -1.13231  -1.13216  -1.13205
 Alpha  occ. eigenvalues --   -1.13196  -1.13177  -1.12719  -1.12666  -1.12661
 Alpha  occ. eigenvalues --   -0.18121  -0.12944  -0.12343  -0.10544
 Alpha virt. eigenvalues --   -0.05845  -0.05353  -0.04911  -0.02970  -0.02797
 Alpha virt. eigenvalues --   -0.02513  -0.01677  -0.01313  -0.00706  -0.00624
 Alpha virt. eigenvalues --   -0.00042   0.00301   0.00741   0.00793   0.00833

  Beta  occ. eigenvalues --  -38.44411 -38.43905 -38.43799 -38.43761 -38.43752
  Beta  occ. eigenvalues --  -38.43633 -38.42989  -2.20201  -2.19708  -2.19623
  Beta  occ. eigenvalues --   -2.19619  -2.19547  -2.19363  -2.18971  -1.13878
  Beta  occ. eigenvalues --   -1.13859  -1.13833  -1.13403  -1.13369  -1.13352
  Beta  occ. eigenvalues --   -1.13349  -1.13319  -1.13264  -1.13259  -1.13249
  Beta  occ. eigenvalues --   -1.13227  -1.13226  -1.13204  -1.13179  -1.13080
  Beta  occ. eigenvalues --   -1.13054  -1.13042  -1.12668  -1.12627  -1.12619
  Beta  occ. eigenvalues --   -0.17462  -0.12726  -0.12182
  Beta virt. eigenvalues --   -0.06533  -0.05802  -0.05333  -0.04835  -0.02284
  Beta virt. eigenvalues --   -0.02037  -0.01605  -0.01433  -0.01250  -0.00739
  Beta virt. eigenvalues --   -0.00644   0.00162   0.00368   0.00781   0.00837

 Mulliken charges and spin densities:
               1          2
     1  Na   0.405353   0.117612
     2  Na   0.090781  -0.001235
     3  Na   0.137921  -0.002840
     4  Na   0.190432   0.036829
     5  Na  -0.622052   0.763088
     6  Na   0.087135   0.057173
     7  Na  -0.289571   0.029372
 Sum of Mulliken charges =  -0.00000   1.00000

 Dipole moment (field-independent basis, Debye):
    X=             -0.3253    Y=              0.0011    Z=              0.1317  Tot=              0.3509
 Quadrupole moment (field-independent basis, Debye-Ang):
   XX=            -55.9592   YY=            -60.7428   ZZ=            -76.2274
   XY=             -0.7672   XZ=             -1.5125   YZ=              1.1138

 Normal termination of Gaussian 16 at Fri Dec  8 02:28:10 2023.
