 Gaussian 16, Revision B.01,
 Gaussian 16:  ES64L-G16RevB.01 20-Dec-2017

 -------------------------
 #P B3LYP/6-311+g(d) force
 -------------------------

 -----
 DPGEN
 -----
 Symbolic Z-matrix:
 Charge =  0 Multiplicity = 2

                         Standard orientation:
 ---------------------------------------------------------------------
 Center     Atomic      Atomic             Coordinates (Angstroms)
 Number     Number       Type             X           Y           Z
 ---------------------------------------------------------------------
      1         11           0       -1.621711    1.672259    1.653368
      2         11           0        1.687592    2.431688   -0.001317
      3         11           0        3.312264   -0.928252   -1.018616
      4         11           0        1.202313   -1.329081    1.786374
      5         11           0        0.217393   -0.131548   -1.076785
      6         11           0       -2.774792    0.213201   -1.897908
      7         11           0       -2.023059   -1.928268    0.554885
 ---------------------------------------------------------------------

 SCF Done:  E(UB3LYP) =  -1136.12584699     A.U. after   23 cycles

 The electronic state is 2-A.
 Alpha  occ. eigenvalues --  -38.44499 -38.44365 -38.44030 -38.43788 -38.43323
 Alpha  occ. eigenvalues --  -38.43107 -38.42958  -2.20362  -2.20192  -2.19834
 Alpha  occ. eigenvalues --   -2.19650  -2.19195  -2.19037  -2.18925  -1.14062
 Alpha  occ. eigenvalues --   -1.13983  -1.13968  -1.13888  -1.13829  -1.13814
 Alpha  occ. eigenvalues --   -1.13506  -1.13475  -1.13459  -1.13356  -1.13284
 Alpha  occ. eigenvalues --   -1.13268  -1.12899  -1.12858  -1.12825  -1.12767
 Alpha  occ. eigenvalues --   -1.12714  -1.12676  -1.12593  -1.12569  -1.12535
 Alpha  occ. eigenvalues --   -0.18426  -0.13567  -0.11669  -0.11126
 Alpha virt. eigenvalues --   -0.05720  -0.04992  -0.04834  -0.03211  -0.02840
 Alpha virt. eigenvalues --   -0.02596  -0.01827  -0.00985  -0.00708   0.00063
 Alpha virt. eigenvalues --    0.00270   0.00355   0.00491   0.00572   0.00845

  Beta  occ. eigenvalues --  -38.44438 -38.44348 -38.43981 -38.43747 -38.43314
  Beta  occ. eigenvalues --  -38.43113 -38.42926  -2.20249  -2.20161  -2.19746
  Beta  occ. eigenvalues --   -2.19576  -2.19182  -2.18983  -2.18938  -1.13975
  Beta  occ. eigenvalues --   -1.13912  -1.13890  -1.13860  -1.13812  -1.13794
  Beta  occ. eigenvalues --   -1.13435  -1.13416  -1.13399  -1.13308  -1.13232
  Beta  occ. eigenvalues --   -1.13203  -1.12894  -1.12836  -1.12797  -1.12732
  Beta  occ. eigenvalues --   -1.12665  -1.12642  -1.12595  -1.12562  -1.12536
  Beta  occ. eigenvalues --   -0.17699  -0.13253  -0.10901
  Beta virt. eigenvalues --   -0.07853  -0.05479  -0.04802  -0.04342  -0.02962
  Beta virt. eigenvalues --   -0.02236  -0.01938  -0.01613  -0.00700  -0.00527
  Beta virt. eigenvalues --    0.00195   0.00321   0.00453   0.00580   0.00687

 Mulliken charges and spin densities:
               1          2
     1  Na  -0.161310   0.319395
     2  Na  -0.233405   0.077335
     3  Na   0.477980   0.061830
     4  Na   0.105293   0.277469
     5  Na  -1.092474   0.064201
     6  Na   0.834179  -0.017568
     7  Na   0.069737   0.217339
 Sum of Mulliken charges =  -0.00000   1.00000

 Dipole moment (field-independent basis, Debye):
    X=             -0.0187    Y=             -0.0819    Z=             -0.0182  Tot=              0.0860
 Quadrupole moment (field-independent basis, Debye-Ang):
   XX=            -52.5138   YY=            -75.2980   ZZ=            -64.5159
   XY=             -1.1044   XZ=             -0.7149   YZ=              0.2396

 Normal termination of Gaussian 16 at Thu Dec  7 02:35:22 2023.
