 Gaussian 16, Revision B.01,
 Gaussian 16:  ES64L-G16RevB.01 20-Dec-2017

 -------------------------
 #P B3LYP/6-311+g(d) force
 -------------------------

 -----
 DPGEN
 -----
 Symbolic Z-matrix:
 Charge =  0 Multiplicity = 2

                         Standard orientation:
 ---------------------------------------------------------------------
 Center     Atomic      Atomic             Coordinates (Angstroms)
 Number     Number       Type             X           Y           Z
 ---------------------------------------------------------------------
      1         11           0       -0.140267   -0.736458   -1.825023
      2         11           0       -0.206697    0.125730    1.871175
      3         11           0       -3.338060   -2.024119    0.162289
      4         11           0       -3.248462    1.341923   -0.218941
      5         11           0        0.575414    2.518085    0.030509
      6         11           0        3.168968    0.821355   -0.374771
      7         11           0        3.189102   -2.046516    0.354761
 ---------------------------------------------------------------------

 SCF Done:  E(UB3LYP) =  -1136.11433043     A.U. after   26 cycles

 The electronic state is 2-A.
 Alpha  occ. eigenvalues --  -38.45731 -38.44635 -38.44593 -38.44477 -38.44200
 Alpha  occ. eigenvalues --  -38.43794 -38.42341  -2.21502  -2.20527  -2.20394
 Alpha  occ. eigenvalues --   -2.20250  -2.20058  -2.19614  -2.18243  -1.15184
 Alpha  occ. eigenvalues --   -1.15155  -1.15137  -1.14249  -1.14180  -1.14171
 Alpha  occ. eigenvalues --   -1.14085  -1.14038  -1.13995  -1.13924  -1.13913
 Alpha  occ. eigenvalues --   -1.13893  -1.13746  -1.13709  -1.13660  -1.13308
 Alpha  occ. eigenvalues --   -1.13251  -1.13243  -1.11936  -1.11908  -1.11875
 Alpha  occ. eigenvalues --   -0.17933  -0.14020  -0.11324  -0.10344
 Alpha virt. eigenvalues --   -0.07065  -0.06325  -0.03845  -0.03531  -0.02710
 Alpha virt. eigenvalues --   -0.02649  -0.02168  -0.01620  -0.01063  -0.00304
 Alpha virt. eigenvalues --   -0.00141   0.00175   0.00397   0.00501   0.00599

  Beta  occ. eigenvalues --  -38.45731 -38.44631 -38.44515 -38.44482 -38.44127
  Beta  occ. eigenvalues --  -38.43788 -38.42333  -2.21504  -2.20523  -2.20261
  Beta  occ. eigenvalues --   -2.20252  -2.19923  -2.19605  -2.18232  -1.15168
  Beta  occ. eigenvalues --   -1.15158  -1.15144  -1.14245  -1.14181  -1.14149
  Beta  occ. eigenvalues --   -1.13986  -1.13935  -1.13932  -1.13908  -1.13904
  Beta  occ. eigenvalues --   -1.13889  -1.13653  -1.13611  -1.13562  -1.13305
  Beta  occ. eigenvalues --   -1.13238  -1.13233  -1.11930  -1.11896  -1.11843
  Beta  occ. eigenvalues --   -0.17232  -0.13907  -0.11143
  Beta virt. eigenvalues --   -0.06834  -0.06564  -0.06278  -0.03655  -0.03037
  Beta virt. eigenvalues --   -0.02566  -0.01905  -0.01601  -0.01153  -0.01107
  Beta virt. eigenvalues --   -0.00166  -0.00049   0.00196   0.00572   0.00614

 Mulliken charges and spin densities:
               1          2
     1  Na  -0.482093   0.440991
     2  Na  -0.462886   0.539964
     3  Na   0.142235  -0.085999
     4  Na   0.209892   0.021567
     5  Na   0.193109   0.007408
     6  Na   0.168220   0.101641
     7  Na   0.231524  -0.025571
 Sum of Mulliken charges =  -0.00000   1.00000

 Dipole moment (field-independent basis, Debye):
    X=             -1.2891    Y=              0.1502    Z=             -0.1642  Tot=              1.3081
 Quadrupole moment (field-independent basis, Debye-Ang):
   XX=            -52.8716   YY=            -66.9226   ZZ=            -76.4538
   XY=             -0.1908   XZ=             -0.1338   YZ=             -3.0028

 Normal termination of Gaussian 16 at Thu Dec  7 16:39:44 2023.
