 Gaussian 16, Revision B.01,
 Gaussian 16:  ES64L-G16RevB.01 20-Dec-2017

 -------------------------
 #P B3LYP/6-311+g(d) force
 -------------------------

 -----
 DPGEN
 -----
 Symbolic Z-matrix:
 Charge =  0 Multiplicity = 2

                         Standard orientation:
 ---------------------------------------------------------------------
 Center     Atomic      Atomic             Coordinates (Angstroms)
 Number     Number       Type             X           Y           Z
 ---------------------------------------------------------------------
      1         11           0        0.396607   -2.058800    1.360777
      2         11           0        3.533781   -1.203354   -0.420210
      3         11           0       -0.794471    1.286360    2.148977
      4         11           0        1.825420    2.281098    0.130576
      5         11           0       -3.750987   -1.051641   -0.214178
      6         11           0       -1.724618    1.072665   -1.409924
      7         11           0        0.514268   -0.326328   -1.596019
 ---------------------------------------------------------------------

 SCF Done:  E(UB3LYP) =  -1136.11371539     A.U. after   25 cycles

 The electronic state is 2-A.
 Alpha  occ. eigenvalues --  -38.44725 -38.44467 -38.44241 -38.44174 -38.44154
 Alpha  occ. eigenvalues --  -38.44097 -38.43206  -2.20496  -2.20474  -2.20115
 Alpha  occ. eigenvalues --   -2.20053  -2.19970  -2.19937  -2.19030  -1.14489
 Alpha  occ. eigenvalues --   -1.14193  -1.14158  -1.14134  -1.14109  -1.14049
 Alpha  occ. eigenvalues --   -1.13740  -1.13719  -1.13713  -1.13701  -1.13656
 Alpha  occ. eigenvalues --   -1.13645  -1.13637  -1.13623  -1.13605  -1.13594
 Alpha  occ. eigenvalues --   -1.13570  -1.13546  -1.12705  -1.12701  -1.12663
 Alpha  occ. eigenvalues --   -0.18324  -0.13229  -0.11965  -0.11256
 Alpha virt. eigenvalues --   -0.06733  -0.04823  -0.04104  -0.03468  -0.03159
 Alpha virt. eigenvalues --   -0.02861  -0.02294  -0.01184  -0.00520   0.00047
 Alpha virt. eigenvalues --    0.00076   0.00269   0.00493   0.00691   0.00836

  Beta  occ. eigenvalues --  -38.44736 -38.44411 -38.44189 -38.44175 -38.44109
  Beta  occ. eigenvalues --  -38.44019 -38.43206  -2.20518  -2.20376  -2.20035
  Beta  occ. eigenvalues --   -2.19973  -2.19957  -2.19794  -2.19032  -1.14411
  Beta  occ. eigenvalues --   -1.14205  -1.14168  -1.14147  -1.14031  -1.13981
  Beta  occ. eigenvalues --   -1.13677  -1.13659  -1.13650  -1.13639  -1.13635
  Beta  occ. eigenvalues --   -1.13618  -1.13602  -1.13587  -1.13571  -1.13502
  Beta  occ. eigenvalues --   -1.13475  -1.13444  -1.12705  -1.12688  -1.12664
  Beta  occ. eigenvalues --   -0.17532  -0.13124  -0.11068
  Beta virt. eigenvalues --   -0.07866  -0.06527  -0.04733  -0.03555  -0.02959
  Beta virt. eigenvalues --   -0.02557  -0.02247  -0.02085  -0.01150  -0.00231
  Beta virt. eigenvalues --    0.00094   0.00153   0.00292   0.00621   0.00794

 Mulliken charges and spin densities:
               1          2
     1  Na  -0.110967   0.176691
     2  Na   0.523927   0.000801
     3  Na  -0.403269   0.586009
     4  Na  -0.070044  -0.072580
     5  Na  -0.195281  -0.034420
     6  Na   0.916228  -0.128861
     7  Na  -0.660594   0.472360
 Sum of Mulliken charges =  -0.00000   1.00000

 Dipole moment (field-independent basis, Debye):
    X=             -0.0737    Y=             -0.1452    Z=              0.5027  Tot=              0.5285
 Quadrupole moment (field-independent basis, Debye-Ang):
   XX=            -51.8335   YY=            -74.2872   ZZ=            -68.8695
   XY=              2.2527   XZ=             -2.1596   YZ=             -1.6298

 Normal termination of Gaussian 16 at Thu Dec  7 04:15:16 2023.
