 Gaussian 16, Revision B.01,
 Gaussian 16:  ES64L-G16RevB.01 20-Dec-2017

 -------------------------
 #P B3LYP/6-311+g(d) force
 -------------------------

 -----
 DPGEN
 -----
 Symbolic Z-matrix:
 Charge =  0 Multiplicity = 2

                         Standard orientation:
 ---------------------------------------------------------------------
 Center     Atomic      Atomic             Coordinates (Angstroms)
 Number     Number       Type             X           Y           Z
 ---------------------------------------------------------------------
      1         11           0        3.483169   -0.475885   -0.464209
      2         11           0       -0.027633    0.297180   -1.527946
      3         11           0        0.331789   -2.327874   -0.346590
      4         11           0       -3.130143   -1.127012    0.312553
      5         11           0        0.214819   -0.276276    1.941886
      6         11           0        1.829762    2.103780    0.546979
      7         11           0       -2.701761    1.806087   -0.462673
 ---------------------------------------------------------------------

 SCF Done:  E(UB3LYP) =  -1136.12048217     A.U. after   22 cycles

 The electronic state is 2-A.
 Alpha  occ. eigenvalues --  -38.45379 -38.44838 -38.43841 -38.43673 -38.43634
 Alpha  occ. eigenvalues --  -38.43231 -38.42437  -2.21197  -2.20674  -2.19846
 Alpha  occ. eigenvalues --   -2.19586  -2.19526  -2.19127  -2.18385  -1.14863
 Alpha  occ. eigenvalues --   -1.14860  -1.14825  -1.14369  -1.14341  -1.14295
 Alpha  occ. eigenvalues --   -1.13583  -1.13524  -1.13450  -1.13276  -1.13235
 Alpha  occ. eigenvalues --   -1.13197  -1.13189  -1.13187  -1.13151  -1.12807
 Alpha  occ. eigenvalues --   -1.12779  -1.12756  -1.12120  -1.12055  -1.11955
 Alpha  occ. eigenvalues --   -0.18952  -0.13983  -0.11500  -0.10926
 Alpha virt. eigenvalues --   -0.06903  -0.05128  -0.03773  -0.03300  -0.02753
 Alpha virt. eigenvalues --   -0.02458  -0.02392  -0.01133  -0.00277  -0.00080
 Alpha virt. eigenvalues --    0.00033   0.00233   0.00635   0.00710   0.00852

  Beta  occ. eigenvalues --  -38.45366 -38.44836 -38.43787 -38.43667 -38.43540
  Beta  occ. eigenvalues --  -38.43212 -38.42427  -2.21174  -2.20672  -2.19749
  Beta  occ. eigenvalues --   -2.19518  -2.19413  -2.19096  -2.18373  -1.14849
  Beta  occ. eigenvalues --   -1.14831  -1.14809  -1.14373  -1.14324  -1.14294
  Beta  occ. eigenvalues --   -1.13518  -1.13445  -1.13381  -1.13194  -1.13168
  Beta  occ. eigenvalues --   -1.13165  -1.13142  -1.13107  -1.13067  -1.12784
  Beta  occ. eigenvalues --   -1.12742  -1.12726  -1.12113  -1.12019  -1.11938
  Beta  occ. eigenvalues --   -0.18234  -0.13769  -0.11192
  Beta virt. eigenvalues --   -0.07034  -0.06787  -0.05077  -0.03452  -0.02891
  Beta virt. eigenvalues --   -0.02534  -0.01786  -0.01432  -0.01017  -0.00191
  Beta virt. eigenvalues --    0.00003   0.00022   0.00267   0.00761   0.00799

 Mulliken charges and spin densities:
               1          2
     1  Na   0.134077  -0.005022
     2  Na  -0.361295   0.339243
     3  Na   0.048396   0.098875
     4  Na   0.159485   0.010444
     5  Na  -0.318765   0.477355
     6  Na   0.169508   0.094561
     7  Na   0.168594  -0.015456
 Sum of Mulliken charges =  -0.00000   1.00000

 Dipole moment (field-independent basis, Debye):
    X=              0.2791    Y=             -0.3378    Z=              0.1757  Tot=              0.4721
 Quadrupole moment (field-independent basis, Debye-Ang):
   XX=            -46.9334   YY=            -72.0413   ZZ=            -73.6366
   XY=              0.3309   XZ=             -2.1679   YZ=              0.5052

 Normal termination of Gaussian 16 at Sun Dec  3 21:47:43 2023.
