 Gaussian 16, Revision B.01,
 Gaussian 16:  ES64L-G16RevB.01 20-Dec-2017

 -------------------------
 #P B3LYP/6-311+g(d) force
 -------------------------

 -----
 DPGEN
 -----
 Symbolic Z-matrix:
 Charge =  0 Multiplicity = 2

                         Standard orientation:
 ---------------------------------------------------------------------
 Center     Atomic      Atomic             Coordinates (Angstroms)
 Number     Number       Type             X           Y           Z
 ---------------------------------------------------------------------
      1         11           0        3.347143    0.004730    0.042753
      2         11           0        1.301433    2.772353   -0.190042
      3         11           0        0.136954   -0.014831   -1.619081
      4         11           0       -2.549848   -1.925714   -0.463474
      5         11           0       -0.490990    0.027666    2.017466
      6         11           0       -2.919772    1.832305    0.028042
      7         11           0        1.175079   -2.696510    0.184336
 ---------------------------------------------------------------------

 SCF Done:  E(UB3LYP) =  -1136.13481751     A.U. after   21 cycles

 The electronic state is 2-A.
 Alpha  occ. eigenvalues --  -38.44483 -38.44328 -38.44133 -38.43564 -38.43557
 Alpha  occ. eigenvalues --  -38.43293 -38.43236  -2.20248  -2.20143  -2.19937
 Alpha  occ. eigenvalues --   -2.19423  -2.19373  -2.19225  -2.19074  -1.13925
 Alpha  occ. eigenvalues --   -1.13898  -1.13897  -1.13816  -1.13800  -1.13791
 Alpha  occ. eigenvalues --   -1.13617  -1.13593  -1.13566  -1.13098  -1.13073
 Alpha  occ. eigenvalues --   -1.13054  -1.13039  -1.13036  -1.13000  -1.12920
 Alpha  occ. eigenvalues --   -1.12870  -1.12841  -1.12745  -1.12740  -1.12706
 Alpha  occ. eigenvalues --   -0.18123  -0.13107  -0.12108  -0.10403
 Alpha virt. eigenvalues --   -0.06045  -0.05636  -0.04538  -0.03192  -0.02693
 Alpha virt. eigenvalues --   -0.02371  -0.01837  -0.01413  -0.00687  -0.00488
 Alpha virt. eigenvalues --   -0.00036   0.00316   0.00698   0.00770   0.00851

  Beta  occ. eigenvalues --  -38.44482 -38.44328 -38.44119 -38.43553 -38.43474
  Beta  occ. eigenvalues --  -38.43233 -38.43230  -2.20250  -2.20145  -2.19912
  Beta  occ. eigenvalues --   -2.19369  -2.19257  -2.19117  -2.19067  -1.13909
  Beta  occ. eigenvalues --   -1.13901  -1.13899  -1.13811  -1.13801  -1.13786
  Beta  occ. eigenvalues --   -1.13587  -1.13570  -1.13553  -1.13062  -1.13027
  Beta  occ. eigenvalues --   -1.12997  -1.12983  -1.12938  -1.12916  -1.12845
  Beta  occ. eigenvalues --   -1.12803  -1.12760  -1.12733  -1.12715  -1.12698
  Beta  occ. eigenvalues --   -0.17432  -0.12896  -0.11876
  Beta virt. eigenvalues --   -0.06577  -0.05976  -0.05581  -0.04504  -0.02475
  Beta virt. eigenvalues --   -0.01969  -0.01747  -0.01406  -0.01265  -0.00725
  Beta virt. eigenvalues --   -0.00524   0.00118   0.00354   0.00755   0.00799

 Mulliken charges and spin densities:
               1          2
     1  Na   0.066185  -0.024145
     2  Na   0.079363  -0.112684
     3  Na  -0.073488   0.470807
     4  Na   0.137993   0.005870
     5  Na  -0.364226   0.776492
     6  Na   0.030109  -0.109927
     7  Na   0.124063  -0.006414
 Sum of Mulliken charges =  -0.00000   1.00000

 Dipole moment (field-independent basis, Debye):
    X=             -0.2266    Y=              0.1348    Z=              0.0406  Tot=              0.2668
 Quadrupole moment (field-independent basis, Debye-Ang):
   XX=            -52.8747   YY=            -63.1986   ZZ=            -76.2475
   XY=             -0.5655   XZ=              1.5257   YZ=             -0.0363

 Normal termination of Gaussian 16 at Thu Dec  7 16:06:15 2023.
