 Gaussian 16, Revision B.01,
 Gaussian 16:  ES64L-G16RevB.01 20-Dec-2017

 -------------------------
 #P B3LYP/6-311+g(d) force
 -------------------------

 -----
 DPGEN
 -----
 Symbolic Z-matrix:
 Charge =  0 Multiplicity = 2

                         Standard orientation:
 ---------------------------------------------------------------------
 Center     Atomic      Atomic             Coordinates (Angstroms)
 Number     Number       Type             X           Y           Z
 ---------------------------------------------------------------------
      1         11           0        1.050062   -3.038072   -0.500354
      2         11           0       -2.187964   -1.833010   -0.347186
      3         11           0        1.869612    2.957397   -0.261368
      4         11           0        3.622564   -0.173870   -0.773622
      5         11           0       -4.222751    0.686958   -0.299403
      6         11           0       -1.029782    2.114568    0.086783
      7         11           0        0.898259   -0.713971    2.095151
 ---------------------------------------------------------------------

 SCF Done:  E(UB3LYP) =  -1136.12211203     A.U. after   21 cycles

 The electronic state is 2-A.
 Alpha  occ. eigenvalues --  -38.44902 -38.44326 -38.44236 -38.44122 -38.44047
 Alpha  occ. eigenvalues --  -38.43875 -38.43794  -2.20700  -2.20138  -2.20034
 Alpha  occ. eigenvalues --   -2.19922  -2.19864  -2.19699  -2.19634  -1.14367
 Alpha  occ. eigenvalues --   -1.14347  -1.14316  -1.13837  -1.13809  -1.13789
 Alpha  occ. eigenvalues --   -1.13713  -1.13685  -1.13676  -1.13613  -1.13588
 Alpha  occ. eigenvalues --   -1.13559  -1.13545  -1.13517  -1.13490  -1.13355
 Alpha  occ. eigenvalues --   -1.13349  -1.13338  -1.13313  -1.13296  -1.13234
 Alpha  occ. eigenvalues --   -0.17096  -0.13625  -0.12821  -0.10336
 Alpha virt. eigenvalues --   -0.06951  -0.05852  -0.04498  -0.03272  -0.02923
 Alpha virt. eigenvalues --   -0.02355  -0.01840  -0.01800  -0.01117  -0.00950
 Alpha virt. eigenvalues --   -0.00291   0.00225   0.00388   0.00525   0.00751

  Beta  occ. eigenvalues --  -38.44836 -38.44323 -38.44239 -38.44047 -38.44039
  Beta  occ. eigenvalues --  -38.43848 -38.43781  -2.20577  -2.20135  -2.20043
  Beta  occ. eigenvalues --   -2.19867  -2.19767  -2.19649  -2.19613  -1.14277
  Beta  occ. eigenvalues --   -1.14265  -1.14228  -1.13838  -1.13808  -1.13770
  Beta  occ. eigenvalues --   -1.13717  -1.13692  -1.13664  -1.13605  -1.13514
  Beta  occ. eigenvalues --   -1.13504  -1.13480  -1.13446  -1.13430  -1.13320
  Beta  occ. eigenvalues --   -1.13315  -1.13308  -1.13298  -1.13274  -1.13214
  Beta  occ. eigenvalues --   -0.16580  -0.13036  -0.12725
  Beta virt. eigenvalues --   -0.06853  -0.06666  -0.05636  -0.04281  -0.02762
  Beta virt. eigenvalues --   -0.02464  -0.02082  -0.01555  -0.01285  -0.01058
  Beta virt. eigenvalues --   -0.00904   0.00049   0.00333   0.00519   0.00625

 Mulliken charges and spin densities:
               1          2
     1  Na   0.304796   0.050064
     2  Na  -0.436228   0.044145
     3  Na   0.653098  -0.039918
     4  Na  -0.203751   0.495843
     5  Na   1.022605   0.126503
     6  Na  -1.117397   0.011585
     7  Na  -0.223123   0.311778
 Sum of Mulliken charges =  -0.00000   1.00000

 Dipole moment (field-independent basis, Debye):
    X=             -0.3008    Y=             -0.3689    Z=              0.4735  Tot=              0.6714
 Quadrupole moment (field-independent basis, Debye-Ang):
   XX=            -66.2640   YY=            -63.8485   ZZ=            -70.6731
   XY=             -0.7392   XZ=              1.7919   YZ=              0.9199

 Normal termination of Gaussian 16 at Sun Dec  3 15:18:32 2023.
