 Gaussian 16, Revision B.01,
 Gaussian 16:  ES64L-G16RevB.01 20-Dec-2017

 -------------------------
 #P B3LYP/6-311+g(d) force
 -------------------------

 -----
 DPGEN
 -----
 Symbolic Z-matrix:
 Charge =  0 Multiplicity = 2

                         Standard orientation:
 ---------------------------------------------------------------------
 Center     Atomic      Atomic             Coordinates (Angstroms)
 Number     Number       Type             X           Y           Z
 ---------------------------------------------------------------------
      1         11           0        0.272635   -0.282050   -1.561586
      2         11           0       -2.674258    1.555885   -0.274571
      3         11           0        2.033757    0.739134    1.401511
      4         11           0        0.806817    2.906294   -0.209883
      5         11           0       -3.482672   -1.768789   -0.057379
      6         11           0        3.439333   -1.829702   -0.759249
      7         11           0       -0.395612   -1.320771    1.461158
 ---------------------------------------------------------------------

 SCF Done:  E(UB3LYP) =  -1136.12370999     A.U. after   21 cycles

 The electronic state is 2-A.
 Alpha  occ. eigenvalues --  -38.44471 -38.44409 -38.44270 -38.44257 -38.43842
 Alpha  occ. eigenvalues --  -38.43624 -38.42975  -2.20272  -2.20207  -2.20146
 Alpha  occ. eigenvalues --   -2.20054  -2.19730  -2.19572  -2.18842  -1.13960
 Alpha  occ. eigenvalues --   -1.13945  -1.13912  -1.13877  -1.13873  -1.13864
 Alpha  occ. eigenvalues --   -1.13830  -1.13794  -1.13749  -1.13721  -1.13707
 Alpha  occ. eigenvalues --   -1.13667  -1.13446  -1.13398  -1.13332  -1.13274
 Alpha  occ. eigenvalues --   -1.13223  -1.13165  -1.12530  -1.12492  -1.12462
 Alpha  occ. eigenvalues --   -0.18218  -0.13618  -0.11859  -0.10706
 Alpha virt. eigenvalues --   -0.06520  -0.05740  -0.04307  -0.03195  -0.02637
 Alpha virt. eigenvalues --   -0.02339  -0.02179  -0.01622  -0.00552  -0.00289
 Alpha virt. eigenvalues --   -0.00032   0.00163   0.00533   0.00631   0.00710

  Beta  occ. eigenvalues --  -38.44464 -38.44411 -38.44234 -38.44210 -38.43785
  Beta  occ. eigenvalues --  -38.43574 -38.42975  -2.20259  -2.20212  -2.20061
  Beta  occ. eigenvalues --   -2.19988  -2.19627  -2.19484  -2.18844  -1.13941
  Beta  occ. eigenvalues --   -1.13937  -1.13909  -1.13871  -1.13865  -1.13832
  Beta  occ. eigenvalues --   -1.13812  -1.13739  -1.13683  -1.13676  -1.13651
  Beta  occ. eigenvalues --   -1.13624  -1.13376  -1.13309  -1.13265  -1.13219
  Beta  occ. eigenvalues --   -1.13149  -1.13097  -1.12526  -1.12480  -1.12464
  Beta  occ. eigenvalues --   -0.17596  -0.13388  -0.11569
  Beta virt. eigenvalues --   -0.06990  -0.06310  -0.05559  -0.04008  -0.02844
  Beta virt. eigenvalues --   -0.02297  -0.01881  -0.01561  -0.01307  -0.00490
  Beta virt. eigenvalues --   -0.00069   0.00037   0.00219   0.00633   0.00713

 Mulliken charges and spin densities:
               1          2
     1  Na  -0.508819   0.579204
     2  Na  -0.040545   0.054025
     3  Na   0.450924   0.261298
     4  Na  -0.057260  -0.079845
     5  Na   0.373021  -0.040214
     6  Na  -0.029884   0.047271
     7  Na  -0.187438   0.178261
 Sum of Mulliken charges =  -0.00000   1.00000

 Dipole moment (field-independent basis, Debye):
    X=             -0.7043    Y=             -0.4014    Z=             -0.1352  Tot=              0.8219
 Quadrupole moment (field-independent basis, Debye-Ang):
   XX=            -51.5992   YY=            -67.9646   ZZ=            -73.9301
   XY=              0.9136   XZ=              1.3359   YZ=              1.1692

 Normal termination of Gaussian 16 at Thu Dec  7 01:43:14 2023.
