 Gaussian 16, Revision B.01,
 Gaussian 16:  ES64L-G16RevB.01 20-Dec-2017

 -------------------------
 #P B3LYP/6-311+g(d) force
 -------------------------

 -----
 DPGEN
 -----
 Symbolic Z-matrix:
 Charge =  0 Multiplicity = 2

                         Standard orientation:
 ---------------------------------------------------------------------
 Center     Atomic      Atomic             Coordinates (Angstroms)
 Number     Number       Type             X           Y           Z
 ---------------------------------------------------------------------
      1         11           0        3.978428    1.088263   -0.567340
      2         11           0       -3.333590    0.351670   -0.618131
      3         11           0       -2.644585    2.832565    0.726934
      4         11           0        4.020430   -1.767591    0.366633
      5         11           0        0.110542   -2.604276    0.401710
      6         11           0       -2.881306   -3.209114   -0.229366
      7         11           0        0.750081    3.308481   -0.080440
 ---------------------------------------------------------------------

 SCF Done:  E(UB3LYP) =  -1136.10970496     A.U. after   22 cycles

 The electronic state is 2-A.
 Alpha  occ. eigenvalues --  -38.45482 -38.45004 -38.44755 -38.44102 -38.44023
 Alpha  occ. eigenvalues --  -38.43761 -38.43757  -2.21257  -2.20798  -2.20604
 Alpha  occ. eigenvalues --   -2.19931  -2.19811  -2.19611  -2.19599  -1.14938
 Alpha  occ. eigenvalues --   -1.14925  -1.14893  -1.14497  -1.14468  -1.14444
 Alpha  occ. eigenvalues --   -1.14331  -1.14253  -1.14220  -1.13599  -1.13579
 Alpha  occ. eigenvalues --   -1.13569  -1.13474  -1.13463  -1.13423  -1.13306
 Alpha  occ. eigenvalues --   -1.13267  -1.13252  -1.13235  -1.13229  -1.13224
 Alpha  occ. eigenvalues --   -0.15976  -0.14142  -0.13477  -0.10531
 Alpha virt. eigenvalues --   -0.07382  -0.04948  -0.04279  -0.03756  -0.03252
 Alpha virt. eigenvalues --   -0.02440  -0.02293  -0.02013  -0.01312  -0.00458
 Alpha virt. eigenvalues --   -0.00405  -0.00046   0.00319   0.00405   0.00631

  Beta  occ. eigenvalues --  -38.45467 -38.45000 -38.44708 -38.44087 -38.43942
  Beta  occ. eigenvalues --  -38.43745 -38.43716  -2.21232  -2.20797  -2.20520
  Beta  occ. eigenvalues --   -2.19905  -2.19661  -2.19595  -2.19514  -1.14923
  Beta  occ. eigenvalues --   -1.14911  -1.14858  -1.14487  -1.14473  -1.14414
  Beta  occ. eigenvalues --   -1.14268  -1.14198  -1.14153  -1.13571  -1.13562
  Beta  occ. eigenvalues --   -1.13555  -1.13373  -1.13362  -1.13323  -1.13277
  Beta  occ. eigenvalues --   -1.13245  -1.13215  -1.13203  -1.13176  -1.13166
  Beta  occ. eigenvalues --   -0.15551  -0.13586  -0.12873
  Beta virt. eigenvalues --   -0.07385  -0.07084  -0.04729  -0.03895  -0.03516
  Beta virt. eigenvalues --   -0.02686  -0.02312  -0.02073  -0.01788  -0.01150
  Beta virt. eigenvalues --   -0.00228  -0.00044   0.00162   0.00357   0.00487

 Mulliken charges and spin densities:
               1          2
     1  Na   0.060057   0.030525
     2  Na  -0.611250   0.240762
     3  Na   0.259609   0.033400
     4  Na   0.133272   0.147124
     5  Na  -1.117974   0.122691
     6  Na   1.484812   0.049886
     7  Na  -0.208525   0.375612
 Sum of Mulliken charges =  -0.00000   1.00000

 Dipole moment (field-independent basis, Debye):
    X=             -0.4814    Y=             -1.0203    Z=             -0.0087  Tot=              1.1282
 Quadrupole moment (field-independent basis, Debye-Ang):
   XX=            -62.7029   YY=            -67.8962   ZZ=            -71.1101
   XY=              3.7900   XZ=              0.3936   YZ=              0.2626

 Normal termination of Gaussian 16 at Mon Dec  4 01:55:53 2023.
