 Gaussian 16, Revision B.01,
 Gaussian 16:  ES64L-G16RevB.01 20-Dec-2017

 -------------------------
 #P B3LYP/6-311+g(d) force
 -------------------------

 -----
 DPGEN
 -----
 Symbolic Z-matrix:
 Charge =  0 Multiplicity = 2

                         Standard orientation:
 ---------------------------------------------------------------------
 Center     Atomic      Atomic             Coordinates (Angstroms)
 Number     Number       Type             X           Y           Z
 ---------------------------------------------------------------------
      1         11           0        4.015034    1.551624    0.647907
      2         11           0       -2.194052   -2.503655    1.054241
      3         11           0       -2.734851    2.535663   -0.202182
      4         11           0       -4.372728   -0.379352   -0.722165
      5         11           0        4.252384   -1.272703   -0.952938
      6         11           0        0.692015   -3.025896   -0.019300
      7         11           0        0.342198    3.094320    0.194437
 ---------------------------------------------------------------------

 SCF Done:  E(UB3LYP) =  -1136.10873434     A.U. after   21 cycles

 The electronic state is 2-A.
 Alpha  occ. eigenvalues --  -38.45275 -38.44977 -38.44294 -38.44267 -38.44260
 Alpha  occ. eigenvalues --  -38.44213 -38.43816  -2.21041  -2.20758  -2.20101
 Alpha  occ. eigenvalues --   -2.20082  -2.20065  -2.20021  -2.19621  -1.14714
 Alpha  occ. eigenvalues --   -1.14707  -1.14691  -1.14418  -1.14400  -1.14395
 Alpha  occ. eigenvalues --   -1.13851  -1.13773  -1.13758  -1.13753  -1.13726
 Alpha  occ. eigenvalues --   -1.13717  -1.13713  -1.13705  -1.13697  -1.13692
 Alpha  occ. eigenvalues --   -1.13653  -1.13648  -1.13270  -1.13269  -1.13244
 Alpha  occ. eigenvalues --   -0.15686  -0.14136  -0.13146  -0.10892
 Alpha virt. eigenvalues --   -0.07521  -0.04773  -0.04517  -0.03615  -0.03470
 Alpha virt. eigenvalues --   -0.02459  -0.02199  -0.01552  -0.01092  -0.00902
 Alpha virt. eigenvalues --   -0.00643  -0.00282   0.00117   0.00456   0.00676

  Beta  occ. eigenvalues --  -38.45266 -38.44948 -38.44287 -38.44221 -38.44211
  Beta  occ. eigenvalues --  -38.44179 -38.43757  -2.21028  -2.20707  -2.20093
  Beta  occ. eigenvalues --   -2.20024  -2.19982  -2.19931  -2.19512  -1.14706
  Beta  occ. eigenvalues --   -1.14698  -1.14665  -1.14384  -1.14368  -1.14352
  Beta  occ. eigenvalues --   -1.13810  -1.13768  -1.13740  -1.13710  -1.13702
  Beta  occ. eigenvalues --   -1.13676  -1.13661  -1.13652  -1.13622  -1.13610
  Beta  occ. eigenvalues --   -1.13590  -1.13587  -1.13198  -1.13196  -1.13171
  Beta  occ. eigenvalues --   -0.15112  -0.13478  -0.12381
  Beta virt. eigenvalues --   -0.07752  -0.07649  -0.04260  -0.04108  -0.03395
  Beta virt. eigenvalues --   -0.03136  -0.02201  -0.02044  -0.01377  -0.00760
  Beta virt. eigenvalues --   -0.00688  -0.00496  -0.00110   0.00287   0.00497

 Mulliken charges and spin densities:
               1          2
     1  Na   0.130626   0.060787
     2  Na  -0.096880  -0.043006
     3  Na  -0.127848   0.024023
     4  Na   0.068800   0.368111
     5  Na   0.159517   0.152302
     6  Na  -0.168945   0.198682
     7  Na   0.034730   0.239101
 Sum of Mulliken charges =  -0.00000   1.00000

 Dipole moment (field-independent basis, Debye):
    X=              1.0264    Y=             -0.3569    Z=             -0.1114  Tot=              1.0924
 Quadrupole moment (field-independent basis, Debye-Ang):
   XX=            -59.8790   YY=            -70.4951   ZZ=            -69.5109
   XY=              0.8476   XZ=             -0.3991   YZ=              3.3523

 Normal termination of Gaussian 16 at Mon Dec  4 01:16:06 2023.
