 Gaussian 16, Revision B.01,
 Gaussian 16:  ES64L-G16RevB.01 20-Dec-2017

 -------------------------
 #P B3LYP/6-311+g(d) force
 -------------------------

 -----
 DPGEN
 -----
 Symbolic Z-matrix:
 Charge =  0 Multiplicity = 2

                         Standard orientation:
 ---------------------------------------------------------------------
 Center     Atomic      Atomic             Coordinates (Angstroms)
 Number     Number       Type             X           Y           Z
 ---------------------------------------------------------------------
      1         11           0       -1.018469    2.888839   -0.042597
      2         11           0        2.626083    1.502903    0.058583
      3         11           0        2.509068   -1.725960   -0.962065
      4         11           0       -0.109605   -0.013656   -1.340030
      5         11           0       -1.486407   -2.500478    0.470072
      6         11           0        0.851768   -0.213923    2.105242
      7         11           0       -3.372439    0.062275   -0.289205
 ---------------------------------------------------------------------

 SCF Done:  E(UB3LYP) =  -1136.13305799     A.U. after   21 cycles

 The electronic state is 2-A.
 Alpha  occ. eigenvalues --  -38.44314 -38.44066 -38.43877 -38.43802 -38.43338
 Alpha  occ. eigenvalues --  -38.43217 -38.43083  -2.20139  -2.19940  -2.19742
 Alpha  occ. eigenvalues --   -2.19690  -2.19186  -2.19104  -2.19025  -1.13818
 Alpha  occ. eigenvalues --   -1.13806  -1.13771  -1.13652  -1.13613  -1.13564
 Alpha  occ. eigenvalues --   -1.13444  -1.13369  -1.13366  -1.13345  -1.13319
 Alpha  occ. eigenvalues --   -1.13297  -1.12879  -1.12847  -1.12822  -1.12805
 Alpha  occ. eigenvalues --   -1.12770  -1.12732  -1.12696  -1.12675  -1.12650
 Alpha  occ. eigenvalues --   -0.18520  -0.13503  -0.11984  -0.10870
 Alpha virt. eigenvalues --   -0.05917  -0.05251  -0.04501  -0.03299  -0.02679
 Alpha virt. eigenvalues --   -0.02536  -0.01759  -0.01107  -0.00462  -0.00309
 Alpha virt. eigenvalues --   -0.00027   0.00319   0.00733   0.00822   0.00855

  Beta  occ. eigenvalues --  -38.44314 -38.44055 -38.43838 -38.43707 -38.43329
  Beta  occ. eigenvalues --  -38.43220 -38.43040  -2.20141  -2.19927  -2.19673
  Beta  occ. eigenvalues --   -2.19513  -2.19172  -2.19032  -2.19028  -1.13815
  Beta  occ. eigenvalues --   -1.13803  -1.13774  -1.13634  -1.13580  -1.13553
  Beta  occ. eigenvalues --   -1.13387  -1.13326  -1.13308  -1.13229  -1.13198
  Beta  occ. eigenvalues --   -1.13171  -1.12867  -1.12822  -1.12812  -1.12761
  Beta  occ. eigenvalues --   -1.12730  -1.12695  -1.12676  -1.12653  -1.12647
  Beta  occ. eigenvalues --   -0.17842  -0.13264  -0.11754
  Beta virt. eigenvalues --   -0.06931  -0.05819  -0.05150  -0.04406  -0.02676
  Beta virt. eigenvalues --   -0.02014  -0.01686  -0.01496  -0.01000  -0.00409
  Beta virt. eigenvalues --   -0.00316   0.00129   0.00385   0.00847   0.00852

 Mulliken charges and spin densities:
               1          2
     1  Na  -0.210407  -0.043972
     2  Na   0.314982   0.120136
     3  Na   0.136651   0.137183
     4  Na   0.101869   0.149760
     5  Na  -0.035400   0.047223
     6  Na  -0.324143   0.611165
     7  Na   0.016449  -0.021495
 Sum of Mulliken charges =  -0.00000   1.00000

 Dipole moment (field-independent basis, Debye):
    X=              0.0154    Y=             -0.0448    Z=              0.2075  Tot=              0.2128
 Quadrupole moment (field-independent basis, Debye-Ang):
   XX=            -54.0262   YY=            -65.4140   ZZ=            -73.9215
   XY=              0.1608   XZ=             -1.1100   YZ=              0.7189

 Normal termination of Gaussian 16 at Tue Nov 28 18:50:46 2023.
