 Gaussian 16, Revision B.01,
 Gaussian 16:  ES64L-G16RevB.01 20-Dec-2017

 -------------------------
 #P B3LYP/6-311+g(d) force
 -------------------------

 -----
 DPGEN
 -----
 Symbolic Z-matrix:
 Charge =  0 Multiplicity = 2

                         Standard orientation:
 ---------------------------------------------------------------------
 Center     Atomic      Atomic             Coordinates (Angstroms)
 Number     Number       Type             X           Y           Z
 ---------------------------------------------------------------------
      1         11           0        1.189633    1.439067   -1.585369
      2         11           0        2.282049   -2.037494   -0.576218
      3         11           0       -1.771951    1.877523   -0.077966
      4         11           0       -3.889576   -0.614736    0.435381
      5         11           0       -0.882709   -1.099894   -1.067143
      6         11           0       -0.013316   -0.502915    1.628240
      7         11           0        3.085870    0.938449    1.243075
 ---------------------------------------------------------------------

 SCF Done:  E(UB3LYP) =  -1136.12144568     A.U. after   25 cycles

 The electronic state is 2-A.
 Alpha  occ. eigenvalues --  -38.45146 -38.44612 -38.44581 -38.43310 -38.43286
 Alpha  occ. eigenvalues --  -38.43090 -38.42650  -2.20962  -2.20516  -2.20452
 Alpha  occ. eigenvalues --   -2.19325  -2.19167  -2.19005  -2.18557  -1.14633
 Alpha  occ. eigenvalues --   -1.14622  -1.14586  -1.14309  -1.14155  -1.14130
 Alpha  occ. eigenvalues --   -1.14105  -1.14073  -1.14063  -1.13074  -1.12954
 Alpha  occ. eigenvalues --   -1.12944  -1.12826  -1.12813  -1.12810  -1.12704
 Alpha  occ. eigenvalues --   -1.12677  -1.12615  -1.12247  -1.12198  -1.12181
 Alpha  occ. eigenvalues --   -0.18993  -0.14218  -0.11318  -0.10923
 Alpha virt. eigenvalues --   -0.06966  -0.04983  -0.04278  -0.02988  -0.02865
 Alpha virt. eigenvalues --   -0.02360  -0.02227  -0.01075  -0.00758  -0.00009
 Alpha virt. eigenvalues --    0.00106   0.00307   0.00388   0.00683   0.00810

  Beta  occ. eigenvalues --  -38.45138 -38.44556 -38.44547 -38.43294 -38.43236
  Beta  occ. eigenvalues --  -38.43085 -38.42613  -2.20946  -2.20455  -2.20348
  Beta  occ. eigenvalues --   -2.19239  -2.19142  -2.19000  -2.18493  -1.14620
  Beta  occ. eigenvalues --   -1.14612  -1.14575  -1.14253  -1.14104  -1.14078
  Beta  occ. eigenvalues --   -1.14035  -1.14009  -1.13998  -1.13024  -1.12889
  Beta  occ. eigenvalues --   -1.12865  -1.12804  -1.12794  -1.12772  -1.12701
  Beta  occ. eigenvalues --   -1.12655  -1.12606  -1.12193  -1.12150  -1.12130
  Beta  occ. eigenvalues --   -0.18291  -0.13891  -0.10705
  Beta virt. eigenvalues --   -0.07413  -0.06740  -0.04918  -0.03720  -0.02812
  Beta virt. eigenvalues --   -0.02583  -0.01796  -0.01410  -0.00965  -0.00422
  Beta virt. eigenvalues --    0.00017   0.00140   0.00326   0.00501   0.00762

 Mulliken charges and spin densities:
               1          2
     1  Na   0.235692   0.116220
     2  Na  -0.089775  -0.019503
     3  Na  -0.338131  -0.059562
     4  Na   0.720768   0.074974
     5  Na  -0.400097   0.368200
     6  Na   0.004131   0.419752
     7  Na  -0.132588   0.099919
 Sum of Mulliken charges =  -0.00000   1.00000

 Dipole moment (field-independent basis, Debye):
    X=             -0.6766    Y=             -0.0649    Z=              0.3807  Tot=              0.7791
 Quadrupole moment (field-independent basis, Debye-Ang):
   XX=            -45.0207   YY=            -77.3316   ZZ=            -69.3600
   XY=              0.6463   XZ=             -1.5408   YZ=              2.7210

 Normal termination of Gaussian 16 at Thu Dec  7 09:40:14 2023.
