 Gaussian 16, Revision B.01,
 Gaussian 16:  ES64L-G16RevB.01 20-Dec-2017

 -------------------------
 #P B3LYP/6-311+g(d) force
 -------------------------

 -----
 DPGEN
 -----
 Symbolic Z-matrix:
 Charge =  0 Multiplicity = 2

                         Standard orientation:
 ---------------------------------------------------------------------
 Center     Atomic      Atomic             Coordinates (Angstroms)
 Number     Number       Type             X           Y           Z
 ---------------------------------------------------------------------
      1         11           0        1.260200   -2.083188    0.621272
      2         11           0       -2.441653    2.314894   -0.325444
      3         11           0       -1.603356   -0.524069    1.673830
      4         11           0       -3.168169   -1.509800   -1.334739
      5         11           0        1.851212    0.999655    1.658923
      6         11           0        0.139236    0.621637   -0.757440
      7         11           0        3.962529    0.180870   -1.536402
 ---------------------------------------------------------------------

 SCF Done:  E(UB3LYP) =  -1136.11630276     A.U. after   27 cycles

 The electronic state is 2-A.
 Alpha  occ. eigenvalues --  -38.44959 -38.44877 -38.44425 -38.43513 -38.43447
 Alpha  occ. eigenvalues --  -38.43216 -38.43055  -2.20764  -2.20747  -2.20200
 Alpha  occ. eigenvalues --   -2.19471  -2.19424  -2.19093  -2.18895  -1.14512
 Alpha  occ. eigenvalues --   -1.14416  -1.14394  -1.14373  -1.14358  -1.14357
 Alpha  occ. eigenvalues --   -1.13864  -1.13853  -1.13804  -1.13241  -1.13171
 Alpha  occ. eigenvalues --   -1.13141  -1.13082  -1.13054  -1.13033  -1.12798
 Alpha  occ. eigenvalues --   -1.12757  -1.12690  -1.12572  -1.12555  -1.12512
 Alpha  occ. eigenvalues --   -0.18397  -0.13844  -0.11233  -0.10764
 Alpha virt. eigenvalues --   -0.06178  -0.05766  -0.04784  -0.02914  -0.02521
 Alpha virt. eigenvalues --   -0.02297  -0.02019  -0.01343  -0.00862  -0.00221
 Alpha virt. eigenvalues --    0.00052   0.00136   0.00307   0.00424   0.00579

  Beta  occ. eigenvalues --  -38.44889 -38.44845 -38.44367 -38.43503 -38.43438
  Beta  occ. eigenvalues --  -38.43217 -38.43047  -2.20708  -2.20613  -2.20090
  Beta  occ. eigenvalues --   -2.19461  -2.19411  -2.19096  -2.18881  -1.14474
  Beta  occ. eigenvalues --   -1.14355  -1.14324  -1.14300  -1.14285  -1.14267
  Beta  occ. eigenvalues --   -1.13787  -1.13777  -1.13734  -1.13216  -1.13145
  Beta  occ. eigenvalues --   -1.13134  -1.13056  -1.13034  -1.13026  -1.12803
  Beta  occ. eigenvalues --   -1.12743  -1.12693  -1.12565  -1.12541  -1.12496
  Beta  occ. eigenvalues --   -0.17780  -0.13378  -0.10574
  Beta virt. eigenvalues --   -0.07691  -0.05833  -0.05098  -0.04649  -0.02706
  Beta virt. eigenvalues --   -0.02202  -0.01767  -0.01675  -0.00951  -0.00754
  Beta virt. eigenvalues --    0.00012   0.00196   0.00274   0.00380   0.00486

 Mulliken charges and spin densities:
               1          2
     1  Na  -0.251568   0.038727
     2  Na   0.482374  -0.030301
     3  Na   0.916903   0.162841
     4  Na  -0.167594   0.259009
     5  Na   0.320879  -0.062131
     6  Na  -1.331090   0.351079
     7  Na   0.030096   0.280775
 Sum of Mulliken charges =  -0.00000   1.00000

 Dipole moment (field-independent basis, Debye):
    X=              0.1239    Y=             -0.4028    Z=              0.4668  Tot=              0.6288
 Quadrupole moment (field-independent basis, Debye-Ang):
   XX=            -54.8241   YY=            -73.4583   ZZ=            -65.6627
   XY=              0.1999   XZ=              1.7311   YZ=              7.1276

 Normal termination of Gaussian 16 at Fri Dec  8 05:42:49 2023.
