 Gaussian 16, Revision B.01,
 Gaussian 16:  ES64L-G16RevB.01 20-Dec-2017

 -------------------------
 #P B3LYP/6-311+g(d) force
 -------------------------

 -----
 DPGEN
 -----
 Symbolic Z-matrix:
 Charge =  0 Multiplicity = 2

                         Standard orientation:
 ---------------------------------------------------------------------
 Center     Atomic      Atomic             Coordinates (Angstroms)
 Number     Number       Type             X           Y           Z
 ---------------------------------------------------------------------
      1         11           0       -0.120021   -0.324347    2.014692
      2         11           0       -0.111489   -0.030430   -1.669920
      3         11           0        3.170805    0.240369    0.149729
      4         11           0       -2.498314    1.570654   -0.093114
      5         11           0        1.384620   -2.787831   -0.352191
      6         11           0       -2.817025   -1.486017    0.030284
      7         11           0        0.991424    2.817602   -0.079480
 ---------------------------------------------------------------------

 SCF Done:  E(UB3LYP) =  -1136.13643786     A.U. after   19 cycles

 The electronic state is 2-A.
 Alpha  occ. eigenvalues --  -38.44355 -38.44171 -38.43796 -38.43666 -38.43431
 Alpha  occ. eigenvalues --  -38.43225 -38.43029  -2.20174  -2.20029  -2.19687
 Alpha  occ. eigenvalues --   -2.19540  -2.19248  -2.19185  -2.18867  -1.13848
 Alpha  occ. eigenvalues --   -1.13837  -1.13812  -1.13743  -1.13685  -1.13670
 Alpha  occ. eigenvalues --   -1.13372  -1.13339  -1.13314  -1.13212  -1.13167
 Alpha  occ. eigenvalues --   -1.13157  -1.12942  -1.12904  -1.12888  -1.12869
 Alpha  occ. eigenvalues --   -1.12812  -1.12805  -1.12541  -1.12527  -1.12512
 Alpha  occ. eigenvalues --   -0.18574  -0.13400  -0.12115  -0.10664
 Alpha virt. eigenvalues --   -0.05943  -0.05249  -0.04557  -0.03371  -0.02713
 Alpha virt. eigenvalues --   -0.02483  -0.01710  -0.01117  -0.00520  -0.00330
 Alpha virt. eigenvalues --   -0.00014   0.00361   0.00752   0.00843   0.00880

  Beta  occ. eigenvalues --  -38.44353 -38.44167 -38.43789 -38.43576 -38.43424
  Beta  occ. eigenvalues --  -38.43156 -38.43027  -2.20173  -2.20025  -2.19678
  Beta  occ. eigenvalues --   -2.19374  -2.19238  -2.19060  -2.18867  -1.13839
  Beta  occ. eigenvalues --   -1.13829  -1.13815  -1.13745  -1.13670  -1.13652
  Beta  occ. eigenvalues --   -1.13362  -1.13315  -1.13304  -1.13101  -1.13050
  Beta  occ. eigenvalues --   -1.13037  -1.12921  -1.12885  -1.12884  -1.12784
  Beta  occ. eigenvalues --   -1.12725  -1.12716  -1.12538  -1.12518  -1.12506
  Beta  occ. eigenvalues --   -0.17844  -0.13184  -0.11880
  Beta virt. eigenvalues --   -0.06769  -0.05876  -0.05239  -0.04522  -0.02570
  Beta virt. eigenvalues --   -0.01974  -0.01602  -0.01453  -0.01038  -0.00579
  Beta virt. eigenvalues --   -0.00371   0.00134   0.00387   0.00820   0.00838

 Mulliken charges and spin densities:
               1          2
     1  Na  -0.437620   0.680606
     2  Na  -0.165434   0.512833
     3  Na   0.077990  -0.018458
     4  Na   0.182630   0.024259
     5  Na   0.045042  -0.094698
     6  Na   0.323869  -0.043140
     7  Na  -0.026478  -0.061402
 Sum of Mulliken charges =  -0.00000   1.00000

 Dipole moment (field-independent basis, Debye):
    X=             -0.0502    Y=             -0.2389    Z=              0.1522  Tot=              0.2877
 Quadrupole moment (field-independent basis, Debye-Ang):
   XX=            -54.7361   YY=            -63.8585   ZZ=            -75.0032
   XY=              0.5153   XZ=              0.3503   YZ=              0.6281

 Normal termination of Gaussian 16 at Thu Dec  7 23:45:50 2023.
