 Gaussian 16, Revision B.01,
 Gaussian 16:  ES64L-G16RevB.01 20-Dec-2017

 -------------------------
 #P B3LYP/6-311+g(d) force
 -------------------------

 -----
 DPGEN
 -----
 Symbolic Z-matrix:
 Charge =  0 Multiplicity = 2

                         Standard orientation:
 ---------------------------------------------------------------------
 Center     Atomic      Atomic             Coordinates (Angstroms)
 Number     Number       Type             X           Y           Z
 ---------------------------------------------------------------------
      1         11           0        3.901215    1.189755   -0.927797
      2         11           0        0.051079    1.016008   -1.023870
      3         11           0       -3.099004   -1.329788   -1.104184
      4         11           0        0.449763   -2.326818   -0.865104
      5         11           0        2.464969   -0.839913    1.721699
      6         11           0       -1.491100   -0.612941    1.784959
      7         11           0       -2.276922    2.903696    0.414297
 ---------------------------------------------------------------------

 SCF Done:  E(UB3LYP) =  -1136.12255620     A.U. after   22 cycles

 The electronic state is 2-A.
 Alpha  occ. eigenvalues --  -38.44855 -38.44711 -38.44232 -38.44215 -38.43820
 Alpha  occ. eigenvalues --  -38.43654 -38.43005  -2.20652  -2.20471  -2.20068
 Alpha  occ. eigenvalues --   -2.20037  -2.19654  -2.19525  -2.18793  -1.14339
 Alpha  occ. eigenvalues --   -1.14294  -1.14272  -1.14138  -1.14129  -1.14094
 Alpha  occ. eigenvalues --   -1.13761  -1.13724  -1.13709  -1.13696  -1.13667
 Alpha  occ. eigenvalues --   -1.13654  -1.13381  -1.13314  -1.13255  -1.13229
 Alpha  occ. eigenvalues --   -1.13199  -1.13132  -1.12466  -1.12457  -1.12433
 Alpha  occ. eigenvalues --   -0.17747  -0.13306  -0.11383  -0.10862
 Alpha virt. eigenvalues --   -0.06838  -0.05399  -0.04589  -0.03236  -0.02612
 Alpha virt. eigenvalues --   -0.02444  -0.02286  -0.01237  -0.00956  -0.00299
 Alpha virt. eigenvalues --   -0.00089   0.00128   0.00232   0.00437   0.00705

  Beta  occ. eigenvalues --  -38.44832 -38.44686 -38.44188 -38.44165 -38.43804
  Beta  occ. eigenvalues --  -38.43635 -38.43010  -2.20609  -2.20422  -2.19976
  Beta  occ. eigenvalues --   -2.19958  -2.19628  -2.19492  -2.18803  -1.14306
  Beta  occ. eigenvalues --   -1.14264  -1.14239  -1.14102  -1.14094  -1.14064
  Beta  occ. eigenvalues --   -1.13699  -1.13656  -1.13650  -1.13643  -1.13599
  Beta  occ. eigenvalues --   -1.13585  -1.13363  -1.13276  -1.13235  -1.13200
  Beta  occ. eigenvalues --   -1.13167  -1.13109  -1.12474  -1.12460  -1.12437
  Beta  occ. eigenvalues --   -0.17101  -0.13063  -0.11182
  Beta virt. eigenvalues --   -0.07220  -0.06641  -0.05026  -0.04205  -0.03015
  Beta virt. eigenvalues --   -0.02293  -0.02077  -0.01620  -0.01016  -0.00648
  Beta virt. eigenvalues --   -0.00251   0.00044   0.00182   0.00318   0.00563

 Mulliken charges and spin densities:
               1          2
     1  Na   0.204565   0.116821
     2  Na  -0.759060   0.186639
     3  Na   0.229033   0.100365
     4  Na   0.229366   0.154877
     5  Na  -0.043262   0.204176
     6  Na   0.108191   0.366663
     7  Na   0.031167  -0.129540
 Sum of Mulliken charges =  -0.00000   1.00000

 Dipole moment (field-independent basis, Debye):
    X=              0.0331    Y=             -0.6336    Z=             -0.0540  Tot=              0.6368
 Quadrupole moment (field-independent basis, Debye-Ang):
   XX=            -50.8449   YY=            -72.8849   ZZ=            -69.0986
   XY=              1.9960   XZ=              0.4241   YZ=              0.2133

 Normal termination of Gaussian 16 at Tue Dec  5 22:30:59 2023.
