 Gaussian 16, Revision B.01,
 Gaussian 16:  ES64L-G16RevB.01 20-Dec-2017

 -------------------------
 #P B3LYP/6-311+g(d) force
 -------------------------

 -----
 DPGEN
 -----
 Symbolic Z-matrix:
 Charge =  0 Multiplicity = 2

                         Standard orientation:
 ---------------------------------------------------------------------
 Center     Atomic      Atomic             Coordinates (Angstroms)
 Number     Number       Type             X           Y           Z
 ---------------------------------------------------------------------
      1         11           0        2.019105   -2.250195    0.857559
      2         11           0       -2.502605    1.153418    0.690097
      3         11           0       -0.026623    2.860208   -0.725561
      4         11           0        1.153052    0.839371    1.825460
      5         11           0        3.004163    0.192349   -1.110533
      6         11           0       -0.189127   -1.133473   -1.256526
      7         11           0       -3.457964   -1.661677   -0.280497
 ---------------------------------------------------------------------

 SCF Done:  E(UB3LYP) =  -1136.13065180     A.U. after   21 cycles

 The electronic state is 2-A.
 Alpha  occ. eigenvalues --  -38.44529 -38.43861 -38.43842 -38.43820 -38.43689
 Alpha  occ. eigenvalues --  -38.43571 -38.43138  -2.20391  -2.19747  -2.19710
 Alpha  occ. eigenvalues --   -2.19642  -2.19579  -2.19462  -2.18971  -1.14060
 Alpha  occ. eigenvalues --   -1.14047  -1.14020  -1.13443  -1.13430  -1.13400
 Alpha  occ. eigenvalues --   -1.13392  -1.13382  -1.13378  -1.13301  -1.13289
 Alpha  occ. eigenvalues --   -1.13267  -1.13245  -1.13243  -1.13174  -1.13140
 Alpha  occ. eigenvalues --   -1.13119  -1.13064  -1.12646  -1.12621  -1.12613
 Alpha  occ. eigenvalues --   -0.18284  -0.13768  -0.11971  -0.10737
 Alpha virt. eigenvalues --   -0.06204  -0.05368  -0.04531  -0.03379  -0.02840
 Alpha virt. eigenvalues --   -0.02378  -0.01922  -0.01023  -0.00657  -0.00148
 Alpha virt. eigenvalues --   -0.00055   0.00296   0.00458   0.00714   0.00799

  Beta  occ. eigenvalues --  -38.44490 -38.43836 -38.43833 -38.43823 -38.43657
  Beta  occ. eigenvalues --  -38.43505 -38.43129  -2.20322  -2.19700  -2.19698
  Beta  occ. eigenvalues --   -2.19650  -2.19522  -2.19344  -2.18956  -1.14008
  Beta  occ. eigenvalues --   -1.13990  -1.13968  -1.13431  -1.13413  -1.13381
  Beta  occ. eigenvalues --   -1.13368  -1.13360  -1.13330  -1.13299  -1.13292
  Beta  occ. eigenvalues --   -1.13245  -1.13224  -1.13199  -1.13132  -1.13060
  Beta  occ. eigenvalues --   -1.13036  -1.12969  -1.12637  -1.12613  -1.12586
  Beta  occ. eigenvalues --   -0.17600  -0.13587  -0.11828
  Beta virt. eigenvalues --   -0.06825  -0.06052  -0.05256  -0.04244  -0.02912
  Beta virt. eigenvalues --   -0.02342  -0.01930  -0.01313  -0.00934  -0.00483
  Beta virt. eigenvalues --   -0.00033   0.00065   0.00363   0.00580   0.00763

 Mulliken charges and spin densities:
               1          2
     1  Na   0.272971   0.065533
     2  Na  -0.087593  -0.078811
     3  Na  -0.090222   0.039219
     4  Na  -0.247754   0.448596
     5  Na   0.451283   0.191654
     6  Na  -0.557051   0.384597
     7  Na   0.258366  -0.050787
 Sum of Mulliken charges =  -0.00000   1.00000

 Dipole moment (field-independent basis, Debye):
    X=              0.3203    Y=             -0.2281    Z=             -0.0264  Tot=              0.3941
 Quadrupole moment (field-independent basis, Debye-Ang):
   XX=            -55.4894   YY=            -66.7366   ZZ=            -72.5316
   XY=              0.2727   XZ=             -1.8228   YZ=             -2.2278

 Normal termination of Gaussian 16 at Tue Dec  5 18:12:07 2023.
