 Gaussian 16, Revision B.01,
 Gaussian 16:  ES64L-G16RevB.01 20-Dec-2017

 -------------------------
 #P B3LYP/6-311+g(d) force
 -------------------------

 -----
 DPGEN
 -----
 Symbolic Z-matrix:
 Charge =  0 Multiplicity = 2

                         Standard orientation:
 ---------------------------------------------------------------------
 Center     Atomic      Atomic             Coordinates (Angstroms)
 Number     Number       Type             X           Y           Z
 ---------------------------------------------------------------------
      1         11           0        0.175965   -2.236167    0.690603
      2         11           0        3.281595   -2.747112   -0.309553
      3         11           0        3.617254    0.716567   -0.492428
      4         11           0       -0.084512    0.897491   -0.270802
      5         11           0       -3.428841    0.206697    1.013673
      6         11           0        2.209952    3.239196    0.311196
      7         11           0       -5.771413   -0.076671   -0.942689
 ---------------------------------------------------------------------

 SCF Done:  E(UB3LYP) =  -1136.12079367     A.U. after   20 cycles

 The electronic state is 2-A.
 Alpha  occ. eigenvalues --  -38.44543 -38.44303 -38.44263 -38.44111 -38.43906
 Alpha  occ. eigenvalues --  -38.43594 -38.43547  -2.20367  -2.20177  -2.20137
 Alpha  occ. eigenvalues --   -2.19934  -2.19721  -2.19458  -2.19369  -1.14035
 Alpha  occ. eigenvalues --   -1.13994  -1.13991  -1.13866  -1.13843  -1.13832
 Alpha  occ. eigenvalues --   -1.13822  -1.13815  -1.13736  -1.13613  -1.13606
 Alpha  occ. eigenvalues --   -1.13545  -1.13401  -1.13396  -1.13363  -1.13126
 Alpha  occ. eigenvalues --   -1.13100  -1.13092  -1.13027  -1.13026  -1.13002
 Alpha  occ. eigenvalues --   -0.16958  -0.14147  -0.12406  -0.11333
 Alpha virt. eigenvalues --   -0.05674  -0.05250  -0.04958  -0.03854  -0.02910
 Alpha virt. eigenvalues --   -0.02226  -0.01821  -0.01634  -0.00948  -0.00606
 Alpha virt. eigenvalues --   -0.00257   0.00063   0.00126   0.00305   0.00745

  Beta  occ. eigenvalues --  -38.44458 -38.44263 -38.44212 -38.44089 -38.43911
  Beta  occ. eigenvalues --  -38.43591 -38.43520  -2.20208  -2.20104  -2.20046
  Beta  occ. eigenvalues --   -2.19897  -2.19739  -2.19453  -2.19320  -1.13934
  Beta  occ. eigenvalues --   -1.13885  -1.13882  -1.13813  -1.13792  -1.13770
  Beta  occ. eigenvalues --   -1.13762  -1.13759  -1.13669  -1.13585  -1.13580
  Beta  occ. eigenvalues --   -1.13509  -1.13416  -1.13409  -1.13325  -1.13116
  Beta  occ. eigenvalues --   -1.13095  -1.13089  -1.12994  -1.12983  -1.12974
  Beta  occ. eigenvalues --   -0.16337  -0.13322  -0.12309
  Beta virt. eigenvalues --   -0.07894  -0.05240  -0.04898  -0.04573  -0.03633
  Beta virt. eigenvalues --   -0.02596  -0.01948  -0.01677  -0.01297  -0.00843
  Beta virt. eigenvalues --   -0.00230  -0.00021   0.00230   0.00256   0.00452

 Mulliken charges and spin densities:
               1          2
     1  Na   0.042009   0.062331
     2  Na   0.187264   0.118739
     3  Na  -0.072767   0.332647
     4  Na  -1.585467  -0.007146
     5  Na   0.070905  -0.018599
     6  Na   1.167244   0.112847
     7  Na   0.190811   0.399182
 Sum of Mulliken charges =  -0.00000   1.00000

 Dipole moment (field-independent basis, Debye):
    X=              0.0059    Y=              0.1700    Z=             -0.0741  Tot=              0.1856
 Quadrupole moment (field-independent basis, Debye-Ang):
   XX=            -63.6012   YY=            -65.9328   ZZ=            -68.1054
   XY=              1.4665   XZ=              2.2053   YZ=              1.3300

 Normal termination of Gaussian 16 at Tue Nov 28 20:37:47 2023.
