 Gaussian 16, Revision B.01,
 Gaussian 16:  ES64L-G16RevB.01 20-Dec-2017

 -------------------------
 #P B3LYP/6-311+g(d) force
 -------------------------

 -----
 DPGEN
 -----
 Symbolic Z-matrix:
 Charge =  0 Multiplicity = 2

                         Standard orientation:
 ---------------------------------------------------------------------
 Center     Atomic      Atomic             Coordinates (Angstroms)
 Number     Number       Type             X           Y           Z
 ---------------------------------------------------------------------
      1         11           0        1.119652   -1.993536   -0.336211
      2         11           0        4.515042   -0.672850   -0.589821
      3         11           0        2.406081    1.587532   -0.638741
      4         11           0       -0.648977    2.523489    0.219859
      5         11           0       -2.355251   -0.812508   -0.099070
      6         11           0        0.185247   -0.393289    2.224119
      7         11           0       -5.221793   -0.238838   -0.780135
 ---------------------------------------------------------------------

 SCF Done:  E(UB3LYP) =  -1136.11602825     A.U. after   23 cycles

 The electronic state is 2-A.
 Alpha  occ. eigenvalues --  -38.45461 -38.44867 -38.44068 -38.43907 -38.43793
 Alpha  occ. eigenvalues --  -38.43267 -38.43162  -2.21323  -2.20717  -2.19955
 Alpha  occ. eigenvalues --   -2.19734  -2.19626  -2.19105  -2.19043  -1.15023
 Alpha  occ. eigenvalues --   -1.14978  -1.14914  -1.14414  -1.14385  -1.14303
 Alpha  occ. eigenvalues --   -1.13656  -1.13614  -1.13594  -1.13429  -1.13362
 Alpha  occ. eigenvalues --   -1.13359  -1.13290  -1.13275  -1.13239  -1.12781
 Alpha  occ. eigenvalues --   -1.12753  -1.12733  -1.12730  -1.12721  -1.12676
 Alpha  occ. eigenvalues --   -0.17920  -0.13903  -0.12077  -0.11491
 Alpha virt. eigenvalues --   -0.06511  -0.05062  -0.04788  -0.03595  -0.02726
 Alpha virt. eigenvalues --   -0.02301  -0.01966  -0.01588  -0.01313  -0.00448
 Alpha virt. eigenvalues --   -0.00272   0.00005   0.00476   0.00532   0.00718

  Beta  occ. eigenvalues --  -38.45409 -38.44824 -38.44023 -38.43850 -38.43774
  Beta  occ. eigenvalues --  -38.43243 -38.43161  -2.21232  -2.20643  -2.19873
  Beta  occ. eigenvalues --   -2.19629  -2.19591  -2.19059  -2.19048  -1.14948
  Beta  occ. eigenvalues --   -1.14918  -1.14845  -1.14354  -1.14340  -1.14240
  Beta  occ. eigenvalues --   -1.13593  -1.13562  -1.13535  -1.13358  -1.13290
  Beta  occ. eigenvalues --   -1.13288  -1.13257  -1.13247  -1.13220  -1.12747
  Beta  occ. eigenvalues --   -1.12742  -1.12724  -1.12708  -1.12694  -1.12652
  Beta  occ. eigenvalues --   -0.17224  -0.13334  -0.11099
  Beta virt. eigenvalues --   -0.08522  -0.06233  -0.04734  -0.04344  -0.03173
  Beta virt. eigenvalues --   -0.02590  -0.01852  -0.01795  -0.01254  -0.00965
  Beta virt. eigenvalues --   -0.00283  -0.00159   0.00120   0.00568   0.00663

 Mulliken charges and spin densities:
               1          2
     1  Na   0.380913   0.007794
     2  Na   0.140051   0.096044
     3  Na  -0.189746   0.236551
     4  Na   0.190019   0.115948
     5  Na  -0.899684   0.162966
     6  Na   0.470587   0.149481
     7  Na  -0.092139   0.231215
 Sum of Mulliken charges =  -0.00000   1.00000

 Dipole moment (field-independent basis, Debye):
    X=              0.8820    Y=              0.0680    Z=              0.9728  Tot=              1.3149
 Quadrupole moment (field-independent basis, Debye-Ang):
   XX=            -63.2767   YY=            -72.1872   ZZ=            -65.7448
   XY=             -4.6136   XZ=              1.4142   YZ=             -2.1361

 Normal termination of Gaussian 16 at Wed Nov 29 02:49:29 2023.
