 Gaussian 16, Revision B.01,
 Gaussian 16:  ES64L-G16RevB.01 20-Dec-2017

 -------------------------
 #P B3LYP/6-311+g(d) force
 -------------------------

 -----
 DPGEN
 -----
 Symbolic Z-matrix:
 Charge =  0 Multiplicity = 2

                         Standard orientation:
 ---------------------------------------------------------------------
 Center     Atomic      Atomic             Coordinates (Angstroms)
 Number     Number       Type             X           Y           Z
 ---------------------------------------------------------------------
      1         11           0       -1.466008    1.916096   -0.587131
      2         11           0        3.210990   -1.114779    0.692489
      3         11           0        2.196050    2.275882   -0.241677
      4         11           0        1.247069   -0.930536   -1.570312
      5         11           0        0.037819    0.032719    1.743761
      6         11           0       -1.454390   -2.446894   -0.345802
      7         11           0       -3.771530    0.267512    0.308673
 ---------------------------------------------------------------------

 SCF Done:  E(UB3LYP) =  -1136.12323452     A.U. after   23 cycles

 The electronic state is 2-A.
 Alpha  occ. eigenvalues --  -38.45248 -38.44945 -38.44088 -38.43692 -38.43425
 Alpha  occ. eigenvalues --  -38.43357 -38.43142  -2.21075  -2.20799  -2.19980
 Alpha  occ. eigenvalues --   -2.19511  -2.19248  -2.19240  -2.19082  -1.14795
 Alpha  occ. eigenvalues --   -1.14720  -1.14691  -1.14511  -1.14442  -1.14416
 Alpha  occ. eigenvalues --   -1.13682  -1.13621  -1.13593  -1.13183  -1.13172
 Alpha  occ. eigenvalues --   -1.13154  -1.12945  -1.12924  -1.12920  -1.12894
 Alpha  occ. eigenvalues --   -1.12882  -1.12874  -1.12767  -1.12740  -1.12671
 Alpha  occ. eigenvalues --   -0.18453  -0.14067  -0.11639  -0.10392
 Alpha virt. eigenvalues --   -0.07026  -0.05566  -0.04067  -0.03441  -0.02661
 Alpha virt. eigenvalues --   -0.02338  -0.02078  -0.01339  -0.00694  -0.00293
 Alpha virt. eigenvalues --    0.00063   0.00179   0.00405   0.00669   0.00749

  Beta  occ. eigenvalues --  -38.45248 -38.44921 -38.44026 -38.43683 -38.43416
  Beta  occ. eigenvalues --  -38.43347 -38.43087  -2.21075  -2.20759  -2.19867
  Beta  occ. eigenvalues --   -2.19497  -2.19234  -2.19223  -2.18980  -1.14797
  Beta  occ. eigenvalues --   -1.14713  -1.14693  -1.14479  -1.14398  -1.14390
  Beta  occ. eigenvalues --   -1.13598  -1.13545  -1.13506  -1.13166  -1.13160
  Beta  occ. eigenvalues --   -1.13136  -1.12931  -1.12912  -1.12893  -1.12880
  Beta  occ. eigenvalues --   -1.12866  -1.12855  -1.12690  -1.12674  -1.12595
  Beta  occ. eigenvalues --   -0.17797  -0.13882  -0.11368
  Beta virt. eigenvalues --   -0.06917  -0.06566  -0.05578  -0.03651  -0.03071
  Beta virt. eigenvalues --   -0.02449  -0.01743  -0.01293  -0.01165  -0.00640
  Beta virt. eigenvalues --   -0.00045   0.00062   0.00227   0.00567   0.00722

 Mulliken charges and spin densities:
               1          2
     1  Na  -0.599392   0.017462
     2  Na   0.390951   0.061869
     3  Na  -0.016358   0.055939
     4  Na   0.049213   0.349348
     5  Na  -0.194261   0.444129
     6  Na  -0.313569   0.030200
     7  Na   0.683416   0.041053
 Sum of Mulliken charges =  -0.00000   1.00000

 Dipole moment (field-independent basis, Debye):
    X=             -0.2536    Y=             -0.0788    Z=              0.2949  Tot=              0.3969
 Quadrupole moment (field-independent basis, Debye-Ang):
   XX=            -45.3951   YY=            -72.1234   ZZ=            -74.9760
   XY=              0.7283   XZ=             -0.0581   YZ=             -1.3046

 Normal termination of Gaussian 16 at Fri Dec  8 06:42:24 2023.
