 Gaussian 16, Revision B.01,
 Gaussian 16:  ES64L-G16RevB.01 20-Dec-2017

 -------------------------
 #P B3LYP/6-311+g(d) force
 -------------------------

 -----
 DPGEN
 -----
 Symbolic Z-matrix:
 Charge =  0 Multiplicity = 2

                         Standard orientation:
 ---------------------------------------------------------------------
 Center     Atomic      Atomic             Coordinates (Angstroms)
 Number     Number       Type             X           Y           Z
 ---------------------------------------------------------------------
      1         11           0       -1.884788    1.713270   -0.161722
      2         11           0        1.294497    1.808270   -1.462129
      3         11           0        0.007061   -1.234274   -0.494182
      4         11           0        1.643883    0.770286    1.399915
      5         11           0       -3.024917   -1.424456   -0.935771
      6         11           0       -1.537763   -0.206575    1.851761
      7         11           0        3.502025   -1.426523   -0.197873
 ---------------------------------------------------------------------

 SCF Done:  E(UB3LYP) =  -1136.11726978     A.U. after   25 cycles

 The electronic state is 2-A.
 Alpha  occ. eigenvalues --  -38.44208 -38.44110 -38.43802 -38.43658 -38.43593
 Alpha  occ. eigenvalues --  -38.43492 -38.43296  -2.20247  -2.19918  -2.19696
 Alpha  occ. eigenvalues --   -2.19644  -2.19553  -2.19390  -2.19341  -1.14034
 Alpha  occ. eigenvalues --   -1.13955  -1.13802  -1.13603  -1.13572  -1.13564
 Alpha  occ. eigenvalues --   -1.13411  -1.13378  -1.13351  -1.13340  -1.13322
 Alpha  occ. eigenvalues --   -1.13242  -1.13219  -1.13208  -1.13127  -1.13077
 Alpha  occ. eigenvalues --   -1.13064  -1.13032  -1.12975  -1.12969  -1.12924
 Alpha  occ. eigenvalues --   -0.19447  -0.14180  -0.11476  -0.11261
 Alpha virt. eigenvalues --   -0.06299  -0.05145  -0.04412  -0.03213  -0.02487
 Alpha virt. eigenvalues --   -0.02288  -0.02036  -0.01088  -0.00497   0.00128
 Alpha virt. eigenvalues --    0.00209   0.00382   0.00565   0.00705   0.00813

  Beta  occ. eigenvalues --  -38.44133 -38.44116 -38.43779 -38.43623 -38.43580
  Beta  occ. eigenvalues --  -38.43450 -38.43273  -2.20112  -2.19930  -2.19655
  Beta  occ. eigenvalues --   -2.19583  -2.19534  -2.19312  -2.19305  -1.13956
  Beta  occ. eigenvalues --   -1.13858  -1.13690  -1.13609  -1.13579  -1.13568
  Beta  occ. eigenvalues --   -1.13378  -1.13344  -1.13311  -1.13291  -1.13277
  Beta  occ. eigenvalues --   -1.13209  -1.13179  -1.13175  -1.13114  -1.13017
  Beta  occ. eigenvalues --   -1.13011  -1.12980  -1.12938  -1.12917  -1.12898
  Beta  occ. eigenvalues --   -0.18655  -0.14031  -0.11022
  Beta virt. eigenvalues --   -0.07410  -0.06119  -0.05038  -0.03762  -0.02922
  Beta virt. eigenvalues --   -0.02129  -0.01884  -0.01419  -0.00945  -0.00150
  Beta virt. eigenvalues --    0.00146   0.00264   0.00414   0.00693   0.00778

 Mulliken charges and spin densities:
               1          2
     1  Na  -0.132131   0.440867
     2  Na  -0.127785   0.003946
     3  Na  -2.338276   0.761306
     4  Na   0.285790   0.153068
     5  Na   1.091585  -0.208033
     6  Na   0.483773  -0.019005
     7  Na   0.737044  -0.132149
 Sum of Mulliken charges =  -0.00000   1.00000

 Dipole moment (field-independent basis, Debye):
    X=              0.0642    Y=              0.1972    Z=             -0.1597  Tot=              0.2617
 Quadrupole moment (field-independent basis, Debye-Ang):
   XX=            -51.1454   YY=            -74.8573   ZZ=            -67.4212
   XY=             -0.2866   XZ=              0.0075   YZ=              0.2444

 Normal termination of Gaussian 16 at Tue Nov 28 21:53:44 2023.
