 Gaussian 16, Revision B.01,
 Gaussian 16:  ES64L-G16RevB.01 20-Dec-2017

 -------------------------
 #P B3LYP/6-311+g(d) force
 -------------------------

 -----
 DPGEN
 -----
 Symbolic Z-matrix:
 Charge =  0 Multiplicity = 2

                         Standard orientation:
 ---------------------------------------------------------------------
 Center     Atomic      Atomic             Coordinates (Angstroms)
 Number     Number       Type             X           Y           Z
 ---------------------------------------------------------------------
      1         11           0        4.109597   -0.933755   -0.622199
      2         11           0       -1.169124   -0.957921    0.239580
      3         11           0       -3.583596    1.515737   -0.165747
      4         11           0        2.882968    2.689049   -0.167314
      5         11           0       -3.999332   -2.034796   -0.404922
      6         11           0       -0.309983    3.011234    0.509778
      7         11           0        2.069469   -3.289548    0.610824
 ---------------------------------------------------------------------

 SCF Done:  E(UB3LYP) =  -1136.11548898     A.U. after   23 cycles

 The electronic state is 2-A.
 Alpha  occ. eigenvalues --  -38.45529 -38.45326 -38.45049 -38.44058 -38.43598
 Alpha  occ. eigenvalues --  -38.43398 -38.43290  -2.21339  -2.21146  -2.20801
 Alpha  occ. eigenvalues --   -2.19919  -2.19393  -2.19202  -2.19095  -1.15023
 Alpha  occ. eigenvalues --   -1.15005  -1.14955  -1.14848  -1.14835  -1.14756
 Alpha  occ. eigenvalues --   -1.14491  -1.14466  -1.14441  -1.13586  -1.13553
 Alpha  occ. eigenvalues --   -1.13528  -1.13049  -1.13040  -1.13031  -1.12875
 Alpha  occ. eigenvalues --   -1.12864  -1.12841  -1.12779  -1.12770  -1.12714
 Alpha  occ. eigenvalues --   -0.16616  -0.13999  -0.12718  -0.10382
 Alpha virt. eigenvalues --   -0.07328  -0.05397  -0.04047  -0.03982  -0.03023
 Alpha virt. eigenvalues --   -0.02576  -0.02201  -0.01681  -0.01164  -0.00552
 Alpha virt. eigenvalues --   -0.00226  -0.00122   0.00264   0.00488   0.00589

  Beta  occ. eigenvalues --  -38.45499 -38.45320 -38.45051 -38.43991 -38.43561
  Beta  occ. eigenvalues --  -38.43351 -38.43291  -2.21288  -2.21137  -2.20807
  Beta  occ. eigenvalues --   -2.19792  -2.19322  -2.19113  -2.19099  -1.14993
  Beta  occ. eigenvalues --   -1.14973  -1.14886  -1.14843  -1.14807  -1.14749
  Beta  occ. eigenvalues --   -1.14499  -1.14473  -1.14418  -1.13499  -1.13465
  Beta  occ. eigenvalues --   -1.13448  -1.13000  -1.12994  -1.12986  -1.12835
  Beta  occ. eigenvalues --   -1.12804  -1.12785  -1.12777  -1.12770  -1.12684
  Beta  occ. eigenvalues --   -0.16115  -0.13499  -0.12264
  Beta virt. eigenvalues --   -0.07189  -0.07090  -0.05017  -0.03875  -0.03470
  Beta virt. eigenvalues --   -0.02634  -0.02360  -0.01903  -0.01498  -0.00969
  Beta virt. eigenvalues --   -0.00306  -0.00027   0.00167   0.00398   0.00539

 Mulliken charges and spin densities:
               1          2
     1  Na  -0.070557  -0.002835
     2  Na  -2.097062   0.105446
     3  Na   1.208274   0.152939
     4  Na  -0.048451   0.398875
     5  Na   0.609593   0.351918
     6  Na   0.080331  -0.061512
     7  Na   0.317872   0.055170
 Sum of Mulliken charges =  -0.00000   1.00000

 Dipole moment (field-independent basis, Debye):
    X=             -1.7987    Y=             -0.4684    Z=             -0.2549  Tot=              1.8761
 Quadrupole moment (field-independent basis, Debye-Ang):
   XX=            -54.6521   YY=            -70.4781   ZZ=            -72.6021
   XY=             -5.0853   XZ=             -0.4828   YZ=             -0.7136

 Normal termination of Gaussian 16 at Sun Dec  3 12:22:40 2023.
