 Gaussian 16, Revision B.01,
 Gaussian 16:  ES64L-G16RevB.01 20-Dec-2017

 -------------------------
 #P B3LYP/6-311+g(d) force
 -------------------------

 -----
 DPGEN
 -----
 Symbolic Z-matrix:
 Charge =  0 Multiplicity = 2

                         Standard orientation:
 ---------------------------------------------------------------------
 Center     Atomic      Atomic             Coordinates (Angstroms)
 Number     Number       Type             X           Y           Z
 ---------------------------------------------------------------------
      1         11           0        1.934838   -2.179347    0.699030
      2         11           0        1.674469    1.228370   -0.957214
      3         11           0       -1.667012    0.597028   -1.529312
      4         11           0       -1.419566   -1.445143    1.001365
      5         11           0       -4.533937   -0.854704   -0.403815
      6         11           0       -0.558875    2.905005    1.588353
      7         11           0        4.570082   -0.251209   -0.398406
 ---------------------------------------------------------------------

 SCF Done:  E(UB3LYP) =  -1136.11925898     A.U. after   23 cycles

 The electronic state is 2-A.
 Alpha  occ. eigenvalues --  -38.44757 -38.44525 -38.43819 -38.43812 -38.43724
 Alpha  occ. eigenvalues --  -38.43712 -38.43675  -2.20611  -2.20271  -2.19643
 Alpha  occ. eigenvalues --   -2.19640  -2.19596  -2.19560  -2.19504  -1.14331
 Alpha  occ. eigenvalues --   -1.14291  -1.14195  -1.13946  -1.13942  -1.13878
 Alpha  occ. eigenvalues --   -1.13332  -1.13306  -1.13298  -1.13296  -1.13294
 Alpha  occ. eigenvalues --   -1.13279  -1.13276  -1.13274  -1.13251  -1.13236
 Alpha  occ. eigenvalues --   -1.13209  -1.13181  -1.13161  -1.13131  -1.13105
 Alpha  occ. eigenvalues --   -0.17274  -0.13946  -0.11761  -0.10832
 Alpha virt. eigenvalues --   -0.07169  -0.05074  -0.04308  -0.03359  -0.02868
 Alpha virt. eigenvalues --   -0.02752  -0.01925  -0.01360  -0.01133  -0.00556
 Alpha virt. eigenvalues --   -0.00250   0.00073   0.00441   0.00639   0.00686

  Beta  occ. eigenvalues --  -38.44746 -38.44510 -38.43785 -38.43774 -38.43700
  Beta  occ. eigenvalues --  -38.43676 -38.43633  -2.20592  -2.20242  -2.19577
  Beta  occ. eigenvalues --   -2.19570  -2.19540  -2.19512  -2.19432  -1.14311
  Beta  occ. eigenvalues --   -1.14280  -1.14178  -1.13927  -1.13921  -1.13860
  Beta  occ. eigenvalues --   -1.13293  -1.13257  -1.13252  -1.13250  -1.13249
  Beta  occ. eigenvalues --   -1.13244  -1.13236  -1.13230  -1.13213  -1.13196
  Beta  occ. eigenvalues --   -1.13141  -1.13133  -1.13109  -1.13097  -1.13025
  Beta  occ. eigenvalues --   -0.16739  -0.13540  -0.11358
  Beta virt. eigenvalues --   -0.07284  -0.06924  -0.04794  -0.03890  -0.03063
  Beta virt. eigenvalues --   -0.02640  -0.02510  -0.01511  -0.01074  -0.00795
  Beta virt. eigenvalues --   -0.00365  -0.00165   0.00230   0.00627   0.00735

 Mulliken charges and spin densities:
               1          2
     1  Na  -0.181573   0.042087
     2  Na  -0.503413   0.194994
     3  Na   0.165559   0.067836
     4  Na  -0.386539   0.247318
     5  Na   0.477973   0.164313
     6  Na   0.030890   0.079462
     7  Na   0.397104   0.203990
 Sum of Mulliken charges =  -0.00000   1.00000

 Dipole moment (field-independent basis, Debye):
    X=             -0.4566    Y=              0.6353    Z=              0.4929  Tot=              0.9247
 Quadrupole moment (field-independent basis, Debye-Ang):
   XX=            -59.1542   YY=            -73.3532   ZZ=            -65.3096
   XY=             -1.6738   XZ=             -1.4392   YZ=              2.3654

 Normal termination of Gaussian 16 at Tue Nov 28 19:10:26 2023.
