 Gaussian 16, Revision B.01,
 Gaussian 16:  ES64L-G16RevB.01 20-Dec-2017

 -------------------------
 #P B3LYP/6-311+g(d) force
 -------------------------

 -----
 DPGEN
 -----
 Symbolic Z-matrix:
 Charge =  0 Multiplicity = 2

                         Standard orientation:
 ---------------------------------------------------------------------
 Center     Atomic      Atomic             Coordinates (Angstroms)
 Number     Number       Type             X           Y           Z
 ---------------------------------------------------------------------
      1         11           0        1.278932   -2.257441    0.561578
      2         11           0       -1.947267   -2.053941   -0.509100
      3         11           0       -2.839280    0.815356    0.145709
      4         11           0       -0.022031    2.787592   -0.307278
      5         11           0       -0.191186    0.373789    1.761322
      6         11           0        0.720208   -0.145281   -1.750484
      7         11           0        3.000624    0.479925    0.098253
 ---------------------------------------------------------------------

 SCF Done:  E(UB3LYP) =  -1136.13327054     A.U. after   19 cycles

 The electronic state is 2-A.
 Alpha  occ. eigenvalues --  -38.44116 -38.43866 -38.43368 -38.43293 -38.43281
 Alpha  occ. eigenvalues --  -38.43245 -38.43231  -2.20017  -2.19766  -2.19380
 Alpha  occ. eigenvalues --   -2.19304  -2.19188  -2.19172  -2.19114  -1.13756
 Alpha  occ. eigenvalues --   -1.13672  -1.13634  -1.13482  -1.13441  -1.13397
 Alpha  occ. eigenvalues --   -1.13079  -1.13026  -1.13012  -1.12986  -1.12982
 Alpha  occ. eigenvalues --   -1.12926  -1.12854  -1.12841  -1.12835  -1.12828
 Alpha  occ. eigenvalues --   -1.12816  -1.12784  -1.12774  -1.12768  -1.12724
 Alpha  occ. eigenvalues --   -0.19381  -0.13430  -0.12527  -0.11047
 Alpha virt. eigenvalues --   -0.05668  -0.04742  -0.04509  -0.03437  -0.02982
 Alpha virt. eigenvalues --   -0.02508  -0.01453  -0.00863  -0.00140   0.00008
 Alpha virt. eigenvalues --    0.00139   0.00377   0.00896   0.00928   0.00970

  Beta  occ. eigenvalues --  -38.44109 -38.43863 -38.43296 -38.43271 -38.43226
  Beta  occ. eigenvalues --  -38.43223 -38.43216  -2.20009  -2.19763  -2.19247
  Beta  occ. eigenvalues --   -2.19165  -2.19158  -2.19155  -2.19103  -1.13744
  Beta  occ. eigenvalues --   -1.13639  -1.13633  -1.13478  -1.13424  -1.13392
  Beta  occ. eigenvalues --   -1.13004  -1.12943  -1.12922  -1.12899  -1.12897
  Beta  occ. eigenvalues --   -1.12836  -1.12835  -1.12821  -1.12802  -1.12785
  Beta  occ. eigenvalues --   -1.12774  -1.12761  -1.12754  -1.12734  -1.12711
  Beta  occ. eigenvalues --   -0.18641  -0.13176  -0.12259
  Beta virt. eigenvalues --   -0.07083  -0.05617  -0.04718  -0.04471  -0.02636
  Beta virt. eigenvalues --   -0.02207  -0.01450  -0.01385  -0.00797  -0.00105
  Beta virt. eigenvalues --    0.00028   0.00167   0.00405   0.00911   0.00941

 Mulliken charges and spin densities:
               1          2
     1  Na   0.203071   0.135722
     2  Na  -0.019108  -0.015234
     3  Na   0.127068  -0.000671
     4  Na  -0.045162  -0.126472
     5  Na  -0.213697   0.446060
     6  Na  -0.341411   0.646519
     7  Na   0.289239  -0.085923
 Sum of Mulliken charges =  -0.00000   1.00000

 Dipole moment (field-independent basis, Debye):
    X=              0.2106    Y=              0.1988    Z=             -0.0026  Tot=              0.2896
 Quadrupole moment (field-independent basis, Debye-Ang):
   XX=            -56.9444   YY=            -64.8431   ZZ=            -72.6589
   XY=              0.2640   XZ=              1.6166   YZ=             -0.8374

 Normal termination of Gaussian 16 at Thu Dec  7 05:39:22 2023.
