 Gaussian 16, Revision B.01,
 Gaussian 16:  ES64L-G16RevB.01 20-Dec-2017

 -------------------------
 #P B3LYP/6-311+g(d) force
 -------------------------

 -----
 DPGEN
 -----
 Symbolic Z-matrix:
 Charge =  0 Multiplicity = 2

                         Standard orientation:
 ---------------------------------------------------------------------
 Center     Atomic      Atomic             Coordinates (Angstroms)
 Number     Number       Type             X           Y           Z
 ---------------------------------------------------------------------
      1         11           0       -1.817826   -1.236849    1.406621
      2         11           0       -3.760141    1.679957   -0.152351
      3         11           0        3.490109    0.739300    0.413289
      4         11           0       -3.874521   -1.967357   -0.665059
      5         11           0        6.062470   -0.679692   -0.303230
      6         11           0       -0.621818    2.429144   -0.146975
      7         11           0        0.521727   -0.964503   -0.552295
 ---------------------------------------------------------------------

 SCF Done:  E(UB3LYP) =  -1136.11259262     A.U. after   22 cycles

 The electronic state is 2-A.
 Alpha  occ. eigenvalues --  -38.45121 -38.44675 -38.44555 -38.44262 -38.43950
 Alpha  occ. eigenvalues --  -38.43828 -38.42755  -2.20987  -2.20583  -2.20399
 Alpha  occ. eigenvalues --   -2.20082  -2.19777  -2.19662  -2.18577  -1.14713
 Alpha  occ. eigenvalues --   -1.14618  -1.14582  -1.14264  -1.14254  -1.14191
 Alpha  occ. eigenvalues --   -1.14064  -1.14044  -1.14004  -1.13789  -1.13715
 Alpha  occ. eigenvalues --   -1.13711  -1.13448  -1.13447  -1.13395  -1.13333
 Alpha  occ. eigenvalues --   -1.13314  -1.13302  -1.12260  -1.12251  -1.12217
 Alpha  occ. eigenvalues --   -0.17476  -0.14191  -0.11780  -0.11433
 Alpha virt. eigenvalues --   -0.06164  -0.05413  -0.04831  -0.03477  -0.03004
 Alpha virt. eigenvalues --   -0.02655  -0.01804  -0.01491  -0.01045  -0.00575
 Alpha virt. eigenvalues --   -0.00484   0.00012   0.00321   0.00494   0.00519

  Beta  occ. eigenvalues --  -38.45046 -38.44648 -38.44475 -38.44208 -38.43951
  Beta  occ. eigenvalues --  -38.43826 -38.42758  -2.20852  -2.20539  -2.20251
  Beta  occ. eigenvalues --   -2.19981  -2.19786  -2.19659  -2.18584  -1.14609
  Beta  occ. eigenvalues --   -1.14534  -1.14487  -1.14237  -1.14190  -1.14165
  Beta  occ. eigenvalues --   -1.13964  -1.13951  -1.13896  -1.13726  -1.13647
  Beta  occ. eigenvalues --   -1.13643  -1.13457  -1.13455  -1.13365  -1.13334
  Beta  occ. eigenvalues --   -1.13314  -1.13283  -1.12268  -1.12260  -1.12200
  Beta  occ. eigenvalues --   -0.16715  -0.13636  -0.11150
  Beta virt. eigenvalues --   -0.08292  -0.05844  -0.05115  -0.04274  -0.03145
  Beta virt. eigenvalues --   -0.02805  -0.02323  -0.01361  -0.01323  -0.00696
  Beta virt. eigenvalues --   -0.00439  -0.00367   0.00120   0.00457   0.00545

 Mulliken charges and spin densities:
               1          2
     1  Na   0.125029   0.208701
     2  Na   0.057476   0.354954
     3  Na  -0.184374   0.167035
     4  Na   0.314462  -0.034101
     5  Na   0.340921   0.129084
     6  Na  -0.175188  -0.003955
     7  Na  -0.478326   0.178281
 Sum of Mulliken charges =  -0.00000   1.00000

 Dipole moment (field-independent basis, Debye):
    X=             -0.3452    Y=             -0.6427    Z=             -0.2558  Tot=              0.7731
 Quadrupole moment (field-independent basis, Debye-Ang):
   XX=            -61.0417   YY=            -73.9384   ZZ=            -66.1226
   XY=             -3.0222   XZ=              0.4118   YZ=              3.5201

 Normal termination of Gaussian 16 at Tue Nov 28 20:21:11 2023.
