 Gaussian 16, Revision B.01,
 Gaussian 16:  ES64L-G16RevB.01 20-Dec-2017

 -------------------------
 #P B3LYP/6-311+g(d) force
 -------------------------

 -----
 DPGEN
 -----
 Symbolic Z-matrix:
 Charge =  0 Multiplicity = 2

                         Standard orientation:
 ---------------------------------------------------------------------
 Center     Atomic      Atomic             Coordinates (Angstroms)
 Number     Number       Type             X           Y           Z
 ---------------------------------------------------------------------
      1         11           0       -3.199275    1.433906   -0.676750
      2         11           0        0.072605    3.032982    1.024532
      3         11           0        2.545787    2.459218   -0.353747
      4         11           0        2.635876   -2.823301    0.245408
      5         11           0       -1.558097   -2.469708    0.443416
      6         11           0        4.836222   -0.689235   -0.485447
      7         11           0       -5.333119   -0.943861   -0.197412
 ---------------------------------------------------------------------

 SCF Done:  E(UB3LYP) =  -1136.10678995     A.U. after   21 cycles

 The electronic state is 2-A.
 Alpha  occ. eigenvalues --  -38.45514 -38.45029 -38.44757 -38.44756 -38.44420
 Alpha  occ. eigenvalues --  -38.43576 -38.43549  -2.21286  -2.20787  -2.20565
 Alpha  occ. eigenvalues --   -2.20553  -2.20183  -2.19411  -2.19367  -1.14970
 Alpha  occ. eigenvalues --   -1.14947  -1.14920  -1.14454  -1.14446  -1.14372
 Alpha  occ. eigenvalues --   -1.14301  -1.14224  -1.14210  -1.14209  -1.14194
 Alpha  occ. eigenvalues --   -1.14177  -1.13868  -1.13862  -1.13835  -1.13097
 Alpha  occ. eigenvalues --   -1.13044  -1.13037  -1.13017  -1.13015  -1.13004
 Alpha  occ. eigenvalues --   -0.15624  -0.14071  -0.12737  -0.10874
 Alpha virt. eigenvalues --   -0.07207  -0.05417  -0.04545  -0.03453  -0.03186
 Alpha virt. eigenvalues --   -0.02729  -0.02134  -0.01897  -0.01037  -0.00692
 Alpha virt. eigenvalues --   -0.00559  -0.00386  -0.00035   0.00426   0.00501

  Beta  occ. eigenvalues --  -38.45498 -38.44932 -38.44758 -38.44725 -38.44429
  Beta  occ. eigenvalues --  -38.43565 -38.43509  -2.21258  -2.20607  -2.20570
  Beta  occ. eigenvalues --   -2.20496  -2.20204  -2.19390  -2.19290  -1.14953
  Beta  occ. eigenvalues --   -1.14928  -1.14883  -1.14333  -1.14324  -1.14295
  Beta  occ. eigenvalues --   -1.14240  -1.14228  -1.14193  -1.14172  -1.14158
  Beta  occ. eigenvalues --   -1.14144  -1.13886  -1.13879  -1.13821  -1.13086
  Beta  occ. eigenvalues --   -1.13029  -1.13022  -1.12973  -1.12963  -1.12949
  Beta  occ. eigenvalues --   -0.15146  -0.13690  -0.12342
  Beta virt. eigenvalues --   -0.07341  -0.07075  -0.05022  -0.04142  -0.03210
  Beta virt. eigenvalues --   -0.02704  -0.02627  -0.01924  -0.01783  -0.00828
  Beta virt. eigenvalues --   -0.00410  -0.00238  -0.00084   0.00139   0.00469

 Mulliken charges and spin densities:
               1          2
     1  Na  -0.292708   0.136065
     2  Na  -0.190721   0.022896
     3  Na  -0.038855   0.070064
     4  Na  -0.261382  -0.188953
     5  Na  -0.097099   0.582613
     6  Na   0.213994   0.185711
     7  Na   0.666771   0.191604
 Sum of Mulliken charges =  -0.00000   1.00000

 Dipole moment (field-independent basis, Debye):
    X=             -1.6177    Y=              0.0810    Z=             -0.1646  Tot=              1.6281
 Quadrupole moment (field-independent basis, Debye-Ang):
   XX=            -57.5929   YY=            -69.4158   ZZ=            -72.1549
   XY=              5.4211   XZ=             -2.1719   YZ=             -1.8366

 Normal termination of Gaussian 16 at Sun Dec  3 20:42:10 2023.
