 Gaussian 16, Revision B.01,
 Gaussian 16:  ES64L-G16RevB.01 20-Dec-2017

 -------------------------
 #P B3LYP/6-311+g(d) force
 -------------------------

 -----
 DPGEN
 -----
 Symbolic Z-matrix:
 Charge =  0 Multiplicity = 2

                         Standard orientation:
 ---------------------------------------------------------------------
 Center     Atomic      Atomic             Coordinates (Angstroms)
 Number     Number       Type             X           Y           Z
 ---------------------------------------------------------------------
      1         11           0       -1.609327    3.074282   -0.034578
      2         11           0        1.822942   -2.535134    0.779688
      3         11           0        2.253508    2.566579   -0.036858
      4         11           0        3.446514   -0.321137   -0.869156
      5         11           0       -4.012432   -0.093745   -0.191444
      6         11           0       -1.647593   -2.749930   -0.662024
      7         11           0       -0.253612    0.059084    1.014372
 ---------------------------------------------------------------------

 SCF Done:  E(UB3LYP) =  -1136.12505961     A.U. after   21 cycles

 The electronic state is 2-A.
 Alpha  occ. eigenvalues --  -38.44607 -38.44200 -38.44134 -38.43981 -38.43868
 Alpha  occ. eigenvalues --  -38.43747 -38.43726  -2.20389  -2.20009  -2.19919
 Alpha  occ. eigenvalues --   -2.19775  -2.19726  -2.19634  -2.19588  -1.14080
 Alpha  occ. eigenvalues --   -1.14063  -1.14012  -1.13701  -1.13689  -1.13635
 Alpha  occ. eigenvalues --   -1.13591  -1.13578  -1.13546  -1.13443  -1.13422
 Alpha  occ. eigenvalues --   -1.13412  -1.13410  -1.13403  -1.13358  -1.13340
 Alpha  occ. eigenvalues --   -1.13275  -1.13241  -1.13239  -1.13229  -1.13203
 Alpha  occ. eigenvalues --   -0.17205  -0.13738  -0.12917  -0.09938
 Alpha virt. eigenvalues --   -0.06671  -0.05732  -0.04548  -0.03296  -0.02889
 Alpha virt. eigenvalues --   -0.02046  -0.01901  -0.01637  -0.01254  -0.00807
 Alpha virt. eigenvalues --    0.00083   0.00314   0.00468   0.00622   0.00704

  Beta  occ. eigenvalues --  -38.44601 -38.44181 -38.44113 -38.43924 -38.43845
  Beta  occ. eigenvalues --  -38.43718 -38.43676  -2.20383  -2.19980  -2.19880
  Beta  occ. eigenvalues --   -2.19686  -2.19670  -2.19579  -2.19497  -1.14081
  Beta  occ. eigenvalues --   -1.14064  -1.13973  -1.13682  -1.13674  -1.13579
  Beta  occ. eigenvalues --   -1.13563  -1.13551  -1.13518  -1.13395  -1.13373
  Beta  occ. eigenvalues --   -1.13370  -1.13342  -1.13329  -1.13324  -1.13302
  Beta  occ. eigenvalues --   -1.13252  -1.13193  -1.13178  -1.13167  -1.13134
  Beta  occ. eigenvalues --   -0.16786  -0.13058  -0.12472
  Beta virt. eigenvalues --   -0.06698  -0.06594  -0.05555  -0.04278  -0.02736
  Beta virt. eigenvalues --   -0.02352  -0.01827  -0.01757  -0.01365  -0.01169
  Beta virt. eigenvalues --   -0.00504   0.00303   0.00458   0.00543   0.00685

 Mulliken charges and spin densities:
               1          2
     1  Na   0.403765   0.014102
     2  Na   0.517429   0.175784
     3  Na   0.164149   0.143755
     4  Na  -0.065652   0.195803
     5  Na   0.098800   0.338609
     6  Na   0.258208   0.027333
     7  Na  -1.376699   0.104615
 Sum of Mulliken charges =  -0.00000   1.00000

 Dipole moment (field-independent basis, Debye):
    X=             -0.2206    Y=             -0.0937    Z=             -0.0791  Tot=              0.2524
 Quadrupole moment (field-independent basis, Debye-Ang):
   XX=            -69.2106   YY=            -58.6005   ZZ=            -71.3089
   XY=             -6.7382   XZ=              1.2227   YZ=              0.7445

 Normal termination of Gaussian 16 at Tue Dec  5 18:53:26 2023.
