 Gaussian 16, Revision B.01,
 Gaussian 16:  ES64L-G16RevB.01 20-Dec-2017

 -------------------------
 #P B3LYP/6-311+g(d) force
 -------------------------

 -----
 DPGEN
 -----
 Symbolic Z-matrix:
 Charge =  0 Multiplicity = 2

                         Standard orientation:
 ---------------------------------------------------------------------
 Center     Atomic      Atomic             Coordinates (Angstroms)
 Number     Number       Type             X           Y           Z
 ---------------------------------------------------------------------
      1         11           0        0.630606   -1.368784   -1.117427
      2         11           0       -2.414147   -1.601354    0.210450
      3         11           0        0.957269   -0.721936    1.755964
      4         11           0       -2.245612    1.192795    1.178324
      5         11           0       -1.711243    0.737908   -1.778424
      6         11           0        1.074512    1.861205   -0.021851
      7         11           0        3.708614   -0.099834   -0.227037
 ---------------------------------------------------------------------

 SCF Done:  E(UB3LYP) =  -1136.11869276     A.U. after   25 cycles

 The electronic state is 2-A.
 Alpha  occ. eigenvalues --  -38.45440 -38.44242 -38.43802 -38.43780 -38.43405
 Alpha  occ. eigenvalues --  -38.42979 -38.42496  -2.21276  -2.20203  -2.19792
 Alpha  occ. eigenvalues --   -2.19731  -2.19353  -2.18985  -2.18442  -1.14948
 Alpha  occ. eigenvalues --   -1.14928  -1.14911  -1.13956  -1.13842  -1.13785
 Alpha  occ. eigenvalues --   -1.13582  -1.13479  -1.13433  -1.13402  -1.13361
 Alpha  occ. eigenvalues --   -1.13298  -1.13011  -1.13002  -1.12968  -1.12703
 Alpha  occ. eigenvalues --   -1.12648  -1.12564  -1.12166  -1.12118  -1.12035
 Alpha  occ. eigenvalues --   -0.19627  -0.14451  -0.11697  -0.10898
 Alpha virt. eigenvalues --   -0.06859  -0.04610  -0.04460  -0.03139  -0.02540
 Alpha virt. eigenvalues --   -0.02420  -0.02320  -0.00580  -0.00531   0.00067
 Alpha virt. eigenvalues --    0.00273   0.00341   0.00464   0.00871   0.00939

  Beta  occ. eigenvalues --  -38.45441 -38.44187 -38.43752 -38.43741 -38.43394
  Beta  occ. eigenvalues --  -38.42944 -38.42482  -2.21279  -2.20103  -2.19688
  Beta  occ. eigenvalues --   -2.19674  -2.19337  -2.18926  -2.18420  -1.14940
  Beta  occ. eigenvalues --   -1.14933  -1.14914  -1.13894  -1.13765  -1.13707
  Beta  occ. eigenvalues --   -1.13539  -1.13393  -1.13382  -1.13330  -1.13313
  Beta  occ. eigenvalues --   -1.13237  -1.13003  -1.12971  -1.12943  -1.12667
  Beta  occ. eigenvalues --   -1.12572  -1.12528  -1.12154  -1.12067  -1.12025
  Beta  occ. eigenvalues --   -0.18816  -0.14285  -0.10695
  Beta virt. eigenvalues --   -0.07579  -0.06660  -0.04486  -0.03882  -0.02824
  Beta virt. eigenvalues --   -0.02377  -0.01782  -0.01572  -0.00518  -0.00179
  Beta virt. eigenvalues --    0.00099   0.00302   0.00445   0.00562   0.00918

 Mulliken charges and spin densities:
               1          2
     1  Na  -0.280597   0.247167
     2  Na   0.163105   0.034183
     3  Na  -0.306152   0.300605
     4  Na   0.075455   0.286644
     5  Na   0.228390   0.118191
     6  Na  -0.654565   0.065280
     7  Na   0.774366  -0.052070
 Sum of Mulliken charges =  -0.00000   1.00000

 Dipole moment (field-independent basis, Debye):
    X=              1.2612    Y=             -0.1063    Z=              0.0949  Tot=              1.2692
 Quadrupole moment (field-independent basis, Debye-Ang):
   XX=            -45.9173   YY=            -80.0294   ZZ=            -66.5796
   XY=             -0.1420   XZ=             -1.4593   YZ=             -0.6119

 Normal termination of Gaussian 16 at Tue Dec  5 14:33:33 2023.
