 Gaussian 16, Revision B.01,
 Gaussian 16:  ES64L-G16RevB.01 20-Dec-2017

 -------------------------
 #P B3LYP/6-311+g(d) force
 -------------------------

 -----
 DPGEN
 -----
 Symbolic Z-matrix:
 Charge =  0 Multiplicity = 2

                         Standard orientation:
 ---------------------------------------------------------------------
 Center     Atomic      Atomic             Coordinates (Angstroms)
 Number     Number       Type             X           Y           Z
 ---------------------------------------------------------------------
      1         11           0       -4.824566    0.128080   -1.223623
      2         11           0        3.140492    0.938979   -1.225794
      3         11           0       -1.910119    2.114426    0.401615
      4         11           0       -6.517330   -1.866024    0.397762
      5         11           0        5.242711   -1.378508   -1.394030
      6         11           0        4.012412   -1.039443    1.903410
      7         11           0        0.856399    1.102491    1.140659
 ---------------------------------------------------------------------

 SCF Done:  E(UB3LYP) =  -1136.10750021     A.U. after   22 cycles

 The electronic state is 2-A.
 Alpha  occ. eigenvalues --  -38.45306 -38.44576 -38.44440 -38.44304 -38.44179
 Alpha  occ. eigenvalues --  -38.44138 -38.43578  -2.21151  -2.20362  -2.20276
 Alpha  occ. eigenvalues --   -2.20109  -2.20004  -2.19934  -2.19441  -1.14830
 Alpha  occ. eigenvalues --   -1.14821  -1.14781  -1.14046  -1.14014  -1.14012
 Alpha  occ. eigenvalues --   -1.13940  -1.13927  -1.13905  -1.13810  -1.13762
 Alpha  occ. eigenvalues --   -1.13746  -1.13665  -1.13644  -1.13613  -1.13598
 Alpha  occ. eigenvalues --   -1.13590  -1.13572  -1.13141  -1.13101  -1.13058
 Alpha  occ. eigenvalues --   -0.16541  -0.14147  -0.12338  -0.10552
 Alpha virt. eigenvalues --   -0.07529  -0.05504  -0.04047  -0.03366  -0.03098
 Alpha virt. eigenvalues --   -0.02686  -0.02576  -0.01676  -0.01376  -0.01087
 Alpha virt. eigenvalues --   -0.00348  -0.00153   0.00153   0.00257   0.00397

  Beta  occ. eigenvalues --  -38.45272 -38.44567 -38.44403 -38.44292 -38.44140
  Beta  occ. eigenvalues --  -38.44093 -38.43567  -2.21093  -2.20346  -2.20210
  Beta  occ. eigenvalues --   -2.20086  -2.19938  -2.19844  -2.19424  -1.14789
  Beta  occ. eigenvalues --   -1.14754  -1.14744  -1.14037  -1.14003  -1.14001
  Beta  occ. eigenvalues --   -1.13887  -1.13882  -1.13854  -1.13796  -1.13745
  Beta  occ. eigenvalues --   -1.13731  -1.13601  -1.13594  -1.13568  -1.13557
  Beta  occ. eigenvalues --   -1.13526  -1.13506  -1.13136  -1.13093  -1.13017
  Beta  occ. eigenvalues --   -0.15908  -0.13970  -0.12162
  Beta virt. eigenvalues --   -0.07417  -0.06554  -0.05358  -0.03836  -0.03070
  Beta virt. eigenvalues --   -0.02866  -0.02550  -0.01773  -0.01557  -0.01190
  Beta virt. eigenvalues --   -0.00844  -0.00069   0.00150   0.00233   0.00405

 Mulliken charges and spin densities:
               1          2
     1  Na  -0.103529  -0.002850
     2  Na   0.227997   0.236125
     3  Na  -0.509740   0.233366
     4  Na   0.270874   0.040116
     5  Na   0.131325   0.157096
     6  Na   0.418430   0.210239
     7  Na  -0.435357   0.125910
 Sum of Mulliken charges =  -0.00000   1.00000

 Dipole moment (field-independent basis, Debye):
    X=              0.1742    Y=             -0.7759    Z=             -0.1516  Tot=              0.8096
 Quadrupole moment (field-independent basis, Debye-Ang):
   XX=            -57.4843   YY=            -64.6696   ZZ=            -72.1426
   XY=             -1.6905   XZ=             -3.7469   YZ=             -3.1449

 Normal termination of Gaussian 16 at Mon Dec  4 01:36:05 2023.
