 Gaussian 16, Revision B.01,
 Gaussian 16:  ES64L-G16RevB.01 20-Dec-2017

 -------------------------
 #P B3LYP/6-311+g(d) force
 -------------------------

 -----
 DPGEN
 -----
 Symbolic Z-matrix:
 Charge =  0 Multiplicity = 2

                         Standard orientation:
 ---------------------------------------------------------------------
 Center     Atomic      Atomic             Coordinates (Angstroms)
 Number     Number       Type             X           Y           Z
 ---------------------------------------------------------------------
      1         11           0       -0.337543    1.761014    0.515816
      2         11           0        2.902133   -0.100114    0.239970
      3         11           0       -0.528264   -1.826517   -1.076984
      4         11           0       -2.934959   -0.213164    1.772564
      5         11           0       -4.040456   -0.107764   -1.138645
      6         11           0        2.832069   -2.987552    0.233671
      7         11           0        2.107019    3.474098   -0.546392
 ---------------------------------------------------------------------

 SCF Done:  E(UB3LYP) =  -1136.11803845     A.U. after   25 cycles

 The electronic state is 2-A.
 Alpha  occ. eigenvalues --  -38.45160 -38.44959 -38.44439 -38.43860 -38.43800
 Alpha  occ. eigenvalues --  -38.43623 -38.43466  -2.20963  -2.20733  -2.20308
 Alpha  occ. eigenvalues --   -2.19713  -2.19650  -2.19499  -2.19286  -1.14652
 Alpha  occ. eigenvalues --   -1.14619  -1.14588  -1.14436  -1.14424  -1.14302
 Alpha  occ. eigenvalues --   -1.14013  -1.13988  -1.13973  -1.13421  -1.13400
 Alpha  occ. eigenvalues --   -1.13337  -1.13328  -1.13284  -1.13258  -1.13162
 Alpha  occ. eigenvalues --   -1.13136  -1.13119  -1.12953  -1.12937  -1.12909
 Alpha  occ. eigenvalues --   -0.17142  -0.14204  -0.12593  -0.09839
 Alpha virt. eigenvalues --   -0.07055  -0.05209  -0.04998  -0.03634  -0.02838
 Alpha virt. eigenvalues --   -0.02410  -0.01715  -0.01616  -0.01177  -0.00693
 Alpha virt. eigenvalues --   -0.00097   0.00078   0.00319   0.00470   0.00564

  Beta  occ. eigenvalues --  -38.45141 -38.44913 -38.44433 -38.43842 -38.43793
  Beta  occ. eigenvalues --  -38.43559 -38.43455  -2.20931  -2.20650  -2.20298
  Beta  occ. eigenvalues --   -2.19683  -2.19639  -2.19381  -2.19266  -1.14627
  Beta  occ. eigenvalues --   -1.14592  -1.14553  -1.14381  -1.14361  -1.14237
  Beta  occ. eigenvalues --   -1.14003  -1.13981  -1.13961  -1.13404  -1.13367
  Beta  occ. eigenvalues --   -1.13317  -1.13300  -1.13276  -1.13251  -1.13083
  Beta  occ. eigenvalues --   -1.13052  -1.13031  -1.12939  -1.12923  -1.12896
  Beta  occ. eigenvalues --   -0.16677  -0.13885  -0.12393
  Beta virt. eigenvalues --   -0.06808  -0.06170  -0.05044  -0.04806  -0.03276
  Beta virt. eigenvalues --   -0.02684  -0.01927  -0.01601  -0.01170  -0.01048
  Beta virt. eigenvalues --   -0.00294   0.00147   0.00212   0.00487   0.00607

 Mulliken charges and spin densities:
               1          2
     1  Na  -1.837649   0.325567
     2  Na  -0.595168   0.026661
     3  Na  -0.444089   0.319442
     4  Na   1.211052   0.059355
     5  Na   0.374888   0.094491
     6  Na   0.532692   0.027900
     7  Na   0.758274   0.146585
 Sum of Mulliken charges =  -0.00000   1.00000

 Dipole moment (field-independent basis, Debye):
    X=             -0.1738    Y=             -0.2241    Z=             -0.4355  Tot=              0.5197
 Quadrupole moment (field-independent basis, Debye-Ang):
   XX=            -54.4820   YY=            -65.0814   ZZ=            -75.8391
   XY=             -0.2671   XZ=              2.1085   YZ=             -5.1128

 Normal termination of Gaussian 16 at Tue Nov 28 22:29:15 2023.
