 Gaussian 16, Revision B.01,
 Gaussian 16:  ES64L-G16RevB.01 20-Dec-2017

 -------------------------
 #P B3LYP/6-311+g(d) force
 -------------------------

 -----
 DPGEN
 -----
 Symbolic Z-matrix:
 Charge =  0 Multiplicity = 2

                         Standard orientation:
 ---------------------------------------------------------------------
 Center     Atomic      Atomic             Coordinates (Angstroms)
 Number     Number       Type             X           Y           Z
 ---------------------------------------------------------------------
      1         11           0        1.722781    0.849599   -1.886273
      2         11           0       -3.811390   -0.864674   -0.222273
      3         11           0       -1.574476    2.175136   -0.408330
      4         11           0        3.623915   -1.572211    0.148056
      5         11           0        1.799809    1.496680    1.449396
      6         11           0       -1.070539   -0.606411    1.974364
      7         11           0       -0.690100   -1.478119   -1.054941
 ---------------------------------------------------------------------

 SCF Done:  E(UB3LYP) =  -1136.12180940     A.U. after   24 cycles

 The electronic state is 2-A.
 Alpha  occ. eigenvalues --  -38.44780 -38.44617 -38.44168 -38.44139 -38.44037
 Alpha  occ. eigenvalues --  -38.43710 -38.43075  -2.20599  -2.20496  -2.19994
 Alpha  occ. eigenvalues --   -2.19921  -2.19918  -2.19542  -2.18889  -1.14277
 Alpha  occ. eigenvalues --   -1.14250  -1.14248  -1.14213  -1.14117  -1.14090
 Alpha  occ. eigenvalues --   -1.13701  -1.13656  -1.13633  -1.13598  -1.13593
 Alpha  occ. eigenvalues --   -1.13581  -1.13573  -1.13549  -1.13511  -1.13229
 Alpha  occ. eigenvalues --   -1.13206  -1.13148  -1.12569  -1.12555  -1.12519
 Alpha  occ. eigenvalues --   -0.18185  -0.13775  -0.11427  -0.10737
 Alpha virt. eigenvalues --   -0.06844  -0.05227  -0.04779  -0.03153  -0.02839
 Alpha virt. eigenvalues --   -0.02494  -0.02315  -0.01306  -0.00762  -0.00170
 Alpha virt. eigenvalues --    0.00129   0.00224   0.00271   0.00597   0.00667

  Beta  occ. eigenvalues --  -38.44781 -38.44547 -38.44172 -38.44085 -38.44010
  Beta  occ. eigenvalues --  -38.43681 -38.43062  -2.20602  -2.20368  -2.19929
  Beta  occ. eigenvalues --   -2.19896  -2.19872  -2.19490  -2.18868  -1.14272
  Beta  occ. eigenvalues --   -1.14251  -1.14245  -1.14131  -1.14031  -1.13990
  Beta  occ. eigenvalues --   -1.13628  -1.13602  -1.13594  -1.13592  -1.13587
  Beta  occ. eigenvalues --   -1.13563  -1.13522  -1.13504  -1.13481  -1.13181
  Beta  occ. eigenvalues --   -1.13164  -1.13113  -1.12552  -1.12525  -1.12508
  Beta  occ. eigenvalues --   -0.17430  -0.13639  -0.10576
  Beta virt. eigenvalues --   -0.07503  -0.06572  -0.05223  -0.04108  -0.02846
  Beta virt. eigenvalues --   -0.02422  -0.01976  -0.01876  -0.01174  -0.00363
  Beta virt. eigenvalues --   -0.00103   0.00158   0.00277   0.00420   0.00683

 Mulliken charges and spin densities:
               1          2
     1  Na   0.201918   0.227185
     2  Na   0.668769  -0.035743
     3  Na  -0.365400   0.070740
     4  Na  -0.023203  -0.110845
     5  Na   0.037542   0.276004
     6  Na  -0.092942   0.275596
     7  Na  -0.426684   0.297063
 Sum of Mulliken charges =  -0.00000   1.00000

 Dipole moment (field-independent basis, Debye):
    X=             -0.8390    Y=              0.0442    Z=              0.1518  Tot=              0.8538
 Quadrupole moment (field-independent basis, Debye-Ang):
   XX=            -49.9881   YY=            -76.5688   ZZ=            -68.2789
   XY=              0.2129   XZ=              1.5740   YZ=             -2.4352

 Normal termination of Gaussian 16 at Thu Dec  7 02:30:34 2023.
