 Gaussian 16, Revision B.01,
 Gaussian 16:  ES64L-G16RevB.01 20-Dec-2017

 -------------------------
 #P B3LYP/6-311+g(d) force
 -------------------------

 -----
 DPGEN
 -----
 Symbolic Z-matrix:
 Charge =  0 Multiplicity = 2

                         Standard orientation:
 ---------------------------------------------------------------------
 Center     Atomic      Atomic             Coordinates (Angstroms)
 Number     Number       Type             X           Y           Z
 ---------------------------------------------------------------------
      1         11           0       -1.098629   -2.608404    0.046529
      2         11           0       -1.197770    1.243971   -1.286356
      3         11           0        0.989646    2.686257    0.188439
      4         11           0        4.881357   -0.974087   -0.332276
      5         11           0       -1.242636    0.352616    1.907510
      6         11           0       -4.027864   -0.409983   -0.559869
      7         11           0        1.695896   -0.290369    0.036024
 ---------------------------------------------------------------------

 SCF Done:  E(UB3LYP) =  -1136.11719308     A.U. after   22 cycles

 The electronic state is 2-A.
 Alpha  occ. eigenvalues --  -38.45004 -38.44269 -38.44260 -38.43935 -38.43905
 Alpha  occ. eigenvalues --  -38.43658 -38.42627  -2.20896  -2.20101  -2.20066
 Alpha  occ. eigenvalues --   -2.19892  -2.19696  -2.19572  -2.18569  -1.14577
 Alpha  occ. eigenvalues --   -1.14558  -1.14497  -1.13772  -1.13759  -1.13753
 Alpha  occ. eigenvalues --   -1.13732  -1.13718  -1.13674  -1.13589  -1.13559
 Alpha  occ. eigenvalues --   -1.13540  -1.13340  -1.13334  -1.13330  -1.13259
 Alpha  occ. eigenvalues --   -1.13217  -1.13173  -1.12273  -1.12235  -1.12215
 Alpha  occ. eigenvalues --   -0.18532  -0.13600  -0.11898  -0.10868
 Alpha virt. eigenvalues --   -0.07178  -0.05212  -0.04326  -0.03213  -0.02830
 Alpha virt. eigenvalues --   -0.02257  -0.01904  -0.01491  -0.00916  -0.00615
 Alpha virt. eigenvalues --   -0.00336   0.00004   0.00356   0.00579   0.00733

  Beta  occ. eigenvalues --  -38.44956 -38.44250 -38.44215 -38.43902 -38.43843
  Beta  occ. eigenvalues --  -38.43657 -38.42626  -2.20810  -2.20051  -2.20002
  Beta  occ. eigenvalues --   -2.19833  -2.19580  -2.19571  -2.18574  -1.14520
  Beta  occ. eigenvalues --   -1.14484  -1.14436  -1.13748  -1.13703  -1.13697
  Beta  occ. eigenvalues --   -1.13696  -1.13680  -1.13637  -1.13539  -1.13522
  Beta  occ. eigenvalues --   -1.13501  -1.13263  -1.13260  -1.13255  -1.13253
  Beta  occ. eigenvalues --   -1.13202  -1.13170  -1.12284  -1.12239  -1.12172
  Beta  occ. eigenvalues --   -0.18021  -0.13099  -0.11454
  Beta virt. eigenvalues --   -0.07360  -0.06885  -0.05118  -0.03932  -0.02882
  Beta virt. eigenvalues --   -0.02573  -0.01761  -0.01521  -0.01287  -0.00614
  Beta virt. eigenvalues --   -0.00339  -0.00176   0.00116   0.00485   0.00628

 Mulliken charges and spin densities:
               1          2
     1  Na   0.030459  -0.158971
     2  Na  -0.005546   0.069257
     3  Na   1.264875   0.048303
     4  Na  -0.216431   0.333820
     5  Na   0.438171   0.118122
     6  Na   0.115114   0.255754
     7  Na  -1.626642   0.333715
 Sum of Mulliken charges =  -0.00000   1.00000

 Dipole moment (field-independent basis, Debye):
    X=             -1.3696    Y=              0.3487    Z=              0.9129  Tot=              1.6825
 Quadrupole moment (field-independent basis, Debye-Ang):
   XX=            -62.3623   YY=            -67.8971   ZZ=            -67.6830
   XY=              4.7167   XZ=             -2.5624   YZ=              3.8500

 Normal termination of Gaussian 16 at Thu Dec  7 10:36:32 2023.
