 Gaussian 16, Revision B.01,
 Gaussian 16:  ES64L-G16RevB.01 20-Dec-2017

 -------------------------
 #P B3LYP/6-311+g(d) force
 -------------------------

 -----
 DPGEN
 -----
 Symbolic Z-matrix:
 Charge =  0 Multiplicity = 2

                         Standard orientation:
 ---------------------------------------------------------------------
 Center     Atomic      Atomic             Coordinates (Angstroms)
 Number     Number       Type             X           Y           Z
 ---------------------------------------------------------------------
      1         11           0       -0.885337   -3.281340    0.569924
      2         11           0       -4.161414   -2.181154   -0.523614
      3         11           0        4.607483    0.107213   -0.843402
      4         11           0        2.723411   -2.282238    0.529550
      5         11           0       -0.954067    3.516651    1.022784
      6         11           0       -3.405086    2.090476   -0.604427
      7         11           0        2.075010    2.030392   -0.150816
 ---------------------------------------------------------------------

 SCF Done:  E(UB3LYP) =  -1136.10933882     A.U. after   24 cycles

 The electronic state is 2-A.
 Alpha  occ. eigenvalues --  -38.46023 -38.45645 -38.44731 -38.44192 -38.44003
 Alpha  occ. eigenvalues --  -38.43767 -38.43721  -2.21760  -2.21427  -2.20527
 Alpha  occ. eigenvalues --   -2.20036  -2.19754  -2.19581  -2.19486  -1.15449
 Alpha  occ. eigenvalues --   -1.15429  -1.15388  -1.15119  -1.15103  -1.15046
 Alpha  occ. eigenvalues --   -1.14208  -1.14192  -1.14145  -1.13697  -1.13681
 Alpha  occ. eigenvalues --   -1.13667  -1.13447  -1.13440  -1.13374  -1.13240
 Alpha  occ. eigenvalues --   -1.13234  -1.13225  -1.13152  -1.13131  -1.13115
 Alpha  occ. eigenvalues --   -0.15904  -0.13913  -0.13022  -0.10568
 Alpha virt. eigenvalues --   -0.07748  -0.04965  -0.04792  -0.03602  -0.03326
 Alpha virt. eigenvalues --   -0.02409  -0.02263  -0.01880  -0.01099  -0.00940
 Alpha virt. eigenvalues --   -0.00749  -0.00302   0.00075   0.00413   0.00563

  Beta  occ. eigenvalues --  -38.46021 -38.45621 -38.44680 -38.44158 -38.43994
  Beta  occ. eigenvalues --  -38.43744 -38.43676  -2.21757  -2.21387  -2.20438
  Beta  occ. eigenvalues --   -2.19973  -2.19741  -2.19538  -2.19401  -1.15449
  Beta  occ. eigenvalues --   -1.15429  -1.15368  -1.15094  -1.15077  -1.14993
  Beta  occ. eigenvalues --   -1.14149  -1.14133  -1.14061  -1.13643  -1.13638
  Beta  occ. eigenvalues --   -1.13631  -1.13442  -1.13434  -1.13336  -1.13212
  Beta  occ. eigenvalues --   -1.13204  -1.13197  -1.13094  -1.13074  -1.13061
  Beta  occ. eigenvalues --   -0.15406  -0.13554  -0.12425
  Beta virt. eigenvalues --   -0.07777  -0.07158  -0.04658  -0.04233  -0.03377
  Beta virt. eigenvalues --   -0.03025  -0.02268  -0.01953  -0.01706  -0.00991
  Beta virt. eigenvalues --   -0.00568  -0.00551   0.00041   0.00207   0.00462

 Mulliken charges and spin densities:
               1          2
     1  Na  -0.304985  -0.032756
     2  Na   0.180210   0.339940
     3  Na   0.822208   0.092232
     4  Na  -0.060867   0.190174
     5  Na   0.137683   0.102530
     6  Na  -0.002173   0.035059
     7  Na  -0.772075   0.272822
 Sum of Mulliken charges =  -0.00000   1.00000

 Dipole moment (field-independent basis, Debye):
    X=              1.0562    Y=              1.3811    Z=             -0.2632  Tot=              1.7585
 Quadrupole moment (field-independent basis, Debye-Ang):
   XX=            -58.2828   YY=            -69.9057   ZZ=            -71.6310
   XY=             -5.8324   XZ=              0.5317   YZ=              0.3094

 Normal termination of Gaussian 16 at Sun Dec  3 11:57:15 2023.
