 Gaussian 16, Revision B.01,
 Gaussian 16:  ES64L-G16RevB.01 20-Dec-2017

 -------------------------
 #P B3LYP/6-311+g(d) force
 -------------------------

 -----
 DPGEN
 -----
 Symbolic Z-matrix:
 Charge =  0 Multiplicity = 2

                         Standard orientation:
 ---------------------------------------------------------------------
 Center     Atomic      Atomic             Coordinates (Angstroms)
 Number     Number       Type             X           Y           Z
 ---------------------------------------------------------------------
      1         11           0       -0.375147   -2.187311   -0.736175
      2         11           0       -3.028933   -2.594159    0.837440
      3         11           0       -4.651614    0.766538    0.072736
      4         11           0       -1.882166    3.179690   -0.303497
      5         11           0        1.618042    1.835365   -0.172926
      6         11           0        3.413017   -1.881096   -0.551195
      7         11           0        4.906801    0.880973    0.853616
 ---------------------------------------------------------------------

 SCF Done:  E(UB3LYP) =  -1136.11141783     A.U. after   25 cycles

 The electronic state is 2-A.
 Alpha  occ. eigenvalues --  -38.45732 -38.45007 -38.44794 -38.44389 -38.44340
 Alpha  occ. eigenvalues --  -38.43658 -38.43587  -2.21501  -2.20775  -2.20546
 Alpha  occ. eigenvalues --   -2.20211  -2.20126  -2.19411  -2.19397  -1.15189
 Alpha  occ. eigenvalues --   -1.15158  -1.15130  -1.14472  -1.14458  -1.14367
 Alpha  occ. eigenvalues --   -1.14226  -1.14197  -1.14167  -1.13863  -1.13858
 Alpha  occ. eigenvalues --   -1.13828  -1.13824  -1.13798  -1.13761  -1.13096
 Alpha  occ. eigenvalues --   -1.13081  -1.13070  -1.13051  -1.13047  -1.13030
 Alpha  occ. eigenvalues --   -0.16122  -0.14021  -0.12265  -0.10880
 Alpha virt. eigenvalues --   -0.07522  -0.05260  -0.04467  -0.03782  -0.03265
 Alpha virt. eigenvalues --   -0.02411  -0.02239  -0.01436  -0.01146  -0.00818
 Alpha virt. eigenvalues --   -0.00645  -0.00087  -0.00018   0.00432   0.00594

  Beta  occ. eigenvalues --  -38.45709 -38.44962 -38.44760 -38.44356 -38.44323
  Beta  occ. eigenvalues --  -38.43657 -38.43562  -2.21462  -2.20697  -2.20481
  Beta  occ. eigenvalues --   -2.20156  -2.20086  -2.19411  -2.19349  -1.15167
  Beta  occ. eigenvalues --   -1.15132  -1.15068  -1.14423  -1.14397  -1.14294
  Beta  occ. eigenvalues --   -1.14181  -1.14155  -1.14125  -1.13855  -1.13820
  Beta  occ. eigenvalues --   -1.13773  -1.13772  -1.13768  -1.13747  -1.13099
  Beta  occ. eigenvalues --   -1.13082  -1.13042  -1.13033  -1.13018  -1.12995
  Beta  occ. eigenvalues --   -0.15433  -0.13686  -0.12003
  Beta virt. eigenvalues --   -0.07497  -0.07314  -0.04762  -0.03940  -0.03597
  Beta virt. eigenvalues --   -0.02865  -0.02187  -0.02092  -0.01209  -0.00905
  Beta virt. eigenvalues --   -0.00628  -0.00438   0.00099   0.00254   0.00530

 Mulliken charges and spin densities:
               1          2
     1  Na  -1.032055  -0.054851
     2  Na   0.729528   0.060466
     3  Na  -0.243095   0.271267
     4  Na  -0.059182  -0.375476
     5  Na  -0.905831   0.426280
     6  Na   0.403200   0.189377
     7  Na   1.107435   0.482936
 Sum of Mulliken charges =  -0.00000   1.00000

 Dipole moment (field-independent basis, Debye):
    X=              1.1922    Y=             -0.5220    Z=              0.2356  Tot=              1.3227
 Quadrupole moment (field-independent basis, Debye-Ang):
   XX=            -55.9530   YY=            -68.7104   ZZ=            -71.6473
   XY=             -1.7713   XZ=             -0.7890   YZ=             -0.0256

 Normal termination of Gaussian 16 at Sun Dec  3 18:47:24 2023.
