 Gaussian 16, Revision B.01,
 Gaussian 16:  ES64L-G16RevB.01 20-Dec-2017

 -------------------------
 #P B3LYP/6-311+g(d) force
 -------------------------

 -----
 DPGEN
 -----
 Symbolic Z-matrix:
 Charge =  0 Multiplicity = 2

                         Standard orientation:
 ---------------------------------------------------------------------
 Center     Atomic      Atomic             Coordinates (Angstroms)
 Number     Number       Type             X           Y           Z
 ---------------------------------------------------------------------
      1         11           0        6.609873    0.756960   -0.578970
      2         11           0       -2.785642    0.905486   -0.839558
      3         11           0       -1.787032   -3.192011   -0.981470
      4         11           0       -2.787508   -1.377335    2.059225
      5         11           0        0.432948   -0.990821   -0.815953
      6         11           0       -3.835196    3.477967   -0.128232
      7         11           0        4.152557    0.419754    1.284958
 ---------------------------------------------------------------------

 SCF Done:  E(UB3LYP) =  -1136.10504935     A.U. after   19 cycles

 The electronic state is 2-A.
 Alpha  occ. eigenvalues --  -38.45072 -38.44935 -38.44705 -38.44554 -38.44535
 Alpha  occ. eigenvalues --  -38.43282 -38.43128  -2.20879  -2.20718  -2.20518
 Alpha  occ. eigenvalues --   -2.20389  -2.20317  -2.19109  -2.19006  -1.14574
 Alpha  occ. eigenvalues --   -1.14547  -1.14517  -1.14392  -1.14371  -1.14369
 Alpha  occ. eigenvalues --   -1.14169  -1.14146  -1.14118  -1.14043  -1.14038
 Alpha  occ. eigenvalues --   -1.13997  -1.13976  -1.13969  -1.13959  -1.12952
 Alpha  occ. eigenvalues --   -1.12750  -1.12744  -1.12669  -1.12658  -1.12546
 Alpha  occ. eigenvalues --   -0.16619  -0.13670  -0.12066  -0.10806
 Alpha virt. eigenvalues --   -0.07058  -0.05657  -0.04759  -0.03157  -0.02835
 Alpha virt. eigenvalues --   -0.02521  -0.02329  -0.01804  -0.01444  -0.01115
 Alpha virt. eigenvalues --   -0.00781  -0.00168   0.00070   0.00306   0.00571

  Beta  occ. eigenvalues --  -38.45074 -38.44922 -38.44587 -38.44539 -38.44491
  Beta  occ. eigenvalues --  -38.43282 -38.43121  -2.20889  -2.20693  -2.20326
  Beta  occ. eigenvalues --   -2.20298  -2.20273  -2.19108  -2.18995  -1.14572
  Beta  occ. eigenvalues --   -1.14554  -1.14500  -1.14378  -1.14353  -1.14351
  Beta  occ. eigenvalues --   -1.14017  -1.13995  -1.13983  -1.13974  -1.13970
  Beta  occ. eigenvalues --   -1.13961  -1.13959  -1.13953  -1.13927  -1.12950
  Beta  occ. eigenvalues --   -1.12749  -1.12741  -1.12664  -1.12631  -1.12545
  Beta  occ. eigenvalues --   -0.15905  -0.13514  -0.11934
  Beta virt. eigenvalues --   -0.07113  -0.06518  -0.05488  -0.04546  -0.02822
  Beta virt. eigenvalues --   -0.02732  -0.02032  -0.01782  -0.01570  -0.01325
  Beta virt. eigenvalues --   -0.01067  -0.00349   0.00012   0.00264   0.00377

 Mulliken charges and spin densities:
               1          2
     1  Na   0.182698   0.052033
     2  Na  -0.946237   0.121943
     3  Na   1.125461   0.036920
     4  Na   0.071974   0.596502
     5  Na  -0.688797   0.370067
     6  Na   0.410202  -0.156862
     7  Na  -0.155300  -0.020603
 Sum of Mulliken charges =  -0.00000   1.00000

 Dipole moment (field-independent basis, Debye):
    X=              1.6426    Y=             -1.1145    Z=             -0.1078  Tot=              1.9879
 Quadrupole moment (field-independent basis, Debye-Ang):
   XX=            -62.1717   YY=            -65.9817   ZZ=            -68.1138
   XY=              5.1887   XZ=             -3.3776   YZ=              5.0536

 Normal termination of Gaussian 16 at Sun Dec  3 15:58:36 2023.
