 Gaussian 16, Revision B.01,
 Gaussian 16:  ES64L-G16RevB.01 20-Dec-2017

 -------------------------
 #P B3LYP/6-311+g(d) force
 -------------------------

 -----
 DPGEN
 -----
 Symbolic Z-matrix:
 Charge =  0 Multiplicity = 2

                         Standard orientation:
 ---------------------------------------------------------------------
 Center     Atomic      Atomic             Coordinates (Angstroms)
 Number     Number       Type             X           Y           Z
 ---------------------------------------------------------------------
      1         11           0        0.166012   -1.662745    0.848266
      2         11           0        3.259065   -2.741436   -0.274549
      3         11           0        3.760468    0.330111   -0.555944
      4         11           0        0.231187    1.331306   -0.850010
      5         11           0       -2.901399   -0.523347    0.531961
      6         11           0        2.236388    3.136905    0.735626
      7         11           0       -6.751721    0.129208   -0.435349
 ---------------------------------------------------------------------

 SCF Done:  E(UB3LYP) =  -1136.11962344     A.U. after   21 cycles

 The electronic state is 2-A.
 Alpha  occ. eigenvalues --  -38.45650 -38.44421 -38.44161 -38.43881 -38.43684
 Alpha  occ. eigenvalues --  -38.43682 -38.42966  -2.21431  -2.20277  -2.20021
 Alpha  occ. eigenvalues --   -2.19737  -2.19517  -2.19471  -2.18806  -1.15056
 Alpha  occ. eigenvalues --   -1.15056  -1.15030  -1.13978  -1.13970  -1.13880
 Alpha  occ. eigenvalues --   -1.13715  -1.13688  -1.13643  -1.13425  -1.13416
 Alpha  occ. eigenvalues --   -1.13352  -1.13185  -1.13172  -1.13155  -1.13152
 Alpha  occ. eigenvalues --   -1.13148  -1.13103  -1.12482  -1.12457  -1.12446
 Alpha  occ. eigenvalues --   -0.16919  -0.13851  -0.12135  -0.11862
 Alpha virt. eigenvalues --   -0.05796  -0.05572  -0.04625  -0.03699  -0.02685
 Alpha virt. eigenvalues --   -0.02453  -0.02112  -0.01919  -0.01160  -0.00836
 Alpha virt. eigenvalues --   -0.00266  -0.00126   0.00281   0.00469   0.00639

  Beta  occ. eigenvalues --  -38.45502 -38.44408 -38.44137 -38.43854 -38.43691
  Beta  occ. eigenvalues --  -38.43680 -38.42960  -2.21156  -2.20256  -2.19978
  Beta  occ. eigenvalues --   -2.19688  -2.19513  -2.19491  -2.18796  -1.14870
  Beta  occ. eigenvalues --   -1.14870  -1.14845  -1.13964  -1.13957  -1.13856
  Beta  occ. eigenvalues --   -1.13685  -1.13661  -1.13606  -1.13391  -1.13384
  Beta  occ. eigenvalues --   -1.13315  -1.13180  -1.13174  -1.13170  -1.13170
  Beta  occ. eigenvalues --   -1.13144  -1.13071  -1.12467  -1.12450  -1.12441
  Beta  occ. eigenvalues --   -0.16609  -0.12802  -0.12032
  Beta virt. eigenvalues --   -0.08061  -0.05691  -0.05089  -0.04400  -0.03557
  Beta virt. eigenvalues --   -0.02369  -0.01860  -0.01752  -0.01411  -0.00763
  Beta virt. eigenvalues --   -0.00552  -0.00217   0.00088   0.00448   0.00521

 Mulliken charges and spin densities:
               1          2
     1  Na   0.144180  -0.133558
     2  Na   0.711340   0.042343
     3  Na  -0.176052   0.180552
     4  Na  -0.606648   0.000040
     5  Na  -0.544453   0.327911
     6  Na   0.477154   0.008691
     7  Na  -0.005522   0.574021
 Sum of Mulliken charges =  -0.00000   1.00000

 Dipole moment (field-independent basis, Debye):
    X=             -0.2877    Y=              0.7288    Z=              0.0407  Tot=              0.7846
 Quadrupole moment (field-independent basis, Debye-Ang):
   XX=            -59.1259   YY=            -69.0484   ZZ=            -68.2962
   XY=              1.0187   XZ=              1.9271   YZ=              1.0834

 Normal termination of Gaussian 16 at Wed Nov 29 02:06:00 2023.
