 Gaussian 16, Revision B.01,
 Gaussian 16:  ES64L-G16RevB.01 20-Dec-2017

 -------------------------
 #P B3LYP/6-311+g(d) force
 -------------------------

 -----
 DPGEN
 -----
 Symbolic Z-matrix:
 Charge =  0 Multiplicity = 2

                         Standard orientation:
 ---------------------------------------------------------------------
 Center     Atomic      Atomic             Coordinates (Angstroms)
 Number     Number       Type             X           Y           Z
 ---------------------------------------------------------------------
      1         11           0        2.811961    0.621026   -0.128296
      2         11           0        0.100941   -0.141899   -1.835976
      3         11           0        1.472022   -2.139593    0.189846
      4         11           0        0.098276    0.353796    1.869360
      5         11           0       -2.761360    0.744306   -0.071310
      6         11           0       -0.024218    2.625042   -0.092087
      7         11           0       -1.697622   -2.062679    0.068464
 ---------------------------------------------------------------------

 SCF Done:  E(UB3LYP) =  -1136.13254883     A.U. after   19 cycles

 The electronic state is 2-A.
 Alpha  occ. eigenvalues --  -38.43695 -38.43667 -38.43493 -38.43431 -38.43157
 Alpha  occ. eigenvalues --  -38.43117 -38.43059  -2.19623  -2.19591  -2.19516
 Alpha  occ. eigenvalues --   -2.19470  -2.19117  -2.19095  -2.19007  -1.13349
 Alpha  occ. eigenvalues --   -1.13324  -1.13293  -1.13273  -1.13255  -1.13245
 Alpha  occ. eigenvalues --   -1.13202  -1.13177  -1.13151  -1.13112  -1.13109
 Alpha  occ. eigenvalues --   -1.13081  -1.12836  -1.12772  -1.12757  -1.12753
 Alpha  occ. eigenvalues --   -1.12736  -1.12688  -1.12678  -1.12667  -1.12609
 Alpha  occ. eigenvalues --   -0.19906  -0.13382  -0.12723  -0.11376
 Alpha virt. eigenvalues --   -0.05350  -0.04655  -0.04420  -0.03398  -0.03095
 Alpha virt. eigenvalues --   -0.02749  -0.01279  -0.00771  -0.00042   0.00183
 Alpha virt. eigenvalues --    0.00271   0.00381   0.00931   0.01009   0.01038

  Beta  occ. eigenvalues --  -38.43688 -38.43662 -38.43407 -38.43347 -38.43151
  Beta  occ. eigenvalues --  -38.43107 -38.43050  -2.19614  -2.19586  -2.19360
  Beta  occ. eigenvalues --   -2.19316  -2.19109  -2.19082  -2.18996  -1.13340
  Beta  occ. eigenvalues --   -1.13322  -1.13267  -1.13249  -1.13246  -1.13209
  Beta  occ. eigenvalues --   -1.13118  -1.13079  -1.13048  -1.13008  -1.13002
  Beta  occ. eigenvalues --   -1.12975  -1.12828  -1.12769  -1.12747  -1.12715
  Beta  occ. eigenvalues --   -1.12686  -1.12676  -1.12674  -1.12621  -1.12607
  Beta  occ. eigenvalues --   -0.19117  -0.13096  -0.12430
  Beta virt. eigenvalues --   -0.07354  -0.05338  -0.04661  -0.04417  -0.02523
  Beta virt. eigenvalues --   -0.02238  -0.01650  -0.01203  -0.00716   0.00092
  Beta virt. eigenvalues --    0.00131   0.00219   0.00392   0.00971   0.00995

 Mulliken charges and spin densities:
               1          2
     1  Na   0.365334  -0.057996
     2  Na  -0.772871   0.593234
     3  Na   0.349774   0.015335
     4  Na  -0.787732   0.600801
     5  Na   0.175389  -0.054501
     6  Na   0.440875  -0.078152
     7  Na   0.229232  -0.018721
 Sum of Mulliken charges =  -0.00000   1.00000

 Dipole moment (field-independent basis, Debye):
    X=              0.0662    Y=              0.1773    Z=              0.0041  Tot=              0.1893
 Quadrupole moment (field-independent basis, Debye-Ang):
   XX=            -58.5223   YY=            -65.6395   ZZ=            -71.2092
   XY=              0.1051   XZ=             -0.0359   YZ=             -1.0795

 Normal termination of Gaussian 16 at Sat Dec  9 05:37:03 2023.
