 Gaussian 16, Revision B.01,
 Gaussian 16:  ES64L-G16RevB.01 20-Dec-2017

 -------------------------
 #P B3LYP/6-311+g(d) force
 -------------------------

 -----
 DPGEN
 -----
 Symbolic Z-matrix:
 Charge =  0 Multiplicity = 2

                         Standard orientation:
 ---------------------------------------------------------------------
 Center     Atomic      Atomic             Coordinates (Angstroms)
 Number     Number       Type             X           Y           Z
 ---------------------------------------------------------------------
      1         11           0       -1.337119    2.081179    0.963856
      2         11           0       -3.485131    0.538238   -1.221538
      3         11           0        2.439771    1.885569    0.319268
      4         11           0        0.874250   -1.333153    1.885309
      5         11           0        0.258191   -0.220813   -1.188608
      6         11           0       -2.343357   -2.001930    0.398178
      7         11           0        3.593396   -0.949090   -1.156466
 ---------------------------------------------------------------------

 SCF Done:  E(UB3LYP) =  -1136.12623422     A.U. after   24 cycles

 The electronic state is 2-A.
 Alpha  occ. eigenvalues --  -38.44542 -38.44277 -38.44252 -38.43952 -38.43695
 Alpha  occ. eigenvalues --  -38.43410 -38.43166  -2.20375  -2.20205  -2.20103
 Alpha  occ. eigenvalues --   -2.19785  -2.19543  -2.19252  -2.18989  -1.14045
 Alpha  occ. eigenvalues --   -1.14016  -1.13998  -1.13940  -1.13851  -1.13830
 Alpha  occ. eigenvalues --   -1.13773  -1.13750  -1.13729  -1.13469  -1.13453
 Alpha  occ. eigenvalues --   -1.13411  -1.13221  -1.13176  -1.13156  -1.12927
 Alpha  occ. eigenvalues --   -1.12915  -1.12898  -1.12671  -1.12654  -1.12618
 Alpha  occ. eigenvalues --   -0.18195  -0.14299  -0.11085  -0.11033
 Alpha virt. eigenvalues --   -0.06332  -0.05527  -0.04799  -0.03073  -0.02710
 Alpha virt. eigenvalues --   -0.02535  -0.02190  -0.01091  -0.00829  -0.00356
 Alpha virt. eigenvalues --    0.00114   0.00277   0.00349   0.00543   0.00684

  Beta  occ. eigenvalues --  -38.44487 -38.44268 -38.44215 -38.43945 -38.43627
  Beta  occ. eigenvalues --  -38.43408 -38.43152  -2.20273  -2.20191  -2.20033
  Beta  occ. eigenvalues --   -2.19777  -2.19418  -2.19253  -2.18965  -1.13972
  Beta  occ. eigenvalues --   -1.13950  -1.13931  -1.13899  -1.13850  -1.13817
  Beta  occ. eigenvalues --   -1.13726  -1.13700  -1.13685  -1.13465  -1.13446
  Beta  occ. eigenvalues --   -1.13382  -1.13137  -1.13084  -1.13070  -1.12929
  Beta  occ. eigenvalues --   -1.12920  -1.12869  -1.12658  -1.12632  -1.12590
  Beta  occ. eigenvalues --   -0.17572  -0.13835  -0.10766
  Beta virt. eigenvalues --   -0.07517  -0.06067  -0.05441  -0.04183  -0.02891
  Beta virt. eigenvalues --   -0.02344  -0.02120  -0.01474  -0.01034  -0.00489
  Beta virt. eigenvalues --   -0.00204   0.00203   0.00286   0.00487   0.00643

 Mulliken charges and spin densities:
               1          2
     1  Na  -0.292140   0.078541
     2  Na   1.096012   0.161342
     3  Na   0.123892   0.126775
     4  Na  -0.124080   0.382042
     5  Na  -1.525711  -0.092483
     6  Na  -0.044098   0.131599
     7  Na   0.766124   0.212185
 Sum of Mulliken charges =  -0.00000   1.00000

 Dipole moment (field-independent basis, Debye):
    X=              0.5278    Y=             -0.1443    Z=             -0.0096  Tot=              0.5473
 Quadrupole moment (field-independent basis, Debye-Ang):
   XX=            -51.3443   YY=            -76.3007   ZZ=            -67.3111
   XY=             -0.2379   XZ=              1.7147   YZ=              1.3261

 Normal termination of Gaussian 16 at Wed Dec  6 00:37:27 2023.
