 Gaussian 16, Revision B.01,
 Gaussian 16:  ES64L-G16RevB.01 20-Dec-2017

 -------------------------
 #P B3LYP/6-311+g(d) force
 -------------------------

 -----
 DPGEN
 -----
 Symbolic Z-matrix:
 Charge =  0 Multiplicity = 2

                         Standard orientation:
 ---------------------------------------------------------------------
 Center     Atomic      Atomic             Coordinates (Angstroms)
 Number     Number       Type             X           Y           Z
 ---------------------------------------------------------------------
      1         11           0        1.249619   -1.711154    1.088753
      2         11           0        3.773572   -0.820792   -0.855823
      3         11           0       -3.605133    0.828198   -0.998632
      4         11           0        1.577521    2.448726    0.350976
      5         11           0       -0.961737    0.811658    2.101518
      6         11           0        0.347446    0.524879   -1.568683
      7         11           0       -2.381289   -2.081515   -0.118110
 ---------------------------------------------------------------------

 SCF Done:  E(UB3LYP) =  -1136.12263792     A.U. after   23 cycles

 The electronic state is 2-A.
 Alpha  occ. eigenvalues --  -38.44933 -38.44483 -38.44291 -38.44013 -38.43890
 Alpha  occ. eigenvalues --  -38.43270 -38.42980  -2.20731  -2.20369  -2.20088
 Alpha  occ. eigenvalues --   -2.19867  -2.19696  -2.19134  -2.18837  -1.14392
 Alpha  occ. eigenvalues --   -1.14379  -1.14359  -1.14082  -1.14045  -1.13967
 Alpha  occ. eigenvalues --   -1.13764  -1.13739  -1.13720  -1.13551  -1.13499
 Alpha  occ. eigenvalues --   -1.13476  -1.13375  -1.13356  -1.13345  -1.12819
 Alpha  occ. eigenvalues --   -1.12790  -1.12761  -1.12550  -1.12486  -1.12452
 Alpha  occ. eigenvalues --   -0.18028  -0.13691  -0.11459  -0.11093
 Alpha virt. eigenvalues --   -0.06593  -0.05203  -0.04483  -0.03096  -0.02960
 Alpha virt. eigenvalues --   -0.02746  -0.02304  -0.01079  -0.00814  -0.00296
 Alpha virt. eigenvalues --    0.00154   0.00167   0.00433   0.00614   0.00783

  Beta  occ. eigenvalues --  -38.44894 -38.44453 -38.44279 -38.43936 -38.43888
  Beta  occ. eigenvalues --  -38.43235 -38.42981  -2.20658  -2.20315  -2.20065
  Beta  occ. eigenvalues --   -2.19727  -2.19697  -2.19072  -2.18842  -1.14337
  Beta  occ. eigenvalues --   -1.14330  -1.14311  -1.14047  -1.14003  -1.13924
  Beta  occ. eigenvalues --   -1.13749  -1.13726  -1.13701  -1.13446  -1.13404
  Beta  occ. eigenvalues --   -1.13376  -1.13375  -1.13358  -1.13320  -1.12782
  Beta  occ. eigenvalues --   -1.12742  -1.12698  -1.12552  -1.12480  -1.12448
  Beta  occ. eigenvalues --   -0.17308  -0.13348  -0.10948
  Beta virt. eigenvalues --   -0.07687  -0.06310  -0.05090  -0.03953  -0.02954
  Beta virt. eigenvalues --   -0.02430  -0.02081  -0.01809  -0.00970  -0.00620
  Beta virt. eigenvalues --   -0.00182   0.00176   0.00232   0.00496   0.00737

 Mulliken charges and spin densities:
               1          2
     1  Na  -0.297140   0.132054
     2  Na   0.354645   0.031866
     3  Na   0.157689   0.201868
     4  Na  -0.110707  -0.011474
     5  Na   0.158913   0.357496
     6  Na  -0.216234   0.217734
     7  Na  -0.047166   0.070457
 Sum of Mulliken charges =  -0.00000   1.00000

 Dipole moment (field-independent basis, Debye):
    X=             -0.4705    Y=              0.4513    Z=             -0.2468  Tot=              0.6971
 Quadrupole moment (field-independent basis, Debye-Ang):
   XX=            -52.9804   YY=            -74.4586   ZZ=            -67.9834
   XY=             -0.1358   XZ=             -0.8727   YZ=             -0.4794

 Normal termination of Gaussian 16 at Tue Dec  5 22:06:23 2023.
