 Gaussian 16, Revision B.01,
 Gaussian 16:  ES64L-G16RevB.01 20-Dec-2017

 -------------------------
 #P B3LYP/6-311+g(d) force
 -------------------------

 -----
 DPGEN
 -----
 Symbolic Z-matrix:
 Charge =  0 Multiplicity = 2

                         Standard orientation:
 ---------------------------------------------------------------------
 Center     Atomic      Atomic             Coordinates (Angstroms)
 Number     Number       Type             X           Y           Z
 ---------------------------------------------------------------------
      1         11           0       -1.402670    3.287720    0.860628
      2         11           0       -2.103698    1.102257   -1.846048
      3         11           0       -2.591814   -2.354839   -1.376693
      4         11           0        0.519784   -2.494924    1.746177
      5         11           0        2.375461   -0.620477   -0.440170
      6         11           0        5.331079    0.790538   -0.517341
      7         11           0       -2.128142    0.289726    1.573447
 ---------------------------------------------------------------------

 SCF Done:  E(UB3LYP) =  -1136.11338395     A.U. after   21 cycles

 The electronic state is 2-A.
 Alpha  occ. eigenvalues --  -38.44937 -38.44840 -38.44387 -38.44360 -38.44069
 Alpha  occ. eigenvalues --  -38.43627 -38.43558  -2.20762  -2.20688  -2.20163
 Alpha  occ. eigenvalues --   -2.20152  -2.19847  -2.19455  -2.19350  -1.14445
 Alpha  occ. eigenvalues --   -1.14438  -1.14379  -1.14367  -1.14343  -1.14302
 Alpha  occ. eigenvalues --   -1.13836  -1.13821  -1.13815  -1.13808  -1.13785
 Alpha  occ. eigenvalues --   -1.13760  -1.13497  -1.13496  -1.13489  -1.13135
 Alpha  occ. eigenvalues --   -1.13105  -1.13082  -1.13036  -1.13026  -1.12979
 Alpha  occ. eigenvalues --   -0.16853  -0.13288  -0.11989  -0.11437
 Alpha virt. eigenvalues --   -0.06752  -0.05024  -0.04634  -0.03513  -0.03178
 Alpha virt. eigenvalues --   -0.02479  -0.02248  -0.01280  -0.00877  -0.00785
 Alpha virt. eigenvalues --   -0.00686  -0.00099   0.00239   0.00368   0.00558

  Beta  occ. eigenvalues --  -38.44891 -38.44810 -38.44351 -38.44301 -38.44032
  Beta  occ. eigenvalues --  -38.43615 -38.43565  -2.20679  -2.20635  -2.20100
  Beta  occ. eigenvalues --   -2.20043  -2.19778  -2.19435  -2.19366  -1.14392
  Beta  occ. eigenvalues --   -1.14388  -1.14340  -1.14304  -1.14284  -1.14262
  Beta  occ. eigenvalues --   -1.13796  -1.13770  -1.13744  -1.13734  -1.13726
  Beta  occ. eigenvalues --   -1.13693  -1.13451  -1.13450  -1.13445  -1.13110
  Beta  occ. eigenvalues --   -1.13092  -1.13074  -1.13044  -1.13041  -1.12972
  Beta  occ. eigenvalues --   -0.16246  -0.12880  -0.11471
  Beta virt. eigenvalues --   -0.08039  -0.06411  -0.04838  -0.04194  -0.03352
  Beta virt. eigenvalues --   -0.02610  -0.02153  -0.01981  -0.01197  -0.00656
  Beta virt. eigenvalues --   -0.00476  -0.00380  -0.00017   0.00293   0.00547

 Mulliken charges and spin densities:
               1          2
     1  Na   0.378986  -0.084288
     2  Na  -0.121773   0.243871
     3  Na   0.205498   0.121429
     4  Na   0.894232   0.109096
     5  Na  -1.112629   0.043163
     6  Na  -0.012245   0.138121
     7  Na  -0.232071   0.428609
 Sum of Mulliken charges =  -0.00000   1.00000

 Dipole moment (field-independent basis, Debye):
    X=             -0.8624    Y=              0.2999    Z=              0.1189  Tot=              0.9208
 Quadrupole moment (field-independent basis, Debye-Ang):
   XX=            -66.2099   YY=            -64.4325   ZZ=            -67.1667
   XY=              4.3013   XZ=              0.5697   YZ=             -1.7209

 Normal termination of Gaussian 16 at Mon Dec  4 02:38:15 2023.
