 Gaussian 16, Revision B.01,
 Gaussian 16:  ES64L-G16RevB.01 20-Dec-2017

 -------------------------
 #P B3LYP/6-311+g(d) force
 -------------------------

 -----
 DPGEN
 -----
 Symbolic Z-matrix:
 Charge =  0 Multiplicity = 2

                         Standard orientation:
 ---------------------------------------------------------------------
 Center     Atomic      Atomic             Coordinates (Angstroms)
 Number     Number       Type             X           Y           Z
 ---------------------------------------------------------------------
      1         11           0        1.456918    2.336181    0.222647
      2         11           0       -2.978600   -1.565573   -0.470762
      3         11           0       -2.566100    1.851638   -0.200719
      4         11           0       -0.692953   -0.306589    2.261348
      5         11           0        1.175025   -2.415770   -0.097762
      6         11           0        0.010084    0.292614   -1.563456
      7         11           0        3.595626   -0.192501   -0.151297
 ---------------------------------------------------------------------

 SCF Done:  E(UB3LYP) =  -1136.12878642     A.U. after   23 cycles

 The electronic state is 2-A.
 Alpha  occ. eigenvalues --  -38.44841 -38.44478 -38.44095 -38.43794 -38.43682
 Alpha  occ. eigenvalues --  -38.43162 -38.43079  -2.20660  -2.20275  -2.19925
 Alpha  occ. eigenvalues --   -2.19645  -2.19638  -2.19022  -2.18927  -1.14328
 Alpha  occ. eigenvalues --   -1.14319  -1.14305  -1.13947  -1.13936  -1.13915
 Alpha  occ. eigenvalues --   -1.13617  -1.13585  -1.13554  -1.13357  -1.13309
 Alpha  occ. eigenvalues --   -1.13291  -1.13265  -1.13258  -1.13254  -1.12722
 Alpha  occ. eigenvalues --   -1.12675  -1.12639  -1.12625  -1.12591  -1.12550
 Alpha  occ. eigenvalues --   -0.18336  -0.13660  -0.11607  -0.10782
 Alpha virt. eigenvalues --   -0.06506  -0.05581  -0.03831  -0.03419  -0.02815
 Alpha virt. eigenvalues --   -0.02463  -0.02213  -0.01354  -0.00503  -0.00131
 Alpha virt. eigenvalues --   -0.00070   0.00250   0.00606   0.00762   0.00814

  Beta  occ. eigenvalues --  -38.44842 -38.44468 -38.44087 -38.43686 -38.43637
  Beta  occ. eigenvalues --  -38.43157 -38.43074  -2.20664  -2.20260  -2.19915
  Beta  occ. eigenvalues --   -2.19564  -2.19438  -2.19015  -2.18921  -1.14326
  Beta  occ. eigenvalues --   -1.14322  -1.14305  -1.13930  -1.13919  -1.13901
  Beta  occ. eigenvalues --   -1.13603  -1.13567  -1.13543  -1.13295  -1.13253
  Beta  occ. eigenvalues --   -1.13199  -1.13156  -1.13127  -1.13110  -1.12715
  Beta  occ. eigenvalues --   -1.12657  -1.12633  -1.12620  -1.12570  -1.12545
  Beta  occ. eigenvalues --   -0.17653  -0.13449  -0.11410
  Beta virt. eigenvalues --   -0.06819  -0.06400  -0.05583  -0.03736  -0.02788
  Beta virt. eigenvalues --   -0.02150  -0.01876  -0.01530  -0.01317  -0.00507
  Beta virt. eigenvalues --   -0.00101   0.00074   0.00297   0.00720   0.00813

 Mulliken charges and spin densities:
               1          2
     1  Na   0.246223   0.075505
     2  Na   0.154303   0.000959
     3  Na   0.296575   0.093620
     4  Na  -0.596028   0.684845
     5  Na   0.165008  -0.007570
     6  Na  -0.305434   0.178528
     7  Na   0.039354  -0.025888
 Sum of Mulliken charges =  -0.00000   1.00000

 Dipole moment (field-independent basis, Debye):
    X=             -0.0944    Y=             -0.0244    Z=              0.0558  Tot=              0.1124
 Quadrupole moment (field-independent basis, Debye-Ang):
   XX=            -48.9267   YY=            -70.1704   ZZ=            -74.0893
   XY=              0.3506   XZ=              0.9869   YZ=              1.4648

 Normal termination of Gaussian 16 at Thu Dec  7 18:35:10 2023.
