 Gaussian 16, Revision B.01,
 Gaussian 16:  ES64L-G16RevB.01 20-Dec-2017

 -------------------------
 #P B3LYP/6-311+g(d) force
 -------------------------

 -----
 DPGEN
 -----
 Symbolic Z-matrix:
 Charge =  0 Multiplicity = 2

                         Standard orientation:
 ---------------------------------------------------------------------
 Center     Atomic      Atomic             Coordinates (Angstroms)
 Number     Number       Type             X           Y           Z
 ---------------------------------------------------------------------
      1         11           0       -0.446581    2.729510    0.311516
      2         11           0        2.965507    1.504002   -0.185677
      3         11           0        0.745597   -0.543061    1.499051
      4         11           0       -3.276085   -2.013457    0.486468
      5         11           0       -3.261890    1.059664   -0.533400
      6         11           0        3.648568   -1.740343   -0.289794
      7         11           0       -0.375116   -0.996314   -1.288164
 ---------------------------------------------------------------------

 SCF Done:  E(UB3LYP) =  -1136.11998005     A.U. after   23 cycles

 The electronic state is 2-A.
 Alpha  occ. eigenvalues --  -38.45181 -38.44575 -38.44394 -38.43860 -38.43841
 Alpha  occ. eigenvalues --  -38.43670 -38.42420  -2.21041  -2.20381  -2.20234
 Alpha  occ. eigenvalues --   -2.19787  -2.19667  -2.19535  -2.18251  -1.14780
 Alpha  occ. eigenvalues --   -1.14682  -1.14642  -1.14063  -1.14043  -1.14011
 Alpha  occ. eigenvalues --   -1.13929  -1.13899  -1.13853  -1.13495  -1.13402
 Alpha  occ. eigenvalues --   -1.13388  -1.13335  -1.13319  -1.13286  -1.13214
 Alpha  occ. eigenvalues --   -1.13182  -1.13160  -1.11928  -1.11919  -1.11896
 Alpha  occ. eigenvalues --   -0.18004  -0.14357  -0.11609  -0.09961
 Alpha virt. eigenvalues --   -0.06839  -0.06199  -0.04178  -0.03280  -0.02977
 Alpha virt. eigenvalues --   -0.02355  -0.01817  -0.01355  -0.01118  -0.00322
 Alpha virt. eigenvalues --   -0.00180   0.00042   0.00430   0.00554   0.00614

  Beta  occ. eigenvalues --  -38.45166 -38.44565 -38.44366 -38.43799 -38.43793
  Beta  occ. eigenvalues --  -38.43626 -38.42419  -2.21017  -2.20365  -2.20187
  Beta  occ. eigenvalues --   -2.19666  -2.19592  -2.19454  -2.18250  -1.14735
  Beta  occ. eigenvalues --   -1.14664  -1.14640  -1.14054  -1.14029  -1.13982
  Beta  occ. eigenvalues --   -1.13900  -1.13873  -1.13789  -1.13408  -1.13326
  Beta  occ. eigenvalues --   -1.13300  -1.13284  -1.13261  -1.13225  -1.13158
  Beta  occ. eigenvalues --   -1.13128  -1.13098  -1.11928  -1.11921  -1.11883
  Beta  occ. eigenvalues --   -0.17442  -0.13738  -0.11451
  Beta virt. eigenvalues --   -0.06691  -0.06421  -0.05969  -0.03996  -0.03037
  Beta virt. eigenvalues --   -0.02513  -0.01813  -0.01673  -0.01106  -0.00829
  Beta virt. eigenvalues --   -0.00157  -0.00023   0.00278   0.00575   0.00635

 Mulliken charges and spin densities:
               1          2
     1  Na  -0.317798  -0.144852
     2  Na   0.063234   0.284461
     3  Na  -0.155362   0.201824
     4  Na   0.352717   0.013880
     5  Na   0.182966   0.417688
     6  Na   0.319982   0.289088
     7  Na  -0.445739  -0.062089
 Sum of Mulliken charges =  -0.00000   1.00000

 Dipole moment (field-independent basis, Debye):
    X=             -0.1332    Y=             -1.1043    Z=              0.4179  Tot=              1.1882
 Quadrupole moment (field-independent basis, Debye-Ang):
   XX=            -70.2232   YY=            -69.3639   ZZ=            -64.6950
   XY=              3.0690   XZ=             -1.8108   YZ=             -1.0657

 Normal termination of Gaussian 16 at Fri Dec  8 01:06:26 2023.
