 Gaussian 16, Revision B.01,
 Gaussian 16:  ES64L-G16RevB.01 20-Dec-2017

 -------------------------
 #P B3LYP/6-311+g(d) force
 -------------------------

 -----
 DPGEN
 -----
 Symbolic Z-matrix:
 Charge =  0 Multiplicity = 2

                         Standard orientation:
 ---------------------------------------------------------------------
 Center     Atomic      Atomic             Coordinates (Angstroms)
 Number     Number       Type             X           Y           Z
 ---------------------------------------------------------------------
      1         11           0       -3.006634   -2.117193    0.274360
      2         11           0        3.891918   -0.741192    0.308734
      3         11           0       -1.155348    3.307854    0.521996
      4         11           0        0.114822   -2.209855   -0.823534
      5         11           0        1.762650    1.223429   -1.210151
      6         11           0       -1.899787    0.784144   -0.995613
      7         11           0        0.292379   -0.247186    1.924208
 ---------------------------------------------------------------------

 SCF Done:  E(UB3LYP) =  -1136.12981385     A.U. after   20 cycles

 The electronic state is 2-A.
 Alpha  occ. eigenvalues --  -38.44597 -38.44218 -38.44056 -38.43724 -38.43707
 Alpha  occ. eigenvalues --  -38.43391 -38.43163  -2.20377  -2.20036  -2.19915
 Alpha  occ. eigenvalues --   -2.19577  -2.19558  -2.19214  -2.19091  -1.14063
 Alpha  occ. eigenvalues --   -1.14038  -1.14009  -1.13718  -1.13699  -1.13683
 Alpha  occ. eigenvalues --   -1.13623  -1.13595  -1.13495  -1.13265  -1.13247
 Alpha  occ. eigenvalues --   -1.13228  -1.13203  -1.13179  -1.13160  -1.12972
 Alpha  occ. eigenvalues --   -1.12856  -1.12852  -1.12776  -1.12749  -1.12672
 Alpha  occ. eigenvalues --   -0.18084  -0.13180  -0.12318  -0.10291
 Alpha virt. eigenvalues --   -0.06420  -0.05096  -0.04716  -0.03213  -0.02828
 Alpha virt. eigenvalues --   -0.02256  -0.02162  -0.01390  -0.00646  -0.00231
 Alpha virt. eigenvalues --    0.00112   0.00239   0.00659   0.00680   0.00785

  Beta  occ. eigenvalues --  -38.44600 -38.44220 -38.44037 -38.43672 -38.43630
  Beta  occ. eigenvalues --  -38.43390 -38.43142  -2.20385  -2.20042  -2.19884
  Beta  occ. eigenvalues --   -2.19495  -2.19405  -2.19212  -2.19055  -1.14068
  Beta  occ. eigenvalues --   -1.14033  -1.14013  -1.13723  -1.13699  -1.13674
  Beta  occ. eigenvalues --   -1.13605  -1.13542  -1.13478  -1.13208  -1.13172
  Beta  occ. eigenvalues --   -1.13141  -1.13118  -1.13082  -1.13057  -1.12967
  Beta  occ. eigenvalues --   -1.12851  -1.12842  -1.12751  -1.12709  -1.12651
  Beta  occ. eigenvalues --   -0.17360  -0.13026  -0.12164
  Beta virt. eigenvalues --   -0.06446  -0.06294  -0.04985  -0.04629  -0.02642
  Beta virt. eigenvalues --   -0.02232  -0.02062  -0.01338  -0.01248  -0.00543
  Beta virt. eigenvalues --   -0.00097   0.00186   0.00300   0.00707   0.00739

 Mulliken charges and spin densities:
               1          2
     1  Na   0.454285  -0.079449
     2  Na   0.340870  -0.049070
     3  Na   0.026008  -0.186956
     4  Na  -0.049123   0.114435
     5  Na  -0.290452   0.136399
     6  Na  -0.018198   0.318663
     7  Na  -0.463389   0.745979
 Sum of Mulliken charges =  -0.00000   1.00000

 Dipole moment (field-independent basis, Debye):
    X=              0.3356    Y=             -0.5849    Z=              0.2663  Tot=              0.7251
 Quadrupole moment (field-independent basis, Debye-Ang):
   XX=            -52.6492   YY=            -63.9922   ZZ=            -75.0203
   XY=              0.5164   XZ=             -0.7146   YZ=              0.8758

 Normal termination of Gaussian 16 at Wed Nov 29 17:17:18 2023.
