 Gaussian 16, Revision B.01,
 Gaussian 16:  ES64L-G16RevB.01 20-Dec-2017

 -------------------------
 #P B3LYP/6-311+g(d) force
 -------------------------

 -----
 DPGEN
 -----
 Symbolic Z-matrix:
 Charge =  0 Multiplicity = 2

                         Standard orientation:
 ---------------------------------------------------------------------
 Center     Atomic      Atomic             Coordinates (Angstroms)
 Number     Number       Type             X           Y           Z
 ---------------------------------------------------------------------
      1         11           0        0.145974   -0.628741   -0.977145
      2         11           0       -8.272357    0.291804    1.048374
      3         11           0       -5.757099    1.640533   -0.329799
      4         11           0        8.942435    1.037853   -0.388068
      5         11           0        6.237486    0.214473    0.652956
      6         11           0        2.220880   -1.334618    1.096464
      7         11           0       -3.517317   -1.221303   -1.102783
 ---------------------------------------------------------------------

 SCF Done:  E(UB3LYP) =  -1136.10525237     A.U. after   18 cycles

 The electronic state is 2-A.
 Alpha  occ. eigenvalues --  -38.45211 -38.45186 -38.44878 -38.44340 -38.44131
 Alpha  occ. eigenvalues --  -38.43822 -38.43661  -2.21007  -2.20973  -2.20664
 Alpha  occ. eigenvalues --   -2.20163  -2.19933  -2.19630  -2.19449  -1.14665
 Alpha  occ. eigenvalues --   -1.14650  -1.14643  -1.14625  -1.14619  -1.14574
 Alpha  occ. eigenvalues --   -1.14337  -1.14319  -1.14314  -1.13889  -1.13800
 Alpha  occ. eigenvalues --   -1.13788  -1.13601  -1.13592  -1.13564  -1.13361
 Alpha  occ. eigenvalues --   -1.13273  -1.13272  -1.13112  -1.13110  -1.13056
 Alpha  occ. eigenvalues --   -0.15313  -0.14101  -0.12821  -0.11394
 Alpha virt. eigenvalues --   -0.06614  -0.05534  -0.04377  -0.03463  -0.03055
 Alpha virt. eigenvalues --   -0.02751  -0.02261  -0.01950  -0.01679  -0.01270
 Alpha virt. eigenvalues --   -0.00845  -0.00596  -0.00333   0.00296   0.00551

  Beta  occ. eigenvalues --  -38.45150 -38.45090 -38.44889 -38.44280 -38.44143
  Beta  occ. eigenvalues --  -38.43799 -38.43666  -2.20892  -2.20794  -2.20688
  Beta  occ. eigenvalues --   -2.20051  -2.19960  -2.19587  -2.19463  -1.14593
  Beta  occ. eigenvalues --   -1.14572  -1.14566  -1.14502  -1.14496  -1.14459
  Beta  occ. eigenvalues --   -1.14358  -1.14338  -1.14293  -1.13831  -1.13724
  Beta  occ. eigenvalues --   -1.13711  -1.13625  -1.13612  -1.13528  -1.13337
  Beta  occ. eigenvalues --   -1.13243  -1.13243  -1.13123  -1.13121  -1.13043
  Beta  occ. eigenvalues --   -0.14555  -0.13557  -0.12426
  Beta virt. eigenvalues --   -0.08227  -0.06129  -0.05190  -0.04109  -0.03258
  Beta virt. eigenvalues --   -0.02805  -0.02536  -0.01989  -0.01729  -0.01505
  Beta virt. eigenvalues --   -0.00934  -0.00592  -0.00318  -0.00073   0.00418

 Mulliken charges and spin densities:
               1          2
     1  Na  -0.423329  -0.020145
     2  Na   0.122117   0.272952
     3  Na   0.040049  -0.014413
     4  Na   0.474283   0.113930
     5  Na  -0.581398  -0.002041
     6  Na   0.330577   0.266430
     7  Na   0.037701   0.383288
 Sum of Mulliken charges =  -0.00000   1.00000

 Dipole moment (field-independent basis, Debye):
    X=             -3.0688    Y=             -0.0909    Z=              0.1223  Tot=              3.0726
 Quadrupole moment (field-independent basis, Debye-Ang):
   XX=            -51.5893   YY=            -68.8848   ZZ=            -70.1554
   XY=              4.8254   XZ=             -6.0716   YZ=             -3.6138

 Normal termination of Gaussian 16 at Sun Dec  3 18:25:14 2023.
