 Gaussian 16, Revision B.01,
 Gaussian 16:  ES64L-G16RevB.01 20-Dec-2017

 -------------------------
 #P B3LYP/6-311+g(d) force
 -------------------------

 -----
 DPGEN
 -----
 Symbolic Z-matrix:
 Charge =  0 Multiplicity = 2

                         Standard orientation:
 ---------------------------------------------------------------------
 Center     Atomic      Atomic             Coordinates (Angstroms)
 Number     Number       Type             X           Y           Z
 ---------------------------------------------------------------------
      1         11           0       -0.194352    0.023046    2.085322
      2         11           0       -1.009805    1.489151   -0.799220
      3         11           0        1.296256   -1.704992   -0.820802
      4         11           0       -1.838510   -1.711863   -0.897233
      5         11           0        2.001599    2.016120   -0.804690
      6         11           0        3.521400   -0.532386    0.725338
      7         11           0       -3.776588    0.420924    0.511284
 ---------------------------------------------------------------------

 SCF Done:  E(UB3LYP) =  -1136.11605846     A.U. after   31 cycles

 The electronic state is 2-A.
 Alpha  occ. eigenvalues --  -38.45675 -38.45266 -38.45237 -38.43287 -38.43004
 Alpha  occ. eigenvalues --  -38.42923 -38.42853  -2.21515  -2.21123  -2.21065
 Alpha  occ. eigenvalues --   -2.19215  -2.18884  -2.18858  -2.18825  -1.15185
 Alpha  occ. eigenvalues --   -1.15172  -1.15144  -1.14837  -1.14764  -1.14763
 Alpha  occ. eigenvalues --   -1.14747  -1.14702  -1.14665  -1.12937  -1.12865
 Alpha  occ. eigenvalues --   -1.12848  -1.12661  -1.12547  -1.12532  -1.12526
 Alpha  occ. eigenvalues --   -1.12513  -1.12499  -1.12474  -1.12468  -1.12409
 Alpha  occ. eigenvalues --   -0.18903  -0.14523  -0.11248  -0.11001
 Alpha virt. eigenvalues --   -0.07532  -0.04943  -0.04535  -0.03301  -0.03032
 Alpha virt. eigenvalues --   -0.02342  -0.02197  -0.01006  -0.00917  -0.00043
 Alpha virt. eigenvalues --    0.00044   0.00254   0.00287   0.00751   0.00803

  Beta  occ. eigenvalues --  -38.45662 -38.45259 -38.45165 -38.43253 -38.42985
  Beta  occ. eigenvalues --  -38.42900 -38.42830  -2.21491  -2.21111  -2.20932
  Beta  occ. eigenvalues --   -2.19158  -2.18852  -2.18822  -2.18787  -1.15166
  Beta  occ. eigenvalues --   -1.15160  -1.15118  -1.14834  -1.14749  -1.14734
  Beta  occ. eigenvalues --   -1.14670  -1.14613  -1.14563  -1.12887  -1.12828
  Beta  occ. eigenvalues --   -1.12794  -1.12635  -1.12512  -1.12508  -1.12495
  Beta  occ. eigenvalues --   -1.12485  -1.12476  -1.12439  -1.12413  -1.12385
  Beta  occ. eigenvalues --   -0.18193  -0.14374  -0.10875
  Beta virt. eigenvalues --   -0.07422  -0.07120  -0.04975  -0.03866  -0.03026
  Beta virt. eigenvalues --   -0.02779  -0.01743  -0.01379  -0.00955  -0.00580
  Beta virt. eigenvalues --   -0.00017   0.00086   0.00275   0.00460   0.00803

 Mulliken charges and spin densities:
               1          2
     1  Na  -0.754946   0.383240
     2  Na  -0.815053   0.294084
     3  Na  -0.988533   0.056352
     4  Na  -0.328433  -0.057878
     5  Na  -0.501075  -0.082103
     6  Na   1.458796   0.201232
     7  Na   1.929243   0.205072
 Sum of Mulliken charges =  -0.00000   1.00000

 Dipole moment (field-independent basis, Debye):
    X=             -0.6555    Y=              0.0685    Z=              0.9194  Tot=              1.1313
 Quadrupole moment (field-independent basis, Debye-Ang):
   XX=            -41.3663   YY=            -80.4813   ZZ=            -71.1975
   XY=             -0.2624   XZ=              0.3522   YZ=              0.3304

 Normal termination of Gaussian 16 at Fri Dec  8 07:33:01 2023.
