 Gaussian 16, Revision B.01,
 Gaussian 16:  ES64L-G16RevB.01 20-Dec-2017

 -------------------------
 #P B3LYP/6-311+g(d) force
 -------------------------

 -----
 DPGEN
 -----
 Symbolic Z-matrix:
 Charge =  0 Multiplicity = 2

                         Standard orientation:
 ---------------------------------------------------------------------
 Center     Atomic      Atomic             Coordinates (Angstroms)
 Number     Number       Type             X           Y           Z
 ---------------------------------------------------------------------
      1         11           0       -0.244970   -2.686434   -0.849592
      2         11           0        2.163419   -1.165332    1.108775
      3         11           0        3.934425    1.358112   -0.442803
      4         11           0       -1.471013   -0.734401    1.907972
      5         11           0       -2.332294    2.718582    0.463596
      6         11           0        0.679925    0.929905   -0.864893
      7         11           0       -2.729491   -0.420433   -1.323054
 ---------------------------------------------------------------------

 SCF Done:  E(UB3LYP) =  -1136.13167822     A.U. after   20 cycles

 The electronic state is 2-A.
 Alpha  occ. eigenvalues --  -38.44123 -38.44105 -38.44014 -38.43826 -38.43708
 Alpha  occ. eigenvalues --  -38.43615 -38.43026  -2.19972  -2.19931  -2.19872
 Alpha  occ. eigenvalues --   -2.19704  -2.19603  -2.19402  -2.18891  -1.13655
 Alpha  occ. eigenvalues --   -1.13644  -1.13604  -1.13587  -1.13578  -1.13575
 Alpha  occ. eigenvalues --   -1.13555  -1.13522  -1.13466  -1.13438  -1.13378
 Alpha  occ. eigenvalues --   -1.13307  -1.13288  -1.13267  -1.13200  -1.13071
 Alpha  occ. eigenvalues --   -1.13064  -1.13035  -1.12566  -1.12553  -1.12526
 Alpha  occ. eigenvalues --   -0.18134  -0.13614  -0.11814  -0.10802
 Alpha virt. eigenvalues --   -0.06247  -0.05317  -0.04511  -0.03238  -0.02760
 Alpha virt. eigenvalues --   -0.02423  -0.02036  -0.01196  -0.00686  -0.00260
 Alpha virt. eigenvalues --   -0.00008   0.00218   0.00377   0.00615   0.00789

  Beta  occ. eigenvalues --  -38.44121 -38.44059 -38.43947 -38.43803 -38.43691
  Beta  occ. eigenvalues --  -38.43607 -38.43008  -2.19927  -2.19889  -2.19750
  Beta  occ. eigenvalues --   -2.19664  -2.19573  -2.19389  -2.18862  -1.13598
  Beta  occ. eigenvalues --   -1.13596  -1.13585  -1.13583  -1.13576  -1.13505
  Beta  occ. eigenvalues --   -1.13467  -1.13438  -1.13414  -1.13374  -1.13345
  Beta  occ. eigenvalues --   -1.13272  -1.13251  -1.13244  -1.13182  -1.13063
  Beta  occ. eigenvalues --   -1.13045  -1.13029  -1.12548  -1.12532  -1.12481
  Beta  occ. eigenvalues --   -0.17470  -0.13415  -0.11582
  Beta virt. eigenvalues --   -0.06969  -0.06071  -0.05162  -0.04212  -0.02866
  Beta virt. eigenvalues --   -0.02205  -0.02095  -0.01437  -0.01036  -0.00510
  Beta virt. eigenvalues --   -0.00039   0.00085   0.00286   0.00483   0.00668

 Mulliken charges and spin densities:
               1          2
     1  Na   0.124883   0.130024
     2  Na   0.345148   0.004959
     3  Na   0.369761   0.003889
     4  Na  -0.351550   0.470682
     5  Na   0.368803  -0.074195
     6  Na  -1.518777   0.281391
     7  Na   0.661732   0.183249
 Sum of Mulliken charges =  -0.00000   1.00000

 Dipole moment (field-independent basis, Debye):
    X=              0.3703    Y=              0.0594    Z=              0.1579  Tot=              0.4069
 Quadrupole moment (field-independent basis, Debye-Ang):
   XX=            -54.3260   YY=            -67.2320   ZZ=            -71.2980
   XY=              0.3254   XZ=              0.3756   YZ=              0.4373

 Normal termination of Gaussian 16 at Tue Dec  5 14:47:22 2023.
