 Gaussian 16, Revision B.01,
 Gaussian 16:  ES64L-G16RevB.01 20-Dec-2017

 -------------------------
 #P B3LYP/6-311+g(d) force
 -------------------------

 -----
 DPGEN
 -----
 Symbolic Z-matrix:
 Charge =  0 Multiplicity = 2

                         Standard orientation:
 ---------------------------------------------------------------------
 Center     Atomic      Atomic             Coordinates (Angstroms)
 Number     Number       Type             X           Y           Z
 ---------------------------------------------------------------------
      1         11           0        0.632754   -0.873158    2.055544
      2         11           0        1.907126   -2.186591   -0.430209
      3         11           0        2.744929    1.352179   -0.614037
      4         11           0       -2.699541    1.079288   -0.564316
      5         11           0       -0.138093   -0.232520   -1.478307
      6         11           0       -2.325705   -1.813324    0.180093
      7         11           0       -0.121469    2.674126    0.851232
 ---------------------------------------------------------------------

 SCF Done:  E(UB3LYP) =  -1136.12868778     A.U. after   19 cycles

 The electronic state is 2-A.
 Alpha  occ. eigenvalues --  -38.44100 -38.43915 -38.43776 -38.43691 -38.43683
 Alpha  occ. eigenvalues --  -38.43248 -38.43154  -2.19926  -2.19808  -2.19677
 Alpha  occ. eigenvalues --   -2.19622  -2.19589  -2.19320  -2.18998  -1.13613
 Alpha  occ. eigenvalues --   -1.13580  -1.13576  -1.13560  -1.13472  -1.13450
 Alpha  occ. eigenvalues --   -1.13416  -1.13376  -1.13329  -1.13307  -1.13282
 Alpha  occ. eigenvalues --   -1.13251  -1.13219  -1.13202  -1.13179  -1.12973
 Alpha  occ. eigenvalues --   -1.12944  -1.12921  -1.12667  -1.12651  -1.12641
 Alpha  occ. eigenvalues --   -0.18928  -0.13411  -0.12306  -0.11130
 Alpha virt. eigenvalues --   -0.05588  -0.05105  -0.04315  -0.03500  -0.03113
 Alpha virt. eigenvalues --   -0.02682  -0.01459  -0.00994  -0.00210   0.00027
 Alpha virt. eigenvalues --    0.00151   0.00379   0.00812   0.00845   0.00867

  Beta  occ. eigenvalues --  -38.44088 -38.43910 -38.43689 -38.43684 -38.43673
  Beta  occ. eigenvalues --  -38.43192 -38.43136  -2.19907  -2.19803  -2.19611
  Beta  occ. eigenvalues --   -2.19575  -2.19515  -2.19220  -2.18967  -1.13592
  Beta  occ. eigenvalues --   -1.13570  -1.13563  -1.13543  -1.13466  -1.13425
  Beta  occ. eigenvalues --   -1.13369  -1.13336  -1.13286  -1.13233  -1.13215
  Beta  occ. eigenvalues --   -1.13211  -1.13182  -1.13163  -1.13127  -1.12900
  Beta  occ. eigenvalues --   -1.12879  -1.12850  -1.12645  -1.12626  -1.12613
  Beta  occ. eigenvalues --   -0.18225  -0.13120  -0.12091
  Beta virt. eigenvalues --   -0.07209  -0.05561  -0.05032  -0.04156  -0.02790
  Beta virt. eigenvalues --   -0.02407  -0.01632  -0.01364  -0.00975  -0.00075
  Beta virt. eigenvalues --    0.00032   0.00190   0.00427   0.00826   0.00923

 Mulliken charges and spin densities:
               1          2
     1  Na  -0.195658   0.620432
     2  Na   0.149915   0.018619
     3  Na   0.004360   0.066732
     4  Na   0.456036   0.106073
     5  Na   0.038704   0.066912
     6  Na  -0.157200   0.029198
     7  Na  -0.296158   0.092034
 Sum of Mulliken charges =  -0.00000   1.00000

 Dipole moment (field-independent basis, Debye):
    X=              0.2002    Y=             -0.1906    Z=              0.1825  Tot=              0.3313
 Quadrupole moment (field-independent basis, Debye-Ang):
   XX=            -57.6063   YY=            -65.5568   ZZ=            -71.6327
   XY=              0.3382   XZ=             -1.5465   YZ=              0.2621

 Normal termination of Gaussian 16 at Sun Dec  3 18:46:39 2023.
