 Gaussian 16, Revision B.01,
 Gaussian 16:  ES64L-G16RevB.01 20-Dec-2017

 -------------------------
 #P B3LYP/6-311+g(d) force
 -------------------------

 -----
 DPGEN
 -----
 Symbolic Z-matrix:
 Charge =  0 Multiplicity = 2

                         Standard orientation:
 ---------------------------------------------------------------------
 Center     Atomic      Atomic             Coordinates (Angstroms)
 Number     Number       Type             X           Y           Z
 ---------------------------------------------------------------------
      1         11           0        1.500499    2.258793   -0.021012
      2         11           0        3.141259   -0.656320   -0.100451
      3         11           0       -0.209340    0.049146    1.932759
      4         11           0        0.405630   -2.418186    0.256286
      5         11           0       -2.913136   -1.426586   -0.251648
      6         11           0       -1.972731    2.275213   -0.000729
      7         11           0        0.047820   -0.082060   -1.815205
 ---------------------------------------------------------------------

 SCF Done:  E(UB3LYP) =  -1136.13707153     A.U. after   19 cycles

 The electronic state is 2-A.
 Alpha  occ. eigenvalues --  -38.44015 -38.43893 -38.43532 -38.43529 -38.43472
 Alpha  occ. eigenvalues --  -38.43196 -38.42992  -2.19827  -2.19750  -2.19488
 Alpha  occ. eigenvalues --   -2.19443  -2.19370  -2.19094  -2.18951  -1.13500
 Alpha  occ. eigenvalues --   -1.13479  -1.13475  -1.13421  -1.13411  -1.13404
 Alpha  occ. eigenvalues --   -1.13204  -1.13151  -1.13132  -1.13103  -1.13095
 Alpha  occ. eigenvalues --   -1.13053  -1.13034  -1.13020  -1.13004  -1.12774
 Alpha  occ. eigenvalues --   -1.12764  -1.12708  -1.12645  -1.12618  -1.12539
 Alpha  occ. eigenvalues --   -0.19066  -0.13046  -0.12457  -0.10992
 Alpha virt. eigenvalues --   -0.05641  -0.05194  -0.04185  -0.03197  -0.02962
 Alpha virt. eigenvalues --   -0.02667  -0.01679  -0.01078  -0.00092  -0.00067
 Alpha virt. eigenvalues --    0.00045   0.00344   0.00773   0.00905   0.00953

  Beta  occ. eigenvalues --  -38.44011 -38.43892 -38.43529 -38.43438 -38.43396
  Beta  occ. eigenvalues --  -38.43189 -38.42977  -2.19823  -2.19750  -2.19368
  Beta  occ. eigenvalues --   -2.19322  -2.19303  -2.19085  -2.18929  -1.13482
  Beta  occ. eigenvalues --   -1.13476  -1.13473  -1.13425  -1.13412  -1.13382
  Beta  occ. eigenvalues --   -1.13100  -1.13068  -1.13044  -1.13031  -1.13008
  Beta  occ. eigenvalues --   -1.12996  -1.12991  -1.12963  -1.12938  -1.12766
  Beta  occ. eigenvalues --   -1.12728  -1.12704  -1.12629  -1.12558  -1.12530
  Beta  occ. eigenvalues --   -0.18300  -0.12815  -0.12183
  Beta virt. eigenvalues --   -0.07034  -0.05588  -0.05206  -0.04180  -0.02427
  Beta virt. eigenvalues --   -0.02122  -0.01605  -0.01569  -0.01035  -0.00145
  Beta virt. eigenvalues --   -0.00032   0.00104   0.00358   0.00829   0.00885

 Mulliken charges and spin densities:
               1          2
     1  Na   0.245049  -0.069383
     2  Na   0.114868  -0.059082
     3  Na  -0.439547   0.625930
     4  Na   0.505426   0.010583
     5  Na   0.071921  -0.097399
     6  Na   0.059156  -0.130700
     7  Na  -0.556873   0.720052
 Sum of Mulliken charges =  -0.00000   1.00000

 Dipole moment (field-independent basis, Debye):
    X=             -0.2219    Y=              0.0520    Z=             -0.0497  Tot=              0.2332
 Quadrupole moment (field-independent basis, Debye-Ang):
   XX=            -53.9432   YY=            -66.2795   ZZ=            -73.0309
   XY=             -0.0943   XZ=              0.5532   YZ=             -0.0021

 Normal termination of Gaussian 16 at Thu Dec  7 22:07:14 2023.
