 Gaussian 16, Revision B.01,
 Gaussian 16:  ES64L-G16RevB.01 20-Dec-2017

 -------------------------
 #P B3LYP/6-311+g(d) force
 -------------------------

 -----
 DPGEN
 -----
 Symbolic Z-matrix:
 Charge =  0 Multiplicity = 2

                         Standard orientation:
 ---------------------------------------------------------------------
 Center     Atomic      Atomic             Coordinates (Angstroms)
 Number     Number       Type             X           Y           Z
 ---------------------------------------------------------------------
      1         11           0        2.818868    0.235118   -0.146631
      2         11           0        0.042508   -0.187397    1.911833
      3         11           0       -2.548955    1.301411    0.040227
      4         11           0       -0.038037    0.123616   -1.569427
      5         11           0        1.455301   -2.495033   -0.053144
      6         11           0       -2.325156   -1.948015   -0.192128
      7         11           0        0.595470    2.970299    0.009271
 ---------------------------------------------------------------------

 SCF Done:  E(UB3LYP) =  -1136.13831740     A.U. after   19 cycles

 The electronic state is 2-A.
 Alpha  occ. eigenvalues --  -38.43665 -38.43601 -38.43597 -38.43450 -38.43340
 Alpha  occ. eigenvalues --  -38.43248 -38.42913  -2.19560  -2.19526  -2.19462
 Alpha  occ. eigenvalues --   -2.19358  -2.19201  -2.19194  -2.18967  -1.13279
 Alpha  occ. eigenvalues --   -1.13274  -1.13228  -1.13206  -1.13193  -1.13174
 Alpha  occ. eigenvalues --   -1.13134  -1.13113  -1.13086  -1.13026  -1.13014
 Alpha  occ. eigenvalues --   -1.12969  -1.12886  -1.12873  -1.12852  -1.12835
 Alpha  occ. eigenvalues --   -1.12818  -1.12807  -1.12643  -1.12604  -1.12573
 Alpha  occ. eigenvalues --   -0.19251  -0.13271  -0.12635  -0.10715
 Alpha virt. eigenvalues --   -0.05212  -0.05140  -0.04868  -0.03189  -0.02805
 Alpha virt. eigenvalues --   -0.02362  -0.01295  -0.01193  -0.00205  -0.00155
 Alpha virt. eigenvalues --    0.00024   0.00370   0.00881   0.00899   0.00934

  Beta  occ. eigenvalues --  -38.43659 -38.43596 -38.43588 -38.43444 -38.43338
  Beta  occ. eigenvalues --  -38.43157 -38.42846  -2.19553  -2.19515  -2.19456
  Beta  occ. eigenvalues --   -2.19350  -2.19193  -2.19032  -2.18846  -1.13273
  Beta  occ. eigenvalues --   -1.13269  -1.13211  -1.13190  -1.13181  -1.13140
  Beta  occ. eigenvalues --   -1.13122  -1.13093  -1.13086  -1.13019  -1.12975
  Beta  occ. eigenvalues --   -1.12968  -1.12874  -1.12839  -1.12831  -1.12766
  Beta  occ. eigenvalues --   -1.12698  -1.12690  -1.12559  -1.12515  -1.12486
  Beta  occ. eigenvalues --   -0.18507  -0.12992  -0.12388
  Beta virt. eigenvalues --   -0.06764  -0.05205  -0.05130  -0.04853  -0.02332
  Beta virt. eigenvalues --   -0.02038  -0.01298  -0.01218  -0.01123  -0.00264
  Beta virt. eigenvalues --   -0.00206   0.00155   0.00390   0.00905   0.00924

 Mulliken charges and spin densities:
               1          2
     1  Na   0.282405  -0.013913
     2  Na  -0.542225   0.751610
     3  Na   0.185686  -0.043311
     4  Na  -0.481062   0.483857
     5  Na   0.278291  -0.042985
     6  Na   0.156145  -0.070509
     7  Na   0.120759  -0.064748
 Sum of Mulliken charges =  -0.00000   1.00000

 Dipole moment (field-independent basis, Debye):
    X=             -0.1331    Y=             -0.0260    Z=              0.1545  Tot=              0.2055
 Quadrupole moment (field-independent basis, Debye-Ang):
   XX=            -58.7174   YY=            -59.6640   ZZ=            -74.7541
   XY=              0.4222   XZ=             -0.1799   YZ=              0.7985

 Normal termination of Gaussian 16 at Thu Dec  7 11:13:38 2023.
