 Gaussian 16, Revision B.01,
 Gaussian 16:  ES64L-G16RevB.01 20-Dec-2017

 -------------------------
 #P B3LYP/6-311+g(d) force
 -------------------------

 -----
 DPGEN
 -----
 Symbolic Z-matrix:
 Charge =  0 Multiplicity = 2

                         Standard orientation:
 ---------------------------------------------------------------------
 Center     Atomic      Atomic             Coordinates (Angstroms)
 Number     Number       Type             X           Y           Z
 ---------------------------------------------------------------------
      1         11           0       -2.989907   -0.260910    0.126501
      2         11           0        0.011237   -0.100280    1.852250
      3         11           0       -1.009018   -2.637045   -0.354285
      4         11           0       -1.463268    2.691067   -0.061159
      5         11           0        0.466132   -0.222886   -1.825538
      6         11           0        2.298157    2.116367   -0.146337
      7         11           0        2.686667   -1.586314    0.408568
 ---------------------------------------------------------------------

 SCF Done:  E(UB3LYP) =  -1136.13778846     A.U. after   19 cycles

 The electronic state is 2-A.
 Alpha  occ. eigenvalues --  -38.44003 -38.43979 -38.43649 -38.43523 -38.43455
 Alpha  occ. eigenvalues --  -38.43379 -38.43310  -2.19837  -2.19789  -2.19530
 Alpha  occ. eigenvalues --   -2.19383  -2.19338  -2.19318  -2.19212  -1.13520
 Alpha  occ. eigenvalues --   -1.13503  -1.13476  -1.13469  -1.13449  -1.13415
 Alpha  occ. eigenvalues --   -1.13232  -1.13202  -1.13189  -1.13066  -1.13024
 Alpha  occ. eigenvalues --   -1.13018  -1.13010  -1.13006  -1.12989  -1.12974
 Alpha  occ. eigenvalues --   -1.12964  -1.12937  -1.12861  -1.12854  -1.12827
 Alpha  occ. eigenvalues --   -0.18687  -0.13105  -0.12428  -0.10795
 Alpha virt. eigenvalues --   -0.05593  -0.05317  -0.04623  -0.03265  -0.02886
 Alpha virt. eigenvalues --   -0.02544  -0.01459  -0.01213  -0.00366  -0.00297
 Alpha virt. eigenvalues --   -0.00000   0.00364   0.00811   0.00846   0.00916

  Beta  occ. eigenvalues --  -38.43990 -38.43974 -38.43646 -38.43523 -38.43375
  Beta  occ. eigenvalues --  -38.43303 -38.43298  -2.19817  -2.19783  -2.19528
  Beta  occ. eigenvalues --   -2.19341  -2.19237  -2.19194  -2.19178  -1.13500
  Beta  occ. eigenvalues --   -1.13471  -1.13463  -1.13453  -1.13440  -1.13412
  Beta  occ. eigenvalues --   -1.13233  -1.13201  -1.13163  -1.13007  -1.13000
  Beta  occ. eigenvalues --   -1.12977  -1.12973  -1.12941  -1.12911  -1.12891
  Beta  occ. eigenvalues --   -1.12871  -1.12847  -1.12837  -1.12811  -1.12790
  Beta  occ. eigenvalues --   -0.17962  -0.12862  -0.12183
  Beta virt. eigenvalues --   -0.06892  -0.05594  -0.05244  -0.04581  -0.02483
  Beta virt. eigenvalues --   -0.02142  -0.01507  -0.01352  -0.01132  -0.00410
  Beta virt. eigenvalues --   -0.00340   0.00127   0.00397   0.00846   0.00879

 Mulliken charges and spin densities:
               1          2
     1  Na   0.022650  -0.044521
     2  Na  -0.228713   0.678090
     3  Na   0.371742   0.009534
     4  Na  -0.075152  -0.100528
     5  Na  -0.194464   0.636530
     6  Na  -0.027991  -0.112843
     7  Na   0.131928  -0.066262
 Sum of Mulliken charges =  -0.00000   1.00000

 Dipole moment (field-independent basis, Debye):
    X=              0.4159    Y=              0.0607    Z=              0.0589  Tot=              0.4244
 Quadrupole moment (field-independent basis, Debye-Ang):
   XX=            -57.3557   YY=            -62.3046   ZZ=            -74.1971
   XY=             -0.0894   XZ=              0.8040   YZ=             -0.3893

 Normal termination of Gaussian 16 at Thu Dec  7 05:58:01 2023.
