 Gaussian 16, Revision B.01,
 Gaussian 16:  ES64L-G16RevB.01 20-Dec-2017

 -------------------------
 #P B3LYP/6-311+g(d) force
 -------------------------

 -----
 DPGEN
 -----
 Symbolic Z-matrix:
 Charge =  0 Multiplicity = 2

                         Standard orientation:
 ---------------------------------------------------------------------
 Center     Atomic      Atomic             Coordinates (Angstroms)
 Number     Number       Type             X           Y           Z
 ---------------------------------------------------------------------
      1         11           0        2.798011   -1.464942   -0.226540
      2         11           0       -0.243458   -2.830783   -0.210821
      3         11           0       -0.388794   -0.248469    2.167302
      4         11           0       -3.178928   -0.536367   -0.136003
      5         11           0        2.168574    2.072649    0.212557
      6         11           0       -0.980355    2.930674   -0.267791
      7         11           0       -0.175049    0.077236   -1.538705
 ---------------------------------------------------------------------

 SCF Done:  E(UB3LYP) =  -1136.13762599     A.U. after   19 cycles

 The electronic state is 2-A.
 Alpha  occ. eigenvalues --  -38.43929 -38.43792 -38.43717 -38.43650 -38.43645
 Alpha  occ. eigenvalues --  -38.43546 -38.43075  -2.19744  -2.19634  -2.19579
 Alpha  occ. eigenvalues --   -2.19527  -2.19486  -2.19371  -2.19072  -1.13423
 Alpha  occ. eigenvalues --   -1.13406  -1.13384  -1.13339  -1.13298  -1.13268
 Alpha  occ. eigenvalues --   -1.13256  -1.13233  -1.13217  -1.13193  -1.13180
 Alpha  occ. eigenvalues --   -1.13156  -1.13150  -1.13147  -1.13119  -1.13039
 Alpha  occ. eigenvalues --   -1.13021  -1.13013  -1.12752  -1.12717  -1.12686
 Alpha  occ. eigenvalues --   -0.18518  -0.12891  -0.12578  -0.10714
 Alpha virt. eigenvalues --   -0.05551  -0.05078  -0.05005  -0.03099  -0.02892
 Alpha virt. eigenvalues --   -0.02621  -0.01445  -0.01253  -0.00440  -0.00366
 Alpha virt. eigenvalues --   -0.00021   0.00347   0.00826   0.00854   0.00879

  Beta  occ. eigenvalues --  -38.43926 -38.43787 -38.43647 -38.43636 -38.43614
  Beta  occ. eigenvalues --  -38.43544 -38.43018  -2.19741  -2.19627  -2.19514
  Beta  occ. eigenvalues --   -2.19482  -2.19389  -2.19371  -2.18969  -1.13414
  Beta  occ. eigenvalues --   -1.13392  -1.13381  -1.13331  -1.13281  -1.13264
  Beta  occ. eigenvalues --   -1.13234  -1.13170  -1.13154  -1.13147  -1.13131
  Beta  occ. eigenvalues --   -1.13119  -1.13103  -1.13071  -1.13055  -1.13029
  Beta  occ. eigenvalues --   -1.13018  -1.13010  -1.12680  -1.12640  -1.12612
  Beta  occ. eigenvalues --   -0.17804  -0.12668  -0.12364
  Beta virt. eigenvalues --   -0.06770  -0.05550  -0.05054  -0.04920  -0.02319
  Beta virt. eigenvalues --   -0.02167  -0.01528  -0.01374  -0.01178  -0.00475
  Beta virt. eigenvalues --   -0.00415   0.00139   0.00380   0.00837   0.00867

 Mulliken charges and spin densities:
               1          2
     1  Na   0.000161  -0.006210
     2  Na   0.367911   0.022660
     3  Na  -0.601834   0.774441
     4  Na   0.230591  -0.072019
     5  Na   0.059084   0.037896
     6  Na   0.199996  -0.050127
     7  Na  -0.255909   0.293359
 Sum of Mulliken charges =  -0.00000   1.00000

 Dipole moment (field-independent basis, Debye):
    X=             -0.2609    Y=              0.0705    Z=              0.1610  Tot=              0.3145
 Quadrupole moment (field-independent basis, Debye-Ang):
   XX=            -57.9188   YY=            -60.7627   ZZ=            -74.8391
   XY=             -0.1664   XZ=              0.6452   YZ=              0.6769

 Normal termination of Gaussian 16 at Thu Dec  7 01:41:13 2023.
