 Gaussian 16, Revision B.01,
 Gaussian 16:  ES64L-G16RevB.01 20-Dec-2017

 -------------------------
 #P B3LYP/6-311+g(d) force
 -------------------------

 -----
 DPGEN
 -----
 Symbolic Z-matrix:
 Charge =  0 Multiplicity = 2

                         Standard orientation:
 ---------------------------------------------------------------------
 Center     Atomic      Atomic             Coordinates (Angstroms)
 Number     Number       Type             X           Y           Z
 ---------------------------------------------------------------------
      1         11           0       -2.689168   -1.718806   -0.106266
      2         11           0       -2.738077    1.683778    0.128625
      3         11           0        3.216706    0.106382   -0.099530
      4         11           0        1.048595    2.840561   -0.332422
      5         11           0       -0.361487   -0.025236   -1.376099
      6         11           0        0.306700   -0.187408    2.126296
      7         11           0        1.216731   -2.699269   -0.340604
 ---------------------------------------------------------------------

 SCF Done:  E(UB3LYP) =  -1136.13524634     A.U. after   19 cycles

 The electronic state is 2-A.
 Alpha  occ. eigenvalues --  -38.44316 -38.44195 -38.44130 -38.43508 -38.43366
 Alpha  occ. eigenvalues --  -38.43314 -38.42932  -2.20140  -2.20016  -2.19969
 Alpha  occ. eigenvalues --   -2.19373  -2.19213  -2.19135  -2.18951  -1.13812
 Alpha  occ. eigenvalues --   -1.13797  -1.13786  -1.13714  -1.13683  -1.13667
 Alpha  occ. eigenvalues --   -1.13655  -1.13617  -1.13582  -1.13042  -1.12995
 Alpha  occ. eigenvalues --   -1.12989  -1.12915  -1.12867  -1.12843  -1.12831
 Alpha  occ. eigenvalues --   -1.12792  -1.12769  -1.12640  -1.12583  -1.12579
 Alpha  occ. eigenvalues --   -0.18453  -0.13307  -0.12182  -0.10415
 Alpha virt. eigenvalues --   -0.05889  -0.05533  -0.04569  -0.03207  -0.02564
 Alpha virt. eigenvalues --   -0.02364  -0.01748  -0.01264  -0.00598  -0.00495
 Alpha virt. eigenvalues --   -0.00009   0.00330   0.00731   0.00817   0.00857

  Beta  occ. eigenvalues --  -38.44313 -38.44193 -38.44127 -38.43404 -38.43357
  Beta  occ. eigenvalues --  -38.43308 -38.42884  -2.20137  -2.20015  -2.19966
  Beta  occ. eigenvalues --   -2.19201  -2.19181  -2.19127  -2.18866  -1.13797
  Beta  occ. eigenvalues --   -1.13792  -1.13782  -1.13712  -1.13671  -1.13659
  Beta  occ. eigenvalues --   -1.13650  -1.13602  -1.13583  -1.12921  -1.12897
  Beta  occ. eigenvalues --   -1.12864  -1.12854  -1.12839  -1.12830  -1.12819
  Beta  occ. eigenvalues --   -1.12775  -1.12765  -1.12571  -1.12522  -1.12517
  Beta  occ. eigenvalues --   -0.17758  -0.13112  -0.11947
  Beta virt. eigenvalues --   -0.06498  -0.05817  -0.05535  -0.04529  -0.02445
  Beta virt. eigenvalues --   -0.01871  -0.01654  -0.01276  -0.01198  -0.00645
  Beta virt. eigenvalues --   -0.00525   0.00162   0.00375   0.00798   0.00818

 Mulliken charges and spin densities:
               1          2
     1  Na   0.291861  -0.017069
     2  Na   0.122723   0.025539
     3  Na   0.232219   0.030157
     4  Na   0.076480  -0.016060
     5  Na  -0.372023   0.219652
     6  Na  -0.552874   0.773843
     7  Na   0.201614  -0.016062
 Sum of Mulliken charges =  -0.00000   1.00000

 Dipole moment (field-independent basis, Debye):
    X=             -0.2145    Y=             -0.0440    Z=              0.1903  Tot=              0.2901
 Quadrupole moment (field-independent basis, Debye-Ang):
   XX=            -52.9972   YY=            -62.6879   ZZ=            -76.4952
   XY=             -0.2396   XZ=             -1.3326   YZ=              0.5226

 Normal termination of Gaussian 16 at Thu Dec  7 21:41:17 2023.
