 Gaussian 16, Revision B.01,
 Gaussian 16:  ES64L-G16RevB.01 20-Dec-2017

 -------------------------
 #P B3LYP/6-311+g(d) force
 -------------------------

 -----
 DPGEN
 -----
 Symbolic Z-matrix:
 Charge =  0 Multiplicity = 2

                         Standard orientation:
 ---------------------------------------------------------------------
 Center     Atomic      Atomic             Coordinates (Angstroms)
 Number     Number       Type             X           Y           Z
 ---------------------------------------------------------------------
      1         11           0        3.076393    1.202129   -0.406577
      2         11           0        0.269052   -0.447976    2.168244
      3         11           0       -2.972462    1.021059    0.140568
      4         11           0       -0.023465   -0.220609   -1.585469
      5         11           0       -2.098513   -2.024360   -0.449392
      6         11           0       -0.176256    2.712508    0.071540
      7         11           0        1.925250   -2.242752    0.061086
 ---------------------------------------------------------------------

 SCF Done:  E(UB3LYP) =  -1136.13356657     A.U. after   19 cycles

 The electronic state is 2-A.
 Alpha  occ. eigenvalues --  -38.44243 -38.43924 -38.43896 -38.43669 -38.43643
 Alpha  occ. eigenvalues --  -38.43341 -38.42986  -2.20043  -2.19785  -2.19771
 Alpha  occ. eigenvalues --   -2.19535  -2.19531  -2.19351  -2.18846  -1.13717
 Alpha  occ. eigenvalues --   -1.13691  -1.13686  -1.13468  -1.13453  -1.13446
 Alpha  occ. eigenvalues --   -1.13440  -1.13405  -1.13388  -1.13320  -1.13227
 Alpha  occ. eigenvalues --   -1.13201  -1.13173  -1.13148  -1.13136  -1.13016
 Alpha  occ. eigenvalues --   -1.12972  -1.12948  -1.12535  -1.12510  -1.12476
 Alpha  occ. eigenvalues --   -0.18704  -0.13273  -0.12254  -0.10961
 Alpha virt. eigenvalues --   -0.05783  -0.05370  -0.04223  -0.03378  -0.02831
 Alpha virt. eigenvalues --   -0.02722  -0.01702  -0.01129  -0.00314  -0.00127
 Alpha virt. eigenvalues --   -0.00040   0.00324   0.00748   0.00857   0.00926

  Beta  occ. eigenvalues --  -38.44234 -38.43923 -38.43794 -38.43662 -38.43630
  Beta  occ. eigenvalues --  -38.43283 -38.42983  -2.20029  -2.19784  -2.19584
  Beta  occ. eigenvalues --   -2.19525  -2.19513  -2.19246  -2.18842  -1.13693
  Beta  occ. eigenvalues --   -1.13684  -1.13679  -1.13470  -1.13455  -1.13419
  Beta  occ. eigenvalues --   -1.13335  -1.13288  -1.13273  -1.13260  -1.13211
  Beta  occ. eigenvalues --   -1.13156  -1.13150  -1.13143  -1.13121  -1.12943
  Beta  occ. eigenvalues --   -1.12905  -1.12873  -1.12533  -1.12492  -1.12470
  Beta  occ. eigenvalues --   -0.18000  -0.13029  -0.11997
  Beta virt. eigenvalues --   -0.07042  -0.05729  -0.05316  -0.04188  -0.02598
  Beta virt. eigenvalues --   -0.02085  -0.01662  -0.01594  -0.01067  -0.00348
  Beta virt. eigenvalues --   -0.00155   0.00113   0.00365   0.00828   0.00855

 Mulliken charges and spin densities:
               1          2
     1  Na   0.068236  -0.013222
     2  Na  -0.599696   0.665536
     3  Na  -0.021776   0.021772
     4  Na  -0.452974   0.261395
     5  Na   0.617053   0.054036
     6  Na   0.050351   0.029462
     7  Na   0.338807  -0.018979
 Sum of Mulliken charges =  -0.00000   1.00000

 Dipole moment (field-independent basis, Debye):
    X=              0.2404    Y=             -0.1362    Z=              0.2113  Tot=              0.3478
 Quadrupole moment (field-independent basis, Debye-Ang):
   XX=            -54.5726   YY=            -66.2092   ZZ=            -73.4181
   XY=              0.1310   XZ=             -1.1529   YZ=              0.5131

 Normal termination of Gaussian 16 at Thu Dec  7 14:24:54 2023.
