 Gaussian 16, Revision B.01,
 Gaussian 16:  ES64L-G16RevB.01 20-Dec-2017

 -------------------------
 #P B3LYP/6-311+g(d) force
 -------------------------

 -----
 DPGEN
 -----
 Symbolic Z-matrix:
 Charge =  0 Multiplicity = 2

                         Standard orientation:
 ---------------------------------------------------------------------
 Center     Atomic      Atomic             Coordinates (Angstroms)
 Number     Number       Type             X           Y           Z
 ---------------------------------------------------------------------
      1         11           0       -0.323466    1.621749    1.348275
      2         11           0        2.008627    3.294110   -0.761240
      3         11           0        3.500847    0.352714    0.191134
      4         11           0        0.244651   -1.204420   -0.760803
      5         11           0       -3.067202   -1.540511    0.240302
      6         11           0        3.598109   -2.803663    0.071459
      7         11           0       -5.961566    0.280021   -0.329126
 ---------------------------------------------------------------------

 SCF Done:  E(UB3LYP) =  -1136.11996322     A.U. after   20 cycles

 The electronic state is 2-A.
 Alpha  occ. eigenvalues --  -38.45219 -38.44577 -38.44283 -38.43921 -38.43862
 Alpha  occ. eigenvalues --  -38.43730 -38.43349  -2.20990  -2.20374  -2.20115
 Alpha  occ. eigenvalues --   -2.19726  -2.19722  -2.19515  -2.19162  -1.14683
 Alpha  occ. eigenvalues --   -1.14668  -1.14584  -1.14008  -1.14006  -1.13985
 Alpha  occ. eigenvalues --   -1.13804  -1.13790  -1.13709  -1.13431  -1.13401
 Alpha  occ. eigenvalues --   -1.13396  -1.13385  -1.13353  -1.13322  -1.13207
 Alpha  occ. eigenvalues --   -1.13186  -1.13167  -1.12831  -1.12819  -1.12791
 Alpha  occ. eigenvalues --   -0.16728  -0.13806  -0.12087  -0.11158
 Alpha virt. eigenvalues --   -0.06393  -0.05195  -0.04969  -0.03511  -0.02704
 Alpha virt. eigenvalues --   -0.02466  -0.02101  -0.01356  -0.01186  -0.00963
 Alpha virt. eigenvalues --   -0.00509  -0.00353   0.00397   0.00489   0.00552

  Beta  occ. eigenvalues --  -38.45205 -38.44463 -38.44237 -38.43905 -38.43836
  Beta  occ. eigenvalues --  -38.43737 -38.43343  -2.20966  -2.20161  -2.20032
  Beta  occ. eigenvalues --   -2.19692  -2.19680  -2.19536  -2.19152  -1.14668
  Beta  occ. eigenvalues --   -1.14648  -1.14565  -1.13863  -1.13861  -1.13846
  Beta  occ. eigenvalues --   -1.13746  -1.13735  -1.13643  -1.13399  -1.13371
  Beta  occ. eigenvalues --   -1.13367  -1.13363  -1.13332  -1.13292  -1.13228
  Beta  occ. eigenvalues --   -1.13205  -1.13127  -1.12819  -1.12809  -1.12787
  Beta  occ. eigenvalues --   -0.16247  -0.12903  -0.11988
  Beta virt. eigenvalues --   -0.07659  -0.06073  -0.04897  -0.04692  -0.03215
  Beta virt. eigenvalues --   -0.02490  -0.02056  -0.01930  -0.01175  -0.00869
  Beta virt. eigenvalues --   -0.00534  -0.00263  -0.00108   0.00461   0.00578

 Mulliken charges and spin densities:
               1          2
     1  Na   0.139697   0.006869
     2  Na   0.132777   0.063690
     3  Na  -0.164334   0.238015
     4  Na  -0.649056   0.055079
     5  Na  -0.149973   0.085096
     6  Na   0.518132   0.032487
     7  Na   0.172758   0.518764
 Sum of Mulliken charges =  -0.00000   1.00000

 Dipole moment (field-independent basis, Debye):
    X=              0.2021    Y=              0.7958    Z=              0.1910  Tot=              0.8430
 Quadrupole moment (field-independent basis, Debye-Ang):
   XX=            -70.2975   YY=            -64.5175   ZZ=            -67.2400
   XY=             -2.7875   XZ=             -0.6007   YZ=             -1.3611

 Normal termination of Gaussian 16 at Wed Nov 29 02:23:18 2023.
