 Gaussian 16, Revision B.01,
 Gaussian 16:  ES64L-G16RevB.01 20-Dec-2017

 -------------------------
 #P B3LYP/6-311+g(d) force
 -------------------------

 -----
 DPGEN
 -----
 Symbolic Z-matrix:
 Charge =  0 Multiplicity = 2

                         Standard orientation:
 ---------------------------------------------------------------------
 Center     Atomic      Atomic             Coordinates (Angstroms)
 Number     Number       Type             X           Y           Z
 ---------------------------------------------------------------------
      1         11           0        0.979343    0.274578    0.893890
      2         11           0        3.061884    1.738819   -0.524869
      3         11           0       -2.140450   -0.329380    2.088931
      4         11           0       -1.371509    2.374024   -0.277485
      5         11           0        3.375623   -1.565221   -0.120656
      6         11           0       -0.490758   -2.144512   -0.616698
      7         11           0       -3.414133   -0.348307   -1.443114
 ---------------------------------------------------------------------

 SCF Done:  E(UB3LYP) =  -1136.12002824     A.U. after   23 cycles

 The electronic state is 2-A.
 Alpha  occ. eigenvalues --  -38.44633 -38.44434 -38.44342 -38.44287 -38.43507
 Alpha  occ. eigenvalues --  -38.43352 -38.43095  -2.20485  -2.20268  -2.20199
 Alpha  occ. eigenvalues --   -2.20121  -2.19319  -2.19187  -2.19162  -1.14163
 Alpha  occ. eigenvalues --   -1.14109  -1.14107  -1.13980  -1.13948  -1.13922
 Alpha  occ. eigenvalues --   -1.13897  -1.13845  -1.13787  -1.13783  -1.13751
 Alpha  occ. eigenvalues --   -1.13739  -1.13021  -1.12990  -1.12953  -1.12942
 Alpha  occ. eigenvalues --   -1.12861  -1.12842  -1.12814  -1.12792  -1.12749
 Alpha  occ. eigenvalues --   -0.18132  -0.14417  -0.11190  -0.10967
 Alpha virt. eigenvalues --   -0.06502  -0.05836  -0.04285  -0.03244  -0.02514
 Alpha virt. eigenvalues --   -0.02325  -0.02136  -0.01198  -0.01057  -0.00428
 Alpha virt. eigenvalues --    0.00020   0.00194   0.00455   0.00617   0.00684

  Beta  occ. eigenvalues --  -38.44567 -38.44435 -38.44338 -38.44205 -38.43498
  Beta  occ. eigenvalues --  -38.43344 -38.43065  -2.20368  -2.20270  -2.20190
  Beta  occ. eigenvalues --   -2.19967  -2.19305  -2.19177  -2.19110  -1.14062
  Beta  occ. eigenvalues --   -1.14031  -1.14026  -1.13979  -1.13945  -1.13920
  Beta  occ. eigenvalues --   -1.13897  -1.13839  -1.13781  -1.13674  -1.13642
  Beta  occ. eigenvalues --   -1.13638  -1.13014  -1.12959  -1.12939  -1.12932
  Beta  occ. eigenvalues --   -1.12835  -1.12807  -1.12786  -1.12755  -1.12719
  Beta  occ. eigenvalues --   -0.17547  -0.14000  -0.11082
  Beta virt. eigenvalues --   -0.07052  -0.06269  -0.05690  -0.03836  -0.03170
  Beta virt. eigenvalues --   -0.02276  -0.01724  -0.01351  -0.01156  -0.00660
  Beta virt. eigenvalues --   -0.00188   0.00082   0.00260   0.00592   0.00695

 Mulliken charges and spin densities:
               1          2
     1  Na  -0.774579   0.429513
     2  Na   0.513609  -0.077781
     3  Na   0.520898   0.087608
     4  Na  -0.397536   0.087619
     5  Na   0.445743  -0.030877
     6  Na  -0.496466   0.047157
     7  Na   0.188330   0.456761
 Sum of Mulliken charges =  -0.00000   1.00000

 Dipole moment (field-independent basis, Debye):
    X=              0.4162    Y=             -0.2110    Z=              0.1911  Tot=              0.5043
 Quadrupole moment (field-independent basis, Debye-Ang):
   XX=            -50.7726   YY=            -73.2368   ZZ=            -69.4797
   XY=             -0.9747   XZ=             -4.8660   YZ=             -1.8383

 Normal termination of Gaussian 16 at Thu Dec  7 08:09:10 2023.
