 Gaussian 16, Revision B.01,
 Gaussian 16:  ES64L-G16RevB.01 20-Dec-2017

 -------------------------
 #P B3LYP/6-311+g(d) force
 -------------------------

 -----
 DPGEN
 -----
 Symbolic Z-matrix:
 Charge =  0 Multiplicity = 2

                         Standard orientation:
 ---------------------------------------------------------------------
 Center     Atomic      Atomic             Coordinates (Angstroms)
 Number     Number       Type             X           Y           Z
 ---------------------------------------------------------------------
      1         11           0        4.144389    0.068336    0.495374
      2         11           0       -1.256164   -0.486829   -1.827277
      3         11           0        0.649976   -0.009414    2.225977
      4         11           0       -3.264201   -1.683086    0.726607
      5         11           0        1.138045    1.812887   -0.957835
      6         11           0       -3.019207    1.929118    0.274094
      7         11           0        1.607163   -1.631011   -0.936940
 ---------------------------------------------------------------------

 SCF Done:  E(UB3LYP) =  -1136.11407850     A.U. after   27 cycles

 The electronic state is 2-A.
 Alpha  occ. eigenvalues --  -38.45168 -38.45020 -38.44934 -38.44550 -38.44074
 Alpha  occ. eigenvalues --  -38.43585 -38.42115  -2.20953  -2.20789  -2.20682
 Alpha  occ. eigenvalues --   -2.20339  -2.19934  -2.19487  -2.18020  -1.14642
 Alpha  occ. eigenvalues --   -1.14615  -1.14572  -1.14458  -1.14440  -1.14420
 Alpha  occ. eigenvalues --   -1.14385  -1.14379  -1.14270  -1.14001  -1.13993
 Alpha  occ. eigenvalues --   -1.13962  -1.13628  -1.13563  -1.13553  -1.13188
 Alpha  occ. eigenvalues --   -1.13128  -1.13102  -1.11723  -1.11693  -1.11641
 Alpha  occ. eigenvalues --   -0.17863  -0.14034  -0.11157  -0.10486
 Alpha virt. eigenvalues --   -0.07230  -0.05981  -0.04444  -0.03106  -0.02829
 Alpha virt. eigenvalues --   -0.02553  -0.02419  -0.01387  -0.00944  -0.00477
 Alpha virt. eigenvalues --    0.00010   0.00065   0.00271   0.00456   0.00501

  Beta  occ. eigenvalues --  -38.45170 -38.44987 -38.44928 -38.44509 -38.44022
  Beta  occ. eigenvalues --  -38.43555 -38.42102  -2.20958  -2.20729  -2.20673
  Beta  occ. eigenvalues --   -2.20262  -2.19837  -2.19431  -2.18002  -1.14638
  Beta  occ. eigenvalues --   -1.14620  -1.14575  -1.14418  -1.14396  -1.14378
  Beta  occ. eigenvalues --   -1.14369  -1.14357  -1.14267  -1.13948  -1.13936
  Beta  occ. eigenvalues --   -1.13911  -1.13563  -1.13489  -1.13484  -1.13150
  Beta  occ. eigenvalues --   -1.13086  -1.13062  -1.11711  -1.11646  -1.11631
  Beta  occ. eigenvalues --   -0.17245  -0.13762  -0.10343
  Beta virt. eigenvalues --   -0.07519  -0.07119  -0.05136  -0.04360  -0.02813
  Beta virt. eigenvalues --   -0.02710  -0.01960  -0.01841  -0.00906  -0.00832
  Beta virt. eigenvalues --   -0.00316   0.00059   0.00193   0.00268   0.00576

 Mulliken charges and spin densities:
               1          2
     1  Na   0.367688  -0.055946
     2  Na   0.480820   0.362486
     3  Na  -0.408012   0.016781
     4  Na  -0.055070   0.045079
     5  Na  -0.369873   0.397386
     6  Na  -0.029606   0.173050
     7  Na   0.014053   0.061164
 Sum of Mulliken charges =  -0.00000   1.00000

 Dipole moment (field-independent basis, Debye):
    X=              0.7374    Y=              0.3519    Z=              0.0558  Tot=              0.8190
 Quadrupole moment (field-independent basis, Debye-Ang):
   XX=            -49.7851   YY=            -64.8479   ZZ=            -81.1135
   XY=             -0.1301   XZ=             -1.5755   YZ=             -2.0879

 Normal termination of Gaussian 16 at Thu Dec  7 11:13:18 2023.
