 Gaussian 16, Revision B.01,
 Gaussian 16:  ES64L-G16RevB.01 20-Dec-2017

 -------------------------
 #P B3LYP/6-311+g(d) force
 -------------------------

 -----
 DPGEN
 -----
 Symbolic Z-matrix:
 Charge =  0 Multiplicity = 2

                         Standard orientation:
 ---------------------------------------------------------------------
 Center     Atomic      Atomic             Coordinates (Angstroms)
 Number     Number       Type             X           Y           Z
 ---------------------------------------------------------------------
      1         11           0        1.914554   -2.425433   -0.277845
      2         11           0       -1.010586   -1.891833    1.576090
      3         11           0       -2.268643   -1.565591   -1.095814
      4         11           0       -3.938238    1.234769   -0.853415
      5         11           0       -1.065153    2.042961    1.398424
      6         11           0        2.381809    2.596424   -0.465445
      7         11           0        3.986257    0.008702   -0.281994
 ---------------------------------------------------------------------

 SCF Done:  E(UB3LYP) =  -1136.11287906     A.U. after   21 cycles

 The electronic state is 2-A.
 Alpha  occ. eigenvalues --  -38.44853 -38.44665 -38.44330 -38.44264 -38.44145
 Alpha  occ. eigenvalues --  -38.44131 -38.43952  -2.20714  -2.20447  -2.20127
 Alpha  occ. eigenvalues --   -2.20079  -2.20010  -2.19904  -2.19807  -1.14454
 Alpha  occ. eigenvalues --   -1.14371  -1.14332  -1.14153  -1.14114  -1.14087
 Alpha  occ. eigenvalues --   -1.13818  -1.13806  -1.13772  -1.13739  -1.13728
 Alpha  occ. eigenvalues --   -1.13700  -1.13696  -1.13648  -1.13600  -1.13567
 Alpha  occ. eigenvalues --   -1.13564  -1.13525  -1.13456  -1.13449  -1.13445
 Alpha  occ. eigenvalues --   -0.16876  -0.14183  -0.12259  -0.10793
 Alpha virt. eigenvalues --   -0.06991  -0.05581  -0.04289  -0.03522  -0.03384
 Alpha virt. eigenvalues --   -0.02078  -0.01861  -0.01761  -0.01199  -0.00468
 Alpha virt. eigenvalues --   -0.00293   0.00112   0.00191   0.00383   0.00679

  Beta  occ. eigenvalues --  -38.44824 -38.44669 -38.44326 -38.44207 -38.44105
  Beta  occ. eigenvalues --  -38.44079 -38.43929  -2.20664  -2.20455  -2.20122
  Beta  occ. eigenvalues --   -2.19976  -2.19934  -2.19808  -2.19764  -1.14411
  Beta  occ. eigenvalues --   -1.14342  -1.14277  -1.14157  -1.14121  -1.14081
  Beta  occ. eigenvalues --   -1.13816  -1.13802  -1.13753  -1.13665  -1.13657
  Beta  occ. eigenvalues --   -1.13645  -1.13626  -1.13592  -1.13549  -1.13500
  Beta  occ. eigenvalues --   -1.13493  -1.13461  -1.13431  -1.13420  -1.13414
  Beta  occ. eigenvalues --   -0.16340  -0.13699  -0.11993
  Beta virt. eigenvalues --   -0.07277  -0.06867  -0.05235  -0.03921  -0.03132
  Beta virt. eigenvalues --   -0.02943  -0.01803  -0.01667  -0.01382  -0.01010
  Beta virt. eigenvalues --   -0.00456  -0.00009   0.00254   0.00365   0.00533

 Mulliken charges and spin densities:
               1          2
     1  Na  -0.128942   0.024309
     2  Na   0.588313   0.249670
     3  Na  -0.183379   0.207899
     4  Na   0.246012   0.109006
     5  Na  -0.620336   0.353963
     6  Na  -0.014860  -0.012583
     7  Na   0.113191   0.067737
 Sum of Mulliken charges =  -0.00000   1.00000

 Dipole moment (field-independent basis, Debye):
    X=             -0.0539    Y=             -0.0923    Z=             -0.0730  Tot=              0.1294
 Quadrupole moment (field-independent basis, Debye-Ang):
   XX=            -64.8851   YY=            -67.0323   ZZ=            -69.6686
   XY=             -1.1894   XZ=             -1.5978   YZ=             -0.8102

 Normal termination of Gaussian 16 at Sun Dec  3 17:22:56 2023.
