 Gaussian 16, Revision B.01,
 Gaussian 16:  ES64L-G16RevB.01 20-Dec-2017

 -------------------------
 #P B3LYP/6-311+g(d) force
 -------------------------

 -----
 DPGEN
 -----
 Symbolic Z-matrix:
 Charge =  0 Multiplicity = 2

                         Standard orientation:
 ---------------------------------------------------------------------
 Center     Atomic      Atomic             Coordinates (Angstroms)
 Number     Number       Type             X           Y           Z
 ---------------------------------------------------------------------
      1         11           0       -0.259989    2.153501    0.313683
      2         11           0        5.731797   -0.288137    0.320627
      3         11           0        2.396534    1.308580   -0.776964
      4         11           0        2.999096   -1.637117   -0.086642
      5         11           0       -0.602778   -0.965061   -0.125089
      6         11           0       -3.784685   -0.111865    0.959693
      7         11           0       -6.479976   -0.459901   -0.605309
 ---------------------------------------------------------------------

 SCF Done:  E(UB3LYP) =  -1136.11460107     A.U. after   21 cycles

 The electronic state is 2-A.
 Alpha  occ. eigenvalues --  -38.44532 -38.44477 -38.44250 -38.44107 -38.44005
 Alpha  occ. eigenvalues --  -38.43761 -38.43725  -2.20401  -2.20346  -2.20029
 Alpha  occ. eigenvalues --   -2.20017  -2.19900  -2.19649  -2.19548  -1.14125
 Alpha  occ. eigenvalues --   -1.14093  -1.14048  -1.14028  -1.14000  -1.13978
 Alpha  occ. eigenvalues --   -1.13701  -1.13697  -1.13684  -1.13683  -1.13669
 Alpha  occ. eigenvalues --   -1.13604  -1.13561  -1.13546  -1.13538  -1.13316
 Alpha  occ. eigenvalues --   -1.13296  -1.13270  -1.13219  -1.13211  -1.13169
 Alpha  occ. eigenvalues --   -0.17506  -0.14259  -0.12228  -0.10825
 Alpha virt. eigenvalues --   -0.07222  -0.04909  -0.04215  -0.04032  -0.02997
 Alpha virt. eigenvalues --   -0.02289  -0.01976  -0.01920  -0.00884  -0.00647
 Alpha virt. eigenvalues --   -0.00168   0.00059   0.00234   0.00388   0.00661

  Beta  occ. eigenvalues --  -38.44527 -38.44430 -38.44246 -38.44070 -38.43963
  Beta  occ. eigenvalues --  -38.43724 -38.43704  -2.20336  -2.20319  -2.20021
  Beta  occ. eigenvalues --   -2.19950  -2.19827  -2.19547  -2.19544  -1.14046
  Beta  occ. eigenvalues --   -1.14041  -1.14030  -1.13994  -1.13982  -1.13960
  Beta  occ. eigenvalues --   -1.13697  -1.13679  -1.13678  -1.13654  -1.13627
  Beta  occ. eigenvalues --   -1.13533  -1.13518  -1.13491  -1.13468  -1.13249
  Beta  occ. eigenvalues --   -1.13233  -1.13212  -1.13203  -1.13198  -1.13157
  Beta  occ. eigenvalues --   -0.16818  -0.14185  -0.11932
  Beta virt. eigenvalues --   -0.07164  -0.06791  -0.04455  -0.04079  -0.03779
  Beta virt. eigenvalues --   -0.02368  -0.02206  -0.01872  -0.01470  -0.00605
  Beta virt. eigenvalues --   -0.00429  -0.00054   0.00285   0.00400   0.00569

 Mulliken charges and spin densities:
               1          2
     1  Na   0.002182   0.262690
     2  Na   0.461026   0.039219
     3  Na  -0.001917   0.205899
     4  Na  -0.515738   0.045528
     5  Na  -0.335553   0.407021
     6  Na   0.179524   0.049676
     7  Na   0.210476  -0.010033
 Sum of Mulliken charges =  -0.00000   1.00000

 Dipole moment (field-independent basis, Debye):
    X=              1.1495    Y=              0.1588    Z=             -0.0360  Tot=              1.1609
 Quadrupole moment (field-independent basis, Debye-Ang):
   XX=            -52.5066   YY=            -72.3886   ZZ=            -68.9577
   XY=             -0.4586   XZ=              5.0814   YZ=              1.4244

 Normal termination of Gaussian 16 at Wed Nov 29 00:27:12 2023.
