 Gaussian 16, Revision B.01,
 Gaussian 16:  ES64L-G16RevB.01 20-Dec-2017

 -------------------------
 #P B3LYP/6-311+g(d) force
 -------------------------

 -----
 DPGEN
 -----
 Symbolic Z-matrix:
 Charge =  0 Multiplicity = 2

                         Standard orientation:
 ---------------------------------------------------------------------
 Center     Atomic      Atomic             Coordinates (Angstroms)
 Number     Number       Type             X           Y           Z
 ---------------------------------------------------------------------
      1         11           0       -0.278671   -0.012949    1.838565
      2         11           0       -2.248210   -1.910760   -0.360745
      3         11           0       -2.538516    1.421267    0.122146
      4         11           0        3.113661    0.403321   -0.096652
      5         11           0       -0.147585   -0.242475   -1.423426
      6         11           0        0.610840    2.838908   -0.252006
      7         11           0        1.488480   -2.497311    0.172118
 ---------------------------------------------------------------------

 SCF Done:  E(UB3LYP) =  -1136.13488839     A.U. after   19 cycles

 The electronic state is 2-A.
 Alpha  occ. eigenvalues --  -38.43980 -38.43702 -38.43677 -38.43496 -38.43257
 Alpha  occ. eigenvalues --  -38.43137 -38.42877  -2.19816  -2.19622  -2.19593
 Alpha  occ. eigenvalues --   -2.19375  -2.19120  -2.19115  -2.18981  -1.13488
 Alpha  occ. eigenvalues --   -1.13478  -1.13468  -1.13414  -1.13307  -1.13267
 Alpha  occ. eigenvalues --   -1.13256  -1.13242  -1.13188  -1.13076  -1.13041
 Alpha  occ. eigenvalues --   -1.12996  -1.12831  -1.12802  -1.12779  -1.12750
 Alpha  occ. eigenvalues --   -1.12735  -1.12716  -1.12644  -1.12598  -1.12585
 Alpha  occ. eigenvalues --   -0.19250  -0.13302  -0.12660  -0.10542
 Alpha virt. eigenvalues --   -0.05512  -0.05219  -0.04707  -0.03079  -0.02746
 Alpha virt. eigenvalues --   -0.02148  -0.01486  -0.01160  -0.00301  -0.00245
 Alpha virt. eigenvalues --    0.00050   0.00349   0.00836   0.00898   0.00911

  Beta  occ. eigenvalues --  -38.43979 -38.43687 -38.43667 -38.43489 -38.43252
  Beta  occ. eigenvalues --  -38.43047 -38.42817  -2.19817  -2.19598  -2.19580
  Beta  occ. eigenvalues --   -2.19366  -2.19109  -2.18953  -2.18873  -1.13487
  Beta  occ. eigenvalues --   -1.13472  -1.13462  -1.13389  -1.13293  -1.13243
  Beta  occ. eigenvalues --   -1.13221  -1.13209  -1.13180  -1.13069  -1.13008
  Beta  occ. eigenvalues --   -1.12995  -1.12800  -1.12763  -1.12742  -1.12715
  Beta  occ. eigenvalues --   -1.12614  -1.12604  -1.12561  -1.12515  -1.12510
  Beta  occ. eigenvalues --   -0.18537  -0.13037  -0.12382
  Beta virt. eigenvalues --   -0.06611  -0.05480  -0.05196  -0.04688  -0.02283
  Beta virt. eigenvalues --   -0.01983  -0.01411  -0.01112  -0.01079  -0.00335
  Beta virt. eigenvalues --   -0.00288   0.00178   0.00389   0.00881   0.00906

 Mulliken charges and spin densities:
               1          2
     1  Na  -0.385722   0.685270
     2  Na   0.479680   0.016749
     3  Na   0.427612   0.046929
     4  Na  -0.052999  -0.059321
     5  Na  -0.689678   0.391752
     6  Na   0.004193  -0.054178
     7  Na   0.216913  -0.027201
 Sum of Mulliken charges =  -0.00000   1.00000

 Dipole moment (field-independent basis, Debye):
    X=              0.1075    Y=             -0.0357    Z=              0.1956  Tot=              0.2260
 Quadrupole moment (field-independent basis, Debye-Ang):
   XX=            -55.4071   YY=            -61.0858   ZZ=            -75.7726
   XY=             -0.0302   XZ=              0.2379   YZ=             -0.5073

 Normal termination of Gaussian 16 at Thu Dec  7 14:08:30 2023.
