 Gaussian 16, Revision B.01,
 Gaussian 16:  ES64L-G16RevB.01 20-Dec-2017

 -------------------------
 #P B3LYP/6-311+g(d) force
 -------------------------

 -----
 DPGEN
 -----
 Symbolic Z-matrix:
 Charge =  0 Multiplicity = 2

                         Standard orientation:
 ---------------------------------------------------------------------
 Center     Atomic      Atomic             Coordinates (Angstroms)
 Number     Number       Type             X           Y           Z
 ---------------------------------------------------------------------
      1         11           0        0.333250    2.678021   -1.474876
      2         11           0       -0.359770   -2.434597    1.663835
      3         11           0       -2.641802    1.084830    0.876904
      4         11           0        2.742165   -1.102551   -1.242124
      5         11           0        1.577619    1.276589    2.238126
      6         11           0       -0.092814   -0.160031    0.046514
      7         11           0       -1.558648   -1.342261   -2.108379
 ---------------------------------------------------------------------

 SCF Done:  E(UB3LYP) =  -1136.10627307     A.U. after   29 cycles

 The electronic state is 2-A.
 Alpha  occ. eigenvalues --  -38.44512 -38.44455 -38.44359 -38.44319 -38.44001
 Alpha  occ. eigenvalues --  -38.44001 -38.41674  -2.20351  -2.20256  -2.20202
 Alpha  occ. eigenvalues --   -2.20098  -2.19823  -2.19787  -2.17995  -1.14110
 Alpha  occ. eigenvalues --   -1.13983  -1.13962  -1.13957  -1.13939  -1.13881
 Alpha  occ. eigenvalues --   -1.13865  -1.13811  -1.13786  -1.13779  -1.13731
 Alpha  occ. eigenvalues --   -1.13722  -1.13564  -1.13479  -1.13455  -1.13426
 Alpha  occ. eigenvalues --   -1.13420  -1.13407  -1.11782  -1.11626  -1.11600
 Alpha  occ. eigenvalues --   -0.18202  -0.12093  -0.11612  -0.11442
 Alpha virt. eigenvalues --   -0.05469  -0.05354  -0.04174  -0.02910  -0.02774
 Alpha virt. eigenvalues --   -0.02715  -0.01370  -0.01188  -0.01108   0.00279
 Alpha virt. eigenvalues --    0.00297   0.00307   0.00440   0.00865   0.00916

  Beta  occ. eigenvalues --  -38.44473 -38.44418 -38.44327 -38.44286 -38.43990
  Beta  occ. eigenvalues --  -38.43981 -38.41642  -2.20281  -2.20189  -2.20144
  Beta  occ. eigenvalues --   -2.20038  -2.19804  -2.19750  -2.17951  -1.14060
  Beta  occ. eigenvalues --   -1.13942  -1.13910  -1.13903  -1.13890  -1.13831
  Beta  occ. eigenvalues --   -1.13818  -1.13760  -1.13746  -1.13732  -1.13689
  Beta  occ. eigenvalues --   -1.13681  -1.13548  -1.13448  -1.13430  -1.13413
  Beta  occ. eigenvalues --   -1.13395  -1.13384  -1.11645  -1.11613  -1.11581
  Beta  occ. eigenvalues --   -0.17280  -0.11425  -0.11252
  Beta virt. eigenvalues --   -0.08221  -0.05095  -0.04892  -0.03947  -0.02532
  Beta virt. eigenvalues --   -0.02430  -0.02066  -0.01161  -0.01054  -0.00757
  Beta virt. eigenvalues --    0.00363   0.00374   0.00388   0.00482   0.00898

 Mulliken charges and spin densities:
               1          2
     1  Na  -0.270292  -0.271116
     2  Na   0.174693   0.260769
     3  Na   0.611918  -0.791765
     4  Na   0.359497   0.355230
     5  Na  -0.284953  -0.203541
     6  Na  -0.501662   1.573833
     7  Na  -0.089201   0.076589
 Sum of Mulliken charges =  -0.00000   1.00000

 Dipole moment (field-independent basis, Debye):
    X=              0.0628    Y=             -0.0100    Z=             -0.0403  Tot=              0.0753
 Quadrupole moment (field-independent basis, Debye-Ang):
   XX=            -65.6287   YY=            -67.4131   ZZ=            -56.1475
   XY=              0.2698   XZ=             -2.0856   YZ=              0.3007

 Normal termination of Gaussian 16 at Fri Dec  8 19:48:53 2023.
