 Gaussian 16, Revision B.01,
 Gaussian 16:  ES64L-G16RevB.01 20-Dec-2017

 -------------------------
 #P B3LYP/6-311+g(d) force
 -------------------------

 -----
 DPGEN
 -----
 Symbolic Z-matrix:
 Charge =  0 Multiplicity = 2

                         Standard orientation:
 ---------------------------------------------------------------------
 Center     Atomic      Atomic             Coordinates (Angstroms)
 Number     Number       Type             X           Y           Z
 ---------------------------------------------------------------------
      1         11           0       -2.430859    2.738010   -0.290230
      2         11           0       -4.319736   -0.262947   -0.834132
      3         11           0       -1.993181    0.314485    2.027380
      4         11           0       -1.898062   -2.631457    0.004357
      5         11           0        0.167644   -0.058980   -0.943384
      6         11           0        3.711051   -0.600311    0.113011
      7         11           0        6.763143    0.501200   -0.077001
 ---------------------------------------------------------------------

 SCF Done:  E(UB3LYP) =  -1136.10934032     A.U. after   28 cycles

 The electronic state is 2-A.
 Alpha  occ. eigenvalues --  -38.46400 -38.45187 -38.44604 -38.44135 -38.43596
 Alpha  occ. eigenvalues --  -38.43205 -38.43113  -2.22220  -2.21017  -2.20445
 Alpha  occ. eigenvalues --   -2.19929  -2.19369  -2.19045  -2.18933  -1.15906
 Alpha  occ. eigenvalues --   -1.15876  -1.15833  -1.14696  -1.14656  -1.14616
 Alpha  occ. eigenvalues --   -1.14115  -1.14073  -1.14067  -1.13571  -1.13571
 Alpha  occ. eigenvalues --   -1.13565  -1.13053  -1.13049  -1.13012  -1.12727
 Alpha  occ. eigenvalues --   -1.12707  -1.12688  -1.12612  -1.12602  -1.12584
 Alpha  occ. eigenvalues --   -0.17669  -0.13457  -0.11589  -0.11261
 Alpha virt. eigenvalues --   -0.07539  -0.05630  -0.04057  -0.03212  -0.02890
 Alpha virt. eigenvalues --   -0.02567  -0.02287  -0.01727  -0.01550  -0.01314
 Alpha virt. eigenvalues --   -0.00533  -0.00156   0.00170   0.00417   0.00646

  Beta  occ. eigenvalues --  -38.46382 -38.45115 -38.44531 -38.44071 -38.43608
  Beta  occ. eigenvalues --  -38.43202 -38.43127  -2.22190  -2.20882  -2.20309
  Beta  occ. eigenvalues --   -2.19809  -2.19397  -2.19042  -2.18961  -1.15864
  Beta  occ. eigenvalues --   -1.15850  -1.15823  -1.14602  -1.14568  -1.14518
  Beta  occ. eigenvalues --   -1.14017  -1.13990  -1.13969  -1.13489  -1.13488
  Beta  occ. eigenvalues --   -1.13488  -1.13077  -1.13073  -1.12990  -1.12723
  Beta  occ. eigenvalues --   -1.12718  -1.12657  -1.12635  -1.12609  -1.12597
  Beta  occ. eigenvalues --   -0.17044  -0.12797  -0.11320
  Beta virt. eigenvalues --   -0.07881  -0.07315  -0.05015  -0.04070  -0.02750
  Beta virt. eigenvalues --   -0.02518  -0.02198  -0.02066  -0.01622  -0.01050
  Beta virt. eigenvalues --   -0.00897  -0.00507   0.00020   0.00223   0.00491

 Mulliken charges and spin densities:
               1          2
     1  Na   0.065686  -0.244718
     2  Na   0.179546   0.411005
     3  Na   0.185236   0.193891
     4  Na   0.041246  -0.096438
     5  Na  -0.572893   0.594862
     6  Na  -0.308104  -0.106493
     7  Na   0.409282   0.247892
 Sum of Mulliken charges =  -0.00000   1.00000

 Dipole moment (field-independent basis, Debye):
    X=             -1.4498    Y=              0.1956    Z=              0.6229  Tot=              1.5900
 Quadrupole moment (field-independent basis, Debye-Ang):
   XX=            -64.5400   YY=            -74.8821   ZZ=            -62.2376
   XY=              3.9685   XZ=             -0.1398   YZ=             -2.0019

 Normal termination of Gaussian 16 at Fri Dec  8 17:43:38 2023.
