 Gaussian 16, Revision B.01,
 Gaussian 16:  ES64L-G16RevB.01 20-Dec-2017

 -------------------------
 #P B3LYP/6-311+g(d) force
 -------------------------

 -----
 DPGEN
 -----
 Symbolic Z-matrix:
 Charge =  0 Multiplicity = 2

                         Standard orientation:
 ---------------------------------------------------------------------
 Center     Atomic      Atomic             Coordinates (Angstroms)
 Number     Number       Type             X           Y           Z
 ---------------------------------------------------------------------
      1         11           0        0.439206   -0.988417    1.405966
      2         11           0        5.754943    0.009254    0.039446
      3         11           0        3.014681   -1.061571   -0.850597
      4         11           0        1.488534    1.907637   -0.104761
      5         11           0       -2.159273    1.705926    0.036559
      6         11           0       -3.003270   -1.690742   -0.379242
      7         11           0       -5.534819    0.117911   -0.147372
 ---------------------------------------------------------------------

 SCF Done:  E(UB3LYP) =  -1136.11859948     A.U. after   21 cycles

 The electronic state is 2-A.
 Alpha  occ. eigenvalues --  -38.44598 -38.44327 -38.44184 -38.44001 -38.43943
 Alpha  occ. eigenvalues --  -38.43762 -38.43638  -2.20436  -2.20146  -2.20021
 Alpha  occ. eigenvalues --   -2.19821  -2.19820  -2.19611  -2.19434  -1.14114
 Alpha  occ. eigenvalues --   -1.14104  -1.14072  -1.13848  -1.13820  -1.13731
 Alpha  occ. eigenvalues --   -1.13713  -1.13688  -1.13620  -1.13503  -1.13495
 Alpha  occ. eigenvalues --   -1.13485  -1.13475  -1.13471  -1.13451  -1.13283
 Alpha  occ. eigenvalues --   -1.13259  -1.13226  -1.13091  -1.13088  -1.13071
 Alpha  occ. eigenvalues --   -0.17004  -0.14560  -0.11427  -0.10811
 Alpha virt. eigenvalues --   -0.06082  -0.05749  -0.05210  -0.03133  -0.02999
 Alpha virt. eigenvalues --   -0.02409  -0.02183  -0.01312  -0.00969  -0.00614
 Alpha virt. eigenvalues --   -0.00196  -0.00026   0.00191   0.00367   0.00649

  Beta  occ. eigenvalues --  -38.44570 -38.44281 -38.44147 -38.43995 -38.43935
  Beta  occ. eigenvalues --  -38.43712 -38.43643  -2.20385  -2.20062  -2.19953
  Beta  occ. eigenvalues --   -2.19810  -2.19806  -2.19519  -2.19442  -1.14081
  Beta  occ. eigenvalues --   -1.14072  -1.14019  -1.13793  -1.13759  -1.13668
  Beta  occ. eigenvalues --   -1.13663  -1.13641  -1.13565  -1.13496  -1.13474
  Beta  occ. eigenvalues --   -1.13470  -1.13469  -1.13460  -1.13443  -1.13220
  Beta  occ. eigenvalues --   -1.13188  -1.13159  -1.13097  -1.13095  -1.13074
  Beta  occ. eigenvalues --   -0.16414  -0.14404  -0.11207
  Beta virt. eigenvalues --   -0.07141  -0.05914  -0.05199  -0.04899  -0.03030
  Beta virt. eigenvalues --   -0.02430  -0.02157  -0.01754  -0.01207  -0.00615
  Beta virt. eigenvalues --   -0.00418  -0.00006   0.00179   0.00331   0.00435

 Mulliken charges and spin densities:
               1          2
     1  Na  -0.218792   0.586816
     2  Na   0.320385  -0.011169
     3  Na  -0.143163  -0.103750
     4  Na  -0.110186   0.231517
     5  Na  -0.273266   0.246304
     6  Na  -0.175853   0.054653
     7  Na   0.600877  -0.004370
 Sum of Mulliken charges =  -0.00000   1.00000

 Dipole moment (field-independent basis, Debye):
    X=             -0.9742    Y=              0.1701    Z=              0.2191  Tot=              1.0129
 Quadrupole moment (field-independent basis, Debye-Ang):
   XX=            -60.8488   YY=            -69.6114   ZZ=            -69.3386
   XY=              1.9543   XZ=              2.5856   YZ=              1.8664

 Normal termination of Gaussian 16 at Wed Nov 29 04:13:16 2023.
