 Gaussian 16, Revision B.01,
 Gaussian 16:  ES64L-G16RevB.01 20-Dec-2017

 -------------------------
 #P B3LYP/6-311+g(d) force
 -------------------------

 -----
 DPGEN
 -----
 Symbolic Z-matrix:
 Charge =  0 Multiplicity = 2

                         Standard orientation:
 ---------------------------------------------------------------------
 Center     Atomic      Atomic             Coordinates (Angstroms)
 Number     Number       Type             X           Y           Z
 ---------------------------------------------------------------------
      1         11           0       -2.606519    2.098481    0.342486
      2         11           0        0.718885   -2.383162   -0.293118
      3         11           0        3.367748   -0.442455   -0.060697
      4         11           0        1.932795    2.191163    0.037428
      5         11           0       -2.906909   -1.567802   -0.355898
      6         11           0       -0.332432    0.638831   -1.625054
      7         11           0       -0.173568   -0.535057    1.954852
 ---------------------------------------------------------------------

 SCF Done:  E(UB3LYP) =  -1136.12749870     A.U. after   21 cycles

 The electronic state is 2-A.
 Alpha  occ. eigenvalues --  -38.44679 -38.44678 -38.44200 -38.43744 -38.43503
 Alpha  occ. eigenvalues --  -38.43323 -38.42883  -2.20535  -2.20478  -2.19993
 Alpha  occ. eigenvalues --   -2.19612  -2.19406  -2.19258  -2.18796  -1.14248
 Alpha  occ. eigenvalues --   -1.14186  -1.14169  -1.14155  -1.14129  -1.14115
 Alpha  occ. eigenvalues --   -1.13668  -1.13649  -1.13636  -1.13306  -1.13269
 Alpha  occ. eigenvalues --   -1.13246  -1.13119  -1.13038  -1.13008  -1.12944
 Alpha  occ. eigenvalues --   -1.12896  -1.12878  -1.12492  -1.12456  -1.12408
 Alpha  occ. eigenvalues --   -0.18559  -0.13620  -0.11914  -0.10474
 Alpha virt. eigenvalues --   -0.06344  -0.05849  -0.03861  -0.03411  -0.02724
 Alpha virt. eigenvalues --   -0.02250  -0.02105  -0.01448  -0.00522  -0.00096
 Alpha virt. eigenvalues --   -0.00051   0.00284   0.00654   0.00779   0.00836

  Beta  occ. eigenvalues --  -38.44678 -38.44671 -38.44194 -38.43739 -38.43418
  Beta  occ. eigenvalues --  -38.43267 -38.42870  -2.20537  -2.20465  -2.19983
  Beta  occ. eigenvalues --   -2.19607  -2.19248  -2.19157  -2.18778  -1.14254
  Beta  occ. eigenvalues --   -1.14186  -1.14157  -1.14125  -1.14121  -1.14110
  Beta  occ. eigenvalues --   -1.13656  -1.13633  -1.13631  -1.13299  -1.13267
  Beta  occ. eigenvalues --   -1.13227  -1.13015  -1.12927  -1.12896  -1.12875
  Beta  occ. eigenvalues --   -1.12816  -1.12806  -1.12478  -1.12414  -1.12394
  Beta  occ. eigenvalues --   -0.17845  -0.13419  -0.11697
  Beta virt. eigenvalues --   -0.06610  -0.06245  -0.05830  -0.03813  -0.02685
  Beta virt. eigenvalues --   -0.02092  -0.01929  -0.01368  -0.01215  -0.00560
  Beta virt. eigenvalues --   -0.00115   0.00114   0.00319   0.00722   0.00785

 Mulliken charges and spin densities:
               1          2
     1  Na  -0.004872  -0.062005
     2  Na   0.396404   0.103818
     3  Na  -0.082778  -0.025165
     4  Na   0.398981  -0.002542
     5  Na   0.186573  -0.026444
     6  Na  -0.297900   0.353216
     7  Na  -0.596407   0.659120
 Sum of Mulliken charges =  -0.00000   1.00000

 Dipole moment (field-independent basis, Debye):
    X=             -0.3943    Y=             -0.0304    Z=              0.0864  Tot=              0.4048
 Quadrupole moment (field-independent basis, Debye-Ang):
   XX=            -49.3742   YY=            -67.8915   ZZ=            -75.4228
   XY=              0.0459   XZ=             -0.1906   YZ=              2.6770

 Normal termination of Gaussian 16 at Thu Dec  7 17:01:06 2023.
