 Gaussian 16, Revision B.01,
 Gaussian 16:  ES64L-G16RevB.01 20-Dec-2017

 -------------------------
 #P B3LYP/6-311+g(d) force
 -------------------------

 -----
 DPGEN
 -----
 Symbolic Z-matrix:
 Charge =  0 Multiplicity = 2

                         Standard orientation:
 ---------------------------------------------------------------------
 Center     Atomic      Atomic             Coordinates (Angstroms)
 Number     Number       Type             X           Y           Z
 ---------------------------------------------------------------------
      1         11           0        1.304000    2.397158    0.472515
      2         11           0        0.988810   -1.489099   -0.752244
      3         11           0       -2.395127   -1.789939   -0.368131
      4         11           0        4.103796    0.592050   -1.204790
      5         11           0       -4.982249    0.190983    0.145976
      6         11           0        3.058103   -1.404628    1.647918
      7         11           0       -2.077333    1.503475    0.058755
 ---------------------------------------------------------------------

 SCF Done:  E(UB3LYP) =  -1136.11523587     A.U. after   25 cycles

 The electronic state is 2-A.
 Alpha  occ. eigenvalues --  -38.45223 -38.45206 -38.44082 -38.43940 -38.43668
 Alpha  occ. eigenvalues --  -38.43428 -38.42937  -2.21006  -2.20992  -2.19954
 Alpha  occ. eigenvalues --   -2.19809  -2.19540  -2.19303  -2.18738  -1.14702
 Alpha  occ. eigenvalues --   -1.14681  -1.14681  -1.14649  -1.14621  -1.14605
 Alpha  occ. eigenvalues --   -1.13617  -1.13602  -1.13585  -1.13501  -1.13477
 Alpha  occ. eigenvalues --   -1.13417  -1.13221  -1.13218  -1.13154  -1.12997
 Alpha  occ. eigenvalues --   -1.12945  -1.12935  -1.12418  -1.12409  -1.12363
 Alpha  occ. eigenvalues --   -0.17219  -0.14920  -0.11270  -0.10948
 Alpha virt. eigenvalues --   -0.06900  -0.05385  -0.04507  -0.03455  -0.03224
 Alpha virt. eigenvalues --   -0.02229  -0.01804  -0.01306  -0.00969  -0.00881
 Alpha virt. eigenvalues --   -0.00495   0.00096   0.00354   0.00517   0.00639

  Beta  occ. eigenvalues --  -38.45256 -38.45182 -38.44007 -38.43900 -38.43631
  Beta  occ. eigenvalues --  -38.43388 -38.42913  -2.21066  -2.20946  -2.19813
  Beta  occ. eigenvalues --   -2.19742  -2.19480  -2.19233  -2.18699  -1.14746
  Beta  occ. eigenvalues --   -1.14722  -1.14676  -1.14645  -1.14599  -1.14582
  Beta  occ. eigenvalues --   -1.13527  -1.13507  -1.13489  -1.13449  -1.13438
  Beta  occ. eigenvalues --   -1.13327  -1.13187  -1.13164  -1.13073  -1.12964
  Beta  occ. eigenvalues --   -1.12899  -1.12853  -1.12397  -1.12378  -1.12320
  Beta  occ. eigenvalues --   -0.16546  -0.14439  -0.10769
  Beta virt. eigenvalues --   -0.07359  -0.06938  -0.05166  -0.03872  -0.03198
  Beta virt. eigenvalues --   -0.02946  -0.01871  -0.01533  -0.01047  -0.00694
  Beta virt. eigenvalues --   -0.00490  -0.00376   0.00128   0.00437   0.00598

 Mulliken charges and spin densities:
               1          2
     1  Na  -0.484016  -0.303660
     2  Na  -0.488114   0.047063
     3  Na  -0.437011   0.141608
     4  Na   0.489203   0.138023
     5  Na   1.126322   0.480762
     6  Na   0.460836   0.067908
     7  Na  -0.667220   0.428295
 Sum of Mulliken charges =  -0.00000   1.00000

 Dipole moment (field-independent basis, Debye):
    X=              0.7868    Y=             -0.5654    Z=              0.2405  Tot=              0.9983
 Quadrupole moment (field-independent basis, Debye-Ang):
   XX=            -53.5887   YY=            -78.8323   ZZ=            -63.2858
   XY=              1.0436   XZ=             -0.6446   YZ=             -0.8974

 Normal termination of Gaussian 16 at Sun Dec  3 23:03:22 2023.
