 Gaussian 16, Revision B.01,
 Gaussian 16:  ES64L-G16RevB.01 20-Dec-2017

 -------------------------
 #P B3LYP/6-311+g(d) force
 -------------------------

 -----
 DPGEN
 -----
 Symbolic Z-matrix:
 Charge =  0 Multiplicity = 2

                         Standard orientation:
 ---------------------------------------------------------------------
 Center     Atomic      Atomic             Coordinates (Angstroms)
 Number     Number       Type             X           Y           Z
 ---------------------------------------------------------------------
      1         11           0       -1.528673    2.511263    0.200954
      2         11           0        0.094246   -0.192024    1.896974
      3         11           0        2.861010   -1.253538    0.054545
      4         11           0        1.949575    2.235247   -0.124479
      5         11           0       -0.615757   -2.587584    0.124829
      6         11           0       -3.068461   -0.507042   -0.282865
      7         11           0        0.308061   -0.206322   -1.869958
 ---------------------------------------------------------------------

 SCF Done:  E(UB3LYP) =  -1136.13869050     A.U. after   19 cycles

 The electronic state is 2-A.
 Alpha  occ. eigenvalues --  -38.43931 -38.43840 -38.43571 -38.43500 -38.43499
 Alpha  occ. eigenvalues --  -38.43323 -38.43192  -2.19777  -2.19688  -2.19453
 Alpha  occ. eigenvalues --   -2.19444  -2.19414  -2.19157  -2.19127  -1.13457
 Alpha  occ. eigenvalues --   -1.13447  -1.13411  -1.13361  -1.13350  -1.13342
 Alpha  occ. eigenvalues --   -1.13175  -1.13134  -1.13124  -1.13100  -1.13070
 Alpha  occ. eigenvalues --   -1.13062  -1.13056  -1.13053  -1.13039  -1.12830
 Alpha  occ. eigenvalues --   -1.12820  -1.12802  -1.12796  -1.12786  -1.12727
 Alpha  occ. eigenvalues --   -0.18902  -0.13062  -0.12501  -0.10945
 Alpha virt. eigenvalues --   -0.05532  -0.05202  -0.04504  -0.03259  -0.02953
 Alpha virt. eigenvalues --   -0.02677  -0.01507  -0.01019  -0.00259  -0.00132
 Alpha virt. eigenvalues --   -0.00015   0.00364   0.00818   0.00902   0.00926

  Beta  occ. eigenvalues --  -38.43926 -38.43837 -38.43567 -38.43420 -38.43413
  Beta  occ. eigenvalues --  -38.43320 -38.43180  -2.19772  -2.19684  -2.19410
  Beta  occ. eigenvalues --   -2.19300  -2.19292  -2.19155  -2.19111  -1.13449
  Beta  occ. eigenvalues --   -1.13426  -1.13407  -1.13361  -1.13345  -1.13323
  Beta  occ. eigenvalues --   -1.13104  -1.13079  -1.13066  -1.13047  -1.13027
  Beta  occ. eigenvalues --   -1.12976  -1.12971  -1.12949  -1.12944  -1.12822
  Beta  occ. eigenvalues --   -1.12805  -1.12799  -1.12784  -1.12734  -1.12718
  Beta  occ. eigenvalues --   -0.18147  -0.12824  -0.12247
  Beta virt. eigenvalues --   -0.07011  -0.05494  -0.05202  -0.04467  -0.02456
  Beta virt. eigenvalues --   -0.02154  -0.01611  -0.01423  -0.00960  -0.00298
  Beta virt. eigenvalues --   -0.00188   0.00114   0.00386   0.00880   0.00900

 Mulliken charges and spin densities:
               1          2
     1  Na   0.001057  -0.078490
     2  Na  -0.354649   0.713305
     3  Na   0.296154  -0.123099
     4  Na  -0.008873  -0.112497
     5  Na   0.467657  -0.048358
     6  Na  -0.037832  -0.036133
     7  Na  -0.363514   0.685272
 Sum of Mulliken charges =  -0.00000   1.00000

 Dipole moment (field-independent basis, Debye):
    X=              0.2305    Y=             -0.0224    Z=             -0.0455  Tot=              0.2360
 Quadrupole moment (field-independent basis, Debye-Ang):
   XX=            -56.2720   YY=            -64.5476   ZZ=            -73.2497
   XY=             -0.3392   XZ=              0.6864   YZ=              0.0543

 Normal termination of Gaussian 16 at Tue Dec  5 12:02:59 2023.
