 Gaussian 16, Revision B.01,
 Gaussian 16:  ES64L-G16RevB.01 20-Dec-2017

 -------------------------
 #P B3LYP/6-311+g(d) force
 -------------------------

 -----
 DPGEN
 -----
 Symbolic Z-matrix:
 Charge =  0 Multiplicity = 2

                         Standard orientation:
 ---------------------------------------------------------------------
 Center     Atomic      Atomic             Coordinates (Angstroms)
 Number     Number       Type             X           Y           Z
 ---------------------------------------------------------------------
      1         11           0       -1.881982    2.171693    0.340079
      2         11           0        1.712035    2.460195   -0.545785
      3         11           0        3.211180   -0.995887    0.011412
      4         11           0       -0.132787   -2.830649   -0.025020
      5         11           0       -2.917788   -0.899015   -0.125358
      6         11           0       -0.316846   -0.067742   -1.642617
      7         11           0        0.326189    0.161404    1.987290
 ---------------------------------------------------------------------

 SCF Done:  E(UB3LYP) =  -1136.13714783     A.U. after   19 cycles

 The electronic state is 2-A.
 Alpha  occ. eigenvalues --  -38.44365 -38.43745 -38.43658 -38.43530 -38.43361
 Alpha  occ. eigenvalues --  -38.43283 -38.43194  -2.20140  -2.19639  -2.19481
 Alpha  occ. eigenvalues --   -2.19425  -2.19244  -2.19194  -2.19147  -1.13819
 Alpha  occ. eigenvalues --   -1.13788  -1.13786  -1.13358  -1.13290  -1.13284
 Alpha  occ. eigenvalues --   -1.13171  -1.13143  -1.13109  -1.13102  -1.13057
 Alpha  occ. eigenvalues --   -1.13045  -1.12932  -1.12919  -1.12905  -1.12873
 Alpha  occ. eigenvalues --   -1.12841  -1.12814  -1.12812  -1.12770  -1.12758
 Alpha  occ. eigenvalues --   -0.18715  -0.13007  -0.12445  -0.10748
 Alpha virt. eigenvalues --   -0.05805  -0.05103  -0.04573  -0.03203  -0.02921
 Alpha virt. eigenvalues --   -0.02481  -0.01615  -0.01120  -0.00331  -0.00301
 Alpha virt. eigenvalues --   -0.00000   0.00349   0.00781   0.00863   0.00911

  Beta  occ. eigenvalues --  -38.44366 -38.43740 -38.43642 -38.43442 -38.43350
  Beta  occ. eigenvalues --  -38.43278 -38.43130  -2.20144  -2.19634  -2.19455
  Beta  occ. eigenvalues --   -2.19264  -2.19229  -2.19142  -2.19076  -1.13809
  Beta  occ. eigenvalues --   -1.13792  -1.13789  -1.13349  -1.13286  -1.13263
  Beta  occ. eigenvalues --   -1.13144  -1.13112  -1.13094  -1.13002  -1.12949
  Beta  occ. eigenvalues --   -1.12933  -1.12909  -1.12880  -1.12866  -1.12856
  Beta  occ. eigenvalues --   -1.12796  -1.12773  -1.12757  -1.12729  -1.12704
  Beta  occ. eigenvalues --   -0.17990  -0.12779  -0.12183
  Beta virt. eigenvalues --   -0.06846  -0.05775  -0.05060  -0.04534  -0.02451
  Beta virt. eigenvalues --   -0.02145  -0.01566  -0.01423  -0.01029  -0.00356
  Beta virt. eigenvalues --   -0.00343   0.00128   0.00377   0.00821   0.00879

 Mulliken charges and spin densities:
               1          2
     1  Na   0.296962   0.059289
     2  Na   0.002066  -0.023597
     3  Na  -0.033451  -0.105680
     4  Na   0.059944  -0.106860
     5  Na   0.306852  -0.000443
     6  Na  -0.215382   0.482762
     7  Na  -0.416990   0.694530
 Sum of Mulliken charges =  -0.00000   1.00000

 Dipole moment (field-independent basis, Debye):
    X=              0.3463    Y=             -0.0427    Z=              0.1202  Tot=              0.3690
 Quadrupole moment (field-independent basis, Debye-Ang):
   XX=            -55.3533   YY=            -63.3770   ZZ=            -74.3310
   XY=             -0.2620   XZ=             -1.2074   YZ=             -0.5340

 Normal termination of Gaussian 16 at Thu Dec  7 05:43:37 2023.
