 Gaussian 16, Revision B.01,
 Gaussian 16:  ES64L-G16RevB.01 20-Dec-2017

 -------------------------
 #P B3LYP/6-311+g(d) force
 -------------------------

 -----
 DPGEN
 -----
 Symbolic Z-matrix:
 Charge =  0 Multiplicity = 2

                         Standard orientation:
 ---------------------------------------------------------------------
 Center     Atomic      Atomic             Coordinates (Angstroms)
 Number     Number       Type             X           Y           Z
 ---------------------------------------------------------------------
      1         11           0       -2.312795    2.012619    0.262549
      2         11           0        0.740085   -2.686332    0.030697
      3         11           0        3.041775    0.072667    0.165133
      4         11           0       -0.170838   -0.378706    1.917108
      5         11           0        0.193866   -0.228256   -1.737728
      6         11           0        1.216863    2.464159   -0.249897
      7         11           0       -2.708956   -1.256152   -0.387861
 ---------------------------------------------------------------------

 SCF Done:  E(UB3LYP) =  -1136.13603692     A.U. after   19 cycles

 The electronic state is 2-A.
 Alpha  occ. eigenvalues --  -38.43976 -38.43958 -38.43579 -38.43500 -38.43303
 Alpha  occ. eigenvalues --  -38.43206 -38.43185  -2.19863  -2.19818  -2.19444
 Alpha  occ. eigenvalues --   -2.19410  -2.19310  -2.19124  -2.19084  -1.13574
 Alpha  occ. eigenvalues --   -1.13520  -1.13506  -1.13497  -1.13483  -1.13448
 Alpha  occ. eigenvalues --   -1.13147  -1.13102  -1.13073  -1.13066  -1.13059
 Alpha  occ. eigenvalues --   -1.13046  -1.13028  -1.12982  -1.12923  -1.12787
 Alpha  occ. eigenvalues --   -1.12776  -1.12752  -1.12740  -1.12721  -1.12708
 Alpha  occ. eigenvalues --   -0.19096  -0.13260  -0.12489  -0.10955
 Alpha virt. eigenvalues --   -0.05582  -0.05108  -0.04455  -0.03328  -0.02926
 Alpha virt. eigenvalues --   -0.02606  -0.01498  -0.00995  -0.00162  -0.00124
 Alpha virt. eigenvalues --    0.00020   0.00368   0.00840   0.00905   0.00943

  Beta  occ. eigenvalues --  -38.43972 -38.43949 -38.43576 -38.43415 -38.43228
  Beta  occ. eigenvalues --  -38.43197 -38.43180  -2.19858  -2.19803  -2.19407
  Beta  occ. eigenvalues --   -2.19287  -2.19172  -2.19112  -2.19077  -1.13574
  Beta  occ. eigenvalues --   -1.13506  -1.13491  -1.13482  -1.13453  -1.13442
  Beta  occ. eigenvalues --   -1.13074  -1.13062  -1.13055  -1.13051  -1.12972
  Beta  occ. eigenvalues --   -1.12949  -1.12940  -1.12892  -1.12826  -1.12759
  Beta  occ. eigenvalues --   -1.12746  -1.12733  -1.12721  -1.12704  -1.12691
  Beta  occ. eigenvalues --   -0.18353  -0.13016  -0.12220
  Beta virt. eigenvalues --   -0.07012  -0.05549  -0.05090  -0.04432  -0.02526
  Beta virt. eigenvalues --   -0.02131  -0.01536  -0.01410  -0.00930  -0.00209
  Beta virt. eigenvalues --   -0.00144   0.00130   0.00393   0.00880   0.00923

 Mulliken charges and spin densities:
               1          2
     1  Na  -0.074331  -0.041633
     2  Na   0.379204  -0.090324
     3  Na   0.179178  -0.023637
     4  Na  -0.491144   0.705478
     5  Na  -0.268113   0.550136
     6  Na   0.068856  -0.037614
     7  Na   0.206351  -0.062405
 Sum of Mulliken charges =  -0.00000   1.00000

 Dipole moment (field-independent basis, Debye):
    X=             -0.1181    Y=             -0.1558    Z=              0.1147  Tot=              0.2267
 Quadrupole moment (field-independent basis, Debye-Ang):
   XX=            -56.6006   YY=            -64.3092   ZZ=            -73.3308
   XY=             -0.3327   XZ=              0.9568   YZ=              0.5604

 Normal termination of Gaussian 16 at Thu Dec  7 23:11:13 2023.
