 Gaussian 16, Revision B.01,
 Gaussian 16:  ES64L-G16RevB.01 20-Dec-2017

 -------------------------
 #P B3LYP/6-311+g(d) force
 -------------------------

 -----
 DPGEN
 -----
 Symbolic Z-matrix:
 Charge =  0 Multiplicity = 2

                         Standard orientation:
 ---------------------------------------------------------------------
 Center     Atomic      Atomic             Coordinates (Angstroms)
 Number     Number       Type             X           Y           Z
 ---------------------------------------------------------------------
      1         11           0        3.545963    1.493043    0.562540
      2         11           0        1.995707   -0.591007   -1.619373
      3         11           0       -3.623678    1.535157   -0.476151
      4         11           0       -1.759064   -0.572364    2.070075
      5         11           0       -1.470124   -1.442066   -1.434267
      6         11           0        1.081860   -1.855394    0.983808
      7         11           0        0.229336    1.432631   -0.086632
 ---------------------------------------------------------------------

 SCF Done:  E(UB3LYP) =  -1136.12655800     A.U. after   23 cycles

 The electronic state is 2-A.
 Alpha  occ. eigenvalues --  -38.44224 -38.43961 -38.43841 -38.43767 -38.43767
 Alpha  occ. eigenvalues --  -38.43759 -38.43029  -2.20094  -2.19928  -2.19681
 Alpha  occ. eigenvalues --   -2.19640  -2.19616  -2.19588  -2.18964  -1.13784
 Alpha  occ. eigenvalues --   -1.13736  -1.13693  -1.13681  -1.13625  -1.13502
 Alpha  occ. eigenvalues --   -1.13401  -1.13367  -1.13330  -1.13298  -1.13289
 Alpha  occ. eigenvalues --   -1.13288  -1.13282  -1.13250  -1.13244  -1.13239
 Alpha  occ. eigenvalues --   -1.13230  -1.13197  -1.12646  -1.12642  -1.12566
 Alpha  occ. eigenvalues --   -0.18725  -0.13746  -0.11501  -0.11200
 Alpha virt. eigenvalues --   -0.06177  -0.05207  -0.04693  -0.03118  -0.02666
 Alpha virt. eigenvalues --   -0.02400  -0.02100  -0.01228  -0.00738  -0.00029
 Alpha virt. eigenvalues --    0.00150   0.00349   0.00527   0.00577   0.00681

  Beta  occ. eigenvalues --  -38.44154 -38.43924 -38.43835 -38.43761 -38.43745
  Beta  occ. eigenvalues --  -38.43724 -38.43007  -2.19967  -2.19862  -2.19660
  Beta  occ. eigenvalues --   -2.19607  -2.19578  -2.19563  -2.18928  -1.13693
  Beta  occ. eigenvalues --   -1.13655  -1.13641  -1.13593  -1.13580  -1.13443
  Beta  occ. eigenvalues --   -1.13358  -1.13343  -1.13286  -1.13280  -1.13272
  Beta  occ. eigenvalues --   -1.13268  -1.13241  -1.13234  -1.13233  -1.13231
  Beta  occ. eigenvalues --   -1.13189  -1.13180  -1.12624  -1.12589  -1.12538
  Beta  occ. eigenvalues --   -0.17986  -0.13564  -0.10982
  Beta virt. eigenvalues --   -0.07500  -0.05984  -0.05107  -0.04098  -0.02813
  Beta virt. eigenvalues --   -0.02258  -0.01882  -0.01751  -0.01044  -0.00309
  Beta virt. eigenvalues --    0.00032   0.00199   0.00393   0.00641   0.00710

 Mulliken charges and spin densities:
               1          2
     1  Na   0.478119  -0.137689
     2  Na   0.837764  -0.019587
     3  Na   0.487270  -0.000397
     4  Na   0.036244   0.008115
     5  Na  -0.206734   0.313478
     6  Na  -0.039418   0.294159
     7  Na  -1.593245   0.541921
 Sum of Mulliken charges =  -0.00000   1.00000

 Dipole moment (field-independent basis, Debye):
    X=              0.0203    Y=             -0.4339    Z=              0.0715  Tot=              0.4402
 Quadrupole moment (field-independent basis, Debye-Ang):
   XX=            -53.5694   YY=            -74.5663   ZZ=            -66.3915
   XY=             -0.2862   XZ=              1.1941   YZ=              0.9194

 Normal termination of Gaussian 16 at Tue Dec  5 20:51:56 2023.
