 Gaussian 16, Revision B.01,
 Gaussian 16:  ES64L-G16RevB.01 20-Dec-2017

 -------------------------
 #P B3LYP/6-311+g(d) force
 -------------------------

 -----
 DPGEN
 -----
 Symbolic Z-matrix:
 Charge =  0 Multiplicity = 2

                         Standard orientation:
 ---------------------------------------------------------------------
 Center     Atomic      Atomic             Coordinates (Angstroms)
 Number     Number       Type             X           Y           Z
 ---------------------------------------------------------------------
      1         11           0        0.973011    3.001627    0.017511
      2         11           0        1.574500   -2.720138   -0.390365
      3         11           0        0.007101    0.137015   -1.500220
      4         11           0        2.927910    0.213349    0.078059
      5         11           0       -0.300989   -0.548509    2.190712
      6         11           0       -2.688397   -1.862739   -0.269132
      7         11           0       -2.493137    1.779395   -0.126565
 ---------------------------------------------------------------------

 SCF Done:  E(UB3LYP) =  -1136.13663907     A.U. after   19 cycles

 The electronic state is 2-A.
 Alpha  occ. eigenvalues --  -38.44152 -38.44056 -38.43750 -38.43670 -38.43664
 Alpha  occ. eigenvalues --  -38.43411 -38.43067  -2.19946  -2.19879  -2.19581
 Alpha  occ. eigenvalues --   -2.19543  -2.19506  -2.19241  -2.19048  -1.13621
 Alpha  occ. eigenvalues --   -1.13606  -1.13593  -1.13572  -1.13544  -1.13494
 Alpha  occ. eigenvalues --   -1.13294  -1.13250  -1.13228  -1.13223  -1.13200
 Alpha  occ. eigenvalues --   -1.13162  -1.13152  -1.13132  -1.13123  -1.12922
 Alpha  occ. eigenvalues --   -1.12899  -1.12883  -1.12738  -1.12689  -1.12670
 Alpha  occ. eigenvalues --   -0.18322  -0.13011  -0.12419  -0.10544
 Alpha virt. eigenvalues --   -0.05752  -0.05243  -0.04901  -0.03143  -0.02880
 Alpha virt. eigenvalues --   -0.02441  -0.01488  -0.01345  -0.00582  -0.00477
 Alpha virt. eigenvalues --   -0.00021   0.00342   0.00774   0.00803   0.00854

  Beta  occ. eigenvalues --  -38.44149 -38.44051 -38.43742 -38.43665 -38.43562
  Beta  occ. eigenvalues --  -38.43410 -38.43015  -2.19943  -2.19873  -2.19569
  Beta  occ. eigenvalues --   -2.19538  -2.19316  -2.19241  -2.18955  -1.13608
  Beta  occ. eigenvalues --   -1.13596  -1.13593  -1.13563  -1.13525  -1.13494
  Beta  occ. eigenvalues --   -1.13289  -1.13232  -1.13221  -1.13208  -1.13174
  Beta  occ. eigenvalues --   -1.13151  -1.13035  -1.13000  -1.12989  -1.12918
  Beta  occ. eigenvalues --   -1.12888  -1.12886  -1.12669  -1.12620  -1.12603
  Beta  occ. eigenvalues --   -0.17632  -0.12795  -0.12219
  Beta virt. eigenvalues --   -0.06623  -0.05751  -0.05163  -0.04857  -0.02368
  Beta virt. eigenvalues --   -0.02138  -0.01446  -0.01382  -0.01259  -0.00627
  Beta virt. eigenvalues --   -0.00512   0.00153   0.00385   0.00787   0.00855

 Mulliken charges and spin densities:
               1          2
     1  Na   0.051504   0.016440
     2  Na   0.225251  -0.013416
     3  Na  -0.215458   0.247276
     4  Na   0.218653   0.077003
     5  Na  -0.609362   0.747985
     6  Na   0.147098  -0.075173
     7  Na   0.182314  -0.000116
 Sum of Mulliken charges =  -0.00000   1.00000

 Dipole moment (field-independent basis, Debye):
    X=             -0.3472    Y=             -0.1779    Z=              0.0803  Tot=              0.3983
 Quadrupole moment (field-independent basis, Debye-Ang):
   XX=            -58.0777   YY=            -59.5173   ZZ=            -75.6225
   XY=              0.2438   XZ=              0.8135   YZ=              1.6976

 Normal termination of Gaussian 16 at Tue Dec  5 22:14:30 2023.
