 Gaussian 16, Revision B.01,
 Gaussian 16:  ES64L-G16RevB.01 20-Dec-2017

 -------------------------
 #P B3LYP/6-311+g(d) force
 -------------------------

 -----
 DPGEN
 -----
 Symbolic Z-matrix:
 Charge =  0 Multiplicity = 2

                         Standard orientation:
 ---------------------------------------------------------------------
 Center     Atomic      Atomic             Coordinates (Angstroms)
 Number     Number       Type             X           Y           Z
 ---------------------------------------------------------------------
      1         11           0       -1.977624   -2.479167   -0.360954
      2         11           0        2.928747    1.582424   -0.691452
      3         11           0        0.181813   -0.510007   -1.718171
      4         11           0        2.554200   -2.029395    0.400007
      5         11           0       -3.444558    0.415285    0.280952
      6         11           0        0.724787    0.054117    2.122221
      7         11           0       -0.967365    2.966743   -0.032603
 ---------------------------------------------------------------------

 SCF Done:  E(UB3LYP) =  -1136.12782176     A.U. after   20 cycles

 The electronic state is 2-A.
 Alpha  occ. eigenvalues --  -38.44601 -38.44421 -38.44251 -38.44213 -38.43782
 Alpha  occ. eigenvalues --  -38.43492 -38.43369  -2.20386  -2.20213  -2.20075
 Alpha  occ. eigenvalues --   -2.20054  -2.19667  -2.19320  -2.19138  -1.14060
 Alpha  occ. eigenvalues --   -1.14031  -1.14020  -1.13892  -1.13872  -1.13855
 Alpha  occ. eigenvalues --   -1.13798  -1.13732  -1.13711  -1.13701  -1.13680
 Alpha  occ. eigenvalues --   -1.13653  -1.13353  -1.13312  -1.13300  -1.12996
 Alpha  occ. eigenvalues --   -1.12977  -1.12952  -1.12821  -1.12807  -1.12777
 Alpha  occ. eigenvalues --   -0.17745  -0.13324  -0.11814  -0.10818
 Alpha virt. eigenvalues --   -0.06147  -0.05789  -0.04407  -0.03405  -0.02748
 Alpha virt. eigenvalues --   -0.02681  -0.01879  -0.01403  -0.00768  -0.00453
 Alpha virt. eigenvalues --   -0.00102   0.00297   0.00646   0.00673   0.00759

  Beta  occ. eigenvalues --  -38.44572 -38.44422 -38.44235 -38.44125 -38.43725
  Beta  occ. eigenvalues --  -38.43489 -38.43374  -2.20336  -2.20214  -2.20051
  Beta  occ. eigenvalues --   -2.19892  -2.19561  -2.19317  -2.19148  -1.14008
  Beta  occ. eigenvalues --   -1.13999  -1.13989  -1.13891  -1.13871  -1.13856
  Beta  occ. eigenvalues --   -1.13753  -1.13700  -1.13692  -1.13599  -1.13574
  Beta  occ. eigenvalues --   -1.13541  -1.13278  -1.13235  -1.13228  -1.12983
  Beta  occ. eigenvalues --   -1.12970  -1.12951  -1.12823  -1.12811  -1.12781
  Beta  occ. eigenvalues --   -0.17071  -0.13109  -0.11594
  Beta virt. eigenvalues --   -0.06989  -0.06014  -0.05660  -0.04326  -0.02787
  Beta virt. eigenvalues --   -0.02124  -0.01800  -0.01668  -0.01269  -0.00741
  Beta virt. eigenvalues --   -0.00484   0.00062   0.00362   0.00746   0.00769

 Mulliken charges and spin densities:
               1          2
     1  Na   0.221604  -0.048746
     2  Na   0.022305   0.056238
     3  Na   0.147749   0.453751
     4  Na   0.167409  -0.006977
     5  Na  -0.163796  -0.027109
     6  Na  -0.211738   0.622649
     7  Na  -0.183532  -0.049805
 Sum of Mulliken charges =  -0.00000   1.00000

 Dipole moment (field-independent basis, Debye):
    X=              0.4814    Y=             -0.1834    Z=              0.1273  Tot=              0.5307
 Quadrupole moment (field-independent basis, Debye-Ang):
   XX=            -54.4154   YY=            -66.5875   ZZ=            -74.2231
   XY=              0.2138   XZ=             -1.9693   YZ=             -1.2266

 Normal termination of Gaussian 16 at Tue Dec  5 10:28:55 2023.
