 Gaussian 16, Revision B.01,
 Gaussian 16:  ES64L-G16RevB.01 20-Dec-2017

 -------------------------
 #P B3LYP/6-311+g(d) force
 -------------------------

 -----
 DPGEN
 -----
 Symbolic Z-matrix:
 Charge =  0 Multiplicity = 2

                         Standard orientation:
 ---------------------------------------------------------------------
 Center     Atomic      Atomic             Coordinates (Angstroms)
 Number     Number       Type             X           Y           Z
 ---------------------------------------------------------------------
      1         11           0        4.366656    0.775683    0.368920
      2         11           0       -1.684063   -1.231533   -0.818648
      3         11           0        0.936212    1.709436   -0.972981
      4         11           0        0.893686   -0.484994    2.000540
      5         11           0       -2.470043    1.903409   -0.061714
      6         11           0        2.692900   -1.962702   -0.870053
      7         11           0       -4.735347   -0.709300    0.353935
 ---------------------------------------------------------------------

 SCF Done:  E(UB3LYP) =  -1136.11225203     A.U. after   30 cycles

 The electronic state is 2-A.
 Alpha  occ. eigenvalues --  -38.46446 -38.44530 -38.44445 -38.44330 -38.43681
 Alpha  occ. eigenvalues --  -38.43138 -38.42550  -2.22224  -2.20320  -2.20269
 Alpha  occ. eigenvalues --   -2.20172  -2.19525  -2.18968  -2.18383  -1.15889
 Alpha  occ. eigenvalues --   -1.15863  -1.15846  -1.14009  -1.13983  -1.13967
 Alpha  occ. eigenvalues --   -1.13927  -1.13897  -1.13872  -1.13872  -1.13841
 Alpha  occ. eigenvalues --   -1.13802  -1.13225  -1.13206  -1.13122  -1.12626
 Alpha  occ. eigenvalues --   -1.12619  -1.12605  -1.12084  -1.12050  -1.12003
 Alpha  occ. eigenvalues --   -0.17552  -0.14489  -0.10909  -0.10418
 Alpha virt. eigenvalues --   -0.07564  -0.05672  -0.04570  -0.03386  -0.02892
 Alpha virt. eigenvalues --   -0.02190  -0.01921  -0.01740  -0.01353  -0.00705
 Alpha virt. eigenvalues --   -0.00616   0.00076   0.00259   0.00438   0.00590

  Beta  occ. eigenvalues --  -38.46400 -38.44521 -38.44361 -38.44321 -38.43674
  Beta  occ. eigenvalues --  -38.43109 -38.42547  -2.22140  -2.20306  -2.20159
  Beta  occ. eigenvalues --   -2.20112  -2.19513  -2.18913  -2.18380  -1.15816
  Beta  occ. eigenvalues --   -1.15809  -1.15786  -1.14005  -1.13967  -1.13926
  Beta  occ. eigenvalues --   -1.13868  -1.13835  -1.13819  -1.13787  -1.13776
  Beta  occ. eigenvalues --   -1.13763  -1.13220  -1.13199  -1.13102  -1.12588
  Beta  occ. eigenvalues --   -1.12583  -1.12568  -1.12078  -1.12045  -1.11996
  Beta  occ. eigenvalues --   -0.16915  -0.13981  -0.10304
  Beta virt. eigenvalues --   -0.07332  -0.07283  -0.05392  -0.04085  -0.03109
  Beta virt. eigenvalues --   -0.02737  -0.01757  -0.01620  -0.01402  -0.00998
  Beta virt. eigenvalues --   -0.00486  -0.00336   0.00149   0.00321   0.00507

 Mulliken charges and spin densities:
               1          2
     1  Na   0.343781   0.532006
     2  Na  -0.474801   0.061785
     3  Na  -0.439229  -0.019057
     4  Na  -0.040620   0.171726
     5  Na   0.053008   0.113381
     6  Na   0.024790   0.058296
     7  Na   0.533071   0.081863
 Sum of Mulliken charges =  -0.00000   1.00000

 Dipole moment (field-independent basis, Debye):
    X=              0.7147    Y=             -0.0959    Z=              1.2836  Tot=              1.4722
 Quadrupole moment (field-independent basis, Debye-Ang):
   XX=            -69.4986   YY=            -77.7445   ZZ=            -59.1949
   XY=             -2.0356   XZ=             -0.6691   YZ=              4.2309

 Normal termination of Gaussian 16 at Fri Dec  8 07:21:32 2023.
