 Gaussian 16, Revision B.01,
 Gaussian 16:  ES64L-G16RevB.01 20-Dec-2017

 -------------------------
 #P B3LYP/6-311+g(d) force
 -------------------------

 -----
 DPGEN
 -----
 Symbolic Z-matrix:
 Charge =  0 Multiplicity = 2

                         Standard orientation:
 ---------------------------------------------------------------------
 Center     Atomic      Atomic             Coordinates (Angstroms)
 Number     Number       Type             X           Y           Z
 ---------------------------------------------------------------------
      1         11           0        3.153695    0.696695    0.153899
      2         11           0        0.453914   -0.526738   -1.564176
      3         11           0        0.382277    3.308908   -0.366834
      4         11           0        1.930007   -2.669170   -0.020168
      5         11           0       -2.722882   -2.081187   -0.182800
      6         11           0       -2.961313    1.261590   -0.136764
      7         11           0       -0.235697    0.009901    2.116843
 ---------------------------------------------------------------------

 SCF Done:  E(UB3LYP) =  -1136.12916952     A.U. after   21 cycles

 The electronic state is 2-A.
 Alpha  occ. eigenvalues --  -38.44637 -38.44296 -38.44258 -38.44042 -38.43650
 Alpha  occ. eigenvalues --  -38.43557 -38.43488  -2.20437  -2.20090  -2.20044
 Alpha  occ. eigenvalues --   -2.19876  -2.19483  -2.19471  -2.19250  -1.14121
 Alpha  occ. eigenvalues --   -1.14104  -1.14062  -1.13775  -1.13768  -1.13741
 Alpha  occ. eigenvalues --   -1.13711  -1.13691  -1.13669  -1.13619  -1.13519
 Alpha  occ. eigenvalues --   -1.13502  -1.13163  -1.13138  -1.13109  -1.13105
 Alpha  occ. eigenvalues --   -1.13098  -1.13088  -1.12926  -1.12904  -1.12899
 Alpha  occ. eigenvalues --   -0.17801  -0.13239  -0.12004  -0.10272
 Alpha virt. eigenvalues --   -0.06032  -0.05674  -0.05011  -0.03293  -0.02633
 Alpha virt. eigenvalues --   -0.02319  -0.01789  -0.01369  -0.00951  -0.00790
 Alpha virt. eigenvalues --   -0.00034   0.00324   0.00702   0.00730   0.00786

  Beta  occ. eigenvalues --  -38.44633 -38.44293 -38.44256 -38.44038 -38.43547
  Beta  occ. eigenvalues --  -38.43509 -38.43483  -2.20434  -2.20087  -2.20043
  Beta  occ. eigenvalues --   -2.19874  -2.19384  -2.19292  -2.19244  -1.14113
  Beta  occ. eigenvalues --   -1.14088  -1.14065  -1.13776  -1.13748  -1.13742
  Beta  occ. eigenvalues --   -1.13695  -1.13691  -1.13670  -1.13608  -1.13505
  Beta  occ. eigenvalues --   -1.13499  -1.13091  -1.13043  -1.13025  -1.13014
  Beta  occ. eigenvalues --   -1.12975  -1.12963  -1.12911  -1.12900  -1.12896
  Beta  occ. eigenvalues --   -0.17124  -0.13073  -0.11813
  Beta virt. eigenvalues --   -0.06428  -0.05978  -0.05617  -0.04917  -0.02540
  Beta virt. eigenvalues --   -0.01981  -0.01691  -0.01338  -0.01277  -0.00998
  Beta virt. eigenvalues --   -0.00804   0.00139   0.00374   0.00727   0.00789

 Mulliken charges and spin densities:
               1          2
     1  Na   0.080444   0.024064
     2  Na   0.066411   0.435026
     3  Na  -0.188457  -0.031416
     4  Na   0.236869  -0.078767
     5  Na   0.087280  -0.071836
     6  Na   0.009123  -0.000169
     7  Na  -0.291670   0.723098
 Sum of Mulliken charges =  -0.00000   1.00000

 Dipole moment (field-independent basis, Debye):
    X=              0.1365    Y=             -0.4254    Z=              0.0757  Tot=              0.4531
 Quadrupole moment (field-independent basis, Debye-Ang):
   XX=            -54.6813   YY=            -61.5362   ZZ=            -77.2911
   XY=             -0.1307   XZ=              1.5884   YZ=             -1.0111

 Normal termination of Gaussian 16 at Thu Dec  7 20:17:40 2023.
