 Gaussian 16, Revision B.01,
 Gaussian 16:  ES64L-G16RevB.01 20-Dec-2017

 -------------------------
 #P B3LYP/6-311+g(d) force
 -------------------------

 -----
 DPGEN
 -----
 Symbolic Z-matrix:
 Charge =  0 Multiplicity = 2

                         Standard orientation:
 ---------------------------------------------------------------------
 Center     Atomic      Atomic             Coordinates (Angstroms)
 Number     Number       Type             X           Y           Z
 ---------------------------------------------------------------------
      1         11           0        2.489929   -0.926120   -1.255124
      2         11           0        4.986259   -1.870304    0.398888
      3         11           0        3.728834    1.061803    0.732669
      4         11           0        0.399815    2.997473    0.011738
      5         11           0       -0.980012    0.113941   -0.802829
      6         11           0       -3.981736   -0.962075    1.386096
      7         11           0       -6.643089   -0.414718   -0.471438
 ---------------------------------------------------------------------

 SCF Done:  E(UB3LYP) =  -1136.11264805     A.U. after   20 cycles

 The electronic state is 2-A.
 Alpha  occ. eigenvalues --  -38.44508 -38.44406 -38.44324 -38.44312 -38.44303
 Alpha  occ. eigenvalues --  -38.43791 -38.43398  -2.20305  -2.20272  -2.20187
 Alpha  occ. eigenvalues --   -2.20178  -2.20082  -2.19584  -2.19220  -1.14078
 Alpha  occ. eigenvalues --   -1.13988  -1.13949  -1.13933  -1.13931  -1.13919
 Alpha  occ. eigenvalues --   -1.13874  -1.13849  -1.13835  -1.13823  -1.13786
 Alpha  occ. eigenvalues --   -1.13754  -1.13744  -1.13723  -1.13709  -1.13254
 Alpha  occ. eigenvalues --   -1.13241  -1.13223  -1.12895  -1.12880  -1.12838
 Alpha  occ. eigenvalues --   -0.16719  -0.13864  -0.12195  -0.10390
 Alpha virt. eigenvalues --   -0.06571  -0.05645  -0.04519  -0.03798  -0.02880
 Alpha virt. eigenvalues --   -0.02361  -0.01916  -0.01615  -0.01299  -0.00766
 Alpha virt. eigenvalues --   -0.00386  -0.00001   0.00345   0.00498   0.00563

  Beta  occ. eigenvalues --  -38.44491 -38.44363 -38.44320 -38.44318 -38.44249
  Beta  occ. eigenvalues --  -38.43763 -38.43364  -2.20240  -2.20228  -2.20173
  Beta  occ. eigenvalues --   -2.20093  -2.20086  -2.19533  -2.19159  -1.14017
  Beta  occ. eigenvalues --   -1.13940  -1.13911  -1.13909  -1.13902  -1.13901
  Beta  occ. eigenvalues --   -1.13844  -1.13821  -1.13786  -1.13771  -1.13762
  Beta  occ. eigenvalues --   -1.13750  -1.13749  -1.13708  -1.13656  -1.13221
  Beta  occ. eigenvalues --   -1.13202  -1.13181  -1.12854  -1.12826  -1.12803
  Beta  occ. eigenvalues --   -0.16106  -0.13744  -0.11935
  Beta virt. eigenvalues --   -0.06910  -0.06138  -0.05390  -0.04081  -0.03552
  Beta virt. eigenvalues --   -0.02587  -0.02119  -0.01579  -0.01432  -0.01075
  Beta virt. eigenvalues --   -0.00562  -0.00097   0.00211   0.00496   0.00577

 Mulliken charges and spin densities:
               1          2
     1  Na  -0.179436   0.299112
     2  Na   0.852771  -0.017258
     3  Na  -0.356277   0.289714
     4  Na   0.351052   0.162030
     5  Na  -0.892443   0.233413
     6  Na   0.042150  -0.042228
     7  Na   0.182184   0.075218
 Sum of Mulliken charges =  -0.00000   1.00000

 Dipole moment (field-independent basis, Debye):
    X=              0.5343    Y=             -0.5894    Z=              0.1903  Tot=              0.8180
 Quadrupole moment (field-independent basis, Debye-Ang):
   XX=            -54.5077   YY=            -68.9752   ZZ=            -67.9573
   XY=             -8.8708   XZ=              6.0985   YZ=             -2.8313

 Normal termination of Gaussian 16 at Tue Nov 28 18:55:04 2023.
