 Gaussian 16, Revision B.01,
 Gaussian 16:  ES64L-G16RevB.01 20-Dec-2017

 -------------------------
 #P B3LYP/6-311+g(d) force
 -------------------------

 -----
 DPGEN
 -----
 Symbolic Z-matrix:
 Charge =  0 Multiplicity = 2

                         Standard orientation:
 ---------------------------------------------------------------------
 Center     Atomic      Atomic             Coordinates (Angstroms)
 Number     Number       Type             X           Y           Z
 ---------------------------------------------------------------------
      1         11           0        2.792856   -1.149608   -0.386810
      2         11           0        0.446081   -0.116675    2.236651
      3         11           0       -1.599368    2.074904    0.048882
      4         11           0       -0.101389   -2.691166   -0.002707
      5         11           0       -3.330167   -0.677010   -0.084750
      6         11           0        0.076626    0.205465   -1.821664
      7         11           0        1.715362    2.354089    0.010399
 ---------------------------------------------------------------------

 SCF Done:  E(UB3LYP) =  -1136.13701653     A.U. after   19 cycles

 The electronic state is 2-A.
 Alpha  occ. eigenvalues --  -38.44100 -38.43940 -38.43835 -38.43645 -38.43206
 Alpha  occ. eigenvalues --  -38.43202 -38.43173  -2.19974  -2.19740  -2.19700
 Alpha  occ. eigenvalues --   -2.19620  -2.19117  -2.19071  -2.19055  -1.13629
 Alpha  occ. eigenvalues --   -1.13601  -1.13596  -1.13422  -1.13403  -1.13399
 Alpha  occ. eigenvalues --   -1.13379  -1.13354  -1.13340  -1.13317  -1.13259
 Alpha  occ. eigenvalues --   -1.13236  -1.12817  -1.12780  -1.12762  -1.12755
 Alpha  occ. eigenvalues --   -1.12747  -1.12722  -1.12708  -1.12689  -1.12670
 Alpha  occ. eigenvalues --   -0.18816  -0.12954  -0.12396  -0.11298
 Alpha virt. eigenvalues --   -0.05624  -0.04868  -0.04431  -0.03341  -0.03078
 Alpha virt. eigenvalues --   -0.03039  -0.01490  -0.00960  -0.00156  -0.00083
 Alpha virt. eigenvalues --    0.00028   0.00354   0.00812   0.00921   0.00941

  Beta  occ. eigenvalues --  -38.43998 -38.43944 -38.43825 -38.43575 -38.43200
  Beta  occ. eigenvalues --  -38.43196 -38.43167  -2.19786  -2.19748  -2.19686
  Beta  occ. eigenvalues --   -2.19493  -2.19109  -2.19064  -2.19049  -1.13506
  Beta  occ. eigenvalues --   -1.13470  -1.13460  -1.13429  -1.13398  -1.13385
  Beta  occ. eigenvalues --   -1.13376  -1.13335  -1.13325  -1.13235  -1.13173
  Beta  occ. eigenvalues --   -1.13145  -1.12809  -1.12763  -1.12753  -1.12747
  Beta  occ. eigenvalues --   -1.12713  -1.12711  -1.12689  -1.12681  -1.12669
  Beta  occ. eigenvalues --   -0.18042  -0.12747  -0.12165
  Beta virt. eigenvalues --   -0.07297  -0.05566  -0.04888  -0.04359  -0.02543
  Beta virt. eigenvalues --   -0.02261  -0.01976  -0.01417  -0.00910  -0.00174
  Beta virt. eigenvalues --   -0.00029   0.00074   0.00378   0.00888   0.00927

 Mulliken charges and spin densities:
               1          2
     1  Na   0.342347  -0.030588
     2  Na  -0.616004   0.649912
     3  Na   0.226841   0.033695
     4  Na   0.083979  -0.020394
     5  Na  -0.055587  -0.095515
     6  Na  -0.332795   0.454643
     7  Na   0.351218   0.008247
 Sum of Mulliken charges =  -0.00000   1.00000

 Dipole moment (field-independent basis, Debye):
    X=              0.1334    Y=             -0.1647    Z=              0.1681  Tot=              0.2705
 Quadrupole moment (field-independent basis, Debye-Ang):
   XX=            -57.4770   YY=            -66.6234   ZZ=            -71.0188
   XY=              1.0973   XZ=             -0.6815   YZ=              0.6839

 Normal termination of Gaussian 16 at Tue Dec  5 21:19:49 2023.
