 Gaussian 16, Revision B.01,
 Gaussian 16:  ES64L-G16RevB.01 20-Dec-2017

 -------------------------
 #P B3LYP/6-311+g(d) force
 -------------------------

 -----
 DPGEN
 -----
 Symbolic Z-matrix:
 Charge =  0 Multiplicity = 2

                         Standard orientation:
 ---------------------------------------------------------------------
 Center     Atomic      Atomic             Coordinates (Angstroms)
 Number     Number       Type             X           Y           Z
 ---------------------------------------------------------------------
      1         11           0       -2.209392   -0.116832   -1.872919
      2         11           0       -3.070508   -1.166698    1.724075
      3         11           0        3.244163   -1.480156   -0.192140
      4         11           0       -0.025188    0.596983    1.599323
      5         11           0        2.363291    2.093538    0.587307
      6         11           0       -0.855336    2.848584   -1.031027
      7         11           0        0.552970   -2.775419   -0.814619
 ---------------------------------------------------------------------

 SCF Done:  E(UB3LYP) =  -1136.12379359     A.U. after   20 cycles

 The electronic state is 2-A.
 Alpha  occ. eigenvalues --  -38.44588 -38.44208 -38.44198 -38.44068 -38.43762
 Alpha  occ. eigenvalues --  -38.43756 -38.43743  -2.20380  -2.20029  -2.20004
 Alpha  occ. eigenvalues --   -2.19963  -2.19609  -2.19566  -2.19552  -1.14041
 Alpha  occ. eigenvalues --   -1.14024  -1.13990  -1.13733  -1.13698  -1.13689
 Alpha  occ. eigenvalues --   -1.13668  -1.13659  -1.13632  -1.13619  -1.13618
 Alpha  occ. eigenvalues --   -1.13595  -1.13356  -1.13288  -1.13255  -1.13238
 Alpha  occ. eigenvalues --   -1.13217  -1.13210  -1.13205  -1.13176  -1.13125
 Alpha  occ. eigenvalues --   -0.17348  -0.13059  -0.12462  -0.11431
 Alpha virt. eigenvalues --   -0.05719  -0.05545  -0.04890  -0.03487  -0.03054
 Alpha virt. eigenvalues --   -0.02617  -0.01723  -0.00974  -0.00699  -0.00380
 Alpha virt. eigenvalues --   -0.00289   0.00259   0.00379   0.00436   0.00817

  Beta  occ. eigenvalues --  -38.44518 -38.44171 -38.44154 -38.44025 -38.43756
  Beta  occ. eigenvalues --  -38.43748 -38.43743  -2.20251  -2.19962  -2.19923
  Beta  occ. eigenvalues --   -2.19884  -2.19600  -2.19566  -2.19539  -1.13940
  Beta  occ. eigenvalues --   -1.13938  -1.13909  -1.13678  -1.13651  -1.13627
  Beta  occ. eigenvalues --   -1.13613  -1.13605  -1.13579  -1.13565  -1.13553
  Beta  occ. eigenvalues --   -1.13545  -1.13351  -1.13266  -1.13248  -1.13232
  Beta  occ. eigenvalues --   -1.13214  -1.13200  -1.13195  -1.13177  -1.13119
  Beta  occ. eigenvalues --   -0.16795  -0.12648  -0.12222
  Beta virt. eigenvalues --   -0.07688  -0.05589  -0.05132  -0.04606  -0.03194
  Beta virt. eigenvalues --   -0.02577  -0.01945  -0.01442  -0.00887  -0.00488
  Beta virt. eigenvalues --   -0.00301  -0.00115   0.00368   0.00528   0.00636

 Mulliken charges and spin densities:
               1          2
     1  Na   0.316372   0.292049
     2  Na   0.041982   0.076504
     3  Na  -0.197938  -0.071199
     4  Na  -0.470628   0.323710
     5  Na   1.180519   0.137684
     6  Na  -0.624216   0.124656
     7  Na  -0.246091   0.116596
 Sum of Mulliken charges =  -0.00000   1.00000

 Dipole moment (field-independent basis, Debye):
    X=             -0.2988    Y=              0.3705    Z=             -0.1442  Tot=              0.4974
 Quadrupole moment (field-independent basis, Debye-Ang):
   XX=            -59.3077   YY=            -67.0590   ZZ=            -70.5579
   XY=              4.1862   XZ=             -0.3419   YZ=             -1.8985

 Normal termination of Gaussian 16 at Sun Dec  3 19:33:16 2023.
