 Gaussian 16, Revision B.01,
 Gaussian 16:  ES64L-G16RevB.01 20-Dec-2017

 -------------------------
 #P B3LYP/6-311+g(d) force
 -------------------------

 -----
 DPGEN
 -----
 Symbolic Z-matrix:
 Charge =  0 Multiplicity = 2

                         Standard orientation:
 ---------------------------------------------------------------------
 Center     Atomic      Atomic             Coordinates (Angstroms)
 Number     Number       Type             X           Y           Z
 ---------------------------------------------------------------------
      1         11           0       -2.687436    1.859657   -0.129724
      2         11           0       -0.068219    0.186916   -1.452752
      3         11           0        1.647480    2.957349    0.051065
      4         11           0        3.240912   -0.674364   -0.186049
      5         11           0       -0.027664    0.267147    1.654166
      6         11           0        0.903259   -2.939260    0.078557
      7         11           0       -3.008332   -1.657444   -0.015262
 ---------------------------------------------------------------------

 SCF Done:  E(UB3LYP) =  -1136.13111024     A.U. after   21 cycles

 The electronic state is 2-A.
 Alpha  occ. eigenvalues --  -38.44502 -38.44483 -38.44398 -38.43916 -38.43444
 Alpha  occ. eigenvalues --  -38.43123 -38.42794  -2.20300  -2.20280  -2.20214
 Alpha  occ. eigenvalues --   -2.19702  -2.19273  -2.19080  -2.18733  -1.13980
 Alpha  occ. eigenvalues --   -1.13970  -1.13955  -1.13947  -1.13931  -1.13901
 Alpha  occ. eigenvalues --   -1.13883  -1.13881  -1.13850  -1.13375  -1.13357
 Alpha  occ. eigenvalues --   -1.13349  -1.12946  -1.12938  -1.12917  -1.12842
 Alpha  occ. eigenvalues --   -1.12702  -1.12684  -1.12438  -1.12347  -1.12326
 Alpha  occ. eigenvalues --   -0.18237  -0.13253  -0.12218  -0.09658
 Alpha virt. eigenvalues --   -0.06033  -0.05915  -0.04903  -0.02923  -0.02405
 Alpha virt. eigenvalues --   -0.01984  -0.01736  -0.01654  -0.00902  -0.00709
 Alpha virt. eigenvalues --    0.00017   0.00297   0.00686   0.00700   0.00804

  Beta  occ. eigenvalues --  -38.44501 -38.44474 -38.44391 -38.43914 -38.43440
  Beta  occ. eigenvalues --  -38.43069 -38.42712  -2.20287  -2.20280  -2.20203
  Beta  occ. eigenvalues --   -2.19701  -2.19269  -2.18983  -2.18582  -1.13972
  Beta  occ. eigenvalues --   -1.13954  -1.13941  -1.13932  -1.13925  -1.13898
  Beta  occ. eigenvalues --   -1.13877  -1.13857  -1.13845  -1.13359  -1.13356
  Beta  occ. eigenvalues --   -1.13348  -1.12944  -1.12927  -1.12902  -1.12761
  Beta  occ. eigenvalues --   -1.12633  -1.12613  -1.12333  -1.12242  -1.12214
  Beta  occ. eigenvalues --   -0.17563  -0.13012  -0.12003
  Beta virt. eigenvalues --   -0.06059  -0.05895  -0.05790  -0.04883  -0.02200
  Beta virt. eigenvalues --   -0.01876  -0.01736  -0.01626  -0.01000  -0.00772
  Beta virt. eigenvalues --   -0.00683   0.00181   0.00357   0.00708   0.00746

 Mulliken charges and spin densities:
               1          2
     1  Na   0.283295  -0.064780
     2  Na  -0.337435   0.511708
     3  Na   0.087716  -0.121048
     4  Na   0.181170   0.011088
     5  Na  -0.272333   0.759440
     6  Na  -0.004407  -0.059971
     7  Na   0.061995  -0.036437
 Sum of Mulliken charges =  -0.00000   1.00000

 Dipole moment (field-independent basis, Debye):
    X=             -0.2574    Y=              0.1856    Z=              0.0440  Tot=              0.3204
 Quadrupole moment (field-independent basis, Debye-Ang):
   XX=            -51.0345   YY=            -58.3981   ZZ=            -80.0092
   XY=              1.1376   XZ=             -0.2096   YZ=             -0.1455

 Normal termination of Gaussian 16 at Sat Dec  9 05:53:06 2023.
