 Gaussian 16, Revision B.01,
 Gaussian 16:  ES64L-G16RevB.01 20-Dec-2017

 -------------------------
 #P B3LYP/6-311+g(d) force
 -------------------------

 -----
 DPGEN
 -----
 Symbolic Z-matrix:
 Charge =  0 Multiplicity = 2

                         Standard orientation:
 ---------------------------------------------------------------------
 Center     Atomic      Atomic             Coordinates (Angstroms)
 Number     Number       Type             X           Y           Z
 ---------------------------------------------------------------------
      1         11           0       -1.912362    2.431842    0.070130
      2         11           0       -3.136719   -0.707079   -0.286693
      3         11           0       -0.463414   -2.656001    0.370385
      4         11           0       -0.029851    0.198654    1.602021
      5         11           0        2.963173   -1.323733   -0.194661
      6         11           0        0.046585    0.031215   -1.602955
      7         11           0        2.532588    2.025103    0.041772
 ---------------------------------------------------------------------

 SCF Done:  E(UB3LYP) =  -1136.13404652     A.U. after   21 cycles

 The electronic state is 2-A.
 Alpha  occ. eigenvalues --  -38.44345 -38.44331 -38.44135 -38.43581 -38.43216
 Alpha  occ. eigenvalues --  -38.42799 -38.42737  -2.20199  -2.20159  -2.19954
 Alpha  occ. eigenvalues --   -2.19427  -2.19193  -2.18809  -2.18643  -1.13867
 Alpha  occ. eigenvalues --   -1.13854  -1.13849  -1.13833  -1.13822  -1.13801
 Alpha  occ. eigenvalues --   -1.13626  -1.13612  -1.13590  -1.13114  -1.13091
 Alpha  occ. eigenvalues --   -1.13062  -1.12928  -1.12820  -1.12797  -1.12527
 Alpha  occ. eigenvalues --   -1.12465  -1.12411  -1.12306  -1.12290  -1.12263
 Alpha  occ. eigenvalues --   -0.18858  -0.13581  -0.12118  -0.10207
 Alpha virt. eigenvalues --   -0.06060  -0.05679  -0.04209  -0.03207  -0.02468
 Alpha virt. eigenvalues --   -0.02017  -0.01932  -0.01349  -0.00553  -0.00263
 Alpha virt. eigenvalues --    0.00035   0.00316   0.00704   0.00794   0.00895

  Beta  occ. eigenvalues --  -38.44335 -38.44326 -38.44133 -38.43577 -38.43154
  Beta  occ. eigenvalues --  -38.42723 -38.42718  -2.20185  -2.20151  -2.19952
  Beta  occ. eigenvalues --   -2.19422  -2.19080  -2.18662  -2.18622  -1.13852
  Beta  occ. eigenvalues --   -1.13844  -1.13826  -1.13821  -1.13814  -1.13791
  Beta  occ. eigenvalues --   -1.13615  -1.13610  -1.13584  -1.13108  -1.13074
  Beta  occ. eigenvalues --   -1.13053  -1.12845  -1.12743  -1.12711  -1.12439
  Beta  occ. eigenvalues --   -1.12367  -1.12311  -1.12277  -1.12254  -1.12230
  Beta  occ. eigenvalues --   -0.18160  -0.13322  -0.11852
  Beta virt. eigenvalues --   -0.06376  -0.05964  -0.05682  -0.04208  -0.02444
  Beta virt. eigenvalues --   -0.01882  -0.01734  -0.01322  -0.00940  -0.00604
  Beta virt. eigenvalues --   -0.00271   0.00168   0.00356   0.00760   0.00790

 Mulliken charges and spin densities:
               1          2
     1  Na   0.083770  -0.093757
     2  Na   0.192364   0.076747
     3  Na   0.137294   0.010805
     4  Na  -0.245812   0.562588
     5  Na   0.120798   0.007172
     6  Na  -0.349381   0.541597
     7  Na   0.060967  -0.105152
 Sum of Mulliken charges =  -0.00000   1.00000

 Dipole moment (field-independent basis, Debye):
    X=              0.2286    Y=              0.1788    Z=             -0.0863  Tot=              0.3028
 Quadrupole moment (field-independent basis, Debye-Ang):
   XX=            -50.2280   YY=            -63.2931   ZZ=            -77.2099
   XY=              0.0470   XZ=              0.3223   YZ=             -0.1173

 Normal termination of Gaussian 16 at Wed Nov 29 00:18:09 2023.
