 Gaussian 16, Revision B.01,
 Gaussian 16:  ES64L-G16RevB.01 20-Dec-2017

 -------------------------
 #P B3LYP/6-311+g(d) force
 -------------------------

 -----
 DPGEN
 -----
 Symbolic Z-matrix:
 Charge =  0 Multiplicity = 2

                         Standard orientation:
 ---------------------------------------------------------------------
 Center     Atomic      Atomic             Coordinates (Angstroms)
 Number     Number       Type             X           Y           Z
 ---------------------------------------------------------------------
      1         11           0        3.870310   -0.711985   -0.761068
      2         11           0        0.148574   -0.162550   -1.402374
      3         11           0        2.039963    1.817870    0.495369
      4         11           0       -3.480574   -0.869068   -1.338657
      5         11           0       -2.278057   -0.527762    1.551098
      6         11           0       -1.308037    2.423638    0.194067
      7         11           0        1.007821   -1.970143    1.261565
 ---------------------------------------------------------------------

 SCF Done:  E(UB3LYP) =  -1136.12431799     A.U. after   22 cycles

 The electronic state is 2-A.
 Alpha  occ. eigenvalues --  -38.44798 -38.44671 -38.44229 -38.44083 -38.43689
 Alpha  occ. eigenvalues --  -38.43506 -38.42664  -2.20605  -2.20573  -2.20064
 Alpha  occ. eigenvalues --   -2.19964  -2.19529  -2.19370  -2.18528  -1.14299
 Alpha  occ. eigenvalues --   -1.14282  -1.14262  -1.14230  -1.14224  -1.14185
 Alpha  occ. eigenvalues --   -1.13775  -1.13705  -1.13692  -1.13624  -1.13611
 Alpha  occ. eigenvalues --   -1.13579  -1.13225  -1.13186  -1.13121  -1.13060
 Alpha  occ. eigenvalues --   -1.13045  -1.12990  -1.12207  -1.12203  -1.12147
 Alpha  occ. eigenvalues --   -0.18275  -0.14191  -0.11303  -0.10792
 Alpha virt. eigenvalues --   -0.06933  -0.05305  -0.04623  -0.03264  -0.02792
 Alpha virt. eigenvalues --   -0.02314  -0.02140  -0.01282  -0.00763  -0.00237
 Alpha virt. eigenvalues --    0.00067   0.00192   0.00283   0.00568   0.00736

  Beta  occ. eigenvalues --  -38.44782 -38.44650 -38.44175 -38.44054 -38.43637
  Beta  occ. eigenvalues --  -38.43506 -38.42657  -2.20575  -2.20535  -2.19964
  Beta  occ. eigenvalues --   -2.19915  -2.19433  -2.19371  -2.18517  -1.14262
  Beta  occ. eigenvalues --   -1.14253  -1.14236  -1.14211  -1.14206  -1.14156
  Beta  occ. eigenvalues --   -1.13716  -1.13636  -1.13622  -1.13586  -1.13571
  Beta  occ. eigenvalues --   -1.13522  -1.13164  -1.13117  -1.13063  -1.13042
  Beta  occ. eigenvalues --   -1.13032  -1.12990  -1.12201  -1.12183  -1.12139
  Beta  occ. eigenvalues --   -0.17680  -0.13897  -0.11030
  Beta virt. eigenvalues --   -0.07155  -0.06692  -0.05090  -0.04132  -0.03064
  Beta virt. eigenvalues --   -0.02552  -0.01841  -0.01425  -0.01064  -0.00495
  Beta virt. eigenvalues --   -0.00150   0.00144   0.00258   0.00407   0.00688

 Mulliken charges and spin densities:
               1          2
     1  Na   1.028934   0.083811
     2  Na  -0.864543  -0.002236
     3  Na   0.000360   0.101103
     4  Na   0.107443   0.326762
     5  Na   0.272029   0.034665
     6  Na  -0.192194   0.176639
     7  Na  -0.352029   0.279257
 Sum of Mulliken charges =  -0.00000   1.00000

 Dipole moment (field-independent basis, Debye):
    X=              0.7485    Y=             -0.1610    Z=             -0.0660  Tot=              0.7684
 Quadrupole moment (field-independent basis, Debye-Ang):
   XX=            -49.5203   YY=            -76.6135   ZZ=            -68.8381
   XY=             -1.4668   XZ=             -1.5104   YZ=              1.7930

 Normal termination of Gaussian 16 at Thu Dec  7 12:36:16 2023.
