 Gaussian 16, Revision B.01,
 Gaussian 16:  ES64L-G16RevB.01 20-Dec-2017

 -------------------------
 #P B3LYP/6-311+g(d) force
 -------------------------

 -----
 DPGEN
 -----
 Symbolic Z-matrix:
 Charge =  0 Multiplicity = 2

                         Standard orientation:
 ---------------------------------------------------------------------
 Center     Atomic      Atomic             Coordinates (Angstroms)
 Number     Number       Type             X           Y           Z
 ---------------------------------------------------------------------
      1         11           0       -3.093454    1.217212   -0.225859
      2         11           0        0.908596    2.704372   -0.330389
      3         11           0       -2.982675   -1.875263   -0.455473
      4         11           0       -0.357230   -1.086588   -1.066147
      5         11           0       -0.602972    0.369786    2.465228
      6         11           0        2.840031    0.176936   -1.389654
      7         11           0        3.287705   -1.506456    1.002293
 ---------------------------------------------------------------------

 SCF Done:  E(UB3LYP) =  -1136.11163130     A.U. after   26 cycles

 The electronic state is 2-A.
 Alpha  occ. eigenvalues --  -38.45449 -38.44710 -38.44359 -38.44249 -38.43928
 Alpha  occ. eigenvalues --  -38.43819 -38.43113  -2.21266  -2.20531  -2.20271
 Alpha  occ. eigenvalues --   -2.20050  -2.19833  -2.19732  -2.18916  -1.14950
 Alpha  occ. eigenvalues --   -1.14942  -1.14893  -1.14255  -1.14161  -1.14154
 Alpha  occ. eigenvalues --   -1.14076  -1.13938  -1.13897  -1.13713  -1.13685
 Alpha  occ. eigenvalues --   -1.13655  -1.13508  -1.13481  -1.13459  -1.13384
 Alpha  occ. eigenvalues --   -1.13368  -1.13338  -1.12589  -1.12582  -1.12543
 Alpha  occ. eigenvalues --   -0.17909  -0.14357  -0.11239  -0.11025
 Alpha virt. eigenvalues --   -0.06908  -0.05298  -0.04836  -0.03218  -0.03015
 Alpha virt. eigenvalues --   -0.02541  -0.02422  -0.01115  -0.00542  -0.00425
 Alpha virt. eigenvalues --   -0.00066   0.00175   0.00269   0.00393   0.00691

  Beta  occ. eigenvalues --  -38.45455 -38.44671 -38.44348 -38.44158 -38.43905
  Beta  occ. eigenvalues --  -38.43821 -38.43087  -2.21279  -2.20459  -2.20254
  Beta  occ. eigenvalues --   -2.19879  -2.19794  -2.19737  -2.18870  -1.14958
  Beta  occ. eigenvalues --   -1.14944  -1.14899  -1.14208  -1.14111  -1.14099
  Beta  occ. eigenvalues --   -1.14066  -1.13912  -1.13884  -1.13596  -1.13568
  Beta  occ. eigenvalues --   -1.13538  -1.13472  -1.13460  -1.13412  -1.13390
  Beta  occ. eigenvalues --   -1.13370  -1.13331  -1.12557  -1.12547  -1.12504
  Beta  occ. eigenvalues --   -0.17363  -0.14040  -0.11035
  Beta virt. eigenvalues --   -0.07288  -0.06703  -0.05153  -0.04207  -0.03108
  Beta virt. eigenvalues --   -0.02409  -0.02235  -0.01769  -0.00975  -0.00485
  Beta virt. eigenvalues --   -0.00234   0.00046   0.00232   0.00436   0.00579

 Mulliken charges and spin densities:
               1          2
     1  Na   0.198353  -0.025048
     2  Na  -0.462934   0.127321
     3  Na   1.166574  -0.025026
     4  Na  -1.969849   0.203098
     5  Na  -0.288564   0.571065
     6  Na   1.542042  -0.037671
     7  Na  -0.185621   0.186260
 Sum of Mulliken charges =  -0.00000   1.00000

 Dipole moment (field-independent basis, Debye):
    X=             -0.7709    Y=              0.1061    Z=              0.2696  Tot=              0.8236
 Quadrupole moment (field-independent basis, Debye-Ang):
   XX=            -52.8814   YY=            -73.0840   ZZ=            -71.5962
   XY=             -2.2148   XZ=              0.4390   YZ=             -4.2593

 Normal termination of Gaussian 16 at Wed Nov 29 16:49:26 2023.
