 Gaussian 16, Revision B.01,
 Gaussian 16:  ES64L-G16RevB.01 20-Dec-2017

 -------------------------
 #P B3LYP/6-311+g(d) force
 -------------------------

 -----
 DPGEN
 -----
 Symbolic Z-matrix:
 Charge =  0 Multiplicity = 2

                         Standard orientation:
 ---------------------------------------------------------------------
 Center     Atomic      Atomic             Coordinates (Angstroms)
 Number     Number       Type             X           Y           Z
 ---------------------------------------------------------------------
      1         11           0       -2.683418    2.025151   -0.227378
      2         11           0        0.122677    3.365498    0.603777
      3         11           0        4.189463    0.592104    0.005793
      4         11           0       -3.333204   -1.129338   -0.637629
      5         11           0        1.459415   -2.879886   -0.354471
      6         11           0        1.313788    0.365305   -0.698715
      7         11           0       -1.068721   -2.338835    1.308623
 ---------------------------------------------------------------------

 SCF Done:  E(UB3LYP) =  -1136.11820726     A.U. after   19 cycles

 The electronic state is 2-A.
 Alpha  occ. eigenvalues --  -38.44423 -38.44321 -38.44137 -38.43976 -38.43885
 Alpha  occ. eigenvalues --  -38.43617 -38.43473  -2.20281  -2.20177  -2.19978
 Alpha  occ. eigenvalues --   -2.19810  -2.19787  -2.19455  -2.19336  -1.14018
 Alpha  occ. eigenvalues --   -1.13955  -1.13907  -1.13844  -1.13825  -1.13779
 Alpha  occ. eigenvalues --   -1.13732  -1.13608  -1.13590  -1.13502  -1.13478
 Alpha  occ. eigenvalues --   -1.13474  -1.13469  -1.13430  -1.13387  -1.13102
 Alpha  occ. eigenvalues --   -1.13092  -1.13087  -1.12986  -1.12976  -1.12963
 Alpha  occ. eigenvalues --   -0.17125  -0.13773  -0.13362  -0.10147
 Alpha virt. eigenvalues --   -0.06280  -0.05574  -0.04547  -0.03175  -0.02826
 Alpha virt. eigenvalues --   -0.02593  -0.01688  -0.01420  -0.00912  -0.00608
 Alpha virt. eigenvalues --   -0.00114   0.00021   0.00409   0.00563   0.00765

  Beta  occ. eigenvalues --  -38.44395 -38.44312 -38.44063 -38.43963 -38.43891
  Beta  occ. eigenvalues --  -38.43570 -38.43409  -2.20232  -2.20165  -2.19841
  Beta  occ. eigenvalues --   -2.19800  -2.19795  -2.19368  -2.19219  -1.13976
  Beta  occ. eigenvalues --   -1.13922  -1.13879  -1.13834  -1.13820  -1.13743
  Beta  occ. eigenvalues --   -1.13665  -1.13517  -1.13500  -1.13486  -1.13475
  Beta  occ. eigenvalues --   -1.13471  -1.13439  -1.13419  -1.13358  -1.13043
  Beta  occ. eigenvalues --   -1.13036  -1.13025  -1.12910  -1.12899  -1.12879
  Beta  occ. eigenvalues --   -0.16817  -0.12958  -0.12727
  Beta virt. eigenvalues --   -0.06957  -0.06264  -0.05267  -0.04311  -0.02773
  Beta virt. eigenvalues --   -0.02465  -0.02183  -0.01510  -0.01086  -0.00746
  Beta virt. eigenvalues --   -0.00461   0.00214   0.00278   0.00459   0.00614

 Mulliken charges and spin densities:
               1          2
     1  Na  -0.236026   0.052247
     2  Na   0.475754   0.156223
     3  Na   0.582544   0.207409
     4  Na   0.224288   0.402574
     5  Na   0.106418   0.085556
     6  Na  -1.502523   0.083018
     7  Na   0.349545   0.012972
 Sum of Mulliken charges =  -0.00000   1.00000

 Dipole moment (field-independent basis, Debye):
    X=              0.7189    Y=             -0.6131    Z=              0.4772  Tot=              1.0585
 Quadrupole moment (field-independent basis, Debye-Ang):
   XX=            -68.1861   YY=            -65.2368   ZZ=            -67.4985
   XY=             -1.4936   XZ=              1.3103   YZ=              2.0420

 Normal termination of Gaussian 16 at Wed Nov 29 01:55:10 2023.
