 Gaussian 16, Revision B.01,
 Gaussian 16:  ES64L-G16RevB.01 20-Dec-2017

 -------------------------
 #P B3LYP/6-311+g(d) force
 -------------------------

 -----
 DPGEN
 -----
 Symbolic Z-matrix:
 Charge =  0 Multiplicity = 2

                         Standard orientation:
 ---------------------------------------------------------------------
 Center     Atomic      Atomic             Coordinates (Angstroms)
 Number     Number       Type             X           Y           Z
 ---------------------------------------------------------------------
      1         11           0        1.910231   -2.651843   -0.784334
      2         11           0        1.527986    3.076549   -0.310810
      3         11           0        4.212349    1.814426    0.235454
      4         11           0       -0.555673   -0.463567   -0.775046
      5         11           0        4.271563   -1.746894    1.207314
      6         11           0       -4.561620   -0.119923   -0.756899
      7         11           0       -6.804836    0.091252    1.184322
 ---------------------------------------------------------------------

 SCF Done:  E(UB3LYP) =  -1136.10671690     A.U. after   20 cycles

 The electronic state is 2-A.
 Alpha  occ. eigenvalues --  -38.45242 -38.45031 -38.45021 -38.44370 -38.43837
 Alpha  occ. eigenvalues --  -38.43811 -38.43596  -2.21041  -2.20844  -2.20838
 Alpha  occ. eigenvalues --   -2.20170  -2.19655  -2.19623  -2.19405  -1.14697
 Alpha  occ. eigenvalues --   -1.14675  -1.14662  -1.14534  -1.14495  -1.14483
 Alpha  occ. eigenvalues --   -1.14477  -1.14470  -1.14469  -1.13837  -1.13827
 Alpha  occ. eigenvalues --   -1.13821  -1.13383  -1.13317  -1.13301  -1.13297
 Alpha  occ. eigenvalues --   -1.13287  -1.13282  -1.13057  -1.13049  -1.13031
 Alpha  occ. eigenvalues --   -0.16094  -0.14175  -0.12184  -0.11984
 Alpha virt. eigenvalues --   -0.06740  -0.05280  -0.04536  -0.03728  -0.03101
 Alpha virt. eigenvalues --   -0.02741  -0.02530  -0.01414  -0.01085  -0.00901
 Alpha virt. eigenvalues --   -0.00643  -0.00229  -0.00119   0.00186   0.00633

  Beta  occ. eigenvalues --  -38.45149 -38.44976 -38.44961 -38.44378 -38.43824
  Beta  occ. eigenvalues --  -38.43820 -38.43588  -2.20868  -2.20754  -2.20714
  Beta  occ. eigenvalues --   -2.20190  -2.19644  -2.19633  -2.19390  -1.14579
  Beta  occ. eigenvalues --   -1.14562  -1.14542  -1.14480  -1.14413  -1.14411
  Beta  occ. eigenvalues --   -1.14407  -1.14400  -1.14382  -1.13846  -1.13845
  Beta  occ. eigenvalues --   -1.13809  -1.13366  -1.13310  -1.13305  -1.13302
  Beta  occ. eigenvalues --   -1.13278  -1.13273  -1.13047  -1.13036  -1.13017
  Beta  occ. eigenvalues --   -0.15252  -0.13622  -0.11955
  Beta virt. eigenvalues --   -0.08765  -0.06115  -0.04681  -0.04226  -0.03441
  Beta virt. eigenvalues --   -0.02798  -0.02513  -0.02348  -0.01382  -0.00727
  Beta virt. eigenvalues --   -0.00557  -0.00513  -0.00075   0.00116   0.00293

 Mulliken charges and spin densities:
               1          2
     1  Na   0.780540   0.003046
     2  Na   0.627816  -0.009024
     3  Na  -0.227706   0.122271
     4  Na  -0.755072   0.447769
     5  Na  -0.077073   0.323393
     6  Na  -0.948007  -0.061254
     7  Na   0.599501   0.173800
 Sum of Mulliken charges =  -0.00000   1.00000

 Dipole moment (field-independent basis, Debye):
    X=             -0.8877    Y=             -0.4679    Z=              0.6828  Tot=              1.2138
 Quadrupole moment (field-independent basis, Debye-Ang):
   XX=            -50.8438   YY=            -75.0433   ZZ=            -67.7584
   XY=             -5.6813   XZ=             -2.1973   YZ=             -0.3790

 Normal termination of Gaussian 16 at Sun Dec  3 15:00:05 2023.
