 Gaussian 16, Revision B.01,
 Gaussian 16:  ES64L-G16RevB.01 20-Dec-2017

 -------------------------
 #P B3LYP/6-311+g(d) force
 -------------------------

 -----
 DPGEN
 -----
 Symbolic Z-matrix:
 Charge =  0 Multiplicity = 2

                         Standard orientation:
 ---------------------------------------------------------------------
 Center     Atomic      Atomic             Coordinates (Angstroms)
 Number     Number       Type             X           Y           Z
 ---------------------------------------------------------------------
      1         11           0       -0.397233    0.052222    0.078259
      2         11           0        1.452701    2.450794   -0.627584
      3         11           0       -1.979442    3.221061   -0.126049
      4         11           0       -3.738973   -0.788114    0.706126
      5         11           0       -1.316894   -3.200292   -0.278548
      6         11           0        3.717044   -0.273225    1.654413
      7         11           0        2.262795   -1.462447   -1.406617
 ---------------------------------------------------------------------

 SCF Done:  E(UB3LYP) =  -1136.12518051     A.U. after   20 cycles

 The electronic state is 2-A.
 Alpha  occ. eigenvalues --  -38.44481 -38.44256 -38.44201 -38.44131 -38.43885
 Alpha  occ. eigenvalues --  -38.43645 -38.43276  -2.20307  -2.20028  -2.19994
 Alpha  occ. eigenvalues --   -2.19939  -2.19687  -2.19454  -2.19238  -1.14035
 Alpha  occ. eigenvalues --   -1.13979  -1.13889  -1.13709  -1.13689  -1.13675
 Alpha  occ. eigenvalues --   -1.13666  -1.13663  -1.13624  -1.13618  -1.13608
 Alpha  occ. eigenvalues --   -1.13562  -1.13353  -1.13339  -1.13303  -1.13102
 Alpha  occ. eigenvalues --   -1.13097  -1.13052  -1.12951  -1.12900  -1.12865
 Alpha  occ. eigenvalues --   -0.17159  -0.13394  -0.12680  -0.10002
 Alpha virt. eigenvalues --   -0.06015  -0.05750  -0.05204  -0.03391  -0.02304
 Alpha virt. eigenvalues --   -0.02046  -0.01752  -0.01644  -0.01114  -0.00971
 Alpha virt. eigenvalues --   -0.00299   0.00179   0.00311   0.00468   0.00636

  Beta  occ. eigenvalues --  -38.44470 -38.44264 -38.44196 -38.44114 -38.43843
  Beta  occ. eigenvalues --  -38.43540 -38.43265  -2.20289  -2.20046  -2.19985
  Beta  occ. eigenvalues --   -2.19911  -2.19608  -2.19257  -2.19222  -1.14022
  Beta  occ. eigenvalues --   -1.13958  -1.13879  -1.13722  -1.13701  -1.13673
  Beta  occ. eigenvalues --   -1.13667  -1.13660  -1.13600  -1.13595  -1.13589
  Beta  occ. eigenvalues --   -1.13523  -1.13298  -1.13287  -1.13253  -1.12967
  Beta  occ. eigenvalues --   -1.12962  -1.12924  -1.12922  -1.12895  -1.12849
  Beta  occ. eigenvalues --   -0.16771  -0.12893  -0.12409
  Beta virt. eigenvalues --   -0.06523  -0.05945  -0.05270  -0.05035  -0.02917
  Beta virt. eigenvalues --   -0.01970  -0.01922  -0.01567  -0.01271  -0.00990
  Beta virt. eigenvalues --   -0.00668   0.00056   0.00325   0.00551   0.00656

 Mulliken charges and spin densities:
               1          2
     1  Na  -3.828118   0.043074
     2  Na   2.345037   0.056803
     3  Na  -0.175649  -0.031135
     4  Na  -0.481753   0.199211
     5  Na   0.412353  -0.000798
     6  Na   0.227808   0.574795
     7  Na   1.500322   0.158049
 Sum of Mulliken charges =  -0.00000   1.00000

 Dipole moment (field-independent basis, Debye):
    X=             -0.7995    Y=              0.2427    Z=             -0.8982  Tot=              1.2267
 Quadrupole moment (field-independent basis, Debye-Ang):
   XX=            -66.1943   YY=            -57.7573   ZZ=            -72.1959
   XY=             -1.3396   XZ=             -5.1573   YZ=              0.2587

 Normal termination of Gaussian 16 at Wed Nov 29 15:44:46 2023.
