 Gaussian 16, Revision B.01,
 Gaussian 16:  ES64L-G16RevB.01 20-Dec-2017

 -------------------------
 #P B3LYP/6-311+g(d) force
 -------------------------

 -----
 DPGEN
 -----
 Symbolic Z-matrix:
 Charge =  0 Multiplicity = 2

                         Standard orientation:
 ---------------------------------------------------------------------
 Center     Atomic      Atomic             Coordinates (Angstroms)
 Number     Number       Type             X           Y           Z
 ---------------------------------------------------------------------
      1         11           0       -0.520876   -2.639918   -0.144959
      2         11           0       -3.286608   -0.644350   -0.062807
      3         11           0       -0.002334    0.303037   -1.508935
      4         11           0        2.253241    2.108296   -0.161110
      5         11           0        2.908945   -1.173088   -0.139156
      6         11           0        0.634217   -0.292101    1.712927
      7         11           0       -1.986584    2.338126    0.304041
 ---------------------------------------------------------------------

 SCF Done:  E(UB3LYP) =  -1136.13110984     A.U. after   20 cycles

 The electronic state is 2-A.
 Alpha  occ. eigenvalues --  -38.44547 -38.44447 -38.43822 -38.43702 -38.43120
 Alpha  occ. eigenvalues --  -38.42922 -38.42879  -2.20373  -2.20338  -2.19692
 Alpha  occ. eigenvalues --   -2.19530  -2.19113  -2.18936  -2.18776  -1.14049
 Alpha  occ. eigenvalues --   -1.14041  -1.14036  -1.14022  -1.13991  -1.13963
 Alpha  occ. eigenvalues --   -1.13387  -1.13350  -1.13323  -1.13208  -1.13190
 Alpha  occ. eigenvalues --   -1.13167  -1.12821  -1.12744  -1.12732  -1.12631
 Alpha  occ. eigenvalues --   -1.12588  -1.12547  -1.12453  -1.12433  -1.12391
 Alpha  occ. eigenvalues --   -0.18953  -0.13736  -0.12176  -0.10222
 Alpha virt. eigenvalues --   -0.06182  -0.05615  -0.04241  -0.03269  -0.02502
 Alpha virt. eigenvalues --   -0.01960  -0.01911  -0.01257  -0.00537  -0.00259
 Alpha virt. eigenvalues --    0.00017   0.00316   0.00724   0.00821   0.00886

  Beta  occ. eigenvalues --  -38.44547 -38.44438 -38.43813 -38.43696 -38.43042
  Beta  occ. eigenvalues --  -38.42870 -38.42856  -2.20376  -2.20326  -2.19679
  Beta  occ. eigenvalues --   -2.19521  -2.18971  -2.18819  -2.18763  -1.14043
  Beta  occ. eigenvalues --   -1.14035  -1.14028  -1.14023  -1.13961  -1.13952
  Beta  occ. eigenvalues --   -1.13376  -1.13321  -1.13309  -1.13202  -1.13170
  Beta  occ. eigenvalues --   -1.13163  -1.12728  -1.12646  -1.12630  -1.12550
  Beta  occ. eigenvalues --   -1.12509  -1.12460  -1.12432  -1.12395  -1.12379
  Beta  occ. eigenvalues --   -0.18252  -0.13498  -0.11914
  Beta virt. eigenvalues --   -0.06365  -0.06108  -0.05577  -0.04229  -0.02508
  Beta virt. eigenvalues --   -0.01884  -0.01762  -0.01215  -0.00931  -0.00564
  Beta virt. eigenvalues --   -0.00293   0.00176   0.00357   0.00771   0.00827

 Mulliken charges and spin densities:
               1          2
     1  Na   0.108966  -0.104711
     2  Na  -0.024728  -0.035840
     3  Na  -0.336057   0.485101
     4  Na   0.131477  -0.055202
     5  Na   0.508375   0.003297
     6  Na  -0.426398   0.759880
     7  Na   0.038366  -0.052524
 Sum of Mulliken charges =  -0.00000   1.00000

 Dipole moment (field-independent basis, Debye):
    X=              0.0310    Y=              0.0496    Z=             -0.0005  Tot=              0.0584
 Quadrupole moment (field-independent basis, Debye-Ang):
   XX=            -50.0960   YY=            -64.4365   ZZ=            -77.0764
   XY=              0.4037   XZ=             -1.2588   YZ=              1.4724

 Normal termination of Gaussian 16 at Wed Nov 29 01:47:39 2023.
