 Gaussian 16, Revision B.01,
 Gaussian 16:  ES64L-G16RevB.01 20-Dec-2017

 -------------------------
 #P B3LYP/6-311+g(d) force
 -------------------------

 -----
 DPGEN
 -----
 Symbolic Z-matrix:
 Charge =  0 Multiplicity = 2

                         Standard orientation:
 ---------------------------------------------------------------------
 Center     Atomic      Atomic             Coordinates (Angstroms)
 Number     Number       Type             X           Y           Z
 ---------------------------------------------------------------------
      1         11           0       -1.750954    2.576841   -0.302724
      2         11           0        3.320069   -1.112690   -0.268701
      3         11           0        2.776128    1.873815    0.288551
      4         11           0        0.610982    0.197323   -0.419194
      5         11           0       -2.712975   -0.704889   -1.210475
      6         11           0       -0.240731   -2.665842    0.206058
      7         11           0       -2.002520   -0.164557    1.706484
 ---------------------------------------------------------------------

 SCF Done:  E(UB3LYP) =  -1136.11611713     A.U. after   25 cycles

 The electronic state is 2-A.
 Alpha  occ. eigenvalues --  -38.44880 -38.44813 -38.43901 -38.43663 -38.43298
 Alpha  occ. eigenvalues --  -38.43195 -38.43039  -2.20760  -2.20700  -2.19823
 Alpha  occ. eigenvalues --   -2.19502  -2.19350  -2.19259  -2.18928  -1.14548
 Alpha  occ. eigenvalues --   -1.14436  -1.14421  -1.14394  -1.14322  -1.14259
 Alpha  occ. eigenvalues --   -1.13535  -1.13480  -1.13427  -1.13192  -1.13169
 Alpha  occ. eigenvalues --   -1.13135  -1.13077  -1.13023  -1.12986  -1.12919
 Alpha  occ. eigenvalues --   -1.12899  -1.12851  -1.12624  -1.12574  -1.12542
 Alpha  occ. eigenvalues --   -0.18766  -0.14574  -0.12049  -0.09764
 Alpha virt. eigenvalues --   -0.06357  -0.05983  -0.04317  -0.03414  -0.02244
 Alpha virt. eigenvalues --   -0.02147  -0.01551  -0.01200  -0.00814  -0.00442
 Alpha virt. eigenvalues --   -0.00107   0.00311   0.00663   0.00719   0.00754

  Beta  occ. eigenvalues --  -38.44879 -38.44814 -38.43848 -38.43653 -38.43225
  Beta  occ. eigenvalues --  -38.43178 -38.43029  -2.20759  -2.20702  -2.19727
  Beta  occ. eigenvalues --   -2.19487  -2.19324  -2.19126  -2.18914  -1.14548
  Beta  occ. eigenvalues --   -1.14436  -1.14420  -1.14392  -1.14317  -1.14261
  Beta  occ. eigenvalues --   -1.13462  -1.13410  -1.13354  -1.13185  -1.13150
  Beta  occ. eigenvalues --   -1.13105  -1.13068  -1.12974  -1.12948  -1.12818
  Beta  occ. eigenvalues --   -1.12817  -1.12754  -1.12618  -1.12544  -1.12521
  Beta  occ. eigenvalues --   -0.18169  -0.14338  -0.11837
  Beta virt. eigenvalues --   -0.06190  -0.06026  -0.05743  -0.04280  -0.02916
  Beta virt. eigenvalues --   -0.02085  -0.01533  -0.01243  -0.00758  -0.00630
  Beta virt. eigenvalues --   -0.00383   0.00227   0.00424   0.00728   0.00793

 Mulliken charges and spin densities:
               1          2
     1  Na   1.003089   0.236854
     2  Na   1.164504  -0.123240
     3  Na   0.840464  -0.226624
     4  Na  -3.884729   0.485755
     5  Na   0.597492   0.280770
     6  Na   0.650672   0.089946
     7  Na  -0.371490   0.256539
 Sum of Mulliken charges =  -0.00000   1.00000

 Dipole moment (field-independent basis, Debye):
    X=              1.3310    Y=              0.1893    Z=              0.1848  Tot=              1.3570
 Quadrupole moment (field-independent basis, Debye-Ang):
   XX=            -50.6045   YY=            -62.9111   ZZ=            -77.6351
   XY=             -0.8039   XZ=              0.5317   YZ=              0.7478

 Normal termination of Gaussian 16 at Fri Dec  8 02:46:09 2023.
