 Gaussian 16, Revision B.01,
 Gaussian 16:  ES64L-G16RevB.01 20-Dec-2017

 -------------------------
 #P B3LYP/6-311+g(d) force
 -------------------------

 -----
 DPGEN
 -----
 Symbolic Z-matrix:
 Charge =  0 Multiplicity = 2

                         Standard orientation:
 ---------------------------------------------------------------------
 Center     Atomic      Atomic             Coordinates (Angstroms)
 Number     Number       Type             X           Y           Z
 ---------------------------------------------------------------------
      1         11           0       -4.260642    0.118780   -0.915112
      2         11           0        2.305219   -2.015550   -0.812407
      3         11           0        2.399702    1.244859   -1.196530
      4         11           0       -0.562869   -0.351574   -1.178617
      5         11           0       -1.602038   -1.258390    1.624404
      6         11           0        1.592723   -0.230822    1.684230
      7         11           0        0.127905    2.492696    0.794032
 ---------------------------------------------------------------------

 SCF Done:  E(UB3LYP) =  -1136.12241184     A.U. after   25 cycles

 The electronic state is 2-A.
 Alpha  occ. eigenvalues --  -38.45140 -38.44456 -38.43957 -38.43846 -38.43846
 Alpha  occ. eigenvalues --  -38.42634 -38.42170  -2.20894  -2.20308  -2.19960
 Alpha  occ. eigenvalues --   -2.19804  -2.19788  -2.18537  -2.18058  -1.14561
 Alpha  occ. eigenvalues --   -1.14552  -1.14499  -1.14042  -1.13951  -1.13912
 Alpha  occ. eigenvalues --   -1.13645  -1.13634  -1.13577  -1.13530  -1.13503
 Alpha  occ. eigenvalues --   -1.13447  -1.13438  -1.13395  -1.13381  -1.12218
 Alpha  occ. eigenvalues --   -1.12200  -1.12169  -1.11745  -1.11722  -1.11683
 Alpha  occ. eigenvalues --   -0.18910  -0.13466  -0.11761  -0.11260
 Alpha virt. eigenvalues --   -0.06655  -0.04852  -0.03824  -0.03147  -0.02986
 Alpha virt. eigenvalues --   -0.02459  -0.02326  -0.00982  -0.00620  -0.00140
 Alpha virt. eigenvalues --    0.00182   0.00203   0.00379   0.00777   0.00828

  Beta  occ. eigenvalues --  -38.45104 -38.44409 -38.43898 -38.43824 -38.43809
  Beta  occ. eigenvalues --  -38.42631 -38.42165  -2.20826  -2.20226  -2.19856
  Beta  occ. eigenvalues --   -2.19767  -2.19722  -2.18535  -2.18053  -1.14511
  Beta  occ. eigenvalues --   -1.14505  -1.14457  -1.13990  -1.13886  -1.13834
  Beta  occ. eigenvalues --   -1.13583  -1.13539  -1.13502  -1.13479  -1.13462
  Beta  occ. eigenvalues --   -1.13411  -1.13398  -1.13362  -1.13330  -1.12221
  Beta  occ. eigenvalues --   -1.12192  -1.12152  -1.11742  -1.11704  -1.11678
  Beta  occ. eigenvalues --   -0.18176  -0.13108  -0.11097
  Beta virt. eigenvalues --   -0.07869  -0.06287  -0.04417  -0.03792  -0.02957
  Beta virt. eigenvalues --   -0.02169  -0.02082  -0.01865  -0.00635  -0.00515
  Beta virt. eigenvalues --    0.00010   0.00244   0.00326   0.00465   0.00827

 Mulliken charges and spin densities:
               1          2
     1  Na   0.222333   0.177640
     2  Na   0.175712   0.026728
     3  Na   0.368507   0.170131
     4  Na  -0.598528   0.267880
     5  Na  -0.086170   0.070501
     6  Na   0.265593   0.306817
     7  Na  -0.347448  -0.019697
 Sum of Mulliken charges =  -0.00000   1.00000

 Dipole moment (field-independent basis, Debye):
    X=             -0.9768    Y=              0.0975    Z=              0.0166  Tot=              0.9818
 Quadrupole moment (field-independent basis, Debye-Ang):
   XX=            -52.1978   YY=            -74.6751   ZZ=            -65.8623
   XY=             -0.9755   XZ=             -0.0365   YZ=             -3.4082

 Normal termination of Gaussian 16 at Tue Dec  5 11:22:31 2023.
