 Gaussian 16, Revision B.01,
 Gaussian 16:  ES64L-G16RevB.01 20-Dec-2017

 -------------------------
 #P B3LYP/6-311+g(d) force
 -------------------------

 -----
 DPGEN
 -----
 Symbolic Z-matrix:
 Charge =  0 Multiplicity = 2

                         Standard orientation:
 ---------------------------------------------------------------------
 Center     Atomic      Atomic             Coordinates (Angstroms)
 Number     Number       Type             X           Y           Z
 ---------------------------------------------------------------------
      1         11           0        1.761570    2.549134   -0.697612
      2         11           0       -1.311977    1.847742    0.702541
      3         11           0        0.213579   -0.290013   -1.800403
      4         11           0       -1.509222   -1.354533    1.411214
      5         11           0        1.482830    0.166746    1.727509
      6         11           0       -3.717184   -0.690840   -0.918137
      7         11           0        3.080403   -2.228236   -0.425111
 ---------------------------------------------------------------------

 SCF Done:  E(UB3LYP) =  -1136.12965779     A.U. after   22 cycles

 The electronic state is 2-A.
 Alpha  occ. eigenvalues --  -38.44453 -38.44322 -38.43976 -38.43654 -38.43405
 Alpha  occ. eigenvalues --  -38.43393 -38.43324  -2.20257  -2.20181  -2.19872
 Alpha  occ. eigenvalues --   -2.19572  -2.19306  -2.19243  -2.19091  -1.13928
 Alpha  occ. eigenvalues --   -1.13912  -1.13893  -1.13870  -1.13831  -1.13790
 Alpha  occ. eigenvalues --   -1.13581  -1.13517  -1.13489  -1.13277  -1.13226
 Alpha  occ. eigenvalues --   -1.13172  -1.13013  -1.12983  -1.12919  -1.12911
 Alpha  occ. eigenvalues --   -1.12897  -1.12847  -1.12766  -1.12755  -1.12727
 Alpha  occ. eigenvalues --   -0.18463  -0.13281  -0.11586  -0.11362
 Alpha virt. eigenvalues --   -0.06067  -0.05188  -0.04510  -0.03129  -0.02944
 Alpha virt. eigenvalues --   -0.02733  -0.01840  -0.01130  -0.00876   0.00090
 Alpha virt. eigenvalues --    0.00229   0.00313   0.00438   0.00609   0.00704

  Beta  occ. eigenvalues --  -38.44435 -38.44260 -38.43936 -38.43599 -38.43388
  Beta  occ. eigenvalues --  -38.43380 -38.43328  -2.20225  -2.20068  -2.19802
  Beta  occ. eigenvalues --   -2.19475  -2.19279  -2.19222  -2.19099  -1.13907
  Beta  occ. eigenvalues --   -1.13886  -1.13870  -1.13794  -1.13744  -1.13705
  Beta  occ. eigenvalues --   -1.13526  -1.13461  -1.13426  -1.13205  -1.13151
  Beta  occ. eigenvalues --   -1.13103  -1.12992  -1.12931  -1.12904  -1.12887
  Beta  occ. eigenvalues --   -1.12881  -1.12835  -1.12770  -1.12756  -1.12734
  Beta  occ. eigenvalues --   -0.17627  -0.13118  -0.11234
  Beta virt. eigenvalues --   -0.07570  -0.05809  -0.05105  -0.04041  -0.02900
  Beta virt. eigenvalues --   -0.02201  -0.02075  -0.01675  -0.01015  -0.00492
  Beta virt. eigenvalues --    0.00098   0.00252   0.00390   0.00593   0.00669

 Mulliken charges and spin densities:
               1          2
     1  Na   0.223396  -0.028035
     2  Na  -0.122102   0.241366
     3  Na  -0.584467   0.607975
     4  Na   0.012910   0.128233
     5  Na   0.286769   0.047715
     6  Na   0.280392   0.047702
     7  Na  -0.096898  -0.044956
 Sum of Mulliken charges =  -0.00000   1.00000

 Dipole moment (field-independent basis, Debye):
    X=             -0.7747    Y=              0.2562    Z=             -0.2933  Tot=              0.8670
 Quadrupole moment (field-independent basis, Debye-Ang):
   XX=            -55.6263   YY=            -71.1064   ZZ=            -67.7124
   XY=              2.5776   XZ=              1.6146   YZ=             -0.3079

 Normal termination of Gaussian 16 at Tue Dec  5 22:01:36 2023.
