 Gaussian 16, Revision B.01,
 Gaussian 16:  ES64L-G16RevB.01 20-Dec-2017

 -------------------------
 #P B3LYP/6-311+g(d) force
 -------------------------

 -----
 DPGEN
 -----
 Symbolic Z-matrix:
 Charge =  0 Multiplicity = 2

                         Standard orientation:
 ---------------------------------------------------------------------
 Center     Atomic      Atomic             Coordinates (Angstroms)
 Number     Number       Type             X           Y           Z
 ---------------------------------------------------------------------
      1         11           0        1.904206   -2.192756   -0.328999
      2         11           0       -1.796786   -2.327101    0.421173
      3         11           0       -2.669014    0.853372   -0.230284
      4         11           0       -0.331599   -0.148121   -1.634991
      5         11           0       -0.137438    2.890000    0.216138
      6         11           0        0.450968   -0.110266    1.766473
      7         11           0        2.579662    1.034873   -0.209511
 ---------------------------------------------------------------------

 SCF Done:  E(UB3LYP) =  -1136.13585134     A.U. after   18 cycles

 The electronic state is 2-A.
 Alpha  occ. eigenvalues --  -38.43576 -38.43553 -38.43541 -38.43483 -38.43289
 Alpha  occ. eigenvalues --  -38.43163 -38.43096  -2.19473  -2.19451  -2.19446
 Alpha  occ. eigenvalues --   -2.19413  -2.19182  -2.19170  -2.19153  -1.13289
 Alpha  occ. eigenvalues --   -1.13184  -1.13153  -1.13128  -1.13123  -1.13117
 Alpha  occ. eigenvalues --   -1.13111  -1.13105  -1.13083  -1.13076  -1.13049
 Alpha  occ. eigenvalues --   -1.13015  -1.12873  -1.12845  -1.12834  -1.12818
 Alpha  occ. eigenvalues --   -1.12798  -1.12785  -1.12766  -1.12766  -1.12742
 Alpha  occ. eigenvalues --   -0.19441  -0.13180  -0.12856  -0.10839
 Alpha virt. eigenvalues --   -0.05174  -0.04962  -0.04863  -0.03195  -0.02989
 Alpha virt. eigenvalues --   -0.02320  -0.01189  -0.01169  -0.00126  -0.00014
 Alpha virt. eigenvalues --    0.00076   0.00370   0.00919   0.00928   0.00961

  Beta  occ. eigenvalues --  -38.43564 -38.43543 -38.43533 -38.43474 -38.43284
  Beta  occ. eigenvalues --  -38.43084 -38.43025  -2.19462  -2.19435  -2.19430
  Beta  occ. eigenvalues --   -2.19401  -2.19176  -2.19027  -2.19024  -1.13263
  Beta  occ. eigenvalues --   -1.13173  -1.13141  -1.13113  -1.13100  -1.13095
  Beta  occ. eigenvalues --   -1.13085  -1.13076  -1.13068  -1.13045  -1.13040
  Beta  occ. eigenvalues --   -1.13002  -1.12852  -1.12827  -1.12801  -1.12761
  Beta  occ. eigenvalues --   -1.12708  -1.12688  -1.12675  -1.12667  -1.12655
  Beta  occ. eigenvalues --   -0.18713  -0.12899  -0.12583
  Beta virt. eigenvalues --   -0.06893  -0.05167  -0.04914  -0.04847  -0.02376
  Beta virt. eigenvalues --   -0.02205  -0.01286  -0.01106  -0.01084  -0.00133
  Beta virt. eigenvalues --   -0.00061   0.00165   0.00395   0.00928   0.00937

 Mulliken charges and spin densities:
               1          2
     1  Na   0.165449  -0.052043
     2  Na   0.038984  -0.035272
     3  Na   0.323694   0.009302
     4  Na  -0.345476   0.465648
     5  Na   0.058337  -0.049240
     6  Na  -0.455466   0.665928
     7  Na   0.214477  -0.004323
 Sum of Mulliken charges =  -0.00000   1.00000

 Dipole moment (field-independent basis, Debye):
    X=              0.0458    Y=             -0.1942    Z=              0.1012  Tot=              0.2237
 Quadrupole moment (field-independent basis, Debye-Ang):
   XX=            -59.9833   YY=            -59.5961   ZZ=            -73.9369
   XY=              0.0538   XZ=             -1.6955   YZ=             -0.0909

 Normal termination of Gaussian 16 at Tue Nov 28 22:31:33 2023.
