 Gaussian 16, Revision B.01,
 Gaussian 16:  ES64L-G16RevB.01 20-Dec-2017

 -------------------------
 #P B3LYP/6-311+g(d) force
 -------------------------

 -----
 DPGEN
 -----
 Symbolic Z-matrix:
 Charge =  0 Multiplicity = 2

                         Standard orientation:
 ---------------------------------------------------------------------
 Center     Atomic      Atomic             Coordinates (Angstroms)
 Number     Number       Type             X           Y           Z
 ---------------------------------------------------------------------
      1         11           0        1.242812   -1.374782   -1.741057
      2         11           0        1.891525    2.204918    0.818878
      3         11           0        4.471238   -0.190241   -0.371139
      4         11           0        0.801019   -1.146557    1.962970
      5         11           0       -4.851465    0.687976   -0.102819
      6         11           0       -1.094104    1.608313   -0.871930
      7         11           0       -2.461025   -1.789627    0.305097
 ---------------------------------------------------------------------

 SCF Done:  E(UB3LYP) =  -1136.10866258     A.U. after   30 cycles

 The electronic state is 2-A.
 Alpha  occ. eigenvalues --  -38.45512 -38.44903 -38.44800 -38.44561 -38.44362
 Alpha  occ. eigenvalues --  -38.43856 -38.43068  -2.21275  -2.20694  -2.20596
 Alpha  occ. eigenvalues --   -2.20335  -2.20145  -2.19653  -2.18886  -1.14979
 Alpha  occ. eigenvalues --   -1.14926  -1.14888  -1.14353  -1.14326  -1.14312
 Alpha  occ. eigenvalues --   -1.14266  -1.14242  -1.14220  -1.14052  -1.14012
 Alpha  occ. eigenvalues --   -1.13941  -1.13808  -1.13800  -1.13760  -1.13354
 Alpha  occ. eigenvalues --   -1.13332  -1.13264  -1.12563  -1.12549  -1.12519
 Alpha  occ. eigenvalues --   -0.17276  -0.13905  -0.11092  -0.10862
 Alpha virt. eigenvalues --   -0.08073  -0.05244  -0.04536  -0.03455  -0.03084
 Alpha virt. eigenvalues --   -0.02500  -0.02195  -0.01868  -0.01225  -0.01032
 Alpha virt. eigenvalues --   -0.00279   0.00046   0.00164   0.00574   0.00677

  Beta  occ. eigenvalues --  -38.45499 -38.44823 -38.44759 -38.44563 -38.44315
  Beta  occ. eigenvalues --  -38.43852 -38.43045  -2.21252  -2.20546  -2.20521
  Beta  occ. eigenvalues --   -2.20342  -2.20058  -2.19649  -2.18846  -1.14963
  Beta  occ. eigenvalues --   -1.14915  -1.14856  -1.14251  -1.14219  -1.14217
  Beta  occ. eigenvalues --   -1.14206  -1.14193  -1.14167  -1.14060  -1.14013
  Beta  occ. eigenvalues --   -1.13936  -1.13748  -1.13738  -1.13706  -1.13351
  Beta  occ. eigenvalues --   -1.13333  -1.13242  -1.12533  -1.12519  -1.12484
  Beta  occ. eigenvalues --   -0.16781  -0.13243  -0.10661
  Beta virt. eigenvalues --   -0.07830  -0.07571  -0.05057  -0.03994  -0.03117
  Beta virt. eigenvalues --   -0.02960  -0.02258  -0.01898  -0.01478  -0.00797
  Beta virt. eigenvalues --   -0.00642  -0.00204   0.00123   0.00259   0.00659

 Mulliken charges and spin densities:
               1          2
     1  Na   0.090123   0.189101
     2  Na   0.015846   0.133897
     3  Na   0.080313   0.294917
     4  Na   0.020621   0.195651
     5  Na   0.291509   0.245155
     6  Na  -0.346459  -0.118715
     7  Na  -0.151952   0.059993
 Sum of Mulliken charges =  -0.00000   1.00000

 Dipole moment (field-independent basis, Debye):
    X=              0.1617    Y=             -0.6158    Z=              0.2921  Tot=              0.7005
 Quadrupole moment (field-independent basis, Debye-Ang):
   XX=            -58.6451   YY=            -80.3798   ZZ=            -62.7951
   XY=              0.1845   XZ=              2.2747   YZ=             -0.4979

 Normal termination of Gaussian 16 at Fri Dec  8 17:50:26 2023.
