 Gaussian 16, Revision B.01,
 Gaussian 16:  ES64L-G16RevB.01 20-Dec-2017

 -------------------------
 #P B3LYP/6-311+g(d) force
 -------------------------

 -----
 DPGEN
 -----
 Symbolic Z-matrix:
 Charge =  0 Multiplicity = 2

                         Standard orientation:
 ---------------------------------------------------------------------
 Center     Atomic      Atomic             Coordinates (Angstroms)
 Number     Number       Type             X           Y           Z
 ---------------------------------------------------------------------
      1         11           0        2.296144   -1.126044    1.674502
      2         11           0       -0.570159    1.523996    1.744147
      3         11           0        2.200666   -1.421442   -1.454956
      4         11           0       -0.654666    0.503121   -1.818526
      5         11           0       -3.915141    0.427242   -0.215989
      6         11           0       -1.672529   -2.098441    0.463551
      7         11           0        2.315685    2.191569   -0.392729
 ---------------------------------------------------------------------

 SCF Done:  E(UB3LYP) =  -1136.12615435     A.U. after   24 cycles

 The electronic state is 2-A.
 Alpha  occ. eigenvalues --  -38.45071 -38.44166 -38.44148 -38.44054 -38.43761
 Alpha  occ. eigenvalues --  -38.43523 -38.43443  -2.20855  -2.20036  -2.19976
 Alpha  occ. eigenvalues --   -2.19846  -2.19570  -2.19375  -2.19241  -1.14532
 Alpha  occ. eigenvalues --   -1.14508  -1.14489  -1.13729  -1.13680  -1.13663
 Alpha  occ. eigenvalues --   -1.13650  -1.13628  -1.13595  -1.13532  -1.13528
 Alpha  occ. eigenvalues --   -1.13457  -1.13255  -1.13222  -1.13184  -1.13051
 Alpha  occ. eigenvalues --   -1.13036  -1.12996  -1.12914  -1.12897  -1.12887
 Alpha  occ. eigenvalues --   -0.17924  -0.13618  -0.11481  -0.10921
 Alpha virt. eigenvalues --   -0.06443  -0.05292  -0.04733  -0.03174  -0.02933
 Alpha virt. eigenvalues --   -0.02816  -0.02185  -0.01007  -0.00670  -0.00209
 Alpha virt. eigenvalues --    0.00113   0.00230   0.00308   0.00560   0.00687

  Beta  occ. eigenvalues --  -38.45072 -38.44105 -38.44101 -38.44045 -38.43717
  Beta  occ. eigenvalues --  -38.43500 -38.43442  -2.20857  -2.19919  -2.19897
  Beta  occ. eigenvalues --   -2.19832  -2.19490  -2.19336  -2.19241  -1.14527
  Beta  occ. eigenvalues --   -1.14511  -1.14491  -1.13653  -1.13611  -1.13589
  Beta  occ. eigenvalues --   -1.13568  -1.13565  -1.13538  -1.13521  -1.13502
  Beta  occ. eigenvalues --   -1.13449  -1.13202  -1.13155  -1.13130  -1.13017
  Beta  occ. eigenvalues --   -1.13006  -1.12962  -1.12903  -1.12898  -1.12880
  Beta  occ. eigenvalues --   -0.17166  -0.13467  -0.10773
  Beta virt. eigenvalues --   -0.07569  -0.06282  -0.05208  -0.04070  -0.02933
  Beta virt. eigenvalues --   -0.02355  -0.02099  -0.01969  -0.00895  -0.00305
  Beta virt. eigenvalues --   -0.00173   0.00109   0.00295   0.00422   0.00647

 Mulliken charges and spin densities:
               1          2
     1  Na  -0.071974   0.285839
     2  Na  -0.342638   0.360432
     3  Na   0.256180   0.006903
     4  Na  -0.178773   0.378507
     5  Na   0.368422  -0.022332
     6  Na  -0.159371   0.045523
     7  Na   0.128155  -0.054871
 Sum of Mulliken charges =  -0.00000   1.00000

 Dipole moment (field-independent basis, Debye):
    X=             -1.2060    Y=              0.1965    Z=              0.0390  Tot=              1.2225
 Quadrupole moment (field-independent basis, Debye-Ang):
   XX=            -50.5540   YY=            -76.7673   ZZ=            -67.2795
   XY=             -0.3884   XZ=             -0.1536   YZ=             -1.5267

 Normal termination of Gaussian 16 at Sun Dec  3 23:50:04 2023.
