 Gaussian 16, Revision B.01,
 Gaussian 16:  ES64L-G16RevB.01 20-Dec-2017

 -------------------------
 #P B3LYP/6-311+g(d) force
 -------------------------

 -----
 DPGEN
 -----
 Symbolic Z-matrix:
 Charge =  0 Multiplicity = 2

                         Standard orientation:
 ---------------------------------------------------------------------
 Center     Atomic      Atomic             Coordinates (Angstroms)
 Number     Number       Type             X           Y           Z
 ---------------------------------------------------------------------
      1         11           0        0.085064   -0.034191   -1.653289
      2         11           0       -1.339422   -2.461612    0.476884
      3         11           0       -0.462132    3.020874    0.154502
      4         11           0       -3.206602    0.389280   -0.372522
      5         11           0        0.128456    0.090321    1.686144
      6         11           0        1.902968   -2.269296   -0.286447
      7         11           0        2.891669    1.264624   -0.005271
 ---------------------------------------------------------------------

 SCF Done:  E(UB3LYP) =  -1136.13849380     A.U. after   20 cycles

 The electronic state is 2-A.
 Alpha  occ. eigenvalues --  -38.43982 -38.43903 -38.43799 -38.43478 -38.43282
 Alpha  occ. eigenvalues --  -38.43040 -38.42996  -2.19809  -2.19712  -2.19620
 Alpha  occ. eigenvalues --   -2.19364  -2.19183  -2.19028  -2.18989  -1.13490
 Alpha  occ. eigenvalues --   -1.13477  -1.13439  -1.13387  -1.13368  -1.13355
 Alpha  occ. eigenvalues --   -1.13310  -1.13289  -1.13239  -1.13080  -1.13025
 Alpha  occ. eigenvalues --   -1.12999  -1.12904  -1.12836  -1.12801  -1.12746
 Alpha  occ. eigenvalues --   -1.12657  -1.12645  -1.12635  -1.12604  -1.12599
 Alpha  occ. eigenvalues --   -0.18855  -0.12845  -0.12740  -0.10476
 Alpha virt. eigenvalues --   -0.05647  -0.05087  -0.04845  -0.02954  -0.02898
 Alpha virt. eigenvalues --   -0.02165  -0.01564  -0.01278  -0.00432  -0.00291
 Alpha virt. eigenvalues --    0.00050   0.00350   0.00824   0.00859   0.00907

  Beta  occ. eigenvalues --  -38.43978 -38.43896 -38.43795 -38.43468 -38.43266
  Beta  occ. eigenvalues --  -38.42970 -38.42919  -2.19806  -2.19701  -2.19616
  Beta  occ. eigenvalues --   -2.19351  -2.19159  -2.18900  -2.18849  -1.13480
  Beta  occ. eigenvalues --   -1.13468  -1.13433  -1.13369  -1.13354  -1.13350
  Beta  occ. eigenvalues --   -1.13299  -1.13276  -1.13236  -1.13066  -1.12996
  Beta  occ. eigenvalues --   -1.12986  -1.12874  -1.12799  -1.12787  -1.12659
  Beta  occ. eigenvalues --   -1.12567  -1.12552  -1.12539  -1.12504  -1.12498
  Beta  occ. eigenvalues --   -0.18149  -0.12582  -0.12464
  Beta virt. eigenvalues --   -0.06603  -0.05637  -0.05043  -0.04814  -0.02210
  Beta virt. eigenvalues --   -0.02128  -0.01473  -0.01226  -0.01129  -0.00469
  Beta virt. eigenvalues --   -0.00313   0.00160   0.00378   0.00825   0.00886

 Mulliken charges and spin densities:
               1          2
     1  Na  -0.249567   0.672749
     2  Na   0.224180   0.057344
     3  Na  -0.076200  -0.120654
     4  Na  -0.063734  -0.030528
     5  Na  -0.044158   0.565061
     6  Na   0.209973  -0.019125
     7  Na  -0.000493  -0.124846
 Sum of Mulliken charges =  -0.00000   1.00000

 Dipole moment (field-independent basis, Debye):
    X=              0.1094    Y=              0.3205    Z=             -0.0317  Tot=              0.3402
 Quadrupole moment (field-independent basis, Debye-Ang):
   XX=            -55.8716   YY=            -59.7751   ZZ=            -75.9190
   XY=             -0.0996   XZ=              0.0385   YZ=             -0.2769

 Normal termination of Gaussian 16 at Tue Dec  5 21:30:54 2023.
