 Gaussian 16, Revision B.01,
 Gaussian 16:  ES64L-G16RevB.01 20-Dec-2017

 -------------------------
 #P B3LYP/6-311+g(d) force
 -------------------------

 -----
 DPGEN
 -----
 Symbolic Z-matrix:
 Charge =  0 Multiplicity = 2

                         Standard orientation:
 ---------------------------------------------------------------------
 Center     Atomic      Atomic             Coordinates (Angstroms)
 Number     Number       Type             X           Y           Z
 ---------------------------------------------------------------------
      1         11           0       -2.192758   -1.747678   -1.031818
      2         11           0        1.271391   -1.687590   -1.256233
      3         11           0       -3.573966    0.623778    1.331963
      4         11           0        2.411436    1.846527   -0.666542
      5         11           0       -0.217213    0.026680    1.546071
      6         11           0       -0.878742    1.697109   -1.427768
      7         11           0        3.179852   -0.758826    1.504327
 ---------------------------------------------------------------------

 SCF Done:  E(UB3LYP) =  -1136.12793078     A.U. after   27 cycles

 The electronic state is 2-A.
 Alpha  occ. eigenvalues --  -38.44989 -38.44430 -38.44154 -38.43939 -38.43850
 Alpha  occ. eigenvalues --  -38.43085 -38.42812  -2.20799  -2.20321  -2.19996
 Alpha  occ. eigenvalues --   -2.19776  -2.19706  -2.18924  -2.18665  -1.14473
 Alpha  occ. eigenvalues --   -1.14436  -1.14417  -1.14029  -1.13962  -1.13951
 Alpha  occ. eigenvalues --   -1.13664  -1.13638  -1.13628  -1.13466  -1.13438
 Alpha  occ. eigenvalues --   -1.13402  -1.13383  -1.13350  -1.13329  -1.12608
 Alpha  occ. eigenvalues --   -1.12587  -1.12565  -1.12358  -1.12329  -1.12275
 Alpha  occ. eigenvalues --   -0.18324  -0.14048  -0.11763  -0.10819
 Alpha virt. eigenvalues --   -0.06340  -0.05417  -0.04796  -0.03307  -0.02661
 Alpha virt. eigenvalues --   -0.02417  -0.02287  -0.01145  -0.00726  -0.00199
 Alpha virt. eigenvalues --    0.00143   0.00294   0.00315   0.00518   0.00677

  Beta  occ. eigenvalues --  -38.44942 -38.44394 -38.44124 -38.43905 -38.43814
  Beta  occ. eigenvalues --  -38.43084 -38.42791  -2.20712  -2.20258  -2.19940
  Beta  occ. eigenvalues --   -2.19718  -2.19643  -2.18925  -2.18629  -1.14403
  Beta  occ. eigenvalues --   -1.14378  -1.14364  -1.13971  -1.13926  -1.13898
  Beta  occ. eigenvalues --   -1.13619  -1.13600  -1.13595  -1.13414  -1.13399
  Beta  occ. eigenvalues --   -1.13357  -1.13339  -1.13303  -1.13266  -1.12600
  Beta  occ. eigenvalues --   -1.12589  -1.12560  -1.12336  -1.12288  -1.12252
  Beta  occ. eigenvalues --   -0.17641  -0.13718  -0.10567
  Beta virt. eigenvalues --   -0.07975  -0.06118  -0.04865  -0.04633  -0.02936
  Beta virt. eigenvalues --   -0.02230  -0.02100  -0.01668  -0.00746  -0.00652
  Beta virt. eigenvalues --   -0.00039   0.00211   0.00391   0.00454   0.00526

 Mulliken charges and spin densities:
               1          2
     1  Na   0.061761   0.081243
     2  Na  -0.297263   0.175423
     3  Na   1.055621   0.116122
     4  Na  -0.145056  -0.059908
     5  Na  -1.800231   0.386055
     6  Na  -0.286836   0.181549
     7  Na   1.412004   0.119516
 Sum of Mulliken charges =  -0.00000   1.00000

 Dipole moment (field-independent basis, Debye):
    X=             -0.6184    Y=             -0.1564    Z=              0.5257  Tot=              0.8266
 Quadrupole moment (field-independent basis, Debye-Ang):
   XX=            -47.9831   YY=            -79.3260   ZZ=            -66.8500
   XY=             -1.0874   XZ=              0.3051   YZ=              3.8458

 Normal termination of Gaussian 16 at Wed Dec  6 00:18:22 2023.
