 Gaussian 16, Revision B.01,
 Gaussian 16:  ES64L-G16RevB.01 20-Dec-2017

 -------------------------
 #P B3LYP/6-311+g(d) force
 -------------------------

 -----
 DPGEN
 -----
 Symbolic Z-matrix:
 Charge =  0 Multiplicity = 2

                         Standard orientation:
 ---------------------------------------------------------------------
 Center     Atomic      Atomic             Coordinates (Angstroms)
 Number     Number       Type             X           Y           Z
 ---------------------------------------------------------------------
      1         11           0       -2.069140    0.654008   -1.299054
      2         11           0        1.316105    0.888139    0.978711
      3         11           0        2.070389   -2.095431   -0.750479
      4         11           0       -1.166644   -1.646559    1.459733
      5         11           0       -4.503578   -1.419383   -0.189778
      6         11           0        4.891916   -0.338724   -0.309569
      7         11           0       -0.539049    3.957949    0.110435
 ---------------------------------------------------------------------

 SCF Done:  E(UB3LYP) =  -1136.12163663     A.U. after   20 cycles

 The electronic state is 2-A.
 Alpha  occ. eigenvalues --  -38.44724 -38.44580 -38.44287 -38.44172 -38.43997
 Alpha  occ. eigenvalues --  -38.43836 -38.43087  -2.20521  -2.20378  -2.20094
 Alpha  occ. eigenvalues --   -2.19998  -2.19820  -2.19640  -2.18847  -1.14213
 Alpha  occ. eigenvalues --   -1.14185  -1.14163  -1.14083  -1.14058  -1.13971
 Alpha  occ. eigenvalues --   -1.13743  -1.13739  -1.13703  -1.13679  -1.13663
 Alpha  occ. eigenvalues --   -1.13603  -1.13525  -1.13513  -1.13405  -1.13299
 Alpha  occ. eigenvalues --   -1.13297  -1.13258  -1.12521  -1.12514  -1.12477
 Alpha  occ. eigenvalues --   -0.16919  -0.13845  -0.11640  -0.10860
 Alpha virt. eigenvalues --   -0.06545  -0.05296  -0.04736  -0.03561  -0.03068
 Alpha virt. eigenvalues --   -0.02226  -0.01675  -0.01437  -0.01314  -0.00793
 Alpha virt. eigenvalues --   -0.00381  -0.00240   0.00298   0.00529   0.00600

  Beta  occ. eigenvalues --  -38.44727 -38.44560 -38.44217 -38.44116 -38.43980
  Beta  occ. eigenvalues --  -38.43795 -38.43086  -2.20532  -2.20342  -2.19961
  Beta  occ. eigenvalues --   -2.19898  -2.19792  -2.19566  -2.18846  -1.14226
  Beta  occ. eigenvalues --   -1.14198  -1.14128  -1.14055  -1.14031  -1.13939
  Beta  occ. eigenvalues --   -1.13651  -1.13648  -1.13621  -1.13610  -1.13597
  Beta  occ. eigenvalues --   -1.13517  -1.13511  -1.13460  -1.13394  -1.13247
  Beta  occ. eigenvalues --   -1.13238  -1.13215  -1.12521  -1.12513  -1.12476
  Beta  occ. eigenvalues --   -0.16252  -0.13242  -0.11517
  Beta virt. eigenvalues --   -0.07347  -0.06317  -0.05166  -0.04155  -0.03236
  Beta virt. eigenvalues --   -0.02737  -0.02122  -0.01507  -0.01146  -0.00819
  Beta virt. eigenvalues --   -0.00439  -0.00270  -0.00043   0.00378   0.00608

 Mulliken charges and spin densities:
               1          2
     1  Na  -0.284334   0.214681
     2  Na  -0.650087   0.062949
     3  Na   0.001871   0.027073
     4  Na   0.246396   0.187845
     5  Na   0.152717   0.185575
     6  Na   0.250946   0.349430
     7  Na   0.282492  -0.027552
 Sum of Mulliken charges =  -0.00000   1.00000

 Dipole moment (field-independent basis, Debye):
    X=              0.1946    Y=             -0.9658    Z=              0.0632  Tot=              0.9872
 Quadrupole moment (field-independent basis, Debye-Ang):
   XX=            -63.0501   YY=            -68.4390   ZZ=            -67.0005
   XY=              2.9045   XZ=             -0.0955   YZ=              1.3942

 Normal termination of Gaussian 16 at Wed Nov 29 02:38:40 2023.
