 Gaussian 16, Revision B.01,
 Gaussian 16:  ES64L-G16RevB.01 20-Dec-2017

 -------------------------
 #P B3LYP/6-311+g(d) force
 -------------------------

 -----
 DPGEN
 -----
 Symbolic Z-matrix:
 Charge =  0 Multiplicity = 2

                         Standard orientation:
 ---------------------------------------------------------------------
 Center     Atomic      Atomic             Coordinates (Angstroms)
 Number     Number       Type             X           Y           Z
 ---------------------------------------------------------------------
      1         11           0       -0.250074    0.030162   -1.354387
      2         11           0        0.706341   -0.028249    2.236659
      3         11           0        1.511996   -2.468890   -0.493207
      4         11           0        3.230142    0.567770   -0.244332
      5         11           0        0.408251    2.911960   -0.262238
      6         11           0       -3.408339    1.230299    0.015052
      7         11           0       -2.198316   -2.243052    0.102453
 ---------------------------------------------------------------------

 SCF Done:  E(UB3LYP) =  -1136.13212797     A.U. after   20 cycles

 The electronic state is 2-A.
 Alpha  occ. eigenvalues --  -38.44685 -38.44469 -38.43927 -38.43656 -38.43491
 Alpha  occ. eigenvalues --  -38.43290 -38.43029  -2.20441  -2.20290  -2.19732
 Alpha  occ. eigenvalues --   -2.19506  -2.19316  -2.19151  -2.19026  -1.14121
 Alpha  occ. eigenvalues --   -1.14090  -1.14084  -1.13962  -1.13949  -1.13932
 Alpha  occ. eigenvalues --   -1.13423  -1.13400  -1.13356  -1.13159  -1.13132
 Alpha  occ. eigenvalues --   -1.13120  -1.13050  -1.12974  -1.12928  -1.12885
 Alpha  occ. eigenvalues --   -1.12802  -1.12775  -1.12712  -1.12664  -1.12632
 Alpha  occ. eigenvalues --   -0.18199  -0.13069  -0.12152  -0.10465
 Alpha virt. eigenvalues --   -0.06258  -0.05417  -0.04505  -0.03103  -0.02609
 Alpha virt. eigenvalues --   -0.02468  -0.01955  -0.01280  -0.00634  -0.00524
 Alpha virt. eigenvalues --   -0.00058   0.00289   0.00697   0.00789   0.00821

  Beta  occ. eigenvalues --  -38.44689 -38.44463 -38.43926 -38.43547 -38.43484
  Beta  occ. eigenvalues --  -38.43276 -38.42984  -2.20449  -2.20283  -2.19732
  Beta  occ. eigenvalues --   -2.19308  -2.19303  -2.19129  -2.18947  -1.14119
  Beta  occ. eigenvalues --   -1.14097  -1.14090  -1.13948  -1.13931  -1.13926
  Beta  occ. eigenvalues --   -1.13420  -1.13389  -1.13359  -1.13039  -1.13021
  Beta  occ. eigenvalues --   -1.12994  -1.12980  -1.12949  -1.12924  -1.12860
  Beta  occ. eigenvalues --   -1.12769  -1.12759  -1.12652  -1.12610  -1.12572
  Beta  occ. eigenvalues --   -0.17506  -0.12907  -0.11931
  Beta virt. eigenvalues --   -0.06505  -0.06180  -0.05396  -0.04462  -0.02435
  Beta virt. eigenvalues --   -0.01946  -0.01839  -0.01357  -0.01221  -0.00670
  Beta virt. eigenvalues --   -0.00534   0.00143   0.00340   0.00769   0.00802

 Mulliken charges and spin densities:
               1          2
     1  Na   0.113342   0.238470
     2  Na  -0.651749   0.790346
     3  Na   0.194262   0.041526
     4  Na   0.371499   0.059019
     5  Na  -0.017615  -0.067523
     6  Na  -0.025669  -0.044060
     7  Na   0.015931  -0.017778
 Sum of Mulliken charges =  -0.00000   1.00000

 Dipole moment (field-independent basis, Debye):
    X=             -0.2305    Y=              0.1495    Z=              0.1583  Tot=              0.3171
 Quadrupole moment (field-independent basis, Debye-Ang):
   XX=            -51.6771   YY=            -63.8363   ZZ=            -76.4374
   XY=             -0.1106   XZ=             -2.2720   YZ=              0.0546

 Normal termination of Gaussian 16 at Thu Dec  7 07:36:10 2023.
