 Gaussian 16, Revision B.01,
 Gaussian 16:  ES64L-G16RevB.01 20-Dec-2017

 -------------------------
 #P B3LYP/6-311+g(d) force
 -------------------------

 -----
 DPGEN
 -----
 Symbolic Z-matrix:
 Charge =  0 Multiplicity = 2

                         Standard orientation:
 ---------------------------------------------------------------------
 Center     Atomic      Atomic             Coordinates (Angstroms)
 Number     Number       Type             X           Y           Z
 ---------------------------------------------------------------------
      1         11           0        0.807612   -1.934651   -0.234902
      2         11           0        3.965250   -2.737097   -0.461044
      3         11           0        3.379501    0.618773    0.778713
      4         11           0        1.994724    3.678430   -0.657902
      5         11           0       -0.266381    1.190814    0.430877
      6         11           0       -3.393999   -0.643630    0.565546
      7         11           0       -6.486706   -0.172639   -0.421289
 ---------------------------------------------------------------------

 SCF Done:  E(UB3LYP) =  -1136.12350959     A.U. after   21 cycles

 The electronic state is 2-A.
 Alpha  occ. eigenvalues --  -38.44959 -38.44374 -38.44300 -38.44064 -38.43939
 Alpha  occ. eigenvalues --  -38.43830 -38.43363  -2.20765  -2.20216  -2.20104
 Alpha  occ. eigenvalues --   -2.19849  -2.19753  -2.19689  -2.19152  -1.14474
 Alpha  occ. eigenvalues --   -1.14446  -1.14344  -1.13914  -1.13900  -1.13822
 Alpha  occ. eigenvalues --   -1.13738  -1.13738  -1.13732  -1.13517  -1.13516
 Alpha  occ. eigenvalues --   -1.13472  -1.13415  -1.13411  -1.13390  -1.13381
 Alpha  occ. eigenvalues --   -1.13379  -1.13264  -1.12844  -1.12839  -1.12795
 Alpha  occ. eigenvalues --   -0.16863  -0.13658  -0.12492  -0.11267
 Alpha virt. eigenvalues --   -0.06148  -0.05385  -0.04633  -0.03822  -0.02495
 Alpha virt. eigenvalues --   -0.02355  -0.02028  -0.01999  -0.01068  -0.00859
 Alpha virt. eigenvalues --   -0.00386  -0.00176   0.00124   0.00464   0.00636

  Beta  occ. eigenvalues --  -38.44933 -38.44342 -38.44207 -38.44050 -38.43926
  Beta  occ. eigenvalues --  -38.43791 -38.43371  -2.20718  -2.20160  -2.19932
  Beta  occ. eigenvalues --   -2.19822  -2.19728  -2.19621  -2.19175  -1.14437
  Beta  occ. eigenvalues --   -1.14417  -1.14306  -1.13875  -1.13865  -1.13764
  Beta  occ. eigenvalues --   -1.13621  -1.13620  -1.13619  -1.13498  -1.13495
  Beta  occ. eigenvalues --   -1.13454  -1.13396  -1.13392  -1.13364  -1.13343
  Beta  occ. eigenvalues --   -1.13337  -1.13200  -1.12868  -1.12862  -1.12750
  Beta  occ. eigenvalues --   -0.16277  -0.12872  -0.12272
  Beta virt. eigenvalues --   -0.07861  -0.06005  -0.04874  -0.04257  -0.03625
  Beta virt. eigenvalues --   -0.02273  -0.02190  -0.01787  -0.01458  -0.00940
  Beta virt. eigenvalues --   -0.00556  -0.00126  -0.00018   0.00304   0.00567

 Mulliken charges and spin densities:
               1          2
     1  Na  -1.142191   0.121206
     2  Na   1.364876   0.187728
     3  Na  -0.011528   0.263039
     4  Na   0.615875   0.108890
     5  Na  -0.843427   0.088759
     6  Na  -0.250834  -0.224876
     7  Na   0.267229   0.455253
 Sum of Mulliken charges =  -0.00000   1.00000

 Dipole moment (field-independent basis, Debye):
    X=              1.5201    Y=              0.2137    Z=             -0.4559  Tot=              1.6014
 Quadrupole moment (field-independent basis, Debye-Ang):
   XX=            -59.9616   YY=            -63.8824   ZZ=            -70.1892
   XY=             -2.6562   XZ=              1.9966   YZ=             -0.9306

 Normal termination of Gaussian 16 at Tue Nov 28 19:35:47 2023.
