 Gaussian 16, Revision B.01,
 Gaussian 16:  ES64L-G16RevB.01 20-Dec-2017

 -------------------------
 #P B3LYP/6-311+g(d) force
 -------------------------

 -----
 DPGEN
 -----
 Symbolic Z-matrix:
 Charge =  0 Multiplicity = 2

                         Standard orientation:
 ---------------------------------------------------------------------
 Center     Atomic      Atomic             Coordinates (Angstroms)
 Number     Number       Type             X           Y           Z
 ---------------------------------------------------------------------
      1         11           0        0.044625   -0.187766    2.258878
      2         11           0       -0.089028   -3.081370   -0.322753
      3         11           0       -1.173322    2.781379    0.027947
      4         11           0       -3.424764   -0.519276   -0.085136
      5         11           0       -0.327045   -0.079210   -1.461206
      6         11           0        2.013045    2.139244   -0.390927
      7         11           0        2.956489   -1.053003   -0.026804
 ---------------------------------------------------------------------

 SCF Done:  E(UB3LYP) =  -1136.13484372     A.U. after   19 cycles

 The electronic state is 2-A.
 Alpha  occ. eigenvalues --  -38.44495 -38.43945 -38.43858 -38.43789 -38.43702
 Alpha  occ. eigenvalues --  -38.43324 -38.43033  -2.20261  -2.19759  -2.19681
 Alpha  occ. eigenvalues --   -2.19628  -2.19541  -2.19195  -2.19014  -1.13941
 Alpha  occ. eigenvalues --   -1.13913  -1.13903  -1.13466  -1.13418  -1.13382
 Alpha  occ. eigenvalues --   -1.13358  -1.13349  -1.13317  -1.13282  -1.13252
 Alpha  occ. eigenvalues --   -1.13244  -1.13236  -1.13203  -1.13176  -1.12880
 Alpha  occ. eigenvalues --   -1.12845  -1.12836  -1.12702  -1.12661  -1.12633
 Alpha  occ. eigenvalues --   -0.18282  -0.12649  -0.12599  -0.10640
 Alpha virt. eigenvalues --   -0.06030  -0.05055  -0.04840  -0.02969  -0.02899
 Alpha virt. eigenvalues --   -0.02641  -0.01712  -0.01256  -0.00586  -0.00435
 Alpha virt. eigenvalues --   -0.00031   0.00322   0.00752   0.00825   0.00870

  Beta  occ. eigenvalues --  -38.44496 -38.43937 -38.43856 -38.43699 -38.43678
  Beta  occ. eigenvalues --  -38.43316 -38.42986  -2.20265  -2.19749  -2.19679
  Beta  occ. eigenvalues --   -2.19538  -2.19422  -2.19183  -2.18929  -1.13933
  Beta  occ. eigenvalues --   -1.13914  -1.13907  -1.13452  -1.13397  -1.13378
  Beta  occ. eigenvalues --   -1.13358  -1.13324  -1.13318  -1.13235  -1.13189
  Beta  occ. eigenvalues --   -1.13173  -1.13143  -1.13108  -1.13097  -1.12867
  Beta  occ. eigenvalues --   -1.12831  -1.12821  -1.12639  -1.12599  -1.12571
  Beta  occ. eigenvalues --   -0.17580  -0.12477  -0.12374
  Beta virt. eigenvalues --   -0.06660  -0.06030  -0.04971  -0.04829  -0.02239
  Beta virt. eigenvalues --   -0.02163  -0.01659  -0.01497  -0.01176  -0.00636
  Beta virt. eigenvalues --   -0.00467   0.00137   0.00366   0.00766   0.00869

 Mulliken charges and spin densities:
               1          2
     1  Na  -0.612144   0.793717
     2  Na   0.168192  -0.037763
     3  Na   0.186354   0.038126
     4  Na   0.093134  -0.048145
     5  Na  -0.221521   0.161629
     6  Na   0.161851   0.044171
     7  Na   0.224134   0.048264
 Sum of Mulliken charges =  -0.00000   1.00000

 Dipole moment (field-independent basis, Debye):
    X=             -0.4142    Y=             -0.2724    Z=              0.1638  Tot=              0.5221
 Quadrupole moment (field-independent basis, Debye-Ang):
   XX=            -56.2342   YY=            -61.0796   ZZ=            -75.6235
   XY=             -0.3700   XZ=             -0.8931   YZ=              0.2388

 Normal termination of Gaussian 16 at Sat Dec  9 06:13:31 2023.
