 Gaussian 16, Revision B.01,
 Gaussian 16:  ES64L-G16RevB.01 20-Dec-2017

 -------------------------
 #P B3LYP/6-311+g(d) force
 -------------------------

 -----
 DPGEN
 -----
 Symbolic Z-matrix:
 Charge =  0 Multiplicity = 2

                         Standard orientation:
 ---------------------------------------------------------------------
 Center     Atomic      Atomic             Coordinates (Angstroms)
 Number     Number       Type             X           Y           Z
 ---------------------------------------------------------------------
      1         11           0        0.180482    1.476628   -0.210976
      2         11           0        2.683141    3.452345   -0.454388
      3         11           0        3.372265    0.145433    1.096683
      4         11           0        2.885254   -2.953511   -0.852254
      5         11           0       -0.077269   -1.929030    0.465920
      6         11           0       -3.137337   -1.004174   -0.076475
      7         11           0       -5.906536    0.812308    0.031490
 ---------------------------------------------------------------------

 SCF Done:  E(UB3LYP) =  -1136.12180531     A.U. after   20 cycles

 The electronic state is 2-A.
 Alpha  occ. eigenvalues --  -38.45180 -38.44407 -38.44219 -38.44068 -38.44037
 Alpha  occ. eigenvalues --  -38.43459 -38.43171  -2.20966  -2.20248  -2.20031
 Alpha  occ. eigenvalues --   -2.19876  -2.19827  -2.19345  -2.19001  -1.14670
 Alpha  occ. eigenvalues --   -1.14637  -1.14552  -1.13946  -1.13930  -1.13858
 Alpha  occ. eigenvalues --   -1.13660  -1.13659  -1.13654  -1.13543  -1.13535
 Alpha  occ. eigenvalues --   -1.13501  -1.13494  -1.13492  -1.13455  -1.13030
 Alpha  occ. eigenvalues --   -1.13021  -1.12967  -1.12682  -1.12676  -1.12649
 Alpha  occ. eigenvalues --   -0.16869  -0.13811  -0.12489  -0.10993
 Alpha virt. eigenvalues --   -0.06343  -0.05630  -0.04404  -0.03617  -0.02508
 Alpha virt. eigenvalues --   -0.02448  -0.02334  -0.01418  -0.01076  -0.00856
 Alpha virt. eigenvalues --   -0.00486  -0.00298   0.00406   0.00427   0.00558

  Beta  occ. eigenvalues --  -38.45151 -38.44381 -38.44110 -38.44068 -38.44021
  Beta  occ. eigenvalues --  -38.43424 -38.43170  -2.20914  -2.20201  -2.19876
  Beta  occ. eigenvalues --   -2.19826  -2.19797  -2.19282  -2.19010  -1.14631
  Beta  occ. eigenvalues --   -1.14605  -1.14511  -1.13914  -1.13900  -1.13819
  Beta  occ. eigenvalues --   -1.13540  -1.13533  -1.13522  -1.13520  -1.13519
  Beta  occ. eigenvalues --   -1.13500  -1.13473  -1.13470  -1.13432  -1.12989
  Beta  occ. eigenvalues --   -1.12979  -1.12909  -1.12694  -1.12684  -1.12595
  Beta  occ. eigenvalues --   -0.16381  -0.13069  -0.12153
  Beta virt. eigenvalues --   -0.07544  -0.06193  -0.05295  -0.03990  -0.03345
  Beta virt. eigenvalues --   -0.02378  -0.02201  -0.01992  -0.01165  -0.00730
  Beta virt. eigenvalues --   -0.00535  -0.00226  -0.00070   0.00526   0.00542

 Mulliken charges and spin densities:
               1          2
     1  Na  -1.542031  -0.001502
     2  Na   1.287396   0.132734
     3  Na   0.023378   0.265649
     4  Na   0.677555   0.146170
     5  Na  -0.712758  -0.081789
     6  Na  -0.177584   0.164642
     7  Na   0.444045   0.374095
 Sum of Mulliken charges =  -0.00000   1.00000

 Dipole moment (field-independent basis, Debye):
    X=              1.8652    Y=              0.7303    Z=             -0.1614  Tot=              2.0096
 Quadrupole moment (field-independent basis, Debye-Ang):
   XX=            -65.8704   YY=            -63.3025   ZZ=            -68.6136
   XY=              0.9653   XZ=             -0.2643   YZ=              0.6075

 Normal termination of Gaussian 16 at Tue Nov 28 20:15:33 2023.
