 Gaussian 16, Revision B.01,
 Gaussian 16:  ES64L-G16RevB.01 20-Dec-2017

 -------------------------
 #P B3LYP/6-311+g(d) force
 -------------------------

 -----
 DPGEN
 -----
 Symbolic Z-matrix:
 Charge =  0 Multiplicity = 2

                         Standard orientation:
 ---------------------------------------------------------------------
 Center     Atomic      Atomic             Coordinates (Angstroms)
 Number     Number       Type             X           Y           Z
 ---------------------------------------------------------------------
      1         11           0        1.225921   -1.212171    0.623542
      2         11           0        4.571890   -2.001539   -0.003469
      3         11           0        2.591155    1.086754   -1.370006
      4         11           0       -1.265085    1.676696   -0.995856
      5         11           0       -2.488645   -0.644074    0.587922
      6         11           0        0.592369    2.415808    1.556281
      7         11           0       -5.227606   -1.321472   -0.398413
 ---------------------------------------------------------------------

 SCF Done:  E(UB3LYP) =  -1136.11388693     A.U. after   22 cycles

 The electronic state is 2-A.
 Alpha  occ. eigenvalues --  -38.45139 -38.45122 -38.44285 -38.44279 -38.43910
 Alpha  occ. eigenvalues --  -38.43579 -38.43137  -2.20994  -2.20924  -2.20109
 Alpha  occ. eigenvalues --   -2.20045  -2.19727  -2.19451  -2.19055  -1.14702
 Alpha  occ. eigenvalues --   -1.14689  -1.14632  -1.14593  -1.14574  -1.14527
 Alpha  occ. eigenvalues --   -1.13811  -1.13783  -1.13720  -1.13716  -1.13684
 Alpha  occ. eigenvalues --   -1.13664  -1.13429  -1.13365  -1.13356  -1.13151
 Alpha  occ. eigenvalues --   -1.13127  -1.13033  -1.12767  -1.12710  -1.12665
 Alpha  occ. eigenvalues --   -0.17724  -0.13758  -0.11991  -0.10250
 Alpha virt. eigenvalues --   -0.06945  -0.06314  -0.04157  -0.03129  -0.02592
 Alpha virt. eigenvalues --   -0.02400  -0.02379  -0.01755  -0.00954  -0.00782
 Alpha virt. eigenvalues --   -0.00325   0.00084   0.00261   0.00411   0.00544

  Beta  occ. eigenvalues --  -38.45127 -38.45126 -38.44291 -38.44216 -38.43878
  Beta  occ. eigenvalues --  -38.43523 -38.43121  -2.20973  -2.20934  -2.20056
  Beta  occ. eigenvalues --   -2.19993  -2.19666  -2.19351  -2.19032  -1.14684
  Beta  occ. eigenvalues --   -1.14670  -1.14622  -1.14602  -1.14551  -1.14527
  Beta  occ. eigenvalues --   -1.13732  -1.13729  -1.13716  -1.13705  -1.13679
  Beta  occ. eigenvalues --   -1.13588  -1.13392  -1.13323  -1.13314  -1.13081
  Beta  occ. eigenvalues --   -1.13060  -1.12944  -1.12758  -1.12697  -1.12604
  Beta  occ. eigenvalues --   -0.17046  -0.13520  -0.11773
  Beta virt. eigenvalues --   -0.06737  -0.06608  -0.06106  -0.03572  -0.02860
  Beta virt. eigenvalues --   -0.02542  -0.02277  -0.02055  -0.01210  -0.00754
  Beta virt. eigenvalues --   -0.00430  -0.00161   0.00222   0.00372   0.00523

 Mulliken charges and spin densities:
               1          2
     1  Na  -0.516885   0.418304
     2  Na   0.964194   0.098904
     3  Na  -0.001676   0.358422
     4  Na  -0.293682   0.133060
     5  Na  -0.649824  -0.185781
     6  Na   0.516027   0.076519
     7  Na  -0.018155   0.100572
 Sum of Mulliken charges =  -0.00000   1.00000

 Dipole moment (field-independent basis, Debye):
    X=              0.9121    Y=              0.9923    Z=              0.5482  Tot=              1.4550
 Quadrupole moment (field-independent basis, Debye-Ang):
   XX=            -59.7222   YY=            -68.0428   ZZ=            -68.2845
   XY=             -2.2741   XZ=              4.0971   YZ=              4.0742

 Normal termination of Gaussian 16 at Tue Nov 28 22:47:57 2023.
