 Gaussian 16, Revision B.01,
 Gaussian 16:  ES64L-G16RevB.01 20-Dec-2017

 -------------------------
 #P B3LYP/6-311+g(d) force
 -------------------------

 -----
 DPGEN
 -----
 Symbolic Z-matrix:
 Charge =  0 Multiplicity = 2

                         Standard orientation:
 ---------------------------------------------------------------------
 Center     Atomic      Atomic             Coordinates (Angstroms)
 Number     Number       Type             X           Y           Z
 ---------------------------------------------------------------------
      1         11           0       -1.850598   -1.697376    0.061453
      2         11           0        2.130837    2.886718   -0.469473
      3         11           0        0.803193   -2.322768   -1.991671
      4         11           0        0.273907   -1.495417    2.249544
      5         11           0        3.062091   -0.517294    0.210868
      6         11           0       -0.631773    2.054398    0.387192
      7         11           0       -3.787658    1.091738   -0.447914
 ---------------------------------------------------------------------

 SCF Done:  E(UB3LYP) =  -1136.12076580     A.U. after   19 cycles

 The electronic state is 2-A.
 Alpha  occ. eigenvalues --  -38.44943 -38.44476 -38.44180 -38.43980 -38.43872
 Alpha  occ. eigenvalues --  -38.43870 -38.43723  -2.20722  -2.20269  -2.19993
 Alpha  occ. eigenvalues --   -2.19849  -2.19748  -2.19694  -2.19570  -1.14412
 Alpha  occ. eigenvalues --   -1.14387  -1.14354  -1.13932  -1.13928  -1.13914
 Alpha  occ. eigenvalues --   -1.13652  -1.13635  -1.13615  -1.13604  -1.13480
 Alpha  occ. eigenvalues --   -1.13471  -1.13449  -1.13417  -1.13391  -1.13344
 Alpha  occ. eigenvalues --   -1.13343  -1.13321  -1.13248  -1.13231  -1.13159
 Alpha  occ. eigenvalues --   -0.17503  -0.13111  -0.12712  -0.10983
 Alpha virt. eigenvalues --   -0.06778  -0.05532  -0.04295  -0.03359  -0.03069
 Alpha virt. eigenvalues --   -0.02691  -0.01947  -0.01204  -0.00898  -0.00355
 Alpha virt. eigenvalues --   -0.00206   0.00120   0.00321   0.00588   0.00874

  Beta  occ. eigenvalues --  -38.44940 -38.44472 -38.44097 -38.43885 -38.43876
  Beta  occ. eigenvalues --  -38.43859 -38.43722  -2.20720  -2.20260  -2.19838
  Beta  occ. eigenvalues --   -2.19736  -2.19701  -2.19672  -2.19570  -1.14390
  Beta  occ. eigenvalues --   -1.14384  -1.14357  -1.13926  -1.13920  -1.13910
  Beta  occ. eigenvalues --   -1.13549  -1.13529  -1.13527  -1.13504  -1.13476
  Beta  occ. eigenvalues --   -1.13406  -1.13360  -1.13348  -1.13345  -1.13326
  Beta  occ. eigenvalues --   -1.13326  -1.13300  -1.13244  -1.13225  -1.13163
  Beta  occ. eigenvalues --   -0.16902  -0.12976  -0.12428
  Beta virt. eigenvalues --   -0.07137  -0.06615  -0.05380  -0.03977  -0.02788
  Beta virt. eigenvalues --   -0.02598  -0.02018  -0.01762  -0.01173  -0.00814
  Beta virt. eigenvalues --   -0.00204   0.00045   0.00315   0.00380   0.00633

 Mulliken charges and spin densities:
               1          2
     1  Na  -0.265682   0.387072
     2  Na   0.697617  -0.118008
     3  Na   0.043534   0.243247
     4  Na   0.435013   0.210541
     5  Na  -0.326592   0.272615
     6  Na  -1.187885   0.090665
     7  Na   0.603995  -0.086132
 Sum of Mulliken charges =  -0.00000   1.00000

 Dipole moment (field-independent basis, Debye):
    X=              0.0622    Y=              0.1210    Z=             -0.2133  Tot=              0.2530
 Quadrupole moment (field-independent basis, Debye-Ang):
   XX=            -55.0683   YY=            -69.8610   ZZ=            -71.7393
   XY=             -0.4581   XZ=              1.3272   YZ=             -1.0324

 Normal termination of Gaussian 16 at Sun Dec  3 20:00:20 2023.
