 Gaussian 16, Revision B.01,
 Gaussian 16:  ES64L-G16RevB.01 20-Dec-2017

 -------------------------
 #P B3LYP/6-311+g(d) force
 -------------------------

 -----
 DPGEN
 -----
 Symbolic Z-matrix:
 Charge =  0 Multiplicity = 2

                         Standard orientation:
 ---------------------------------------------------------------------
 Center     Atomic      Atomic             Coordinates (Angstroms)
 Number     Number       Type             X           Y           Z
 ---------------------------------------------------------------------
      1         11           0       -2.947479   -0.889353   -0.111003
      2         11           0       -1.951703    1.903243    0.108296
      3         11           0        0.268182    0.223448    1.916885
      4         11           0        3.109169   -0.975390    0.051714
      5         11           0       -0.120127   -2.763484    0.068954
      6         11           0        1.423859    2.644298   -0.280820
      7         11           0        0.218098   -0.142762   -1.754026
 ---------------------------------------------------------------------

 SCF Done:  E(UB3LYP) =  -1136.13722058     A.U. after   19 cycles

 The electronic state is 2-A.
 Alpha  occ. eigenvalues --  -38.44319 -38.43697 -38.43514 -38.43395 -38.43369
 Alpha  occ. eigenvalues --  -38.43368 -38.43217  -2.20124  -2.19580  -2.19363
 Alpha  occ. eigenvalues --   -2.19327  -2.19294  -2.19243  -2.19189  -1.13802
 Alpha  occ. eigenvalues --   -1.13780  -1.13762  -1.13344  -1.13224  -1.13222
 Alpha  occ. eigenvalues --   -1.13067  -1.13044  -1.13015  -1.13001  -1.12989
 Alpha  occ. eigenvalues --   -1.12967  -1.12947  -1.12943  -1.12918  -1.12903
 Alpha  occ. eigenvalues --   -1.12898  -1.12856  -1.12850  -1.12799  -1.12799
 Alpha  occ. eigenvalues --   -0.18946  -0.13062  -0.12568  -0.10798
 Alpha virt. eigenvalues --   -0.05806  -0.05021  -0.04508  -0.03183  -0.02952
 Alpha virt. eigenvalues --   -0.02525  -0.01619  -0.01104  -0.00211  -0.00153
 Alpha virt. eigenvalues --   -0.00002   0.00363   0.00811   0.00898   0.00952

  Beta  occ. eigenvalues --  -38.44317 -38.43695 -38.43507 -38.43361 -38.43361
  Beta  occ. eigenvalues --  -38.43309 -38.43142  -2.20122  -2.19579  -2.19353
  Beta  occ. eigenvalues --   -2.19284  -2.19234  -2.19169  -2.19053  -1.13782
  Beta  occ. eigenvalues --   -1.13778  -1.13764  -1.13347  -1.13226  -1.13198
  Beta  occ. eigenvalues --   -1.13050  -1.13005  -1.12998  -1.12970  -1.12959
  Beta  occ. eigenvalues --   -1.12917  -1.12900  -1.12896  -1.12873  -1.12853
  Beta  occ. eigenvalues --   -1.12828  -1.12818  -1.12766  -1.12710  -1.12701
  Beta  occ. eigenvalues --   -0.18198  -0.12828  -0.12310
  Beta virt. eigenvalues --   -0.06869  -0.05794  -0.04990  -0.04494  -0.02390
  Beta virt. eigenvalues --   -0.02146  -0.01555  -0.01452  -0.01036  -0.00263
  Beta virt. eigenvalues --   -0.00199   0.00125   0.00377   0.00834   0.00900

 Mulliken charges and spin densities:
               1          2
     1  Na  -0.016141  -0.047989
     2  Na   0.389543   0.043518
     3  Na  -0.455272   0.689010
     4  Na   0.101129  -0.143554
     5  Na   0.218887  -0.056426
     6  Na   0.159602  -0.109076
     7  Na  -0.397748   0.624518
 Sum of Mulliken charges =  -0.00000   1.00000

 Dipole moment (field-independent basis, Debye):
    X=              0.5550    Y=             -0.1048    Z=              0.0538  Tot=              0.5673
 Quadrupole moment (field-independent basis, Debye-Ang):
   XX=            -55.9872   YY=            -63.3041   ZZ=            -74.1349
   XY=              0.4330   XZ=             -0.0009   YZ=             -0.8030

 Normal termination of Gaussian 16 at Thu Dec  7 03:46:02 2023.
