 Gaussian 16, Revision B.01,
 Gaussian 16:  ES64L-G16RevB.01 20-Dec-2017

 -------------------------
 #P B3LYP/6-311+g(d) force
 -------------------------

 -----
 DPGEN
 -----
 Symbolic Z-matrix:
 Charge =  0 Multiplicity = 2

                         Standard orientation:
 ---------------------------------------------------------------------
 Center     Atomic      Atomic             Coordinates (Angstroms)
 Number     Number       Type             X           Y           Z
 ---------------------------------------------------------------------
      1         11           0       -3.425505    0.004611   -0.558452
      2         11           0        0.642920    0.265018    1.681622
      3         11           0       -1.101542    2.825325    0.128214
      4         11           0        3.101758    1.314884   -0.106952
      5         11           0        1.924751   -2.160162   -0.439676
      6         11           0        0.298277   -0.117353   -1.547040
      7         11           0       -1.440660   -2.132322    0.842284
 ---------------------------------------------------------------------

 SCF Done:  E(UB3LYP) =  -1136.12760898     A.U. after   22 cycles

 The electronic state is 2-A.
 Alpha  occ. eigenvalues --  -38.44660 -38.44456 -38.43678 -38.43654 -38.43483
 Alpha  occ. eigenvalues --  -38.43072 -38.43016  -2.20488  -2.20260  -2.19580
 Alpha  occ. eigenvalues --   -2.19495  -2.19471  -2.19015  -2.18966  -1.14180
 Alpha  occ. eigenvalues --   -1.14147  -1.14112  -1.13939  -1.13922  -1.13888
 Alpha  occ. eigenvalues --   -1.13495  -1.13230  -1.13175  -1.13170  -1.13157
 Alpha  occ. eigenvalues --   -1.13139  -1.13096  -1.13081  -1.13043  -1.12726
 Alpha  occ. eigenvalues --   -1.12676  -1.12633  -1.12619  -1.12597  -1.12583
 Alpha  occ. eigenvalues --   -0.18811  -0.13404  -0.12081  -0.10621
 Alpha virt. eigenvalues --   -0.06378  -0.05116  -0.04223  -0.03279  -0.02729
 Alpha virt. eigenvalues --   -0.02219  -0.02008  -0.01115  -0.00537  -0.00130
 Alpha virt. eigenvalues --    0.00087   0.00298   0.00664   0.00783   0.00823

  Beta  occ. eigenvalues --  -38.44654 -38.44447 -38.43679 -38.43636 -38.43424
  Beta  occ. eigenvalues --  -38.43048 -38.42936  -2.20480  -2.20245  -2.19550
  Beta  occ. eigenvalues --   -2.19475  -2.19391  -2.18926  -2.18870  -1.14165
  Beta  occ. eigenvalues --   -1.14137  -1.14102  -1.13929  -1.13906  -1.13879
  Beta  occ. eigenvalues --   -1.13450  -1.13184  -1.13157  -1.13147  -1.13142
  Beta  occ. eigenvalues --   -1.13096  -1.13088  -1.13014  -1.12976  -1.12655
  Beta  occ. eigenvalues --   -1.12590  -1.12579  -1.12569  -1.12542  -1.12490
  Beta  occ. eigenvalues --   -0.18112  -0.13146  -0.11821
  Beta virt. eigenvalues --   -0.06750  -0.06314  -0.05042  -0.04139  -0.02629
  Beta virt. eigenvalues --   -0.02015  -0.01916  -0.01246  -0.01022  -0.00503
  Beta virt. eigenvalues --   -0.00052   0.00144   0.00345   0.00749   0.00858

 Mulliken charges and spin densities:
               1          2
     1  Na  -0.078519   0.028624
     2  Na   0.220104   0.399148
     3  Na  -0.185579  -0.039802
     4  Na   0.001951  -0.059445
     5  Na   0.332670   0.147472
     6  Na  -0.306812   0.397990
     7  Na   0.016184   0.126013
 Sum of Mulliken charges =  -0.00000   1.00000

 Dipole moment (field-independent basis, Debye):
    X=              0.3015    Y=              0.3256    Z=             -0.0956  Tot=              0.4539
 Quadrupole moment (field-independent basis, Debye-Ang):
   XX=            -51.3881   YY=            -65.4619   ZZ=            -74.9239
   XY=              0.8720   XZ=              0.1892   YZ=             -0.8440

 Normal termination of Gaussian 16 at Thu Dec  7 13:30:40 2023.
