 Gaussian 16, Revision B.01,
 Gaussian 16:  ES64L-G16RevB.01 20-Dec-2017

 -------------------------
 #P B3LYP/6-311+g(d) force
 -------------------------

 -----
 DPGEN
 -----
 Symbolic Z-matrix:
 Charge =  0 Multiplicity = 2

                         Standard orientation:
 ---------------------------------------------------------------------
 Center     Atomic      Atomic             Coordinates (Angstroms)
 Number     Number       Type             X           Y           Z
 ---------------------------------------------------------------------
      1         11           0        2.055951    2.254575   -0.348023
      2         11           0        0.495411   -2.575251   -0.492193
      3         11           0       -0.909720    2.305488    0.123112
      4         11           0        1.293960   -0.153658    1.903856
      5         11           0       -4.319341    0.638380   -0.735853
      6         11           0        4.285077   -0.761281   -0.818039
      7         11           0       -2.901337   -1.708253    0.367141
 ---------------------------------------------------------------------

 SCF Done:  E(UB3LYP) =  -1136.11822580     A.U. after   19 cycles

 The electronic state is 2-A.
 Alpha  occ. eigenvalues --  -38.45157 -38.44412 -38.44133 -38.44024 -38.43959
 Alpha  occ. eigenvalues --  -38.43888 -38.43633  -2.20975  -2.20207  -2.19963
 Alpha  occ. eigenvalues --   -2.19865  -2.19827  -2.19670  -2.19468  -1.14652
 Alpha  occ. eigenvalues --   -1.14637  -1.14596  -1.13862  -1.13843  -1.13812
 Alpha  occ. eigenvalues --   -1.13762  -1.13633  -1.13610  -1.13558  -1.13497
 Alpha  occ. eigenvalues --   -1.13492  -1.13478  -1.13461  -1.13448  -1.13348
 Alpha  occ. eigenvalues --   -1.13335  -1.13296  -1.13153  -1.13127  -1.13074
 Alpha  occ. eigenvalues --   -0.17130  -0.14082  -0.12110  -0.10913
 Alpha virt. eigenvalues --   -0.06441  -0.05779  -0.04462  -0.03618  -0.02685
 Alpha virt. eigenvalues --   -0.02571  -0.01880  -0.01735  -0.00918  -0.00731
 Alpha virt. eigenvalues --   -0.00305   0.00062   0.00383   0.00586   0.00667

  Beta  occ. eigenvalues --  -38.45127 -38.44310 -38.44129 -38.43979 -38.43954
  Beta  occ. eigenvalues --  -38.43874 -38.43628  -2.20922  -2.20017  -2.19960
  Beta  occ. eigenvalues --   -2.19821  -2.19782  -2.19647  -2.19461  -1.14615
  Beta  occ. eigenvalues --   -1.14591  -1.14557  -1.13732  -1.13729  -1.13710
  Beta  occ. eigenvalues --   -1.13687  -1.13635  -1.13598  -1.13542  -1.13486
  Beta  occ. eigenvalues --   -1.13450  -1.13441  -1.13422  -1.13403  -1.13334
  Beta  occ. eigenvalues --   -1.13313  -1.13277  -1.13150  -1.13116  -1.13061
  Beta  occ. eigenvalues --   -0.16606  -0.13413  -0.11853
  Beta virt. eigenvalues --   -0.07372  -0.06242  -0.05700  -0.03758  -0.03491
  Beta virt. eigenvalues --   -0.02340  -0.02202  -0.01586  -0.01274  -0.00739
  Beta virt. eigenvalues --   -0.00442  -0.00278   0.00224   0.00495   0.00675

 Mulliken charges and spin densities:
               1          2
     1  Na   0.238332   0.068266
     2  Na  -0.051914   0.019262
     3  Na  -0.354140  -0.032830
     4  Na  -0.059606   0.087911
     5  Na   0.390450   0.300551
     6  Na   0.103568   0.577215
     7  Na  -0.266690  -0.020375
 Sum of Mulliken charges =  -0.00000   1.00000

 Dipole moment (field-independent basis, Debye):
    X=              0.1043    Y=             -0.0314    Z=              0.3688  Tot=              0.3845
 Quadrupole moment (field-independent basis, Debye-Ang):
   XX=            -65.7861   YY=            -71.5670   ZZ=            -65.7431
   XY=             -0.4422   XZ=              1.7760   YZ=             -0.5576

 Normal termination of Gaussian 16 at Mon Dec  4 04:50:20 2023.
