 Gaussian 16, Revision B.01,
 Gaussian 16:  ES64L-G16RevB.01 20-Dec-2017

 -------------------------
 #P B3LYP/6-311+g(d) force
 -------------------------

 -----
 DPGEN
 -----
 Symbolic Z-matrix:
 Charge =  0 Multiplicity = 2

                         Standard orientation:
 ---------------------------------------------------------------------
 Center     Atomic      Atomic             Coordinates (Angstroms)
 Number     Number       Type             X           Y           Z
 ---------------------------------------------------------------------
      1         11           0       -2.300332   -0.202099    0.678180
      2         11           0       -3.972676   -2.561396   -0.523799
      3         11           0        3.002471   -0.044219    1.077021
      4         11           0       -3.393842    2.535387   -0.547973
      5         11           0        6.055652   -0.249139   -0.940689
      6         11           0        0.429053   -1.956947    0.144206
      7         11           0        0.179675    2.478412    0.113053
 ---------------------------------------------------------------------

 SCF Done:  E(UB3LYP) =  -1136.11576329     A.U. after   21 cycles

 The electronic state is 2-A.
 Alpha  occ. eigenvalues --  -38.45160 -38.44570 -38.44313 -38.44156 -38.44008
 Alpha  occ. eigenvalues --  -38.43919 -38.43303  -2.20948  -2.20383  -2.20085
 Alpha  occ. eigenvalues --   -2.19945  -2.19817  -2.19715  -2.19239  -1.14579
 Alpha  occ. eigenvalues --   -1.14579  -1.14552  -1.14077  -1.14056  -1.13979
 Alpha  occ. eigenvalues --   -1.13780  -1.13764  -1.13688  -1.13630  -1.13601
 Alpha  occ. eigenvalues --   -1.13569  -1.13510  -1.13476  -1.13423  -1.13403
 Alpha  occ. eigenvalues --   -1.13391  -1.13359  -1.12952  -1.12924  -1.12832
 Alpha  occ. eigenvalues --   -0.16665  -0.13972  -0.11791  -0.11468
 Alpha virt. eigenvalues --   -0.06194  -0.05546  -0.04754  -0.03617  -0.02640
 Alpha virt. eigenvalues --   -0.02374  -0.02202  -0.01348  -0.01138  -0.00676
 Alpha virt. eigenvalues --   -0.00652  -0.00157   0.00043   0.00210   0.00654

  Beta  occ. eigenvalues --  -38.45029 -38.44534 -38.44308 -38.44139 -38.43990
  Beta  occ. eigenvalues --  -38.43925 -38.43297  -2.20704  -2.20318  -2.20075
  Beta  occ. eigenvalues --   -2.19913  -2.19784  -2.19732  -2.19232  -1.14413
  Beta  occ. eigenvalues --   -1.14413  -1.14389  -1.14031  -1.14012  -1.13935
  Beta  occ. eigenvalues --   -1.13774  -1.13755  -1.13680  -1.13607  -1.13580
  Beta  occ. eigenvalues --   -1.13549  -1.13485  -1.13454  -1.13420  -1.13409
  Beta  occ. eigenvalues --   -1.13401  -1.13323  -1.12927  -1.12910  -1.12832
  Beta  occ. eigenvalues --   -0.16221  -0.13072  -0.11720
  Beta virt. eigenvalues --   -0.07876  -0.05926  -0.04939  -0.04661  -0.03443
  Beta virt. eigenvalues --   -0.02333  -0.02106  -0.01572  -0.01263  -0.00878
  Beta virt. eigenvalues --   -0.00369  -0.00204  -0.00027   0.00149   0.00387

 Mulliken charges and spin densities:
               1          2
     1  Na  -1.103277  -0.101301
     2  Na   0.462394   0.139728
     3  Na   0.027569  -0.297391
     4  Na   0.591886   0.179190
     5  Na  -0.017977   0.686107
     6  Na   0.051261   0.290660
     7  Na  -0.011856   0.103007
 Sum of Mulliken charges =  -0.00000   1.00000

 Dipole moment (field-independent basis, Debye):
    X=             -0.1728    Y=              0.0361    Z=             -0.7736  Tot=              0.7935
 Quadrupole moment (field-independent basis, Debye-Ang):
   XX=            -58.1831   YY=            -67.7828   ZZ=            -69.5788
   XY=              0.8973   XZ=              1.9156   YZ=              1.3583

 Normal termination of Gaussian 16 at Wed Nov 29 00:16:06 2023.
