 Gaussian 16, Revision B.01,
 Gaussian 16:  ES64L-G16RevB.01 20-Dec-2017

 -------------------------
 #P B3LYP/6-311+g(d) force
 -------------------------

 -----
 DPGEN
 -----
 Symbolic Z-matrix:
 Charge =  0 Multiplicity = 2

                         Standard orientation:
 ---------------------------------------------------------------------
 Center     Atomic      Atomic             Coordinates (Angstroms)
 Number     Number       Type             X           Y           Z
 ---------------------------------------------------------------------
      1         11           0        3.104794    2.259977   -0.148687
      2         11           0       -0.261146    1.549618    0.737175
      3         11           0       -2.373484    0.002404   -1.034381
      4         11           0       -7.889571    0.187590    0.928867
      5         11           0       -6.089552   -1.874436   -0.519157
      6         11           0        5.653278   -0.069771   -0.945212
      7         11           0        7.855681   -2.055381    0.981397
 ---------------------------------------------------------------------

 SCF Done:  E(UB3LYP) =  -1136.10389091     A.U. after   19 cycles

 The electronic state is 2-A.
 Alpha  occ. eigenvalues --  -38.44975 -38.44790 -38.44559 -38.44557 -38.44412
 Alpha  occ. eigenvalues --  -38.43986 -38.43943  -2.20764  -2.20563  -2.20358
 Alpha  occ. eigenvalues --   -2.20342  -2.20210  -2.19737  -2.19735  -1.14437
 Alpha  occ. eigenvalues --   -1.14413  -1.14409  -1.14208  -1.14207  -1.14173
 Alpha  occ. eigenvalues --   -1.14019  -1.14008  -1.14007  -1.13995  -1.13992
 Alpha  occ. eigenvalues --   -1.13979  -1.13863  -1.13857  -1.13825  -1.13427
 Alpha  occ. eigenvalues --   -1.13420  -1.13409  -1.13407  -1.13395  -1.13385
 Alpha  occ. eigenvalues --   -0.14916  -0.14037  -0.12862  -0.11230
 Alpha virt. eigenvalues --   -0.07067  -0.05606  -0.04073  -0.03280  -0.03065
 Alpha virt. eigenvalues --   -0.02729  -0.02298  -0.01918  -0.01659  -0.01236
 Alpha virt. eigenvalues --   -0.00883  -0.00430  -0.00294   0.00233   0.00424

  Beta  occ. eigenvalues --  -38.44947 -38.44701 -38.44567 -38.44492 -38.44332
  Beta  occ. eigenvalues --  -38.44008 -38.43960  -2.20712  -2.20398  -2.20359
  Beta  occ. eigenvalues --   -2.20236  -2.20060  -2.19783  -2.19772  -1.14405
  Beta  occ. eigenvalues --   -1.14377  -1.14374  -1.14095  -1.14094  -1.14065
  Beta  occ. eigenvalues --   -1.14020  -1.14006  -1.13986  -1.13939  -1.13925
  Beta  occ. eigenvalues --   -1.13902  -1.13760  -1.13755  -1.13735  -1.13464
  Beta  occ. eigenvalues --   -1.13457  -1.13437  -1.13431  -1.13385  -1.13376
  Beta  occ. eigenvalues --   -0.14373  -0.13533  -0.12245
  Beta virt. eigenvalues --   -0.08124  -0.06595  -0.05251  -0.03705  -0.03114
  Beta virt. eigenvalues --   -0.02917  -0.02562  -0.02097  -0.01617  -0.01418
  Beta virt. eigenvalues --   -0.00938  -0.00535  -0.00198  -0.00053   0.00316

 Mulliken charges and spin densities:
               1          2
     1  Na  -0.243917   0.330856
     2  Na   0.196920  -0.036294
     3  Na  -0.013480   0.279147
     4  Na   0.109653   0.124356
     5  Na  -0.063835  -0.031747
     6  Na  -0.284606  -0.112785
     7  Na   0.299266   0.446467
 Sum of Mulliken charges =  -0.00000   1.00000

 Dipole moment (field-independent basis, Debye):
    X=             -1.7119    Y=             -0.1986    Z=              0.4380  Tot=              1.7781
 Quadrupole moment (field-independent basis, Debye-Ang):
   XX=            -57.2703   YY=            -65.4933   ZZ=            -67.6334
   XY=             -6.7436   XZ=              0.3531   YZ=              3.0077

 Normal termination of Gaussian 16 at Sun Dec  3 20:36:14 2023.
