 Gaussian 16, Revision B.01,
 Gaussian 16:  ES64L-G16RevB.01 20-Dec-2017

 -------------------------
 #P B3LYP/6-311+g(d) force
 -------------------------

 -----
 DPGEN
 -----
 Symbolic Z-matrix:
 Charge =  0 Multiplicity = 2

                         Standard orientation:
 ---------------------------------------------------------------------
 Center     Atomic      Atomic             Coordinates (Angstroms)
 Number     Number       Type             X           Y           Z
 ---------------------------------------------------------------------
      1         11           0       -2.516006   -1.591682    0.321320
      2         11           0        1.019109    2.725177   -0.085469
      3         11           0        3.732354    0.197794   -0.051477
      4         11           0       -2.965893    1.590686   -0.164580
      5         11           0        1.023262   -2.717705   -0.496455
      6         11           0       -0.472543   -0.023410   -1.566684
      7         11           0        0.179719   -0.180861    2.043344
 ---------------------------------------------------------------------

 SCF Done:  E(UB3LYP) =  -1136.12978202     A.U. after   21 cycles

 The electronic state is 2-A.
 Alpha  occ. eigenvalues --  -38.45331 -38.44105 -38.43900 -38.43651 -38.43510
 Alpha  occ. eigenvalues --  -38.43229 -38.43127  -2.21065  -2.19938  -2.19789
 Alpha  occ. eigenvalues --   -2.19518  -2.19310  -2.19210  -2.18957  -1.14747
 Alpha  occ. eigenvalues --   -1.14718  -1.14701  -1.13640  -1.13606  -1.13574
 Alpha  occ. eigenvalues --   -1.13480  -1.13454  -1.13401  -1.13192  -1.13142
 Alpha  occ. eigenvalues --   -1.13133  -1.13010  -1.12986  -1.12925  -1.12894
 Alpha  occ. eigenvalues --   -1.12849  -1.12844  -1.12639  -1.12612  -1.12577
 Alpha  occ. eigenvalues --   -0.18302  -0.13181  -0.11968  -0.10521
 Alpha virt. eigenvalues --   -0.06623  -0.05182  -0.04347  -0.03253  -0.02635
 Alpha virt. eigenvalues --   -0.02391  -0.02185  -0.01246  -0.00524  -0.00400
 Alpha virt. eigenvalues --   -0.00071   0.00260   0.00673   0.00701   0.00821

  Beta  occ. eigenvalues --  -38.45335 -38.44101 -38.43888 -38.43556 -38.43506
  Beta  occ. eigenvalues --  -38.43169 -38.43114  -2.21074  -2.19934  -2.19772
  Beta  occ. eigenvalues --   -2.19344  -2.19306  -2.19103  -2.18936  -1.14745
  Beta  occ. eigenvalues --   -1.14725  -1.14708  -1.13639  -1.13586  -1.13569
  Beta  occ. eigenvalues --   -1.13470  -1.13406  -1.13395  -1.13077  -1.13024
  Beta  occ. eigenvalues --   -1.13009  -1.12997  -1.12966  -1.12925  -1.12820
  Beta  occ. eigenvalues --   -1.12772  -1.12769  -1.12613  -1.12585  -1.12565
  Beta  occ. eigenvalues --   -0.17580  -0.13020  -0.11711
  Beta virt. eigenvalues --   -0.06606  -0.06563  -0.05163  -0.04295  -0.02544
  Beta virt. eigenvalues --   -0.02131  -0.01886  -0.01359  -0.01186  -0.00532
  Beta virt. eigenvalues --   -0.00421   0.00090   0.00302   0.00739   0.00829

 Mulliken charges and spin densities:
               1          2
     1  Na   0.394342   0.128956
     2  Na  -0.089902  -0.120779
     3  Na  -0.041816  -0.081087
     4  Na   0.124561  -0.065148
     5  Na  -0.050766  -0.055800
     6  Na   0.003302   0.500573
     7  Na  -0.339722   0.693284
 Sum of Mulliken charges =  -0.00000   1.00000

 Dipole moment (field-independent basis, Debye):
    X=              0.4279    Y=              0.1012    Z=              0.1836  Tot=              0.4765
 Quadrupole moment (field-independent basis, Debye-Ang):
   XX=            -49.4758   YY=            -66.4413   ZZ=            -75.9441
   XY=             -0.9896   XZ=             -1.0921   YZ=              0.0616

 Normal termination of Gaussian 16 at Thu Dec  7 04:07:12 2023.
