 Gaussian 16, Revision B.01,
 Gaussian 16:  ES64L-G16RevB.01 20-Dec-2017

 -------------------------
 #P B3LYP/6-311+g(d) force
 -------------------------

 -----
 DPGEN
 -----
 Symbolic Z-matrix:
 Charge =  0 Multiplicity = 2

                         Standard orientation:
 ---------------------------------------------------------------------
 Center     Atomic      Atomic             Coordinates (Angstroms)
 Number     Number       Type             X           Y           Z
 ---------------------------------------------------------------------
      1         11           0        1.300566    2.615174    1.237302
      2         11           0       -3.613306   -2.160442    0.112460
      3         11           0       -3.848363    0.914203   -0.865942
      4         11           0       -1.073958    3.229568   -0.093522
      5         11           0       -0.131031   -2.744750    0.722227
      6         11           0        2.957966   -2.476273   -0.250351
      7         11           0        4.408127    0.622520   -0.862174
 ---------------------------------------------------------------------

 SCF Done:  E(UB3LYP) =  -1136.10638740     A.U. after   21 cycles

 The electronic state is 2-A.
 Alpha  occ. eigenvalues --  -38.44856 -38.44755 -38.44662 -38.44562 -38.44491
 Alpha  occ. eigenvalues --  -38.44124 -38.43964  -2.20689  -2.20553  -2.20446
 Alpha  occ. eigenvalues --   -2.20354  -2.20280  -2.19973  -2.19776  -1.14491
 Alpha  occ. eigenvalues --   -1.14321  -1.14301  -1.14236  -1.14211  -1.14193
 Alpha  occ. eigenvalues --   -1.14117  -1.14105  -1.14077  -1.14001  -1.13997
 Alpha  occ. eigenvalues --   -1.13982  -1.13967  -1.13957  -1.13913  -1.13640
 Alpha  occ. eigenvalues --   -1.13603  -1.13591  -1.13430  -1.13421  -1.13398
 Alpha  occ. eigenvalues --   -0.15830  -0.13924  -0.13436  -0.10905
 Alpha virt. eigenvalues --   -0.07495  -0.04856  -0.04309  -0.03727  -0.03541
 Alpha virt. eigenvalues --   -0.02297  -0.02150  -0.01514  -0.01125  -0.01068
 Alpha virt. eigenvalues --   -0.00714  -0.00129   0.00048   0.00467   0.00659

  Beta  occ. eigenvalues --  -38.44833 -38.44708 -38.44668 -38.44492 -38.44470
  Beta  occ. eigenvalues --  -38.44112 -38.43899  -2.20649  -2.20467  -2.20463
  Beta  occ. eigenvalues --   -2.20291  -2.20183  -2.19955  -2.19656  -1.14453
  Beta  occ. eigenvalues --   -1.14295  -1.14272  -1.14193  -1.14155  -1.14136
  Beta  occ. eigenvalues --   -1.14129  -1.14111  -1.14051  -1.13973  -1.13969
  Beta  occ. eigenvalues --   -1.13916  -1.13883  -1.13866  -1.13845  -1.13615
  Beta  occ. eigenvalues --   -1.13593  -1.13576  -1.13349  -1.13341  -1.13322
  Beta  occ. eigenvalues --   -0.15356  -0.13125  -0.12920
  Beta virt. eigenvalues --   -0.07738  -0.07418  -0.04337  -0.04059  -0.03473
  Beta virt. eigenvalues --   -0.03095  -0.02129  -0.01852  -0.01418  -0.01009
  Beta virt. eigenvalues --   -0.00659  -0.00514   0.00049   0.00274   0.00507

 Mulliken charges and spin densities:
               1          2
     1  Na  -0.384079   0.095753
     2  Na   0.446141  -0.002319
     3  Na  -0.015862   0.250062
     4  Na   0.048226  -0.004148
     5  Na  -0.477055   0.258992
     6  Na   0.337599  -0.052635
     7  Na   0.045031   0.454294
 Sum of Mulliken charges =  -0.00000   1.00000

 Dipole moment (field-independent basis, Debye):
    X=             -0.3517    Y=              0.2857    Z=             -0.0727  Tot=              0.4589
 Quadrupole moment (field-independent basis, Debye-Ang):
   XX=            -63.8104   YY=            -67.1926   ZZ=            -70.7267
   XY=              1.5414   XZ=              1.3371   YZ=             -1.8520

 Normal termination of Gaussian 16 at Sun Dec  3 13:04:53 2023.
