 Gaussian 16, Revision B.01,
 Gaussian 16:  ES64L-G16RevB.01 20-Dec-2017

 -------------------------
 #P B3LYP/6-311+g(d) force
 -------------------------

 -----
 DPGEN
 -----
 Symbolic Z-matrix:
 Charge =  0 Multiplicity = 2

                         Standard orientation:
 ---------------------------------------------------------------------
 Center     Atomic      Atomic             Coordinates (Angstroms)
 Number     Number       Type             X           Y           Z
 ---------------------------------------------------------------------
      1         11           0        0.311619   -1.937747   -0.894723
      2         11           0        2.715114    0.727309   -0.022221
      3         11           0       -1.130843    1.477877   -0.470476
      4         11           0       -3.302755   -1.205694   -1.081222
      5         11           0       -2.802982   -0.035132    2.002447
      6         11           0        1.095645    3.374464   -0.196723
      7         11           0        3.114203   -2.401077    0.662918
 ---------------------------------------------------------------------

 SCF Done:  E(UB3LYP) =  -1136.12523142     A.U. after   20 cycles

 The electronic state is 2-A.
 Alpha  occ. eigenvalues --  -38.44461 -38.44234 -38.43888 -38.43858 -38.43727
 Alpha  occ. eigenvalues --  -38.43599 -38.43424  -2.20295  -2.20114  -2.19814
 Alpha  occ. eigenvalues --   -2.19707  -2.19586  -2.19451  -2.19316  -1.13976
 Alpha  occ. eigenvalues --   -1.13944  -1.13939  -1.13799  -1.13793  -1.13764
 Alpha  occ. eigenvalues --   -1.13513  -1.13512  -1.13490  -1.13403  -1.13391
 Alpha  occ. eigenvalues --   -1.13320  -1.13236  -1.13218  -1.13192  -1.13112
 Alpha  occ. eigenvalues --   -1.13094  -1.13076  -1.12977  -1.12953  -1.12933
 Alpha  occ. eigenvalues --   -0.17633  -0.14176  -0.12826  -0.10202
 Alpha virt. eigenvalues --   -0.06147  -0.05391  -0.04929  -0.03763  -0.02475
 Alpha virt. eigenvalues --   -0.02138  -0.01944  -0.01292  -0.01036  -0.00282
 Alpha virt. eigenvalues --   -0.00191   0.00205   0.00469   0.00573   0.00701

  Beta  occ. eigenvalues --  -38.44444 -38.44229 -38.43875 -38.43823 -38.43633
  Beta  occ. eigenvalues --  -38.43584 -38.43425  -2.20268  -2.20105  -2.19795
  Beta  occ. eigenvalues --   -2.19645  -2.19423  -2.19411  -2.19318  -1.13960
  Beta  occ. eigenvalues --   -1.13928  -1.13882  -1.13791  -1.13785  -1.13754
  Beta  occ. eigenvalues --   -1.13507  -1.13498  -1.13439  -1.13361  -1.13349
  Beta  occ. eigenvalues --   -1.13266  -1.13115  -1.13096  -1.13088  -1.13080
  Beta  occ. eigenvalues --   -1.13075  -1.13057  -1.12978  -1.12954  -1.12931
  Beta  occ. eigenvalues --   -0.17142  -0.13759  -0.12671
  Beta virt. eigenvalues --   -0.06458  -0.05990  -0.05148  -0.04753  -0.03299
  Beta virt. eigenvalues --   -0.02109  -0.01944  -0.01369  -0.01166  -0.00952
  Beta virt. eigenvalues --   -0.00087   0.00157   0.00328   0.00734   0.00771

 Mulliken charges and spin densities:
               1          2
     1  Na  -0.498000   0.112769
     2  Na  -0.799058   0.027029
     3  Na  -1.338272   0.464712
     4  Na   0.955143   0.037256
     5  Na  -0.024779   0.338433
     6  Na   0.897656  -0.065554
     7  Na   0.807310   0.085354
 Sum of Mulliken charges =  -0.00000   1.00000

 Dipole moment (field-independent basis, Debye):
    X=              0.1507    Y=             -0.3704    Z=             -0.1807  Tot=              0.4388
 Quadrupole moment (field-independent basis, Debye-Ang):
   XX=            -59.6483   YY=            -63.9667   ZZ=            -73.0266
   XY=              3.0116   XZ=              5.6182   YZ=             -1.7901

 Normal termination of Gaussian 16 at Tue Nov 28 22:15:40 2023.
