 Gaussian 16, Revision B.01,
 Gaussian 16:  ES64L-G16RevB.01 20-Dec-2017

 -------------------------
 #P B3LYP/6-311+g(d) force
 -------------------------

 -----
 DPGEN
 -----
 Symbolic Z-matrix:
 Charge =  0 Multiplicity = 2

                         Standard orientation:
 ---------------------------------------------------------------------
 Center     Atomic      Atomic             Coordinates (Angstroms)
 Number     Number       Type             X           Y           Z
 ---------------------------------------------------------------------
      1         11           0       -0.647497   -0.260273    1.961279
      2         11           0       -0.757786   -2.517066    0.136735
      3         11           0        0.062497    0.359125   -1.697515
      4         11           0        2.383648   -1.599822   -0.333296
      5         11           0       -2.941136   -0.247654   -0.512690
      6         11           0       -0.946993    2.940994    0.132364
      7         11           0        2.847267    1.324695    0.313124
 ---------------------------------------------------------------------

 SCF Done:  E(UB3LYP) =  -1136.13148477     A.U. after   20 cycles

 The electronic state is 2-A.
 Alpha  occ. eigenvalues --  -38.44228 -38.44127 -38.43691 -38.43527 -38.43468
 Alpha  occ. eigenvalues --  -38.43237 -38.43051  -2.20061  -2.20021  -2.19642
 Alpha  occ. eigenvalues --   -2.19374  -2.19339  -2.19219  -2.19019  -1.13775
 Alpha  occ. eigenvalues --   -1.13718  -1.13717  -1.13690  -1.13687  -1.13643
 Alpha  occ. eigenvalues --   -1.13388  -1.13260  -1.13246  -1.13064  -1.13037
 Alpha  occ. eigenvalues --   -1.13033  -1.13012  -1.13005  -1.12971  -1.12896
 Alpha  occ. eigenvalues --   -1.12846  -1.12837  -1.12703  -1.12654  -1.12636
 Alpha  occ. eigenvalues --   -0.19022  -0.13335  -0.12392  -0.10951
 Alpha virt. eigenvalues --   -0.05822  -0.04918  -0.04510  -0.03411  -0.02973
 Alpha virt. eigenvalues --   -0.02566  -0.01491  -0.00992  -0.00278  -0.00124
 Alpha virt. eigenvalues --    0.00051   0.00370   0.00853   0.00882   0.00948

  Beta  occ. eigenvalues --  -38.44226 -38.44111 -38.43604 -38.43524 -38.43462
  Beta  occ. eigenvalues --  -38.43171 -38.43039  -2.20059  -2.19995  -2.19482
  Beta  occ. eigenvalues --   -2.19366  -2.19337  -2.19099  -2.19003  -1.13775
  Beta  occ. eigenvalues --   -1.13704  -1.13700  -1.13688  -1.13638  -1.13630
  Beta  occ. eigenvalues --   -1.13284  -1.13147  -1.13135  -1.13051  -1.13033
  Beta  occ. eigenvalues --   -1.13024  -1.12991  -1.12990  -1.12971  -1.12821
  Beta  occ. eigenvalues --   -1.12754  -1.12752  -1.12682  -1.12632  -1.12602
  Beta  occ. eigenvalues --   -0.18274  -0.13111  -0.12144
  Beta virt. eigenvalues --   -0.07008  -0.05763  -0.04891  -0.04461  -0.02660
  Beta virt. eigenvalues --   -0.02192  -0.01549  -0.01375  -0.00921  -0.00297
  Beta virt. eigenvalues --   -0.00104   0.00145   0.00402   0.00872   0.00917

 Mulliken charges and spin densities:
               1          2
     1  Na  -0.554661   0.657670
     2  Na   0.557254   0.141173
     3  Na  -0.151678   0.413281
     4  Na   0.104825  -0.049163
     5  Na   0.280175  -0.060929
     6  Na  -0.167306  -0.085535
     7  Na  -0.068609  -0.016498
 Sum of Mulliken charges =  -0.00000   1.00000

 Dipole moment (field-independent basis, Debye):
    X=             -0.0529    Y=              0.3868    Z=              0.0887  Tot=              0.4004
 Quadrupole moment (field-independent basis, Debye-Ang):
   XX=            -57.4055   YY=            -64.1139   ZZ=            -73.0564
   XY=              0.4628   XZ=              1.6964   YZ=              1.9202

 Normal termination of Gaussian 16 at Thu Dec  7 03:24:29 2023.
