 Gaussian 16, Revision B.01,
 Gaussian 16:  ES64L-G16RevB.01 20-Dec-2017

 -------------------------
 #P B3LYP/6-311+g(d) force
 -------------------------

 -----
 DPGEN
 -----
 Symbolic Z-matrix:
 Charge =  0 Multiplicity = 2

                         Standard orientation:
 ---------------------------------------------------------------------
 Center     Atomic      Atomic             Coordinates (Angstroms)
 Number     Number       Type             X           Y           Z
 ---------------------------------------------------------------------
      1         11           0        0.316648    2.811153   -0.049243
      2         11           0       -2.319485   -2.124625   -0.084511
      3         11           0        0.523859   -0.174482   -1.723291
      4         11           0       -2.668555    1.400697   -0.286812
      5         11           0        1.368102   -2.473648    0.098048
      6         11           0       -0.461700    0.114156    1.838570
      7         11           0        3.241132    0.446748    0.207238
 ---------------------------------------------------------------------

 SCF Done:  E(UB3LYP) =  -1136.13823347     A.U. after   19 cycles

 The electronic state is 2-A.
 Alpha  occ. eigenvalues --  -38.44225 -38.43827 -38.43699 -38.43574 -38.43221
 Alpha  occ. eigenvalues --  -38.43209 -38.43201  -2.20044  -2.19690  -2.19521
 Alpha  occ. eigenvalues --   -2.19455  -2.19167  -2.19147  -2.19094  -1.13717
 Alpha  occ. eigenvalues --   -1.13703  -1.13689  -1.13375  -1.13351  -1.13335
 Alpha  occ. eigenvalues --   -1.13212  -1.13194  -1.13180  -1.13163  -1.13117
 Alpha  occ. eigenvalues --   -1.13057  -1.12861  -1.12823  -1.12815  -1.12793
 Alpha  occ. eigenvalues --   -1.12772  -1.12770  -1.12749  -1.12732  -1.12718
 Alpha  occ. eigenvalues --   -0.18751  -0.13170  -0.12500  -0.10489
 Alpha virt. eigenvalues --   -0.05721  -0.05273  -0.04664  -0.03246  -0.02806
 Alpha virt. eigenvalues --   -0.02275  -0.01622  -0.01114  -0.00374  -0.00329
 Alpha virt. eigenvalues --   -0.00001   0.00359   0.00801   0.00874   0.00890

  Beta  occ. eigenvalues --  -38.44222 -38.43820 -38.43697 -38.43567 -38.43214
  Beta  occ. eigenvalues --  -38.43131 -38.43130  -2.20041  -2.19680  -2.19519
  Beta  occ. eigenvalues --   -2.19445  -2.19085  -2.19039  -2.19001  -1.13708
  Beta  occ. eigenvalues --   -1.13696  -1.13683  -1.13367  -1.13333  -1.13321
  Beta  occ. eigenvalues --   -1.13197  -1.13181  -1.13169  -1.13162  -1.13085
  Beta  occ. eigenvalues --   -1.13056  -1.12805  -1.12750  -1.12744  -1.12720
  Beta  occ. eigenvalues --   -1.12712  -1.12691  -1.12675  -1.12667  -1.12650
  Beta  occ. eigenvalues --   -0.18026  -0.12956  -0.12253
  Beta virt. eigenvalues --   -0.06618  -0.05663  -0.05266  -0.04628  -0.02462
  Beta virt. eigenvalues --   -0.02037  -0.01534  -0.01265  -0.01044  -0.00424
  Beta virt. eigenvalues --   -0.00377   0.00141   0.00383   0.00861   0.00871

 Mulliken charges and spin densities:
               1          2
     1  Na   0.127216  -0.093646
     2  Na   0.084079  -0.098099
     3  Na  -0.263667   0.647821
     4  Na   0.118735  -0.036050
     5  Na   0.183987  -0.106718
     6  Na  -0.352014   0.747058
     7  Na   0.101664  -0.060366
 Sum of Mulliken charges =  -0.00000   1.00000

 Dipole moment (field-independent basis, Debye):
    X=              0.1402    Y=             -0.0399    Z=              0.0478  Tot=              0.1534
 Quadrupole moment (field-independent basis, Debye-Ang):
   XX=            -54.6690   YY=            -62.8067   ZZ=            -75.2531
   XY=              0.8252   XZ=              2.2465   YZ=             -0.5479

 Normal termination of Gaussian 16 at Thu Dec  7 04:13:09 2023.
