 Gaussian 16, Revision B.01,
 Gaussian 16:  ES64L-G16RevB.01 20-Dec-2017

 -------------------------
 #P B3LYP/6-311+g(d) force
 -------------------------

 -----
 DPGEN
 -----
 Symbolic Z-matrix:
 Charge =  0 Multiplicity = 2

                         Standard orientation:
 ---------------------------------------------------------------------
 Center     Atomic      Atomic             Coordinates (Angstroms)
 Number     Number       Type             X           Y           Z
 ---------------------------------------------------------------------
      1         11           0       -3.108491   -1.721020   -0.685657
      2         11           0       -2.897261    1.328747    0.143114
      3         11           0        0.866971    2.860171   -0.215080
      4         11           0        0.055399   -0.144180   -1.182185
      5         11           0       -0.183781   -0.140384    2.209964
      6         11           0        3.211672    0.424046   -0.435317
      7         11           0        2.055490   -2.607380    0.165160
 ---------------------------------------------------------------------

 SCF Done:  E(UB3LYP) =  -1136.12928540     A.U. after   20 cycles

 The electronic state is 2-A.
 Alpha  occ. eigenvalues --  -38.44491 -38.44261 -38.44168 -38.43928 -38.43520
 Alpha  occ. eigenvalues --  -38.43378 -38.42705  -2.20329  -2.20131  -2.19992
 Alpha  occ. eigenvalues --   -2.19779  -2.19502  -2.19203  -2.18550  -1.14013
 Alpha  occ. eigenvalues --   -1.13999  -1.13974  -1.13819  -1.13791  -1.13756
 Alpha  occ. eigenvalues --   -1.13650  -1.13637  -1.13623  -1.13454  -1.13402
 Alpha  occ. eigenvalues --   -1.13379  -1.13217  -1.13153  -1.13131  -1.12867
 Alpha  occ. eigenvalues --   -1.12863  -1.12850  -1.12238  -1.12213  -1.12183
 Alpha  occ. eigenvalues --   -0.18252  -0.13815  -0.11690  -0.10641
 Alpha virt. eigenvalues --   -0.06094  -0.05647  -0.04368  -0.03310  -0.02475
 Alpha virt. eigenvalues --   -0.02423  -0.02134  -0.01307  -0.00652  -0.00380
 Alpha virt. eigenvalues --   -0.00099   0.00260   0.00619   0.00764   0.00839

  Beta  occ. eigenvalues --  -38.44486 -38.44246 -38.44143 -38.43813 -38.43497
  Beta  occ. eigenvalues --  -38.43377 -38.42705  -2.20325  -2.20104  -2.19947
  Beta  occ. eigenvalues --   -2.19568  -2.19462  -2.19204  -2.18552  -1.14011
  Beta  occ. eigenvalues --   -1.13990  -1.13953  -1.13797  -1.13768  -1.13739
  Beta  occ. eigenvalues --   -1.13617  -1.13604  -1.13591  -1.13316  -1.13260
  Beta  occ. eigenvalues --   -1.13225  -1.13164  -1.13128  -1.13103  -1.12869
  Beta  occ. eigenvalues --   -1.12864  -1.12837  -1.12238  -1.12215  -1.12169
  Beta  occ. eigenvalues --   -0.17605  -0.13509  -0.11497
  Beta virt. eigenvalues --   -0.06834  -0.05944  -0.05469  -0.04282  -0.02707
  Beta virt. eigenvalues --   -0.02019  -0.01787  -0.01480  -0.01239  -0.00613
  Beta virt. eigenvalues --   -0.00354   0.00094   0.00328   0.00715   0.00779

 Mulliken charges and spin densities:
               1          2
     1  Na   0.133611   0.202024
     2  Na   0.363970   0.076812
     3  Na   0.012390   0.051615
     4  Na  -0.579868  -0.107362
     5  Na  -0.424282   0.635797
     6  Na   0.401538   0.043284
     7  Na   0.092640   0.097831
 Sum of Mulliken charges =  -0.00000   1.00000

 Dipole moment (field-independent basis, Debye):
    X=             -0.3293    Y=             -0.1091    Z=              0.2946  Tot=              0.4551
 Quadrupole moment (field-independent basis, Debye-Ang):
   XX=            -54.5103   YY=            -65.0750   ZZ=            -74.5637
   XY=             -0.7744   XZ=             -0.0402   YZ=              0.9092

 Normal termination of Gaussian 16 at Tue Dec  5 19:01:38 2023.
