 Gaussian 16, Revision B.01,
 Gaussian 16:  ES64L-G16RevB.01 20-Dec-2017

 -------------------------
 #P B3LYP/6-311+g(d) force
 -------------------------

 -----
 DPGEN
 -----
 Symbolic Z-matrix:
 Charge =  0 Multiplicity = 2

                         Standard orientation:
 ---------------------------------------------------------------------
 Center     Atomic      Atomic             Coordinates (Angstroms)
 Number     Number       Type             X           Y           Z
 ---------------------------------------------------------------------
      1         11           0       -2.201567    1.632256    0.931033
      2         11           0       -4.275150   -1.542579   -0.114690
      3         11           0        1.583697   -1.890684    0.905631
      4         11           0       -0.780646    4.025710   -0.307554
      5         11           0       -1.810591   -2.565770   -0.829037
      6         11           0        2.724843    1.539955   -0.575113
      7         11           0        4.759415   -1.198888   -0.010270
 ---------------------------------------------------------------------

 SCF Done:  E(UB3LYP) =  -1136.10952568     A.U. after   22 cycles

 The electronic state is 2-A.
 Alpha  occ. eigenvalues --  -38.45547 -38.44931 -38.44684 -38.44303 -38.43745
 Alpha  occ. eigenvalues --  -38.43599 -38.43461  -2.21306  -2.20721  -2.20487
 Alpha  occ. eigenvalues --   -2.20155  -2.19552  -2.19430  -2.19342  -1.14997
 Alpha  occ. eigenvalues --   -1.14977  -1.14902  -1.14416  -1.14390  -1.14353
 Alpha  occ. eigenvalues --   -1.14154  -1.14149  -1.14118  -1.13967  -1.13803
 Alpha  occ. eigenvalues --   -1.13781  -1.13231  -1.13203  -1.13187  -1.13099
 Alpha  occ. eigenvalues --   -1.13088  -1.13031  -1.13001  -1.12954  -1.12942
 Alpha  occ. eigenvalues --   -0.16111  -0.14158  -0.12918  -0.10043
 Alpha virt. eigenvalues --   -0.07002  -0.05616  -0.04368  -0.03568  -0.02979
 Alpha virt. eigenvalues --   -0.02604  -0.02124  -0.01607  -0.01166  -0.00665
 Alpha virt. eigenvalues --   -0.00477  -0.00209   0.00403   0.00464   0.00511

  Beta  occ. eigenvalues --  -38.45513 -38.44926 -38.44668 -38.44295 -38.43744
  Beta  occ. eigenvalues --  -38.43522 -38.43415  -2.21245  -2.20713  -2.20461
  Beta  occ. eigenvalues --   -2.20146  -2.19552  -2.19288  -2.19256  -1.14957
  Beta  occ. eigenvalues --   -1.14930  -1.14852  -1.14411  -1.14381  -1.14344
  Beta  occ. eigenvalues --   -1.14137  -1.14120  -1.14095  -1.13930  -1.13803
  Beta  occ. eigenvalues --   -1.13758  -1.13229  -1.13203  -1.13187  -1.13004
  Beta  occ. eigenvalues --   -1.12992  -1.12949  -1.12925  -1.12893  -1.12883
  Beta  occ. eigenvalues --   -0.15581  -0.13771  -0.12615
  Beta virt. eigenvalues --   -0.06890  -0.06406  -0.05521  -0.03914  -0.03248
  Beta virt. eigenvalues --   -0.02649  -0.02540  -0.01893  -0.01311  -0.01097
  Beta virt. eigenvalues --   -0.00328  -0.00075   0.00080   0.00439   0.00537

 Mulliken charges and spin densities:
               1          2
     1  Na  -0.614210   0.026863
     2  Na   0.504115   0.221847
     3  Na  -0.541062   0.346223
     4  Na   0.472645   0.026731
     5  Na  -0.149148   0.084584
     6  Na  -0.368278   0.254797
     7  Na   0.695939   0.038956
 Sum of Mulliken charges =  -0.00000   1.00000

 Dipole moment (field-independent basis, Debye):
    X=              1.2340    Y=              0.4532    Z=             -0.1581  Tot=              1.3241
 Quadrupole moment (field-independent basis, Debye-Ang):
   XX=            -62.9207   YY=            -66.7137   ZZ=            -70.1545
   XY=             -5.6668   XZ=             -2.1120   YZ=             -0.8157

 Normal termination of Gaussian 16 at Sun Dec  3 18:08:41 2023.
