 Gaussian 16, Revision B.01,
 Gaussian 16:  ES64L-G16RevB.01 20-Dec-2017

 -------------------------
 #P B3LYP/6-311+g(d) force
 -------------------------

 -----
 DPGEN
 -----
 Symbolic Z-matrix:
 Charge =  0 Multiplicity = 2

                         Standard orientation:
 ---------------------------------------------------------------------
 Center     Atomic      Atomic             Coordinates (Angstroms)
 Number     Number       Type             X           Y           Z
 ---------------------------------------------------------------------
      1         11           0       -2.049715   -1.217786   -1.530964
      2         11           0       -2.063164    1.802815    0.119045
      3         11           0       -4.925601    0.099609   -0.481333
      4         11           0       -1.356715   -1.255930    2.162943
      5         11           0        1.162851    0.589979    0.300817
      6         11           0        4.778686   -1.823688   -0.423774
      7         11           0        4.453658    1.805001   -0.146735
 ---------------------------------------------------------------------

 SCF Done:  E(UB3LYP) =  -1136.10745009     A.U. after   27 cycles

 The electronic state is 2-A.
 Alpha  occ. eigenvalues --  -38.45506 -38.44998 -38.44898 -38.44018 -38.43943
 Alpha  occ. eigenvalues --  -38.42903 -38.42742  -2.21327  -2.20746  -2.20653
 Alpha  occ. eigenvalues --   -2.19906  -2.19752  -2.18730  -2.18593  -1.15020
 Alpha  occ. eigenvalues --   -1.14986  -1.14933  -1.14413  -1.14407  -1.14355
 Alpha  occ. eigenvalues --   -1.14333  -1.14327  -1.14272  -1.13612  -1.13560
 Alpha  occ. eigenvalues --   -1.13495  -1.13426  -1.13399  -1.13360  -1.12406
 Alpha  occ. eigenvalues --   -1.12388  -1.12374  -1.12305  -1.12278  -1.12189
 Alpha  occ. eigenvalues --   -0.17056  -0.13992  -0.10900  -0.10224
 Alpha virt. eigenvalues --   -0.07030  -0.06767  -0.04309  -0.02898  -0.02773
 Alpha virt. eigenvalues --   -0.02472  -0.01904  -0.01562  -0.01497  -0.01055
 Alpha virt. eigenvalues --   -0.00642   0.00031   0.00163   0.00303   0.00350

  Beta  occ. eigenvalues --  -38.45491 -38.44955 -38.44909 -38.43963 -38.43896
  Beta  occ. eigenvalues --  -38.42904 -38.42723  -2.21300  -2.20675  -2.20663
  Beta  occ. eigenvalues --   -2.19804  -2.19665  -2.18734  -2.18560  -1.14988
  Beta  occ. eigenvalues --   -1.14970  -1.14912  -1.14357  -1.14351  -1.14348
  Beta  occ. eigenvalues --   -1.14337  -1.14312  -1.14271  -1.13541  -1.13489
  Beta  occ. eigenvalues --   -1.13417  -1.13363  -1.13332  -1.13307  -1.12408
  Beta  occ. eigenvalues --   -1.12383  -1.12375  -1.12285  -1.12219  -1.12181
  Beta  occ. eigenvalues --   -0.16525  -0.13781  -0.10705
  Beta virt. eigenvalues --   -0.07006  -0.06705  -0.05926  -0.04287  -0.02841
  Beta virt. eigenvalues --   -0.02416  -0.01921  -0.01530  -0.01474  -0.01171
  Beta virt. eigenvalues --   -0.00705  -0.00434   0.00182   0.00318   0.00375

 Mulliken charges and spin densities:
               1          2
     1  Na   0.281618   0.163366
     2  Na   0.424094   0.346827
     3  Na   0.127976  -0.034780
     4  Na   0.359737   0.339687
     5  Na  -1.412207   0.029369
     6  Na   0.114711   0.247778
     7  Na   0.104070  -0.092246
 Sum of Mulliken charges =  -0.00000   1.00000

 Dipole moment (field-independent basis, Debye):
    X=              0.8841    Y=             -0.4613    Z=              0.0475  Tot=              0.9983
 Quadrupole moment (field-independent basis, Debye-Ang):
   XX=            -68.2265   YY=            -65.4069   ZZ=            -68.0061
   XY=              1.6676   XZ=             -6.2762   YZ=              3.5086

 Normal termination of Gaussian 16 at Fri Dec  8 19:42:35 2023.
