 Gaussian 16, Revision B.01,
 Gaussian 16:  ES64L-G16RevB.01 20-Dec-2017

 -------------------------
 #P B3LYP/6-311+g(d) force
 -------------------------

 -----
 DPGEN
 -----
 Symbolic Z-matrix:
 Charge =  0 Multiplicity = 2

                         Standard orientation:
 ---------------------------------------------------------------------
 Center     Atomic      Atomic             Coordinates (Angstroms)
 Number     Number       Type             X           Y           Z
 ---------------------------------------------------------------------
      1         11           0       -0.583744    2.835341    0.325764
      2         11           0        2.797111    1.416137    0.127112
      3         11           0       -1.867322   -2.221204    0.438499
      4         11           0       -0.048955   -0.600837    2.427576
      5         11           0        2.604108   -1.716963   -0.860197
      6         11           0        0.016184   -0.399894   -1.418342
      7         11           0       -2.917383    0.687421   -1.040412
 ---------------------------------------------------------------------

 SCF Done:  E(UB3LYP) =  -1136.12798216     A.U. after   21 cycles

 The electronic state is 2-A.
 Alpha  occ. eigenvalues --  -38.44702 -38.44048 -38.43941 -38.43895 -38.43472
 Alpha  occ. eigenvalues --  -38.43424 -38.42943  -2.20552  -2.19865  -2.19813
 Alpha  occ. eigenvalues --   -2.19767  -2.19449  -2.19359  -2.18755  -1.14217
 Alpha  occ. eigenvalues --   -1.14170  -1.14167  -1.13575  -1.13541  -1.13538
 Alpha  occ. eigenvalues --   -1.13514  -1.13504  -1.13455  -1.13429  -1.13387
 Alpha  occ. eigenvalues --   -1.13367  -1.13144  -1.13083  -1.13079  -1.13043
 Alpha  occ. eigenvalues --   -1.12982  -1.12981  -1.12429  -1.12424  -1.12397
 Alpha  occ. eigenvalues --   -0.18417  -0.13362  -0.11982  -0.11603
 Alpha virt. eigenvalues --   -0.05518  -0.05164  -0.04389  -0.03443  -0.03321
 Alpha virt. eigenvalues --   -0.02927  -0.01549  -0.00947  -0.00400  -0.00016
 Alpha virt. eigenvalues --    0.00033   0.00343   0.00689   0.00815   0.00881

  Beta  occ. eigenvalues --  -38.44591 -38.44048 -38.43914 -38.43873 -38.43463
  Beta  occ. eigenvalues --  -38.43381 -38.42943  -2.20348  -2.19867  -2.19764
  Beta  occ. eigenvalues --   -2.19728  -2.19372  -2.19347  -2.18755  -1.14080
  Beta  occ. eigenvalues --   -1.14033  -1.14018  -1.13555  -1.13538  -1.13514
  Beta  occ. eigenvalues --   -1.13505  -1.13465  -1.13422  -1.13400  -1.13359
  Beta  occ. eigenvalues --   -1.13344  -1.13110  -1.13028  -1.13022  -1.13008
  Beta  occ. eigenvalues --   -1.12976  -1.12948  -1.12428  -1.12423  -1.12390
  Beta  occ. eigenvalues --   -0.17730  -0.13079  -0.11683
  Beta virt. eigenvalues --   -0.07704  -0.05431  -0.05032  -0.04131  -0.02878
  Beta virt. eigenvalues --   -0.02487  -0.02104  -0.01425  -0.00887  -0.00268
  Beta virt. eigenvalues --    0.00019   0.00112   0.00387   0.00844   0.00866

 Mulliken charges and spin densities:
               1          2
     1  Na  -0.329168   0.142128
     2  Na  -0.175816   0.069924
     3  Na  -0.110185   0.231400
     4  Na  -0.299020   0.486652
     5  Na   0.563150   0.109159
     6  Na  -0.448673  -0.013179
     7  Na   0.799712  -0.026084
 Sum of Mulliken charges =  -0.00000   1.00000

 Dipole moment (field-independent basis, Debye):
    X=              0.1995    Y=             -0.2597    Z=              0.3647  Tot=              0.4902
 Quadrupole moment (field-independent basis, Debye-Ang):
   XX=            -57.1831   YY=            -68.6065   ZZ=            -69.9300
   XY=              0.2953   XZ=              1.7796   YZ=              1.0168

 Normal termination of Gaussian 16 at Thu Dec  7 08:56:31 2023.
