 Gaussian 16, Revision B.01,
 Gaussian 16:  ES64L-G16RevB.01 20-Dec-2017

 -------------------------
 #P B3LYP/6-311+g(d) force
 -------------------------

 -----
 DPGEN
 -----
 Symbolic Z-matrix:
 Charge =  0 Multiplicity = 2

                         Standard orientation:
 ---------------------------------------------------------------------
 Center     Atomic      Atomic             Coordinates (Angstroms)
 Number     Number       Type             X           Y           Z
 ---------------------------------------------------------------------
      1         11           0       -0.104024   -0.542486    2.054267
      2         11           0       -0.138389   -0.144560   -1.698692
      3         11           0       -0.863619   -2.778390   -0.429312
      4         11           0        2.537041   -1.407223   -0.029353
      5         11           0       -3.061511    0.361576    0.232364
      6         11           0        2.343819    1.772597    0.098619
      7         11           0       -0.713316    2.738485   -0.227894
 ---------------------------------------------------------------------

 SCF Done:  E(UB3LYP) =  -1136.13748230     A.U. after   18 cycles

 The electronic state is 2-A.
 Alpha  occ. eigenvalues --  -38.43893 -38.43719 -38.43648 -38.43623 -38.43384
 Alpha  occ. eigenvalues --  -38.43268 -38.43262  -2.19728  -2.19616  -2.19530
 Alpha  occ. eigenvalues --   -2.19506  -2.19273  -2.19261  -2.19150  -1.13404
 Alpha  occ. eigenvalues --   -1.13396  -1.13368  -1.13299  -1.13270  -1.13254
 Alpha  occ. eigenvalues --   -1.13247  -1.13224  -1.13190  -1.13167  -1.13144
 Alpha  occ. eigenvalues --   -1.13108  -1.12976  -1.12936  -1.12917  -1.12910
 Alpha  occ. eigenvalues --   -1.12906  -1.12876  -1.12805  -1.12796  -1.12769
 Alpha  occ. eigenvalues --   -0.18948  -0.12928  -0.12759  -0.11021
 Alpha virt. eigenvalues --   -0.05491  -0.04951  -0.04708  -0.03199  -0.03088
 Alpha virt. eigenvalues --   -0.02739  -0.01330  -0.01076  -0.00204  -0.00120
 Alpha virt. eigenvalues --   -0.00005   0.00370   0.00883   0.00889   0.00956

  Beta  occ. eigenvalues --  -38.43888 -38.43643 -38.43629 -38.43608 -38.43382
  Beta  occ. eigenvalues --  -38.43264 -38.43190  -2.19721  -2.19524  -2.19484
  Beta  occ. eigenvalues --   -2.19449  -2.19261  -2.19145  -2.19141  -1.13398
  Beta  occ. eigenvalues --   -1.13370  -1.13366  -1.13254  -1.13231  -1.13190
  Beta  occ. eigenvalues --   -1.13163  -1.13161  -1.13146  -1.13103  -1.13100
  Beta  occ. eigenvalues --   -1.13092  -1.12967  -1.12919  -1.12890  -1.12866
  Beta  occ. eigenvalues --   -1.12837  -1.12789  -1.12784  -1.12769  -1.12758
  Beta  occ. eigenvalues --   -0.18215  -0.12695  -0.12497
  Beta virt. eigenvalues --   -0.07070  -0.05479  -0.04902  -0.04674  -0.02402
  Beta virt. eigenvalues --   -0.02312  -0.01650  -0.01242  -0.01004  -0.00256
  Beta virt. eigenvalues --   -0.00154   0.00126   0.00397   0.00886   0.00909

 Mulliken charges and spin densities:
               1          2
     1  Na  -0.569280   0.705933
     2  Na  -0.288100   0.446683
     3  Na   0.354925  -0.075891
     4  Na   0.334142   0.001182
     5  Na   0.104916  -0.024294
     6  Na  -0.066145  -0.033259
     7  Na   0.129542  -0.020355
 Sum of Mulliken charges =  -0.00000   1.00000

 Dipole moment (field-independent basis, Debye):
    X=             -0.2068    Y=             -0.2594    Z=              0.2264  Tot=              0.4017
 Quadrupole moment (field-independent basis, Debye-Ang):
   XX=            -59.1113   YY=            -62.5189   ZZ=            -73.0138
   XY=             -0.0198   XZ=             -0.1784   YZ=              0.6869

 Normal termination of Gaussian 16 at Tue Dec  5 10:36:15 2023.
