 Gaussian 16, Revision B.01,
 Gaussian 16:  ES64L-G16RevB.01 20-Dec-2017

 -------------------------
 #P B3LYP/6-311+g(d) force
 -------------------------

 -----
 DPGEN
 -----
 Symbolic Z-matrix:
 Charge =  0 Multiplicity = 2

                         Standard orientation:
 ---------------------------------------------------------------------
 Center     Atomic      Atomic             Coordinates (Angstroms)
 Number     Number       Type             X           Y           Z
 ---------------------------------------------------------------------
      1         11           0        0.389319   -0.206403   -1.910391
      2         11           0       -2.614252   -1.652860   -0.777277
      3         11           0       -2.172375    0.010466    1.841510
      4         11           0        1.247633    2.039485    1.025197
      5         11           0       -2.017208    1.763846   -0.937607
      6         11           0        3.848377   -0.247964   -0.576469
      7         11           0        1.318507   -1.706570    1.335038
 ---------------------------------------------------------------------

 SCF Done:  E(UB3LYP) =  -1136.12455473     A.U. after   26 cycles

 The electronic state is 2-A.
 Alpha  occ. eigenvalues --  -38.45191 -38.44307 -38.44283 -38.43748 -38.43738
 Alpha  occ. eigenvalues --  -38.43640 -38.43025  -2.20975  -2.20185  -2.20169
 Alpha  occ. eigenvalues --   -2.19601  -2.19554  -2.19446  -2.18911  -1.14652
 Alpha  occ. eigenvalues --   -1.14626  -1.14607  -1.13872  -1.13854  -1.13833
 Alpha  occ. eigenvalues --   -1.13808  -1.13805  -1.13795  -1.13274  -1.13261
 Alpha  occ. eigenvalues --   -1.13247  -1.13232  -1.13227  -1.13164  -1.13135
 Alpha  occ. eigenvalues --   -1.13099  -1.13062  -1.12605  -1.12584  -1.12522
 Alpha  occ. eigenvalues --   -0.18334  -0.13920  -0.11700  -0.10714
 Alpha virt. eigenvalues --   -0.06590  -0.05137  -0.04832  -0.03263  -0.02792
 Alpha virt. eigenvalues --   -0.02648  -0.02249  -0.00911  -0.00594  -0.00239
 Alpha virt. eigenvalues --    0.00163   0.00225   0.00285   0.00596   0.00759

  Beta  occ. eigenvalues --  -38.45189 -38.44259 -38.44214 -38.43731 -38.43723
  Beta  occ. eigenvalues --  -38.43610 -38.43017  -2.20972  -2.20094  -2.20044
  Beta  occ. eigenvalues --   -2.19577  -2.19524  -2.19391  -2.18900  -1.14642
  Beta  occ. eigenvalues --   -1.14626  -1.14606  -1.13816  -1.13773  -1.13765
  Beta  occ. eigenvalues --   -1.13741  -1.13717  -1.13695  -1.13257  -1.13236
  Beta  occ. eigenvalues --   -1.13228  -1.13202  -1.13196  -1.13143  -1.13092
  Beta  occ. eigenvalues --   -1.13055  -1.13025  -1.12587  -1.12571  -1.12508
  Beta  occ. eigenvalues --   -0.17551  -0.13775  -0.10517
  Beta virt. eigenvalues --   -0.07797  -0.06364  -0.04922  -0.04307  -0.02885
  Beta virt. eigenvalues --   -0.02195  -0.02145  -0.01955  -0.00612  -0.00453
  Beta virt. eigenvalues --   -0.00143   0.00242   0.00309   0.00322   0.00681

 Mulliken charges and spin densities:
               1          2
     1  Na  -0.329822   0.410751
     2  Na   0.277821  -0.081539
     3  Na  -0.050649   0.458824
     4  Na  -0.256677   0.151687
     5  Na   0.233598   0.007346
     6  Na   0.402070  -0.035890
     7  Na  -0.276340   0.088822
 Sum of Mulliken charges =  -0.00000   1.00000

 Dipole moment (field-independent basis, Debye):
    X=              1.1154    Y=              0.0206    Z=             -0.1911  Tot=              1.1319
 Quadrupole moment (field-independent basis, Debye-Ang):
   XX=            -50.1341   YY=            -77.9564   ZZ=            -66.7299
   XY=              0.0951   XZ=             -1.1713   YZ=              3.8586

 Normal termination of Gaussian 16 at Thu Dec  7 10:52:23 2023.
