 Gaussian 16, Revision B.01,
 Gaussian 16:  ES64L-G16RevB.01 20-Dec-2017

 -------------------------
 #P B3LYP/6-311+g(d) force
 -------------------------

 -----
 DPGEN
 -----
 Symbolic Z-matrix:
 Charge =  0 Multiplicity = 2

                         Standard orientation:
 ---------------------------------------------------------------------
 Center     Atomic      Atomic             Coordinates (Angstroms)
 Number     Number       Type             X           Y           Z
 ---------------------------------------------------------------------
      1         11           0       -1.613458    2.294642   -0.711628
      2         11           0       -0.638101   -0.143719    2.277398
      3         11           0       -3.540295   -0.665266    0.048284
      4         11           0       -0.631597   -2.117666   -1.034477
      5         11           0        1.638367    0.370075   -1.650338
      6         11           0        2.100140    2.379846    0.595899
      7         11           0        2.684945   -2.117912    0.474863
 ---------------------------------------------------------------------

 SCF Done:  E(UB3LYP) =  -1136.12919447     A.U. after   19 cycles

 The electronic state is 2-A.
 Alpha  occ. eigenvalues --  -38.44345 -38.44243 -38.44200 -38.44128 -38.43845
 Alpha  occ. eigenvalues --  -38.43539 -38.43484  -2.20154  -2.20016  -2.19981
 Alpha  occ. eigenvalues --   -2.19933  -2.19658  -2.19445  -2.19325  -1.13809
 Alpha  occ. eigenvalues --   -1.13789  -1.13773  -1.13703  -1.13686  -1.13652
 Alpha  occ. eigenvalues --   -1.13641  -1.13639  -1.13626  -1.13605  -1.13592
 Alpha  occ. eigenvalues --   -1.13571  -1.13412  -1.13308  -1.13280  -1.13134
 Alpha  occ. eigenvalues --   -1.13097  -1.13042  -1.13008  -1.12994  -1.12930
 Alpha  occ. eigenvalues --   -0.17751  -0.13113  -0.11911  -0.10932
 Alpha virt. eigenvalues --   -0.05826  -0.05787  -0.04481  -0.03458  -0.03051
 Alpha virt. eigenvalues --   -0.02818  -0.01653  -0.01293  -0.00546  -0.00167
 Alpha virt. eigenvalues --   -0.00041   0.00330   0.00585   0.00607   0.00696

  Beta  occ. eigenvalues --  -38.44250 -38.44229 -38.44199 -38.44128 -38.43842
  Beta  occ. eigenvalues --  -38.43503 -38.43461  -2.19993  -2.19981  -2.19976
  Beta  occ. eigenvalues --   -2.19936  -2.19655  -2.19379  -2.19285  -1.13692
  Beta  occ. eigenvalues --   -1.13677  -1.13671  -1.13661  -1.13650  -1.13647
  Beta  occ. eigenvalues --   -1.13632  -1.13628  -1.13623  -1.13603  -1.13581
  Beta  occ. eigenvalues --   -1.13572  -1.13403  -1.13294  -1.13277  -1.13086
  Beta  occ. eigenvalues --   -1.13052  -1.13000  -1.12975  -1.12950  -1.12904
  Beta  occ. eigenvalues --   -0.17048  -0.12987  -0.11745
  Beta virt. eigenvalues --   -0.07093  -0.05781  -0.05546  -0.04184  -0.02988
  Beta virt. eigenvalues --   -0.02424  -0.01850  -0.01568  -0.01191  -0.00442
  Beta virt. eigenvalues --   -0.00122   0.00078   0.00395   0.00666   0.00756

 Mulliken charges and spin densities:
               1          2
     1  Na  -0.225049   0.042992
     2  Na  -0.477201   0.640286
     3  Na   0.459338   0.014247
     4  Na  -0.319056   0.130994
     5  Na   0.462850   0.189433
     6  Na   0.008536  -0.010995
     7  Na   0.090581  -0.006956
 Sum of Mulliken charges =  -0.00000   1.00000

 Dipole moment (field-independent basis, Debye):
    X=             -0.1875    Y=             -0.0191    Z=              0.2870  Tot=              0.3433
 Quadrupole moment (field-independent basis, Debye-Ang):
   XX=            -55.4430   YY=            -68.7596   ZZ=            -71.0764
   XY=             -0.8421   XZ=              2.9048   YZ=             -0.4037

 Normal termination of Gaussian 16 at Sun Dec  3 18:34:32 2023.
