 Gaussian 16, Revision B.01,
 Gaussian 16:  ES64L-G16RevB.01 20-Dec-2017

 -------------------------
 #P B3LYP/6-311+g(d) force
 -------------------------

 -----
 DPGEN
 -----
 Symbolic Z-matrix:
 Charge =  0 Multiplicity = 2

                         Standard orientation:
 ---------------------------------------------------------------------
 Center     Atomic      Atomic             Coordinates (Angstroms)
 Number     Number       Type             X           Y           Z
 ---------------------------------------------------------------------
      1         11           0       -2.217171   -3.019495   -0.735629
      2         11           0       -4.527981   -0.153632    0.163893
      3         11           0        0.871739   -3.004803    0.090432
      4         11           0        4.159931   -1.636636    0.831663
      5         11           0        3.553630    1.811585   -0.679121
      6         11           0       -2.653773    2.677674    0.658000
      7         11           0        0.813624    3.325307   -0.329237
 ---------------------------------------------------------------------

 SCF Done:  E(UB3LYP) =  -1136.10867204     A.U. after   23 cycles

 The electronic state is 2-A.
 Alpha  occ. eigenvalues --  -38.45195 -38.45157 -38.44827 -38.44707 -38.44126
 Alpha  occ. eigenvalues --  -38.44038 -38.43982  -2.20960  -2.20941  -2.20592
 Alpha  occ. eigenvalues --   -2.20489  -2.19920  -2.19845  -2.19793  -1.14632
 Alpha  occ. eigenvalues --   -1.14628  -1.14617  -1.14612  -1.14597  -1.14572
 Alpha  occ. eigenvalues --   -1.14269  -1.14259  -1.14223  -1.14173  -1.14168
 Alpha  occ. eigenvalues --   -1.14135  -1.13569  -1.13555  -1.13546  -1.13508
 Alpha  occ. eigenvalues --   -1.13502  -1.13482  -1.13453  -1.13443  -1.13417
 Alpha  occ. eigenvalues --   -0.15559  -0.13944  -0.13547  -0.11015
 Alpha virt. eigenvalues --   -0.07761  -0.04712  -0.04416  -0.03649  -0.03612
 Alpha virt. eigenvalues --   -0.02331  -0.02227  -0.01666  -0.01325  -0.00954
 Alpha virt. eigenvalues --   -0.00900  -0.00262   0.00029   0.00510   0.00641

  Beta  occ. eigenvalues --  -38.45172 -38.45139 -38.44813 -38.44688 -38.44047
  Beta  occ. eigenvalues --  -38.44005 -38.43932  -2.20920  -2.20913  -2.20570
  Beta  occ. eigenvalues --   -2.20461  -2.19786  -2.19773  -2.19702  -1.14607
  Beta  occ. eigenvalues --   -1.14602  -1.14598  -1.14592  -1.14555  -1.14528
  Beta  occ. eigenvalues --   -1.14256  -1.14247  -1.14194  -1.14157  -1.14153
  Beta  occ. eigenvalues --   -1.14071  -1.13469  -1.13466  -1.13462  -1.13455
  Beta  occ. eigenvalues --   -1.13450  -1.13438  -1.13388  -1.13383  -1.13355
  Beta  occ. eigenvalues --   -0.15034  -0.13153  -0.12766
  Beta virt. eigenvalues --   -0.08026  -0.07846  -0.04149  -0.03923  -0.03489
  Beta virt. eigenvalues --   -0.03388  -0.02118  -0.02030  -0.01443  -0.01114
  Beta virt. eigenvalues --   -0.00666  -0.00572  -0.00126   0.00235   0.00578

 Mulliken charges and spin densities:
               1          2
     1  Na   0.457132   0.055675
     2  Na  -0.026990   0.111201
     3  Na  -0.679461   0.214054
     4  Na   0.085574   0.378525
     5  Na  -0.019729   0.068291
     6  Na   0.217481   0.073202
     7  Na  -0.034008   0.099052
 Sum of Mulliken charges =  -0.00000   1.00000

 Dipole moment (field-independent basis, Debye):
    X=             -0.4626    Y=              0.2906    Z=              0.0034  Tot=              0.5463
 Quadrupole moment (field-independent basis, Debye-Ang):
   XX=            -56.1152   YY=            -70.4138   ZZ=            -72.6297
   XY=              2.8968   XZ=             -0.1267   YZ=              0.3688

 Normal termination of Gaussian 16 at Mon Dec  4 04:03:10 2023.
