 Gaussian 16, Revision B.01,
 Gaussian 16:  ES64L-G16RevB.01 20-Dec-2017

 -------------------------
 #P B3LYP/6-311+g(d) force
 -------------------------

 -----
 DPGEN
 -----
 Symbolic Z-matrix:
 Charge =  0 Multiplicity = 2

                         Standard orientation:
 ---------------------------------------------------------------------
 Center     Atomic      Atomic             Coordinates (Angstroms)
 Number     Number       Type             X           Y           Z
 ---------------------------------------------------------------------
      1         11           0        0.168664    0.428820   -2.015640
      2         11           0       -0.076109   -1.784647   -0.174673
      3         11           0       -2.701841   -0.792527   -0.163716
      4         11           0       -1.416071    1.609117    0.142439
      5         11           0       -0.061294   -0.114206    2.025440
      6         11           0        1.468739    1.556306    0.241159
      7         11           0        2.617913   -0.902864   -0.055010
 ---------------------------------------------------------------------

 SCF Done:  E(UB3LYP) =  -1136.08083020     A.U. after   21 cycles

 The electronic state is 2-A.
 Alpha  occ. eigenvalues --  -38.44870 -38.44606 -38.44253 -38.44082 -38.43350
 Alpha  occ. eigenvalues --  -38.43186 -38.42981  -2.21022  -2.20736  -2.20275
 Alpha  occ. eigenvalues --   -2.20121  -2.19550  -2.19368  -2.19203  -1.14802
 Alpha  occ. eigenvalues --   -1.14689  -1.14604  -1.14510  -1.14389  -1.14338
 Alpha  occ. eigenvalues --   -1.14074  -1.14016  -1.13956  -1.13858  -1.13839
 Alpha  occ. eigenvalues --   -1.13707  -1.13321  -1.13181  -1.13112  -1.13006
 Alpha  occ. eigenvalues --   -1.12991  -1.12899  -1.12870  -1.12841  -1.12780
 Alpha  occ. eigenvalues --   -0.21581  -0.14107  -0.12885  -0.12053
 Alpha virt. eigenvalues --   -0.05560  -0.04173  -0.03947  -0.03864  -0.03061
 Alpha virt. eigenvalues --   -0.02923  -0.01388  -0.00345  -0.00245   0.00314
 Alpha virt. eigenvalues --    0.00666   0.00823   0.01080   0.01094   0.01101

  Beta  occ. eigenvalues --  -38.44766 -38.44513 -38.44249 -38.44076 -38.43329
  Beta  occ. eigenvalues --  -38.43168 -38.42957  -2.20836  -2.20568  -2.20271
  Beta  occ. eigenvalues --   -2.20115  -2.19521  -2.19344  -2.19169  -1.14687
  Beta  occ. eigenvalues --   -1.14546  -1.14470  -1.14408  -1.14262  -1.14216
  Beta  occ. eigenvalues --   -1.14073  -1.14014  -1.13954  -1.13838  -1.13824
  Beta  occ. eigenvalues --   -1.13668  -1.13307  -1.13103  -1.13093  -1.12985
  Beta  occ. eigenvalues --   -1.12921  -1.12892  -1.12838  -1.12768  -1.12764
  Beta  occ. eigenvalues --   -0.20662  -0.13758  -0.11753
  Beta virt. eigenvalues --   -0.08590  -0.05556  -0.04002  -0.03414  -0.03143
  Beta virt. eigenvalues --   -0.02349  -0.02091  -0.01302  -0.00268  -0.00082
  Beta virt. eigenvalues --    0.00340   0.00701   0.00824   0.01105   0.01143

 Mulliken charges and spin densities:
               1          2
     1  Na   0.158099   0.537462
     2  Na  -0.214701   0.050405
     3  Na  -0.070279  -0.014312
     4  Na  -0.100925  -0.041979
     5  Na   0.223333   0.496256
     6  Na  -0.010186  -0.014641
     7  Na   0.014659  -0.013192
 Sum of Mulliken charges =  -0.00000   1.00000

 Dipole moment (field-independent basis, Debye):
    X=             -0.0426    Y=             -0.1255    Z=             -0.1039  Tot=              0.1684
 Quadrupole moment (field-independent basis, Debye-Ang):
   XX=            -57.3908   YY=            -76.0747   ZZ=            -64.1764
   XY=             -0.1294   XZ=              0.3421   YZ=              1.5468

 Normal termination of Gaussian 16 at Fri Dec  8 17:20:41 2023.
