 Gaussian 16, Revision B.01,
 Gaussian 16:  ES64L-G16RevB.01 20-Dec-2017

 -------------------------
 #P B3LYP/6-311+g(d) force
 -------------------------

 -----
 DPGEN
 -----
 Symbolic Z-matrix:
 Charge =  0 Multiplicity = 2

                         Standard orientation:
 ---------------------------------------------------------------------
 Center     Atomic      Atomic             Coordinates (Angstroms)
 Number     Number       Type             X           Y           Z
 ---------------------------------------------------------------------
      1         11           0       -1.760073    1.183156   -1.065555
      2         11           0        1.818560    0.445327   -1.553254
      3         11           0       -0.089089    0.080750    2.015516
      4         11           0       -0.777996   -1.851753   -1.287191
      5         11           0       -3.585578   -1.039591    0.736275
      6         11           0        0.984803    3.266007    0.481651
      7         11           0        3.409374   -2.083897    0.672558
 ---------------------------------------------------------------------

 SCF Done:  E(UB3LYP) =  -1136.12803161     A.U. after   21 cycles

 The electronic state is 2-A.
 Alpha  occ. eigenvalues --  -38.44656 -38.44323 -38.44075 -38.43955 -38.43858
 Alpha  occ. eigenvalues --  -38.43684 -38.43091  -2.20470  -2.20135  -2.19940
 Alpha  occ. eigenvalues --   -2.19759  -2.19696  -2.19530  -2.18888  -1.14150
 Alpha  occ. eigenvalues --   -1.14098  -1.14091  -1.13811  -1.13788  -1.13774
 Alpha  occ. eigenvalues --   -1.13680  -1.13599  -1.13538  -1.13452  -1.13425
 Alpha  occ. eigenvalues --   -1.13370  -1.13363  -1.13343  -1.13322  -1.13234
 Alpha  occ. eigenvalues --   -1.13193  -1.13129  -1.12558  -1.12555  -1.12523
 Alpha  occ. eigenvalues --   -0.18047  -0.12961  -0.11580  -0.11268
 Alpha virt. eigenvalues --   -0.06167  -0.05247  -0.04650  -0.03187  -0.02968
 Alpha virt. eigenvalues --   -0.02810  -0.01857  -0.01297  -0.00814  -0.00110
 Alpha virt. eigenvalues --    0.00211   0.00258   0.00427   0.00563   0.00678

  Beta  occ. eigenvalues --  -38.44580 -38.44313 -38.44038 -38.43945 -38.43830
  Beta  occ. eigenvalues --  -38.43655 -38.43092  -2.20329  -2.20118  -2.19876
  Beta  occ. eigenvalues --   -2.19711  -2.19676  -2.19480  -2.18891  -1.14055
  Beta  occ. eigenvalues --   -1.13997  -1.13987  -1.13800  -1.13765  -1.13763
  Beta  occ. eigenvalues --   -1.13628  -1.13537  -1.13498  -1.13418  -1.13362
  Beta  occ. eigenvalues --   -1.13357  -1.13344  -1.13316  -1.13311  -1.13192
  Beta  occ. eigenvalues --   -1.13148  -1.13095  -1.12562  -1.12545  -1.12527
  Beta  occ. eigenvalues --   -0.17240  -0.12811  -0.11384
  Beta virt. eigenvalues --   -0.07441  -0.05872  -0.05107  -0.04347  -0.02847
  Beta virt. eigenvalues --   -0.02379  -0.02027  -0.01696  -0.01140  -0.00473
  Beta virt. eigenvalues --   -0.00113   0.00255   0.00318   0.00548   0.00689

 Mulliken charges and spin densities:
               1          2
     1  Na  -0.006652   0.247896
     2  Na   0.386718   0.213137
     3  Na  -0.501500   0.802949
     4  Na  -0.202120   0.038320
     5  Na   0.444566  -0.024854
     6  Na   0.016253  -0.183912
     7  Na  -0.137264  -0.093537
 Sum of Mulliken charges =  -0.00000   1.00000

 Dipole moment (field-independent basis, Debye):
    X=             -0.8703    Y=             -0.1728    Z=              0.2716  Tot=              0.9279
 Quadrupole moment (field-independent basis, Debye-Ang):
   XX=            -57.5327   YY=            -67.9763   ZZ=            -69.0070
   XY=              2.6854   XZ=             -0.4025   YZ=             -1.5520

 Normal termination of Gaussian 16 at Fri Dec  8 01:18:07 2023.
