 Gaussian 16, Revision B.01,
 Gaussian 16:  ES64L-G16RevB.01 20-Dec-2017

 -------------------------
 #P B3LYP/6-311+g(d) force
 -------------------------

 -----
 DPGEN
 -----
 Symbolic Z-matrix:
 Charge =  0 Multiplicity = 2

                         Standard orientation:
 ---------------------------------------------------------------------
 Center     Atomic      Atomic             Coordinates (Angstroms)
 Number     Number       Type             X           Y           Z
 ---------------------------------------------------------------------
      1         11           0       -2.932589   -1.524004    0.209470
      2         11           0        0.327715    0.158323   -1.442193
      3         11           0        3.538794   -0.067875    0.049761
      4         11           0       -2.781315    1.809963   -0.258061
      5         11           0        0.262783   -0.535309    1.976707
      6         11           0        0.925606    2.959725    0.099959
      7         11           0        0.659006   -2.800823   -0.635643
 ---------------------------------------------------------------------

 SCF Done:  E(UB3LYP) =  -1136.13084501     A.U. after   21 cycles

 The electronic state is 2-A.
 Alpha  occ. eigenvalues --  -38.45186 -38.44157 -38.44004 -38.43694 -38.43486
 Alpha  occ. eigenvalues --  -38.43427 -38.42989  -2.20952  -2.19952  -2.19794
 Alpha  occ. eigenvalues --   -2.19495  -2.19354  -2.19288  -2.18969  -1.14630
 Alpha  occ. eigenvalues --   -1.14597  -1.14594  -1.13630  -1.13624  -1.13591
 Alpha  occ. eigenvalues --   -1.13471  -1.13450  -1.13429  -1.13198  -1.13163
 Alpha  occ. eigenvalues --   -1.13113  -1.13051  -1.13021  -1.12995  -1.12958
 Alpha  occ. eigenvalues --   -1.12925  -1.12894  -1.12657  -1.12610  -1.12575
 Alpha  occ. eigenvalues --   -0.18100  -0.12987  -0.12242  -0.10232
 Alpha virt. eigenvalues --   -0.06442  -0.05289  -0.04705  -0.03001  -0.02684
 Alpha virt. eigenvalues --   -0.02213  -0.02137  -0.01217  -0.00756  -0.00574
 Alpha virt. eigenvalues --   -0.00035   0.00293   0.00731   0.00754   0.00783

  Beta  occ. eigenvalues --  -38.45183 -38.44155 -38.44003 -38.43692 -38.43403
  Beta  occ. eigenvalues --  -38.43399 -38.42933  -2.20949  -2.19951  -2.19794
  Beta  occ. eigenvalues --   -2.19494  -2.19248  -2.19193  -2.18868  -1.14612
  Beta  occ. eigenvalues --   -1.14597  -1.14592  -1.13632  -1.13605  -1.13593
  Beta  occ. eigenvalues --   -1.13462  -1.13449  -1.13430  -1.13194  -1.13152
  Beta  occ. eigenvalues --   -1.13112  -1.13000  -1.12929  -1.12902  -1.12871
  Beta  occ. eigenvalues --   -1.12858  -1.12838  -1.12582  -1.12532  -1.12504
  Beta  occ. eigenvalues --   -0.17418  -0.12814  -0.11998
  Beta virt. eigenvalues --   -0.06449  -0.06308  -0.05267  -0.04622  -0.02352
  Beta virt. eigenvalues --   -0.02064  -0.01971  -0.01192  -0.01139  -0.00756
  Beta virt. eigenvalues --   -0.00597   0.00131   0.00336   0.00765   0.00808

 Mulliken charges and spin densities:
               1          2
     1  Na   0.124182   0.010499
     2  Na   0.063409   0.325379
     3  Na   0.152393  -0.023223
     4  Na  -0.060462  -0.058097
     5  Na  -0.344151   0.801804
     6  Na  -0.078567  -0.049659
     7  Na   0.143197  -0.006703
 Sum of Mulliken charges =  -0.00000   1.00000

 Dipole moment (field-independent basis, Debye):
    X=              0.5302    Y=             -0.0067    Z=              0.1629  Tot=              0.5547
 Quadrupole moment (field-independent basis, Debye-Ang):
   XX=            -50.7538   YY=            -62.9624   ZZ=            -77.4243
   XY=              0.4225   XZ=              0.1959   YZ=              1.2042

 Normal termination of Gaussian 16 at Sun Dec  3 16:35:03 2023.
