 Gaussian 16, Revision B.01,
 Gaussian 16:  ES64L-G16RevB.01 20-Dec-2017

 -------------------------
 #P B3LYP/6-311+g(d) force
 -------------------------

 -----
 DPGEN
 -----
 Symbolic Z-matrix:
 Charge =  0 Multiplicity = 2

                         Standard orientation:
 ---------------------------------------------------------------------
 Center     Atomic      Atomic             Coordinates (Angstroms)
 Number     Number       Type             X           Y           Z
 ---------------------------------------------------------------------
      1         11           0       -0.006333    0.121390   -1.778954
      2         11           0       -0.012925   -2.147215   -0.014196
      3         11           0       -2.417472   -0.842692   -0.041921
      4         11           0       -1.542639    1.793415   -0.013597
      5         11           0       -0.043638    0.022317    1.849268
      6         11           0        1.487508    1.875915    0.049188
      7         11           0        2.535498   -0.823129   -0.049787
 ---------------------------------------------------------------------

 SCF Done:  E(UB3LYP) =  -1136.09173245     A.U. after   19 cycles

 The electronic state is 2-A.
 Alpha  occ. eigenvalues --  -38.44047 -38.44012 -38.43877 -38.43730 -38.43409
 Alpha  occ. eigenvalues --  -38.43325 -38.43279  -2.20235  -2.20230  -2.19991
 Alpha  occ. eigenvalues --   -2.19770  -2.19535  -2.19496  -2.19369  -1.14086
 Alpha  occ. eigenvalues --   -1.13966  -1.13945  -1.13921  -1.13911  -1.13858
 Alpha  occ. eigenvalues --   -1.13821  -1.13705  -1.13565  -1.13524  -1.13502
 Alpha  occ. eigenvalues --   -1.13382  -1.13221  -1.13152  -1.13122  -1.13111
 Alpha  occ. eigenvalues --   -1.13096  -1.13020  -1.13010  -1.13004  -1.12918
 Alpha  occ. eigenvalues --   -0.21494  -0.13871  -0.12899  -0.12233
 Alpha virt. eigenvalues --   -0.05166  -0.04396  -0.04025  -0.03712  -0.03201
 Alpha virt. eigenvalues --   -0.02906  -0.01068  -0.00512  -0.00093   0.00357
 Alpha virt. eigenvalues --    0.00726   0.00797   0.01015   0.01135   0.01178

  Beta  occ. eigenvalues --  -38.43950 -38.43919 -38.43866 -38.43723 -38.43395
  Beta  occ. eigenvalues --  -38.43308 -38.43267  -2.20067  -2.20054  -2.19976
  Beta  occ. eigenvalues --   -2.19762  -2.19516  -2.19473  -2.19354  -1.14011
  Beta  occ. eigenvalues --   -1.13872  -1.13835  -1.13827  -1.13805  -1.13783
  Beta  occ. eigenvalues --   -1.13735  -1.13652  -1.13520  -1.13499  -1.13490
  Beta  occ. eigenvalues --   -1.13335  -1.13208  -1.13117  -1.13099  -1.13079
  Beta  occ. eigenvalues --   -1.13015  -1.13012  -1.13004  -1.12941  -1.12915
  Beta  occ. eigenvalues --   -0.20655  -0.13499  -0.12531
  Beta virt. eigenvalues --   -0.08052  -0.05199  -0.04386  -0.04003  -0.02736
  Beta virt. eigenvalues --   -0.02267  -0.01821  -0.00993  -0.00473   0.00052
  Beta virt. eigenvalues --    0.00379   0.00695   0.00764   0.01056   0.01143

 Mulliken charges and spin densities:
               1          2
     1  Na  -0.285996   0.434897
     2  Na   0.230836   0.095330
     3  Na   0.090984  -0.014136
     4  Na   0.218606   0.037791
     5  Na  -0.332200   0.480014
     6  Na   0.143477   0.019478
     7  Na  -0.065707  -0.053376
 Sum of Mulliken charges =  -0.00000   1.00000

 Dipole moment (field-independent basis, Debye):
    X=              0.1764    Y=              0.0856    Z=              0.0867  Tot=              0.2144
 Quadrupole moment (field-independent basis, Debye-Ang):
   XX=            -60.0579   YY=            -69.2994   ZZ=            -68.4439
   XY=             -0.0944   XZ=              0.0441   YZ=              0.2208

 Normal termination of Gaussian 16 at Sat Dec  9 07:19:29 2023.
