 Gaussian 16, Revision B.01,
 Gaussian 16:  ES64L-G16RevB.01 20-Dec-2017

 -------------------------
 #P B3LYP/6-311+g(d) force
 -------------------------

 -----
 DPGEN
 -----
 Symbolic Z-matrix:
 Charge =  0 Multiplicity = 2

                         Standard orientation:
 ---------------------------------------------------------------------
 Center     Atomic      Atomic             Coordinates (Angstroms)
 Number     Number       Type             X           Y           Z
 ---------------------------------------------------------------------
      1         11           0       -1.346997   -2.679784    0.143631
      2         11           0       -0.311912   -0.119615   -1.624982
      3         11           0        2.534961   -2.044083   -0.277908
      4         11           0        2.672902    1.100653    0.077600
      5         11           0        0.074121    0.401350    2.054829
      6         11           0       -0.314825    3.212861   -0.401933
      7         11           0       -3.308250    0.128617    0.028764
 ---------------------------------------------------------------------

 SCF Done:  E(UB3LYP) =  -1136.13579214     A.U. after   20 cycles

 The electronic state is 2-A.
 Alpha  occ. eigenvalues --  -38.44486 -38.43814 -38.43728 -38.43613 -38.43592
 Alpha  occ. eigenvalues --  -38.43588 -38.43247  -2.20289  -2.19647  -2.19605
 Alpha  occ. eigenvalues --   -2.19459  -2.19435  -2.19390  -2.19186  -1.13966
 Alpha  occ. eigenvalues --   -1.13948  -1.13928  -1.13344  -1.13316  -1.13312
 Alpha  occ. eigenvalues --   -1.13286  -1.13270  -1.13250  -1.13122  -1.13096
 Alpha  occ. eigenvalues --   -1.13083  -1.13080  -1.13077  -1.13072  -1.13065
 Alpha  occ. eigenvalues --   -1.13040  -1.13031  -1.12874  -1.12819  -1.12806
 Alpha  occ. eigenvalues --   -0.18299  -0.13114  -0.12263  -0.10535
 Alpha virt. eigenvalues --   -0.05858  -0.05067  -0.05031  -0.03231  -0.02784
 Alpha virt. eigenvalues --   -0.02428  -0.01642  -0.01293  -0.00540  -0.00473
 Alpha virt. eigenvalues --   -0.00017   0.00353   0.00762   0.00832   0.00858

  Beta  occ. eigenvalues --  -38.44484 -38.43809 -38.43722 -38.43610 -38.43584
  Beta  occ. eigenvalues --  -38.43494 -38.43187  -2.20289  -2.19641  -2.19597
  Beta  occ. eigenvalues --   -2.19433  -2.19378  -2.19286  -2.19077  -1.13957
  Beta  occ. eigenvalues --   -1.13938  -1.13931  -1.13337  -1.13312  -1.13290
  Beta  occ. eigenvalues --   -1.13269  -1.13261  -1.13237  -1.13085  -1.13074
  Beta  occ. eigenvalues --   -1.13072  -1.13046  -1.13037  -1.13025  -1.13006
  Beta  occ. eigenvalues --   -1.12960  -1.12949  -1.12797  -1.12742  -1.12725
  Beta  occ. eigenvalues --   -0.17589  -0.12911  -0.12039
  Beta virt. eigenvalues --   -0.06663  -0.05840  -0.05012  -0.04951  -0.02444
  Beta virt. eigenvalues --   -0.02098  -0.01561  -0.01404  -0.01204  -0.00577
  Beta virt. eigenvalues --   -0.00514   0.00135   0.00381   0.00778   0.00849

 Mulliken charges and spin densities:
               1          2
     1  Na   0.055222  -0.001610
     2  Na  -0.121915   0.539791
     3  Na  -0.036818  -0.055733
     4  Na   0.327307   0.056056
     5  Na  -0.348728   0.650841
     6  Na   0.010693  -0.087695
     7  Na   0.114239  -0.101651
 Sum of Mulliken charges =  -0.00000   1.00000

 Dipole moment (field-independent basis, Debye):
    X=             -0.5428    Y=             -0.0179    Z=              0.1000  Tot=              0.5522
 Quadrupole moment (field-independent basis, Debye-Ang):
   XX=            -56.8154   YY=            -60.8029   ZZ=            -75.5644
   XY=             -0.8205   XZ=             -0.8384   YZ=             -1.0366

 Normal termination of Gaussian 16 at Thu Dec  7 22:42:37 2023.
