 Gaussian 16, Revision B.01,
 Gaussian 16:  ES64L-G16RevB.01 20-Dec-2017

 -------------------------
 #P B3LYP/6-311+g(d) force
 -------------------------

 -----
 DPGEN
 -----
 Symbolic Z-matrix:
 Charge =  0 Multiplicity = 2

                         Standard orientation:
 ---------------------------------------------------------------------
 Center     Atomic      Atomic             Coordinates (Angstroms)
 Number     Number       Type             X           Y           Z
 ---------------------------------------------------------------------
      1         11           0        1.326934   -2.162272    0.134897
      2         11           0       -0.598495    0.361928    1.852226
      3         11           0        0.101461   -0.274252   -1.823734
      4         11           0        1.246840    2.639577   -0.304938
      5         11           0        3.415690   -0.034383    0.300685
      6         11           0       -3.215526    1.351106   -0.112302
      7         11           0       -2.276903   -1.881705   -0.046834
 ---------------------------------------------------------------------

 SCF Done:  E(UB3LYP) =  -1136.12707806     A.U. after   22 cycles

 The electronic state is 2-A.
 Alpha  occ. eigenvalues --  -38.44891 -38.44851 -38.43779 -38.43708 -38.43430
 Alpha  occ. eigenvalues --  -38.43243 -38.42877  -2.20733  -2.20648  -2.19675
 Alpha  occ. eigenvalues --   -2.19589  -2.19390  -2.19060  -2.18827  -1.14447
 Alpha  occ. eigenvalues --   -1.14381  -1.14355  -1.14319  -1.14311  -1.14292
 Alpha  occ. eigenvalues --   -1.13368  -1.13320  -1.13300  -1.13271  -1.13245
 Alpha  occ. eigenvalues --   -1.13213  -1.13115  -1.13026  -1.12990  -1.12737
 Alpha  occ. eigenvalues --   -1.12726  -1.12693  -1.12511  -1.12473  -1.12457
 Alpha  occ. eigenvalues --   -0.18703  -0.13761  -0.11762  -0.10679
 Alpha virt. eigenvalues --   -0.06668  -0.05316  -0.03820  -0.03587  -0.02684
 Alpha virt. eigenvalues --   -0.02391  -0.02177  -0.01201  -0.00460  -0.00078
 Alpha virt. eigenvalues --   -0.00031   0.00287   0.00659   0.00721   0.00819

  Beta  occ. eigenvalues --  -38.44885 -38.44853 -38.43711 -38.43700 -38.43346
  Beta  occ. eigenvalues --  -38.43234 -38.42865  -2.20724  -2.20655  -2.19579
  Beta  occ. eigenvalues --   -2.19550  -2.19235  -2.19047  -2.18812  -1.14442
  Beta  occ. eigenvalues --   -1.14360  -1.14348  -1.14319  -1.14308  -1.14293
  Beta  occ. eigenvalues --   -1.13305  -1.13252  -1.13238  -1.13216  -1.13209
  Beta  occ. eigenvalues --   -1.13186  -1.13015  -1.12919  -1.12878  -1.12724
  Beta  occ. eigenvalues --   -1.12699  -1.12688  -1.12498  -1.12454  -1.12420
  Beta  occ. eigenvalues --   -0.17975  -0.13540  -0.11512
  Beta virt. eigenvalues --   -0.06846  -0.06521  -0.05310  -0.03808  -0.02818
  Beta virt. eigenvalues --   -0.02127  -0.01878  -0.01379  -0.01147  -0.00478
  Beta virt. eigenvalues --   -0.00057   0.00087   0.00318   0.00749   0.00830

 Mulliken charges and spin densities:
               1          2
     1  Na   0.320613   0.095908
     2  Na  -0.443002   0.515128
     3  Na  -0.332638   0.591553
     4  Na   0.039728  -0.074481
     5  Na  -0.050649  -0.006394
     6  Na   0.122770  -0.134619
     7  Na   0.343178   0.012905
 Sum of Mulliken charges =  -0.00000   1.00000

 Dipole moment (field-independent basis, Debye):
    X=             -0.4262    Y=              0.2895    Z=              0.0505  Tot=              0.5177
 Quadrupole moment (field-independent basis, Debye-Ang):
   XX=            -49.4072   YY=            -69.4115   ZZ=            -74.3237
   XY=             -0.5284   XZ=              1.9971   YZ=             -1.3684

 Normal termination of Gaussian 16 at Thu Dec  7 01:58:05 2023.
