 Gaussian 16, Revision B.01,
 Gaussian 16:  ES64L-G16RevB.01 20-Dec-2017

 -------------------------
 #P B3LYP/6-311+g(d) force
 -------------------------

 -----
 DPGEN
 -----
 Symbolic Z-matrix:
 Charge =  0 Multiplicity = 2

                         Standard orientation:
 ---------------------------------------------------------------------
 Center     Atomic      Atomic             Coordinates (Angstroms)
 Number     Number       Type             X           Y           Z
 ---------------------------------------------------------------------
      1         11           0        2.343285    1.518172   -0.103239
      2         11           0       -0.402874    2.694415   -0.235076
      3         11           0       -3.265208    0.192957    0.128970
      4         11           0       -0.266952    0.130269    1.944652
      5         11           0       -0.139134   -0.352794   -1.911524
      6         11           0        2.557427   -1.570261    0.285802
      7         11           0       -0.826544   -2.612759   -0.109586
 ---------------------------------------------------------------------

 SCF Done:  E(UB3LYP) =  -1136.13517429     A.U. after   18 cycles

 The electronic state is 2-A.
 Alpha  occ. eigenvalues --  -38.44259 -38.43649 -38.43621 -38.43599 -38.43426
 Alpha  occ. eigenvalues --  -38.43367 -38.43173  -2.20062  -2.19581  -2.19575
 Alpha  occ. eigenvalues --   -2.19463  -2.19322  -2.19299  -2.19079  -1.13740
 Alpha  occ. eigenvalues --   -1.13713  -1.13704  -1.13341  -1.13260  -1.13226
 Alpha  occ. eigenvalues --   -1.13222  -1.13202  -1.13187  -1.13175  -1.13117
 Alpha  occ. eigenvalues --   -1.13097  -1.13042  -1.12986  -1.12976  -1.12935
 Alpha  occ. eigenvalues --   -1.12930  -1.12911  -1.12736  -1.12731  -1.12686
 Alpha  occ. eigenvalues --   -0.19031  -0.13041  -0.12559  -0.11131
 Alpha virt. eigenvalues --   -0.05743  -0.04751  -0.04499  -0.03317  -0.03116
 Alpha virt. eigenvalues --   -0.02777  -0.01603  -0.00866  -0.00131  -0.00031
 Alpha virt. eigenvalues --    0.00005   0.00364   0.00850   0.00938   0.00974

  Beta  occ. eigenvalues --  -38.44257 -38.43593 -38.43568 -38.43537 -38.43417
  Beta  occ. eigenvalues --  -38.43361 -38.43165  -2.20060  -2.19456  -2.19430
  Beta  occ. eigenvalues --   -2.19423  -2.19309  -2.19293  -2.19068  -1.13721
  Beta  occ. eigenvalues --   -1.13714  -1.13705  -1.13254  -1.13195  -1.13162
  Beta  occ. eigenvalues --   -1.13122  -1.13121  -1.13107  -1.13093  -1.13072
  Beta  occ. eigenvalues --   -1.13061  -1.13036  -1.12960  -1.12932  -1.12927
  Beta  occ. eigenvalues --   -1.12908  -1.12900  -1.12732  -1.12696  -1.12680
  Beta  occ. eigenvalues --   -0.18267  -0.12795  -0.12298
  Beta virt. eigenvalues --   -0.07196  -0.05709  -0.04729  -0.04474  -0.02508
  Beta virt. eigenvalues --   -0.02291  -0.01734  -0.01503  -0.00798  -0.00167
  Beta virt. eigenvalues --   -0.00049   0.00091   0.00380   0.00876   0.00937

 Mulliken charges and spin densities:
               1          2
     1  Na   0.087408  -0.007347
     2  Na   0.200235  -0.058093
     3  Na   0.143374  -0.125512
     4  Na  -0.518477   0.712875
     5  Na  -0.398138   0.575217
     6  Na   0.165316  -0.008818
     7  Na   0.320282  -0.088322
 Sum of Mulliken charges =  -0.00000   1.00000

 Dipole moment (field-independent basis, Debye):
    X=             -0.4843    Y=             -0.1619    Z=              0.0942  Tot=              0.5193
 Quadrupole moment (field-independent basis, Debye-Ang):
   XX=            -57.0180   YY=            -65.6127   ZZ=            -72.1356
   XY=             -0.8820   XZ=              0.3364   YZ=             -1.1568

 Normal termination of Gaussian 16 at Wed Nov 29 16:29:49 2023.
