 Gaussian 16, Revision B.01,
 Gaussian 16:  ES64L-G16RevB.01 20-Dec-2017

 -------------------------
 #P B3LYP/6-311+g(d) force
 -------------------------

 -----
 DPGEN
 -----
 Symbolic Z-matrix:
 Charge =  0 Multiplicity = 2

                         Standard orientation:
 ---------------------------------------------------------------------
 Center     Atomic      Atomic             Coordinates (Angstroms)
 Number     Number       Type             X           Y           Z
 ---------------------------------------------------------------------
      1         11           0        3.204186    2.028915   -0.179705
      2         11           0       -2.907270    1.936592   -0.720444
      3         11           0       -0.211744    3.843139    0.577517
      4         11           0       -4.466204   -1.593250   -0.169960
      5         11           0       -1.612498   -1.968650    0.833736
      6         11           0        1.836047   -3.148261   -0.261559
      7         11           0        4.157483   -1.098484   -0.079585
 ---------------------------------------------------------------------

 SCF Done:  E(UB3LYP) =  -1136.11030523     A.U. after   22 cycles

 The electronic state is 2-A.
 Alpha  occ. eigenvalues --  -38.45510 -38.45222 -38.44455 -38.44329 -38.44198
 Alpha  occ. eigenvalues --  -38.43827 -38.43714  -2.21262  -2.21018  -2.20249
 Alpha  occ. eigenvalues --   -2.20159  -2.20036  -2.19586  -2.19542  -1.14950
 Alpha  occ. eigenvalues --   -1.14933  -1.14865  -1.14713  -1.14688  -1.14660
 Alpha  occ. eigenvalues --   -1.13933  -1.13911  -1.13881  -1.13842  -1.13821
 Alpha  occ. eigenvalues --   -1.13790  -1.13704  -1.13675  -1.13653  -1.13264
 Alpha  occ. eigenvalues --   -1.13247  -1.13229  -1.13189  -1.13183  -1.13175
 Alpha  occ. eigenvalues --   -0.15850  -0.14297  -0.13016  -0.10699
 Alpha virt. eigenvalues --   -0.07341  -0.05214  -0.04427  -0.03320  -0.03200
 Alpha virt. eigenvalues --   -0.02594  -0.02360  -0.01961  -0.01343  -0.00586
 Alpha virt. eigenvalues --   -0.00362  -0.00099   0.00271   0.00463   0.00550

  Beta  occ. eigenvalues --  -38.45477 -38.45211 -38.44391 -38.44324 -38.44153
  Beta  occ. eigenvalues --  -38.43822 -38.43659  -2.21204  -2.21003  -2.20157
  Beta  occ. eigenvalues --   -2.20132  -2.19952  -2.19580  -2.19439  -1.14912
  Beta  occ. eigenvalues --   -1.14896  -1.14805  -1.14699  -1.14678  -1.14624
  Beta  occ. eigenvalues --   -1.13867  -1.13839  -1.13831  -1.13821  -1.13802
  Beta  occ. eigenvalues --   -1.13734  -1.13647  -1.13617  -1.13598  -1.13262
  Beta  occ. eigenvalues --   -1.13246  -1.13210  -1.13129  -1.13113  -1.13101
  Beta  occ. eigenvalues --   -0.15338  -0.13659  -0.12401
  Beta virt. eigenvalues --   -0.07478  -0.07295  -0.04817  -0.04149  -0.03000
  Beta virt. eigenvalues --   -0.02771  -0.02353  -0.02188  -0.01739  -0.01151
  Beta virt. eigenvalues --   -0.00359  -0.00133   0.00211   0.00288   0.00488

 Mulliken charges and spin densities:
               1          2
     1  Na   0.056102   0.260036
     2  Na  -0.003043   0.208321
     3  Na   0.007345  -0.015099
     4  Na   0.615521   0.187273
     5  Na  -0.775393   0.105808
     6  Na   0.077401   0.211029
     7  Na   0.022067   0.042632
 Sum of Mulliken charges =  -0.00000   1.00000

 Dipole moment (field-independent basis, Debye):
    X=             -1.2544    Y=             -0.1974    Z=             -0.1695  Tot=              1.2811
 Quadrupole moment (field-independent basis, Debye-Ang):
   XX=            -58.7926   YY=            -70.5128   ZZ=            -71.0186
   XY=             -0.5698   XZ=              3.0293   YZ=              0.4883

 Normal termination of Gaussian 16 at Sun Dec  3 12:26:47 2023.
