 Gaussian 16, Revision B.01,
 Gaussian 16:  ES64L-G16RevB.01 20-Dec-2017

 -------------------------
 #P B3LYP/6-311+g(d) force
 -------------------------

 -----
 DPGEN
 -----
 Symbolic Z-matrix:
 Charge =  0 Multiplicity = 2

                         Standard orientation:
 ---------------------------------------------------------------------
 Center     Atomic      Atomic             Coordinates (Angstroms)
 Number     Number       Type             X           Y           Z
 ---------------------------------------------------------------------
      1         11           0        0.153612   -0.268711   -1.627234
      2         11           0       -1.878448    1.320954   -0.486824
      3         11           0        2.595299    0.168867   -0.273928
      4         11           0        0.922030   -2.208853    0.413208
      5         11           0       -1.976597   -1.358939   -0.157461
      6         11           0       -0.483173    0.113846    1.798086
      7         11           0        0.667277    2.232837    0.334152
 ---------------------------------------------------------------------

 SCF Done:  E(UB3LYP) =  -1136.08362962     A.U. after   19 cycles

 The electronic state is 2-A.
 Alpha  occ. eigenvalues --  -38.44155 -38.44032 -38.43897 -38.43805 -38.43757
 Alpha  occ. eigenvalues --  -38.43421 -38.43309  -2.20365  -2.20341  -2.20091
 Alpha  occ. eigenvalues --   -2.19912  -2.19847  -2.19532  -2.19379  -1.14357
 Alpha  occ. eigenvalues --   -1.14177  -1.14125  -1.14068  -1.14028  -1.13985
 Alpha  occ. eigenvalues --   -1.13929  -1.13716  -1.13630  -1.13576  -1.13520
 Alpha  occ. eigenvalues --   -1.13516  -1.13496  -1.13445  -1.13387  -1.13178
 Alpha  occ. eigenvalues --   -1.13129  -1.13085  -1.13060  -1.13016  -1.12961
 Alpha  occ. eigenvalues --   -0.21569  -0.13689  -0.13173  -0.12281
 Alpha virt. eigenvalues --   -0.05022  -0.04348  -0.04211  -0.03619  -0.03345
 Alpha virt. eigenvalues --   -0.02924  -0.00833  -0.00600  -0.00086   0.00362
 Alpha virt. eigenvalues --    0.00767   0.00896   0.01096   0.01154   0.01169

  Beta  occ. eigenvalues --  -38.44061 -38.43947 -38.43873 -38.43797 -38.43740
  Beta  occ. eigenvalues --  -38.43407 -38.43294  -2.20200  -2.20189  -2.20053
  Beta  occ. eigenvalues --   -2.19888  -2.19836  -2.19512  -2.19358  -1.14291
  Beta  occ. eigenvalues --   -1.14074  -1.14019  -1.13976  -1.13929  -1.13909
  Beta  occ. eigenvalues --   -1.13849  -1.13670  -1.13567  -1.13547  -1.13496
  Beta  occ. eigenvalues --   -1.13490  -1.13436  -1.13390  -1.13372  -1.13158
  Beta  occ. eigenvalues --   -1.13082  -1.13068  -1.13048  -1.12959  -1.12951
  Beta  occ. eigenvalues --   -0.20758  -0.13334  -0.12831
  Beta virt. eigenvalues --   -0.08044  -0.05025  -0.04335  -0.04201  -0.02703
  Beta virt. eigenvalues --   -0.02437  -0.01764  -0.00771  -0.00552   0.00066
  Beta virt. eigenvalues --    0.00392   0.00747   0.00858   0.01117   0.01150

 Mulliken charges and spin densities:
               1          2
     1  Na  -0.448522   0.303557
     2  Na   0.254642   0.081316
     3  Na   0.010709   0.004786
     4  Na   0.104815   0.076916
     5  Na   0.195400  -0.043412
     6  Na  -0.436484   0.458801
     7  Na   0.319441   0.118036
 Sum of Mulliken charges =  -0.00000   1.00000

 Dipole moment (field-independent basis, Debye):
    X=              0.2667    Y=             -0.1082    Z=              0.2384  Tot=              0.3737
 Quadrupole moment (field-independent basis, Debye-Ang):
   XX=            -62.7773   YY=            -66.6845   ZZ=            -68.6716
   XY=              0.1351   XZ=              0.8318   YZ=             -0.8095

 Normal termination of Gaussian 16 at Fri Dec  8 17:16:29 2023.
