 Gaussian 16, Revision B.01,
 Gaussian 16:  ES64L-G16RevB.01 20-Dec-2017

 -------------------------
 #P B3LYP/6-311+g(d) force
 -------------------------

 -----
 DPGEN
 -----
 Symbolic Z-matrix:
 Charge =  0 Multiplicity = 2

                         Standard orientation:
 ---------------------------------------------------------------------
 Center     Atomic      Atomic             Coordinates (Angstroms)
 Number     Number       Type             X           Y           Z
 ---------------------------------------------------------------------
      1         11           0        1.208016    0.413553   -1.110032
      2         11           0       -5.090527   -0.889564   -0.182347
      3         11           0        2.262680   -2.708825   -1.172743
      4         11           0        0.264966   -1.441683    1.862001
      5         11           0        3.273479    0.626510    0.807399
      6         11           0        0.259650    3.341168   -0.211291
      7         11           0       -2.178264    0.658842    0.007012
 ---------------------------------------------------------------------

 SCF Done:  E(UB3LYP) =  -1136.10932944     A.U. after   29 cycles

 The electronic state is 2-A.
 Alpha  occ. eigenvalues --  -38.46706 -38.44579 -38.44130 -38.43677 -38.43645
 Alpha  occ. eigenvalues --  -38.43517 -38.43114  -2.22519  -2.20345  -2.19944
 Alpha  occ. eigenvalues --   -2.19673  -2.19518  -2.19334  -2.18947  -1.16297
 Alpha  occ. eigenvalues --   -1.16170  -1.16096  -1.14000  -1.13998  -1.13982
 Alpha  occ. eigenvalues --   -1.13635  -1.13588  -1.13562  -1.13433  -1.13329
 Alpha  occ. eigenvalues --   -1.13260  -1.13176  -1.13158  -1.13120  -1.13002
 Alpha  occ. eigenvalues --   -1.12987  -1.12967  -1.12655  -1.12628  -1.12564
 Alpha  occ. eigenvalues --   -0.17910  -0.13213  -0.11979  -0.10383
 Alpha virt. eigenvalues --   -0.07782  -0.05225  -0.04093  -0.03163  -0.02842
 Alpha virt. eigenvalues --   -0.02572  -0.01942  -0.01487  -0.01059  -0.00710
 Alpha virt. eigenvalues --   -0.00329  -0.00088   0.00104   0.00471   0.00699

  Beta  occ. eigenvalues --  -38.46708 -38.44550 -38.44090 -38.43618 -38.43581
  Beta  occ. eigenvalues --  -38.43519 -38.43116  -2.22528  -2.20291  -2.19873
  Beta  occ. eigenvalues --   -2.19627  -2.19340  -2.19338  -2.18952  -1.16302
  Beta  occ. eigenvalues --   -1.16144  -1.16109  -1.13963  -1.13960  -1.13947
  Beta  occ. eigenvalues --   -1.13584  -1.13530  -1.13514  -1.13412  -1.13271
  Beta  occ. eigenvalues --   -1.13224  -1.13055  -1.13030  -1.13002  -1.12998
  Beta  occ. eigenvalues --   -1.12990  -1.12969  -1.12662  -1.12611  -1.12565
  Beta  occ. eigenvalues --   -0.17328  -0.12906  -0.11698
  Beta virt. eigenvalues --   -0.07589  -0.06643  -0.05061  -0.03959  -0.02868
  Beta virt. eigenvalues --   -0.02482  -0.02164  -0.01500  -0.01095  -0.00938
  Beta virt. eigenvalues --   -0.00479  -0.00111   0.00004   0.00252   0.00547

 Mulliken charges and spin densities:
               1          2
     1  Na  -0.578019   0.300874
     2  Na   0.030748   0.105649
     3  Na   0.227508   0.125241
     4  Na   0.013685   0.339726
     5  Na  -0.009375   0.065192
     6  Na   1.656005  -0.084561
     7  Na  -1.340552   0.147879
 Sum of Mulliken charges =  -0.00000   1.00000

 Dipole moment (field-independent basis, Debye):
    X=              1.3162    Y=             -0.1121    Z=              0.7526  Tot=              1.5203
 Quadrupole moment (field-independent basis, Debye-Ang):
   XX=            -54.7201   YY=            -63.4518   ZZ=            -73.9340
   XY=              3.4335   XZ=              5.2212   YZ=              3.4396

 Normal termination of Gaussian 16 at Tue Dec  5 15:52:36 2023.
