 Gaussian 16, Revision B.01,
 Gaussian 16:  ES64L-G16RevB.01 20-Dec-2017

 -------------------------
 #P B3LYP/6-311+g(d) force
 -------------------------

 -----
 DPGEN
 -----
 Symbolic Z-matrix:
 Charge =  0 Multiplicity = 2

                         Standard orientation:
 ---------------------------------------------------------------------
 Center     Atomic      Atomic             Coordinates (Angstroms)
 Number     Number       Type             X           Y           Z
 ---------------------------------------------------------------------
      1         11           0        1.469092   -1.292991    0.517652
      2         11           0        4.824784   -1.731985    0.003915
      3         11           0        2.425192    0.939592   -1.379658
      4         11           0       -1.132501    1.916610   -0.965847
      5         11           0       -2.498607   -0.760929    0.719717
      6         11           0        0.347756    2.299689    1.603408
      7         11           0       -5.435717   -1.369986   -0.499187
 ---------------------------------------------------------------------

 SCF Done:  E(UB3LYP) =  -1136.11368146     A.U. after   23 cycles

 The electronic state is 2-A.
 Alpha  occ. eigenvalues --  -38.44957 -38.44944 -38.44715 -38.44399 -38.44229
 Alpha  occ. eigenvalues --  -38.43543 -38.43022  -2.20792  -2.20710  -2.20583
 Alpha  occ. eigenvalues --   -2.20259  -2.20101  -2.19327  -2.18858  -1.14555
 Alpha  occ. eigenvalues --   -1.14441  -1.14422  -1.14383  -1.14382  -1.14333
 Alpha  occ. eigenvalues --   -1.14253  -1.14227  -1.14178  -1.14030  -1.13934
 Alpha  occ. eigenvalues --   -1.13824  -1.13783  -1.13758  -1.13670  -1.12985
 Alpha  occ. eigenvalues --   -1.12980  -1.12969  -1.12556  -1.12542  -1.12468
 Alpha  occ. eigenvalues --   -0.17726  -0.13694  -0.12015  -0.10230
 Alpha virt. eigenvalues --   -0.06986  -0.06301  -0.04327  -0.03040  -0.02974
 Alpha virt. eigenvalues --   -0.02427  -0.02017  -0.01846  -0.01086  -0.00669
 Alpha virt. eigenvalues --   -0.00333   0.00004   0.00287   0.00370   0.00567

  Beta  occ. eigenvalues --  -38.44948 -38.44947 -38.44695 -38.44342 -38.44186
  Beta  occ. eigenvalues --  -38.43517 -38.43012  -2.20779  -2.20716  -2.20548
  Beta  occ. eigenvalues --   -2.20155  -2.20023  -2.19277  -2.18845  -1.14546
  Beta  occ. eigenvalues --   -1.14435  -1.14388  -1.14387  -1.14379  -1.14337
  Beta  occ. eigenvalues --   -1.14232  -1.14187  -1.14151  -1.13960  -1.13862
  Beta  occ. eigenvalues --   -1.13748  -1.13726  -1.13700  -1.13599  -1.12953
  Beta  occ. eigenvalues --   -1.12946  -1.12936  -1.12553  -1.12535  -1.12425
  Beta  occ. eigenvalues --   -0.17066  -0.13566  -0.11719
  Beta virt. eigenvalues --   -0.06743  -0.06637  -0.06082  -0.03777  -0.02924
  Beta virt. eigenvalues --   -0.02686  -0.02191  -0.01931  -0.01251  -0.00803
  Beta virt. eigenvalues --   -0.00385  -0.00186   0.00203   0.00402   0.00485

 Mulliken charges and spin densities:
               1          2
     1  Na  -0.844772   0.417192
     2  Na   1.154854   0.162668
     3  Na  -0.008173   0.278580
     4  Na  -0.088356   0.193338
     5  Na  -0.642736  -0.321416
     6  Na   0.396918   0.152605
     7  Na   0.032266   0.117033
 Sum of Mulliken charges =  -0.00000   1.00000

 Dipole moment (field-independent basis, Debye):
    X=              2.2685    Y=              0.8122    Z=              0.5066  Tot=              2.4622
 Quadrupole moment (field-independent basis, Debye-Ang):
   XX=            -56.1638   YY=            -68.0212   ZZ=            -70.6881
   XY=             -5.2414   XZ=              4.5684   YZ=              4.0318

 Normal termination of Gaussian 16 at Tue Nov 28 20:45:35 2023.
