 Gaussian 16, Revision B.01,
 Gaussian 16:  ES64L-G16RevB.01 20-Dec-2017

 -------------------------
 #P B3LYP/6-311+g(d) force
 -------------------------

 -----
 DPGEN
 -----
 Symbolic Z-matrix:
 Charge =  0 Multiplicity = 2

                         Standard orientation:
 ---------------------------------------------------------------------
 Center     Atomic      Atomic             Coordinates (Angstroms)
 Number     Number       Type             X           Y           Z
 ---------------------------------------------------------------------
      1         11           0        0.786746   -2.244234    0.132962
      2         11           0       -2.029277    1.889152   -0.235908
      3         11           0       -2.944459   -1.327222   -0.148801
      4         11           0       -0.376113   -0.023472    1.994712
      5         11           0        1.437569    2.177533    0.204455
      6         11           0       -0.119431   -0.024659   -1.710310
      7         11           0        3.244966   -0.447099   -0.237110
 ---------------------------------------------------------------------

 SCF Done:  E(UB3LYP) =  -1136.13044954     A.U. after   20 cycles

 The electronic state is 2-A.
 Alpha  occ. eigenvalues --  -38.44414 -38.44181 -38.43631 -38.43558 -38.43363
 Alpha  occ. eigenvalues --  -38.42933 -38.42850  -2.20287  -2.20023  -2.19599
 Alpha  occ. eigenvalues --   -2.19592  -2.19288  -2.18896  -2.18763  -1.13972
 Alpha  occ. eigenvalues --   -1.13945  -1.13932  -1.13695  -1.13692  -1.13660
 Alpha  occ. eigenvalues --   -1.13318  -1.13300  -1.13275  -1.13234  -1.13203
 Alpha  occ. eigenvalues --   -1.13190  -1.12961  -1.12943  -1.12897  -1.12591
 Alpha  occ. eigenvalues --   -1.12562  -1.12494  -1.12447  -1.12428  -1.12392
 Alpha  occ. eigenvalues --   -0.19442  -0.13687  -0.12014  -0.11179
 Alpha virt. eigenvalues --   -0.06102  -0.05005  -0.03719  -0.03497  -0.02755
 Alpha virt. eigenvalues --   -0.02689  -0.01937  -0.00946  -0.00115   0.00059
 Alpha virt. eigenvalues --    0.00181   0.00334   0.00783   0.00934   0.00945

  Beta  occ. eigenvalues --  -38.44413 -38.44178 -38.43532 -38.43488 -38.43352
  Beta  occ. eigenvalues --  -38.42920 -38.42842  -2.20288  -2.20019  -2.19465
  Beta  occ. eigenvalues --   -2.19418  -2.19273  -2.18878  -2.18753  -1.13976
  Beta  occ. eigenvalues --   -1.13948  -1.13914  -1.13694  -1.13672  -1.13654
  Beta  occ. eigenvalues --   -1.13229  -1.13213  -1.13162  -1.13110  -1.13098
  Beta  occ. eigenvalues --   -1.13072  -1.12939  -1.12909  -1.12885  -1.12582
  Beta  occ. eigenvalues --   -1.12506  -1.12487  -1.12443  -1.12392  -1.12388
  Beta  occ. eigenvalues --   -0.18676  -0.13433  -0.11733
  Beta virt. eigenvalues --   -0.07184  -0.06042  -0.05016  -0.03711  -0.02711
  Beta virt. eigenvalues --   -0.01899  -0.01845  -0.01611  -0.00907  -0.00040
  Beta virt. eigenvalues --    0.00101   0.00142   0.00351   0.00840   0.00931

 Mulliken charges and spin densities:
               1          2
     1  Na   0.681164  -0.019451
     2  Na   0.336608  -0.014568
     3  Na   0.278654  -0.082342
     4  Na  -0.755156   0.639190
     5  Na   0.416301   0.002324
     6  Na  -0.836361   0.522570
     7  Na  -0.121211  -0.047722
 Sum of Mulliken charges =  -0.00000   1.00000

 Dipole moment (field-independent basis, Debye):
    X=             -0.1621    Y=             -0.1028    Z=              0.0587  Tot=              0.2008
 Quadrupole moment (field-independent basis, Debye-Ang):
   XX=            -51.1454   YY=            -70.1534   ZZ=            -72.2025
   XY=              0.8341   XZ=              0.0165   YZ=              0.1968

 Normal termination of Gaussian 16 at Thu Dec  7 07:07:46 2023.
