 Gaussian 16, Revision B.01,
 Gaussian 16:  ES64L-G16RevB.01 20-Dec-2017

 -------------------------
 #P B3LYP/6-311+g(d) force
 -------------------------

 -----
 DPGEN
 -----
 Symbolic Z-matrix:
 Charge =  0 Multiplicity = 2

                         Standard orientation:
 ---------------------------------------------------------------------
 Center     Atomic      Atomic             Coordinates (Angstroms)
 Number     Number       Type             X           Y           Z
 ---------------------------------------------------------------------
      1         11           0        3.255330   -0.332693    0.192365
      2         11           0        1.621393    2.686135   -0.448705
      3         11           0       -3.167355    1.563670    0.573613
      4         11           0       -2.664794   -1.704039   -0.249677
      5         11           0        1.075584   -2.549297   -0.151675
      6         11           0       -0.452310    0.293404   -1.769395
      7         11           0        0.332152    0.042819    1.853473
 ---------------------------------------------------------------------

 SCF Done:  E(UB3LYP) =  -1136.13069159     A.U. after   21 cycles

 The electronic state is 2-A.
 Alpha  occ. eigenvalues --  -38.44590 -38.44533 -38.44160 -38.44097 -38.43442
 Alpha  occ. eigenvalues --  -38.43136 -38.42810  -2.20398  -2.20376  -2.19990
 Alpha  occ. eigenvalues --   -2.19978  -2.19347  -2.18957  -2.18692  -1.14082
 Alpha  occ. eigenvalues --   -1.14072  -1.14038  -1.14033  -1.14025  -1.14015
 Alpha  occ. eigenvalues --   -1.13678  -1.13668  -1.13648  -1.13618  -1.13611
 Alpha  occ. eigenvalues --   -1.13596  -1.13030  -1.12977  -1.12975  -1.12626
 Alpha  occ. eigenvalues --   -1.12610  -1.12604  -1.12380  -1.12360  -1.12326
 Alpha  occ. eigenvalues --   -0.18328  -0.13648  -0.11773  -0.10638
 Alpha virt. eigenvalues --   -0.06345  -0.05528  -0.04266  -0.03425  -0.02633
 Alpha virt. eigenvalues --   -0.02392  -0.02070  -0.01288  -0.00593  -0.00218
 Alpha virt. eigenvalues --   -0.00080   0.00299   0.00635   0.00720   0.00774

  Beta  occ. eigenvalues --  -38.44569 -38.44530 -38.44153 -38.44033 -38.43367
  Beta  occ. eigenvalues --  -38.43127 -38.42807  -2.20395  -2.20337  -2.19981
  Beta  occ. eigenvalues --   -2.19860  -2.19211  -2.18943  -2.18690  -1.14085
  Beta  occ. eigenvalues --   -1.14055  -1.14018  -1.14010  -1.13999  -1.13990
  Beta  occ. eigenvalues --   -1.13662  -1.13640  -1.13604  -1.13585  -1.13532
  Beta  occ. eigenvalues --   -1.13505  -1.12940  -1.12881  -1.12870  -1.12609
  Beta  occ. eigenvalues --   -1.12600  -1.12589  -1.12382  -1.12356  -1.12300
  Beta  occ. eigenvalues --   -0.17652  -0.13403  -0.11500
  Beta virt. eigenvalues --   -0.06916  -0.06156  -0.05470  -0.04116  -0.02824
  Beta virt. eigenvalues --   -0.02003  -0.01859  -0.01466  -0.01199  -0.00579
  Beta virt. eigenvalues --   -0.00248   0.00080   0.00343   0.00738   0.00782

 Mulliken charges and spin densities:
               1          2
     1  Na   0.322019   0.037624
     2  Na  -0.050733  -0.034943
     3  Na  -0.073331   0.119046
     4  Na   0.156421  -0.004265
     5  Na  -0.163712  -0.039222
     6  Na  -0.008005   0.437293
     7  Na  -0.182658   0.484467
 Sum of Mulliken charges =  -0.00000   1.00000

 Dipole moment (field-independent basis, Debye):
    X=             -0.3400    Y=              0.0829    Z=              0.1758  Tot=              0.3916
 Quadrupole moment (field-independent basis, Debye-Ang):
   XX=            -52.3283   YY=            -67.3119   ZZ=            -74.3305
   XY=             -0.2664   XZ=             -0.9334   YZ=              1.2327

 Normal termination of Gaussian 16 at Tue Dec  5 20:12:29 2023.
