 Gaussian 16, Revision B.01,
 Gaussian 16:  ES64L-G16RevB.01 20-Dec-2017

 -------------------------
 #P B3LYP/6-311+g(d) force
 -------------------------

 -----
 DPGEN
 -----
 Symbolic Z-matrix:
 Charge =  0 Multiplicity = 2

                         Standard orientation:
 ---------------------------------------------------------------------
 Center     Atomic      Atomic             Coordinates (Angstroms)
 Number     Number       Type             X           Y           Z
 ---------------------------------------------------------------------
      1         11           0       -0.115368   -0.668132   -1.305803
      2         11           0        1.371727   -0.301112    1.630391
      3         11           0        2.840560   -0.867979   -0.876554
      4         11           0        1.326101    1.787088   -0.444445
      5         11           0       -1.086234    1.587192    0.751819
      6         11           0       -1.226645   -1.393553    1.204967
      7         11           0       -3.110140   -0.143504   -0.960375
 ---------------------------------------------------------------------

 SCF Done:  E(UB3LYP) =  -1136.09138182     A.U. after   28 cycles

 The electronic state is 2-A.
 Alpha  occ. eigenvalues --  -38.44641 -38.44279 -38.44172 -38.44007 -38.43457
 Alpha  occ. eigenvalues --  -38.43337 -38.42431  -2.20579  -2.20392  -2.20323
 Alpha  occ. eigenvalues --   -2.19985  -2.19666  -2.19473  -2.18572  -1.14325
 Alpha  occ. eigenvalues --   -1.14302  -1.14245  -1.14202  -1.14101  -1.14039
 Alpha  occ. eigenvalues --   -1.13980  -1.13920  -1.13851  -1.13715  -1.13617
 Alpha  occ. eigenvalues --   -1.13593  -1.13429  -1.13337  -1.13245  -1.13229
 Alpha  occ. eigenvalues --   -1.13072  -1.13047  -1.12256  -1.12213  -1.12148
 Alpha  occ. eigenvalues --   -0.20987  -0.14546  -0.12543  -0.11359
 Alpha virt. eigenvalues --   -0.06182  -0.04540  -0.04098  -0.03526  -0.02548
 Alpha virt. eigenvalues --   -0.02453  -0.01893  -0.00585  -0.00307   0.00256
 Alpha virt. eigenvalues --    0.00474   0.00613   0.00837   0.00938   0.00981

  Beta  occ. eigenvalues --  -38.44621 -38.44211 -38.44098 -38.43997 -38.43416
  Beta  occ. eigenvalues --  -38.43310 -38.42416  -2.20542  -2.20273  -2.20196
  Beta  occ. eigenvalues --   -2.19969  -2.19597  -2.19426  -2.18551  -1.14274
  Beta  occ. eigenvalues --   -1.14219  -1.14206  -1.14173  -1.14011  -1.13969
  Beta  occ. eigenvalues --   -1.13901  -1.13837  -1.13743  -1.13685  -1.13601
  Beta  occ. eigenvalues --   -1.13563  -1.13390  -1.13264  -1.13206  -1.13177
  Beta  occ. eigenvalues --   -1.13040  -1.12992  -1.12246  -1.12176  -1.12108
  Beta  occ. eigenvalues --   -0.20124  -0.14318  -0.11139
  Beta virt. eigenvalues --   -0.08163  -0.06025  -0.04126  -0.03808  -0.03006
  Beta virt. eigenvalues --   -0.01857  -0.01841  -0.01662  -0.00353  -0.00174
  Beta virt. eigenvalues --    0.00293   0.00542   0.00705   0.00932   0.00980

 Mulliken charges and spin densities:
               1          2
     1  Na  -0.734741   0.591779
     2  Na   0.392389  -0.017201
     3  Na   0.431922   0.056169
     4  Na  -0.207709  -0.028454
     5  Na  -0.524181   0.476905
     6  Na  -0.367050   0.119530
     7  Na   1.009370  -0.198728
 Sum of Mulliken charges =  -0.00000   1.00000

 Dipole moment (field-independent basis, Debye):
    X=             -0.3392    Y=             -0.0422    Z=             -0.1788  Tot=              0.3857
 Quadrupole moment (field-independent basis, Debye-Ang):
   XX=            -51.1512   YY=            -77.1899   ZZ=            -66.5855
   XY=             -0.7615   XZ=              0.9322   YZ=             -4.3249

 Normal termination of Gaussian 16 at Sat Dec  9 07:13:20 2023.
