 Gaussian 16, Revision B.01,
 Gaussian 16:  ES64L-G16RevB.01 20-Dec-2017

 -------------------------
 #P B3LYP/6-311+g(d) force
 -------------------------

 -----
 DPGEN
 -----
 Symbolic Z-matrix:
 Charge =  0 Multiplicity = 2

                         Standard orientation:
 ---------------------------------------------------------------------
 Center     Atomic      Atomic             Coordinates (Angstroms)
 Number     Number       Type             X           Y           Z
 ---------------------------------------------------------------------
      1         11           0       -0.825761   -1.827521   -0.201565
      2         11           0       -2.404127    1.232734   -0.454045
      3         11           0        0.918772    1.029316    1.028906
      4         11           0        3.113119   -2.411215    0.318077
      5         11           0        4.150877    0.354758   -0.752917
      6         11           0       -0.523453    3.514333    0.052306
      7         11           0       -4.429427   -1.892406    0.009238
 ---------------------------------------------------------------------

 SCF Done:  E(UB3LYP) =  -1136.12094507     A.U. after   20 cycles

 The electronic state is 2-A.
 Alpha  occ. eigenvalues --  -38.44852 -38.44471 -38.44322 -38.43913 -38.43809
 Alpha  occ. eigenvalues --  -38.43612 -38.43235  -2.20645  -2.20354  -2.20205
 Alpha  occ. eigenvalues --   -2.19805  -2.19648  -2.19403  -2.19081  -1.14336
 Alpha  occ. eigenvalues --   -1.14317  -1.14277  -1.14058  -1.14040  -1.13991
 Alpha  occ. eigenvalues --   -1.13902  -1.13884  -1.13867  -1.13458  -1.13435
 Alpha  occ. eigenvalues --   -1.13428  -1.13295  -1.13287  -1.13272  -1.13064
 Alpha  occ. eigenvalues --   -1.13060  -1.13014  -1.12782  -1.12766  -1.12661
 Alpha  occ. eigenvalues --   -0.17333  -0.14053  -0.12701  -0.10013
 Alpha virt. eigenvalues --   -0.06548  -0.05575  -0.04796  -0.03473  -0.02691
 Alpha virt. eigenvalues --   -0.02416  -0.01886  -0.01492  -0.01158  -0.00671
 Alpha virt. eigenvalues --   -0.00131   0.00030   0.00470   0.00483   0.00601

  Beta  occ. eigenvalues --  -38.44851 -38.44451 -38.44315 -38.43913 -38.43738
  Beta  occ. eigenvalues --  -38.43565 -38.43192  -2.20649  -2.20322  -2.20194
  Beta  occ. eigenvalues --   -2.19806  -2.19516  -2.19315  -2.19005  -1.14337
  Beta  occ. eigenvalues --   -1.14317  -1.14250  -1.14037  -1.13991  -1.13976
  Beta  occ. eigenvalues --   -1.13895  -1.13873  -1.13850  -1.13458  -1.13434
  Beta  occ. eigenvalues --   -1.13428  -1.13205  -1.13196  -1.13186  -1.13004
  Beta  occ. eigenvalues --   -1.12996  -1.12959  -1.12731  -1.12714  -1.12588
  Beta  occ. eigenvalues --   -0.16854  -0.13545  -0.12404
  Beta virt. eigenvalues --   -0.06580  -0.06365  -0.05252  -0.04565  -0.02994
  Beta virt. eigenvalues --   -0.02434  -0.02179  -0.01752  -0.01190  -0.00972
  Beta virt. eigenvalues --   -0.00314   0.00139   0.00261   0.00520   0.00615

 Mulliken charges and spin densities:
               1          2
     1  Na  -0.572970   0.073013
     2  Na  -0.576691   0.108076
     3  Na  -0.797789   0.163570
     4  Na   0.300446   0.048386
     5  Na   0.150524   0.377939
     6  Na   0.867755  -0.065544
     7  Na   0.628725   0.294561
 Sum of Mulliken charges =  -0.00000   1.00000

 Dipole moment (field-independent basis, Debye):
    X=              0.2618    Y=              0.1367    Z=              0.2585  Tot=              0.3925
 Quadrupole moment (field-independent basis, Debye-Ang):
   XX=            -71.8934   YY=            -58.4328   ZZ=            -70.3544
   XY=             -3.4361   XZ=              0.6124   YZ=             -2.0081

 Normal termination of Gaussian 16 at Tue Nov 28 21:10:59 2023.
