 Gaussian 16, Revision B.01,
 Gaussian 16:  ES64L-G16RevB.01 20-Dec-2017

 -------------------------
 #P B3LYP/6-311+g(d) force
 -------------------------

 -----
 DPGEN
 -----
 Symbolic Z-matrix:
 Charge =  0 Multiplicity = 2

                         Standard orientation:
 ---------------------------------------------------------------------
 Center     Atomic      Atomic             Coordinates (Angstroms)
 Number     Number       Type             X           Y           Z
 ---------------------------------------------------------------------
      1         11           0        1.278969    2.276533    0.018692
      2         11           0        4.855419    0.774999   -0.651251
      3         11           0        5.183193   -1.897230    0.552984
      4         11           0        1.771728   -0.878520   -0.270988
      5         11           0       -1.161002    0.471215    0.205375
      6         11           0       -5.183727    0.143865    1.261975
      7         11           0       -6.744581   -0.890862   -1.116786
 ---------------------------------------------------------------------

 SCF Done:  E(UB3LYP) =  -1136.11319589     A.U. after   21 cycles

 The electronic state is 2-A.
 Alpha  occ. eigenvalues --  -38.44755 -38.44385 -38.44349 -38.43860 -38.43813
 Alpha  occ. eigenvalues --  -38.43656 -38.43605  -2.20549  -2.20242  -2.20185
 Alpha  occ. eigenvalues --   -2.19736  -2.19665  -2.19558  -2.19482  -1.14250
 Alpha  occ. eigenvalues --   -1.14198  -1.14195  -1.13953  -1.13939  -1.13847
 Alpha  occ. eigenvalues --   -1.13841  -1.13832  -1.13824  -1.13532  -1.13400
 Alpha  occ. eigenvalues --   -1.13381  -1.13303  -1.13294  -1.13284  -1.13225
 Alpha  occ. eigenvalues --   -1.13221  -1.13210  -1.13138  -1.13129  -1.13042
 Alpha  occ. eigenvalues --   -0.16905  -0.14108  -0.12744  -0.10104
 Alpha virt. eigenvalues --   -0.06697  -0.05315  -0.04611  -0.03761  -0.02719
 Alpha virt. eigenvalues --   -0.02638  -0.02124  -0.01893  -0.00975  -0.00778
 Alpha virt. eigenvalues --   -0.00309   0.00087   0.00278   0.00451   0.00599

  Beta  occ. eigenvalues --  -38.44744 -38.44388 -38.44322 -38.43830 -38.43787
  Beta  occ. eigenvalues --  -38.43607 -38.43583  -2.20527  -2.20196  -2.20191
  Beta  occ. eigenvalues --   -2.19683  -2.19616  -2.19469  -2.19440  -1.14237
  Beta  occ. eigenvalues --   -1.14183  -1.14180  -1.13914  -1.13884  -1.13846
  Beta  occ. eigenvalues --   -1.13835  -1.13820  -1.13813  -1.13492  -1.13368
  Beta  occ. eigenvalues --   -1.13338  -1.13269  -1.13252  -1.13233  -1.13180
  Beta  occ. eigenvalues --   -1.13162  -1.13152  -1.13104  -1.13093  -1.12994
  Beta  occ. eigenvalues --   -0.16257  -0.13934  -0.12624
  Beta virt. eigenvalues --   -0.06728  -0.06142  -0.05012  -0.04268  -0.03436
  Beta virt. eigenvalues --   -0.02634  -0.02280  -0.02029  -0.01362  -0.00927
  Beta virt. eigenvalues --   -0.00462  -0.00077   0.00364   0.00397   0.00553

 Mulliken charges and spin densities:
               1          2
     1  Na   0.480870   0.733805
     2  Na   0.030859  -0.058312
     3  Na   0.581647   0.104980
     4  Na  -0.124947   0.695220
     5  Na  -0.864069  -0.464491
     6  Na  -0.162360  -0.062541
     7  Na   0.058001   0.051341
 Sum of Mulliken charges =  -0.00000   1.00000

 Dipole moment (field-independent basis, Debye):
    X=             -0.8158    Y=             -0.2738    Z=             -0.1249  Tot=              0.8695
 Quadrupole moment (field-independent basis, Debye-Ang):
   XX=            -57.1923   YY=            -70.4942   ZZ=            -65.9804
   XY=             -0.5301   XZ=              5.1806   YZ=              2.7167

 Normal termination of Gaussian 16 at Wed Nov 29 01:39:59 2023.
