 Gaussian 16, Revision B.01,
 Gaussian 16:  ES64L-G16RevB.01 20-Dec-2017

 -------------------------
 #P B3LYP/6-311+g(d) force
 -------------------------

 -----
 DPGEN
 -----
 Symbolic Z-matrix:
 Charge =  0 Multiplicity = 2

                         Standard orientation:
 ---------------------------------------------------------------------
 Center     Atomic      Atomic             Coordinates (Angstroms)
 Number     Number       Type             X           Y           Z
 ---------------------------------------------------------------------
      1         11           0        0.137350   -0.202202   -2.079137
      2         11           0       -2.230393   -1.993447   -0.525963
      3         11           0       -0.590039    0.177647    2.072371
      4         11           0        0.895296   -2.253493    1.172049
      5         11           0        3.303767   -0.049130   -0.835494
      6         11           0       -2.679228    1.863298   -0.473130
      7         11           0        1.163248    2.457326    0.669306
 ---------------------------------------------------------------------

 SCF Done:  E(UB3LYP) =  -1136.13001884     A.U. after   20 cycles

 The electronic state is 2-A.
 Alpha  occ. eigenvalues --  -38.44476 -38.44214 -38.43865 -38.43803 -38.43658
 Alpha  occ. eigenvalues --  -38.43530 -38.43525  -2.20345  -2.20154  -2.19641
 Alpha  occ. eigenvalues --   -2.19611  -2.19487  -2.19405  -2.19348  -1.14009
 Alpha  occ. eigenvalues --   -1.13989  -1.13973  -1.13866  -1.13802  -1.13761
 Alpha  occ. eigenvalues --   -1.13327  -1.13296  -1.13290  -1.13277  -1.13255
 Alpha  occ. eigenvalues --   -1.13251  -1.13182  -1.13144  -1.13122  -1.13113
 Alpha  occ. eigenvalues --   -1.13059  -1.13024  -1.13002  -1.12999  -1.12952
 Alpha  occ. eigenvalues --   -0.18297  -0.12684  -0.12103  -0.11882
 Alpha virt. eigenvalues --   -0.05477  -0.05073  -0.04206  -0.03513  -0.03479
 Alpha virt. eigenvalues --   -0.03315  -0.01452  -0.00913  -0.00457   0.00055
 Alpha virt. eigenvalues --    0.00238   0.00382   0.00655   0.00749   0.00859

  Beta  occ. eigenvalues --  -38.44402 -38.44127 -38.43864 -38.43791 -38.43650
  Beta  occ. eigenvalues --  -38.43514 -38.43494  -2.20208  -2.19997  -2.19640
  Beta  occ. eigenvalues --   -2.19589  -2.19477  -2.19343  -2.19330  -1.13921
  Beta  occ. eigenvalues --   -1.13893  -1.13868  -1.13757  -1.13685  -1.13651
  Beta  occ. eigenvalues --   -1.13321  -1.13296  -1.13272  -1.13261  -1.13243
  Beta  occ. eigenvalues --   -1.13240  -1.13165  -1.13134  -1.13102  -1.13061
  Beta  occ. eigenvalues --   -1.13033  -1.12985  -1.12977  -1.12962  -1.12943
  Beta  occ. eigenvalues --   -0.17489  -0.12422  -0.11665
  Beta virt. eigenvalues --   -0.08122  -0.05337  -0.04934  -0.03962  -0.03012
  Beta virt. eigenvalues --   -0.02678  -0.02480  -0.01310  -0.00869  -0.00286
  Beta virt. eigenvalues --    0.00116   0.00216   0.00418   0.00781   0.00865

 Mulliken charges and spin densities:
               1          2
     1  Na  -0.151981   0.574904
     2  Na   0.047678  -0.001866
     3  Na   0.602003   0.485457
     4  Na  -0.186286   0.021384
     5  Na   0.176549   0.093422
     6  Na  -0.130151  -0.064427
     7  Na  -0.357812  -0.108873
 Sum of Mulliken charges =  -0.00000   1.00000

 Dipole moment (field-independent basis, Debye):
    X=             -0.1432    Y=             -0.0400    Z=             -0.3554  Tot=              0.3852
 Quadrupole moment (field-independent basis, Debye-Ang):
   XX=            -59.2897   YY=            -69.1584   ZZ=            -67.6291
   XY=             -0.1686   XZ=              1.1614   YZ=             -0.5072

 Normal termination of Gaussian 16 at Sun Dec  3 14:41:07 2023.
