 Gaussian 16, Revision B.01,
 Gaussian 16:  ES64L-G16RevB.01 20-Dec-2017

 -------------------------
 #P B3LYP/6-311+g(d) force
 -------------------------

 -----
 DPGEN
 -----
 Symbolic Z-matrix:
 Charge =  0 Multiplicity = 2

                         Standard orientation:
 ---------------------------------------------------------------------
 Center     Atomic      Atomic             Coordinates (Angstroms)
 Number     Number       Type             X           Y           Z
 ---------------------------------------------------------------------
      1         11           0       -3.524336   -2.014602    0.002843
      2         11           0       -0.414737    2.515603   -0.830395
      3         11           0       -3.266840    0.971711   -0.135126
      4         11           0        3.859627   -1.939961   -0.296345
      5         11           0        3.181734    1.347214   -0.086050
      6         11           0       -0.127540   -1.371872   -0.593071
      7         11           0        0.292091    0.491907    1.938145
 ---------------------------------------------------------------------

 SCF Done:  E(UB3LYP) =  -1136.11733216     A.U. after   23 cycles

 The electronic state is 2-A.
 Alpha  occ. eigenvalues --  -38.44737 -38.44565 -38.44292 -38.44084 -38.44074
 Alpha  occ. eigenvalues --  -38.43990 -38.43142  -2.20545  -2.20410  -2.20177
 Alpha  occ. eigenvalues --   -2.19969  -2.19912  -2.19771  -2.18987  -1.14242
 Alpha  occ. eigenvalues --   -1.14199  -1.14166  -1.14150  -1.14087  -1.13998
 Alpha  occ. eigenvalues --   -1.13839  -1.13807  -1.13771  -1.13757  -1.13638
 Alpha  occ. eigenvalues --   -1.13606  -1.13559  -1.13536  -1.13491  -1.13439
 Alpha  occ. eigenvalues --   -1.13427  -1.13404  -1.12669  -1.12649  -1.12614
 Alpha  occ. eigenvalues --   -0.17909  -0.14159  -0.11714  -0.10326
 Alpha virt. eigenvalues --   -0.06846  -0.06408  -0.03939  -0.03387  -0.02913
 Alpha virt. eigenvalues --   -0.02427  -0.02028  -0.01655  -0.01241  -0.00281
 Alpha virt. eigenvalues --   -0.00232   0.00022   0.00428   0.00508   0.00639

  Beta  occ. eigenvalues --  -38.44714 -38.44540 -38.44211 -38.44065 -38.44046
  Beta  occ. eigenvalues --  -38.43969 -38.43126  -2.20505  -2.20368  -2.20027
  Beta  occ. eigenvalues --   -2.19907  -2.19890  -2.19734  -2.18958  -1.14212
  Beta  occ. eigenvalues --   -1.14174  -1.14125  -1.14089  -1.14057  -1.13983
  Beta  occ. eigenvalues --   -1.13735  -1.13721  -1.13711  -1.13665  -1.13593
  Beta  occ. eigenvalues --   -1.13555  -1.13548  -1.13510  -1.13460  -1.13415
  Beta  occ. eigenvalues --   -1.13392  -1.13381  -1.12652  -1.12630  -1.12584
  Beta  occ. eigenvalues --   -0.17322  -0.13668  -0.11496
  Beta virt. eigenvalues --   -0.06854  -0.06604  -0.06098  -0.03764  -0.02833
  Beta virt. eigenvalues --   -0.02753  -0.01995  -0.01848  -0.01170  -0.01003
  Beta virt. eigenvalues --   -0.00198   0.00021   0.00193   0.00515   0.00596

 Mulliken charges and spin densities:
               1          2
     1  Na   0.726783  -0.012011
     2  Na   0.022388   0.089539
     3  Na  -0.016406   0.323885
     4  Na   0.252888   0.133772
     5  Na   0.101398   0.334462
     6  Na  -1.192185   0.019679
     7  Na   0.105133   0.110674
 Sum of Mulliken charges =  -0.00000   1.00000

 Dipole moment (field-independent basis, Debye):
    X=              0.0500    Y=             -0.1809    Z=              0.8433  Tot=              0.8640
 Quadrupole moment (field-independent basis, Debye-Ang):
   XX=            -66.2359   YY=            -68.3473   ZZ=            -68.2087
   XY=              3.2220   XZ=             -0.6745   YZ=              1.4427

 Normal termination of Gaussian 16 at Wed Nov 29 16:59:34 2023.
