 Gaussian 16, Revision B.01,
 Gaussian 16:  ES64L-G16RevB.01 20-Dec-2017

 -------------------------
 #P B3LYP/6-311+g(d) force
 -------------------------

 -----
 DPGEN
 -----
 Symbolic Z-matrix:
 Charge =  0 Multiplicity = 2

                         Standard orientation:
 ---------------------------------------------------------------------
 Center     Atomic      Atomic             Coordinates (Angstroms)
 Number     Number       Type             X           Y           Z
 ---------------------------------------------------------------------
      1         11           0        0.029094    0.441524   -1.416204
      2         11           0        0.035566   -2.220043   -0.898839
      3         11           0       -2.585809    0.006429   -0.633133
      4         11           0       -0.468382    2.325443    0.549534
      5         11           0        2.470020    0.940111   -0.586663
      6         11           0        1.587980   -1.033667    1.254373
      7         11           0       -1.068469   -0.459798    1.730931
 ---------------------------------------------------------------------

 SCF Done:  E(UB3LYP) =  -1136.08747453     A.U. after   25 cycles

 The electronic state is 2-A.
 Alpha  occ. eigenvalues --  -38.44195 -38.44189 -38.43953 -38.43917 -38.43907
 Alpha  occ. eigenvalues --  -38.43528 -38.43160  -2.20598  -2.20331  -2.20024
 Alpha  occ. eigenvalues --   -2.19970  -2.19953  -2.19579  -2.19175  -1.14593
 Alpha  occ. eigenvalues --   -1.14367  -1.14293  -1.14239  -1.14042  -1.13917
 Alpha  occ. eigenvalues --   -1.13841  -1.13703  -1.13687  -1.13616  -1.13544
 Alpha  occ. eigenvalues --   -1.13513  -1.13494  -1.13492  -1.13437  -1.13267
 Alpha  occ. eigenvalues --   -1.13178  -1.13117  -1.12893  -1.12834  -1.12728
 Alpha  occ. eigenvalues --   -0.21075  -0.13471  -0.12704  -0.12491
 Alpha virt. eigenvalues --   -0.04983  -0.04064  -0.04008  -0.03737  -0.03406
 Alpha virt. eigenvalues --   -0.03210  -0.00981  -0.00532  -0.00234   0.00366
 Alpha virt. eigenvalues --    0.00804   0.00876   0.01007   0.01067   0.01088

  Beta  occ. eigenvalues --  -38.44121 -38.44113 -38.43944 -38.43899 -38.43866
  Beta  occ. eigenvalues --  -38.43497 -38.43146  -2.20471  -2.20195  -2.19971
  Beta  occ. eigenvalues --   -2.19935  -2.19925  -2.19527  -2.19152  -1.14504
  Beta  occ. eigenvalues --   -1.14268  -1.14215  -1.14135  -1.13966  -1.13830
  Beta  occ. eigenvalues --   -1.13793  -1.13663  -1.13641  -1.13556  -1.13502
  Beta  occ. eigenvalues --   -1.13478  -1.13473  -1.13453  -1.13405  -1.13218
  Beta  occ. eigenvalues --   -1.13121  -1.13085  -1.12879  -1.12784  -1.12718
  Beta  occ. eigenvalues --   -0.20269  -0.13229  -0.12278
  Beta virt. eigenvalues --   -0.08291  -0.04945  -0.04028  -0.03748  -0.03059
  Beta virt. eigenvalues --   -0.02604  -0.02034  -0.00944  -0.00487  -0.00031
  Beta virt. eigenvalues --    0.00399   0.00832   0.00895   0.01031   0.01100

 Mulliken charges and spin densities:
               1          2
     1  Na  -0.865027   0.048323
     2  Na  -0.326167   0.139597
     3  Na   0.635283  -0.058543
     4  Na  -0.559773   0.223329
     5  Na   0.593807   0.042559
     6  Na   0.188981   0.203980
     7  Na   0.332894   0.400756
 Sum of Mulliken charges =  -0.00000   1.00000

 Dipole moment (field-independent basis, Debye):
    X=             -0.1784    Y=             -0.0619    Z=              0.2687  Tot=              0.3284
 Quadrupole moment (field-independent basis, Debye-Ang):
   XX=            -61.5806   YY=            -69.3978   ZZ=            -65.8574
   XY=              0.3175   XZ=              0.7170   YZ=              2.0331

 Normal termination of Gaussian 16 at Thu Dec  7 10:12:10 2023.
