 Gaussian 16, Revision B.01,
 Gaussian 16:  ES64L-G16RevB.01 20-Dec-2017

 -------------------------
 #P B3LYP/6-311+g(d) force
 -------------------------

 -----
 DPGEN
 -----
 Symbolic Z-matrix:
 Charge =  0 Multiplicity = 2

                         Standard orientation:
 ---------------------------------------------------------------------
 Center     Atomic      Atomic             Coordinates (Angstroms)
 Number     Number       Type             X           Y           Z
 ---------------------------------------------------------------------
      1         11           0       -0.287777    2.872798    0.262751
      2         11           0       -2.708342    0.667848   -0.884833
      3         11           0       -2.009833   -2.345246    0.406597
      4         11           0       -0.254082    0.254674    2.115450
      5         11           0        3.135675    0.540820    0.023955
      6         11           0        1.752432   -2.150468   -0.235916
      7         11           0        0.371928    0.159574   -1.688005
 ---------------------------------------------------------------------

 SCF Done:  E(UB3LYP) =  -1136.13345037     A.U. after   19 cycles

 The electronic state is 2-A.
 Alpha  occ. eigenvalues --  -38.44157 -38.43935 -38.43862 -38.43559 -38.43558
 Alpha  occ. eigenvalues --  -38.43240 -38.43044  -2.20024  -2.19828  -2.19743
 Alpha  occ. eigenvalues --   -2.19559  -2.19464  -2.19065  -2.18915  -1.13741
 Alpha  occ. eigenvalues --   -1.13694  -1.13649  -1.13494  -1.13465  -1.13461
 Alpha  occ. eigenvalues --   -1.13446  -1.13386  -1.13367  -1.13312  -1.13208
 Alpha  occ. eigenvalues --   -1.13176  -1.13115  -1.13090  -1.13065  -1.12735
 Alpha  occ. eigenvalues --   -1.12727  -1.12708  -1.12603  -1.12573  -1.12542
 Alpha  occ. eigenvalues --   -0.18806  -0.13322  -0.12170  -0.11300
 Alpha virt. eigenvalues --   -0.05529  -0.04837  -0.04506  -0.03519  -0.03047
 Alpha virt. eigenvalues --   -0.02945  -0.01481  -0.00933  -0.00229  -0.00025
 Alpha virt. eigenvalues --    0.00077   0.00365   0.00833   0.00908   0.00932

  Beta  occ. eigenvalues --  -38.44156 -38.43840 -38.43835 -38.43554 -38.43495
  Beta  occ. eigenvalues --  -38.43236 -38.43037  -2.20024  -2.19696  -2.19653
  Beta  occ. eigenvalues --   -2.19461  -2.19442  -2.19060  -2.18907  -1.13741
  Beta  occ. eigenvalues --   -1.13686  -1.13640  -1.13416  -1.13379  -1.13347
  Beta  occ. eigenvalues --   -1.13342  -1.13337  -1.13317  -1.13262  -1.13136
  Beta  occ. eigenvalues --   -1.13108  -1.13094  -1.13059  -1.13038  -1.12730
  Beta  occ. eigenvalues --   -1.12710  -1.12704  -1.12592  -1.12555  -1.12530
  Beta  occ. eigenvalues --   -0.18073  -0.13069  -0.11923
  Beta virt. eigenvalues --   -0.07345  -0.05474  -0.04818  -0.04422  -0.02782
  Beta virt. eigenvalues --   -0.02267  -0.01894  -0.01385  -0.00847  -0.00141
  Beta virt. eigenvalues --   -0.00059   0.00138   0.00399   0.00890   0.00920

 Mulliken charges and spin densities:
               1          2
     1  Na   0.113864   0.002260
     2  Na   0.237446   0.072609
     3  Na  -0.060201   0.003369
     4  Na  -0.481896   0.685647
     5  Na   0.144576  -0.027713
     6  Na   0.123477   0.016538
     7  Na  -0.077267   0.247289
 Sum of Mulliken charges =  -0.00000   1.00000

 Dipole moment (field-independent basis, Debye):
    X=              0.3160    Y=              0.1360    Z=              0.1612  Tot=              0.3799
 Quadrupole moment (field-independent basis, Debye-Ang):
   XX=            -58.3091   YY=            -65.4095   ZZ=            -71.5226
   XY=              0.7233   XZ=              1.7161   YZ=             -0.5422

 Normal termination of Gaussian 16 at Tue Dec  5 12:04:43 2023.
