 Gaussian 16, Revision B.01,
 Gaussian 16:  ES64L-G16RevB.01 20-Dec-2017

 -------------------------
 #P B3LYP/6-311+g(d) force
 -------------------------

 -----
 DPGEN
 -----
 Symbolic Z-matrix:
 Charge =  0 Multiplicity = 2

                         Standard orientation:
 ---------------------------------------------------------------------
 Center     Atomic      Atomic             Coordinates (Angstroms)
 Number     Number       Type             X           Y           Z
 ---------------------------------------------------------------------
      1         11           0        3.271121   -0.361313   -0.391242
      2         11           0       -2.430676   -1.711469   -0.397534
      3         11           0        0.908933   -2.854969    0.119747
      4         11           0       -0.041836    0.093022   -1.298140
      5         11           0        1.400997    2.963102    0.216498
      6         11           0       -0.666006    0.023051    2.320895
      7         11           0       -2.442533    1.848575   -0.570223
 ---------------------------------------------------------------------

 SCF Done:  E(UB3LYP) =  -1136.13380507     A.U. after   19 cycles

 The electronic state is 2-A.
 Alpha  occ. eigenvalues --  -38.44042 -38.43954 -38.43912 -38.43905 -38.43734
 Alpha  occ. eigenvalues --  -38.43454 -38.42928  -2.19811  -2.19804  -2.19745
 Alpha  occ. eigenvalues --   -2.19712  -2.19607  -2.19290  -2.18964  -1.13533
 Alpha  occ. eigenvalues --   -1.13488  -1.13474  -1.13453  -1.13450  -1.13418
 Alpha  occ. eigenvalues --   -1.13396  -1.13394  -1.13375  -1.13374  -1.13356
 Alpha  occ. eigenvalues --   -1.13342  -1.13324  -1.13256  -1.13226  -1.12973
 Alpha  occ. eigenvalues --   -1.12957  -1.12921  -1.12650  -1.12608  -1.12595
 Alpha  occ. eigenvalues --   -0.18312  -0.12851  -0.12392  -0.10755
 Alpha virt. eigenvalues --   -0.05688  -0.05203  -0.04928  -0.02918  -0.02865
 Alpha virt. eigenvalues --   -0.02702  -0.01445  -0.01314  -0.00651  -0.00436
 Alpha virt. eigenvalues --   -0.00040   0.00321   0.00785   0.00814   0.00845

  Beta  occ. eigenvalues --  -38.44042 -38.43939 -38.43909 -38.43793 -38.43724
  Beta  occ. eigenvalues --  -38.43452 -38.42887  -2.19812  -2.19779  -2.19708
  Beta  occ. eigenvalues --   -2.19593  -2.19536  -2.19288  -2.18893  -1.13510
  Beta  occ. eigenvalues --   -1.13478  -1.13473  -1.13452  -1.13426  -1.13396
  Beta  occ. eigenvalues --   -1.13383  -1.13372  -1.13341  -1.13313  -1.13256
  Beta  occ. eigenvalues --   -1.13242  -1.13223  -1.13213  -1.13199  -1.12972
  Beta  occ. eigenvalues --   -1.12945  -1.12917  -1.12597  -1.12554  -1.12536
  Beta  occ. eigenvalues --   -0.17624  -0.12612  -0.12230
  Beta virt. eigenvalues --   -0.06750  -0.05635  -0.05163  -0.04843  -0.02279
  Beta virt. eigenvalues --   -0.02153  -0.01584  -0.01335  -0.01243  -0.00653
  Beta virt. eigenvalues --   -0.00480   0.00153   0.00377   0.00808   0.00855

 Mulliken charges and spin densities:
               1          2
     1  Na   0.102876   0.015698
     2  Na   0.365043   0.079712
     3  Na   0.096715   0.064699
     4  Na  -0.177482  -0.011616
     5  Na  -0.052186   0.031561
     6  Na  -0.630096   0.764850
     7  Na   0.295131   0.055096
 Sum of Mulliken charges =  -0.00000   1.00000

 Dipole moment (field-independent basis, Debye):
    X=             -0.0611    Y=              0.1906    Z=              0.2164  Tot=              0.2948
 Quadrupole moment (field-independent basis, Debye-Ang):
   XX=            -57.8757   YY=            -60.2094   ZZ=            -74.8966
   XY=              0.2517   XZ=              1.1321   YZ=              0.2461

 Normal termination of Gaussian 16 at Fri Dec  8 01:29:28 2023.
