 Gaussian 16, Revision B.01,
 Gaussian 16:  ES64L-G16RevB.01 20-Dec-2017

 -------------------------
 #P B3LYP/6-311+g(d) force
 -------------------------

 -----
 DPGEN
 -----
 Symbolic Z-matrix:
 Charge =  0 Multiplicity = 2

                         Standard orientation:
 ---------------------------------------------------------------------
 Center     Atomic      Atomic             Coordinates (Angstroms)
 Number     Number       Type             X           Y           Z
 ---------------------------------------------------------------------
      1         11           0       -1.851227   -1.510396   -0.154142
      2         11           0       -5.117139   -1.994935   -0.196299
      3         11           0       -4.511267    2.019313   -1.185604
      4         11           0       -1.364131    2.061901    1.115491
      5         11           0        1.263397   -0.362149    1.494469
      6         11           0        4.266733   -0.308059   -0.278765
      7         11           0        7.313635    0.094325   -0.795149
 ---------------------------------------------------------------------

 SCF Done:  E(UB3LYP) =  -1136.11164535     A.U. after   21 cycles

 The electronic state is 2-A.
 Alpha  occ. eigenvalues --  -38.45405 -38.45390 -38.44910 -38.44326 -38.43973
 Alpha  occ. eigenvalues --  -38.43728 -38.43518  -2.21164  -2.21158  -2.20724
 Alpha  occ. eigenvalues --   -2.20115  -2.19759  -2.19537  -2.19327  -1.14849
 Alpha  occ. eigenvalues --   -1.14832  -1.14829  -1.14803  -1.14769  -1.14763
 Alpha  occ. eigenvalues --   -1.14419  -1.14389  -1.14328  -1.13780  -1.13772
 Alpha  occ. eigenvalues --   -1.13731  -1.13435  -1.13411  -1.13411  -1.13214
 Alpha  occ. eigenvalues --   -1.13210  -1.13165  -1.12995  -1.12993  -1.12957
 Alpha  occ. eigenvalues --   -0.16308  -0.13737  -0.12021  -0.11703
 Alpha virt. eigenvalues --   -0.06946  -0.05759  -0.04321  -0.03562  -0.03200
 Alpha virt. eigenvalues --   -0.02579  -0.02172  -0.01822  -0.01366  -0.01044
 Alpha virt. eigenvalues --   -0.00688  -0.00211   0.00089   0.00299   0.00427

  Beta  occ. eigenvalues --  -38.45350 -38.45335 -38.44865 -38.44288 -38.43968
  Beta  occ. eigenvalues --  -38.43722 -38.43519  -2.21090  -2.21029  -2.20642
  Beta  occ. eigenvalues --   -2.20046  -2.19748  -2.19526  -2.19330  -1.14801
  Beta  occ. eigenvalues --   -1.14785  -1.14742  -1.14710  -1.14692  -1.14679
  Beta  occ. eigenvalues --   -1.14364  -1.14333  -1.14259  -1.13730  -1.13716
  Beta  occ. eigenvalues --   -1.13690  -1.13429  -1.13404  -1.13404  -1.13207
  Beta  occ. eigenvalues --   -1.13197  -1.13161  -1.12997  -1.12995  -1.12955
  Beta  occ. eigenvalues --   -0.15638  -0.13465  -0.11658
  Beta virt. eigenvalues --   -0.08066  -0.06671  -0.05335  -0.04022  -0.03237
  Beta virt. eigenvalues --   -0.02635  -0.02462  -0.02009  -0.01604  -0.01009
  Beta virt. eigenvalues --   -0.00868  -0.00387  -0.00050   0.00246   0.00380

 Mulliken charges and spin densities:
               1          2
     1  Na  -0.744192   0.511183
     2  Na   0.728941  -0.090050
     3  Na   0.123143   0.274422
     4  Na   0.061479   0.245847
     5  Na  -0.595568   0.107655
     6  Na  -0.190466  -0.051864
     7  Na   0.616663   0.002808
 Sum of Mulliken charges =  -0.00000   1.00000

 Dipole moment (field-independent basis, Debye):
    X=             -1.7212    Y=              0.5963    Z=              0.0605  Tot=              1.8226
 Quadrupole moment (field-independent basis, Debye-Ang):
   XX=            -57.6450   YY=            -68.3993   ZZ=            -70.4309
   XY=             -0.0340   XZ=              0.5441   YZ=             -0.5050

 Normal termination of Gaussian 16 at Wed Nov 29 02:25:36 2023.
