 Gaussian 16, Revision B.01,
 Gaussian 16:  ES64L-G16RevB.01 20-Dec-2017

 -------------------------
 #P B3LYP/6-311+g(d) force
 -------------------------

 -----
 DPGEN
 -----
 Symbolic Z-matrix:
 Charge =  0 Multiplicity = 2

                         Standard orientation:
 ---------------------------------------------------------------------
 Center     Atomic      Atomic             Coordinates (Angstroms)
 Number     Number       Type             X           Y           Z
 ---------------------------------------------------------------------
      1         11           0        1.093542    3.342922    0.084374
      2         11           0        2.684432    0.404015   -1.295076
      3         11           0       -2.376690    1.881011    0.221673
      4         11           0       -2.265030   -2.096904    0.746878
      5         11           0        4.274194   -0.710889    1.389442
      6         11           0       -4.904496   -0.348952   -0.215391
      7         11           0        1.494049   -2.471203   -0.931900
 ---------------------------------------------------------------------

 SCF Done:  E(UB3LYP) =  -1136.11221406     A.U. after   21 cycles

 The electronic state is 2-A.
 Alpha  occ. eigenvalues --  -38.45062 -38.44636 -38.44631 -38.44586 -38.44523
 Alpha  occ. eigenvalues --  -38.44033 -38.42899  -2.20831  -2.20444  -2.20429
 Alpha  occ. eigenvalues --   -2.20400  -2.20350  -2.19843  -2.18668  -1.14525
 Alpha  occ. eigenvalues --   -1.14501  -1.14456  -1.14154  -1.14132  -1.14109
 Alpha  occ. eigenvalues --   -1.14090  -1.14088  -1.14075  -1.14060  -1.14039
 Alpha  occ. eigenvalues --   -1.14013  -1.14001  -1.13990  -1.13951  -1.13535
 Alpha  occ. eigenvalues --   -1.13496  -1.13448  -1.12341  -1.12330  -1.12309
 Alpha  occ. eigenvalues --   -0.16230  -0.14639  -0.11770  -0.10493
 Alpha virt. eigenvalues --   -0.06720  -0.06317  -0.04396  -0.03417  -0.03140
 Alpha virt. eigenvalues --   -0.02231  -0.01906  -0.01718  -0.01430  -0.00642
 Alpha virt. eigenvalues --   -0.00463  -0.00317   0.00294   0.00478   0.00578

  Beta  occ. eigenvalues --  -38.45049 -38.44634 -38.44589 -38.44531 -38.44491
  Beta  occ. eigenvalues --  -38.43998 -38.42895  -2.20808  -2.20437  -2.20398
  Beta  occ. eigenvalues --   -2.20290  -2.20258  -2.19779  -2.18661  -1.14513
  Beta  occ. eigenvalues --   -1.14488  -1.14418  -1.14142  -1.14118  -1.14109
  Beta  occ. eigenvalues --   -1.14088  -1.14055  -1.14013  -1.13959  -1.13957
  Beta  occ. eigenvalues --   -1.13955  -1.13952  -1.13921  -1.13915  -1.13494
  Beta  occ. eigenvalues --   -1.13453  -1.13391  -1.12336  -1.12325  -1.12303
  Beta  occ. eigenvalues --   -0.15771  -0.14248  -0.11435
  Beta virt. eigenvalues --   -0.07055  -0.06373  -0.05950  -0.04168  -0.03216
  Beta virt. eigenvalues --   -0.02799  -0.01806  -0.01733  -0.01269  -0.01176
  Beta virt. eigenvalues --   -0.00555  -0.00149  -0.00032   0.00409   0.00531

 Mulliken charges and spin densities:
               1          2
     1  Na   0.064249  -0.013286
     2  Na   0.315383   0.212125
     3  Na  -0.542099   0.052847
     4  Na  -0.226275   0.113197
     5  Na  -0.055259   0.389075
     6  Na   0.742050   0.120130
     7  Na  -0.298049   0.125912
 Sum of Mulliken charges =  -0.00000   1.00000

 Dipole moment (field-independent basis, Debye):
    X=             -1.1224    Y=             -0.9791    Z=              0.3371  Tot=              1.5271
 Quadrupole moment (field-independent basis, Debye-Ang):
   XX=            -58.7434   YY=            -73.4236   ZZ=            -67.1606
   XY=              1.5894   XZ=              0.9784   YZ=             -1.2847

 Normal termination of Gaussian 16 at Mon Dec  4 00:44:18 2023.
