 Gaussian 16, Revision B.01,
 Gaussian 16:  ES64L-G16RevB.01 20-Dec-2017

 -------------------------
 #P B3LYP/6-311+g(d) force
 -------------------------

 -----
 DPGEN
 -----
 Symbolic Z-matrix:
 Charge =  0 Multiplicity = 2

                         Standard orientation:
 ---------------------------------------------------------------------
 Center     Atomic      Atomic             Coordinates (Angstroms)
 Number     Number       Type             X           Y           Z
 ---------------------------------------------------------------------
      1         11           0       -3.165540   -1.981250    0.517649
      2         11           0        0.046134    0.028919    1.825061
      3         11           0        2.096443    1.047691   -1.115072
      4         11           0        0.129009   -1.644020   -1.438287
      5         11           0       -1.635275    1.189832   -1.400230
      6         11           0       -0.430911    3.047435    0.878935
      7         11           0        2.960140   -1.688607    0.731945
 ---------------------------------------------------------------------

 SCF Done:  E(UB3LYP) =  -1136.13318172     A.U. after   21 cycles

 The electronic state is 2-A.
 Alpha  occ. eigenvalues --  -38.43991 -38.43893 -38.43793 -38.43792 -38.43792
 Alpha  occ. eigenvalues --  -38.43542 -38.43106  -2.19865  -2.19797  -2.19677
 Alpha  occ. eigenvalues --   -2.19621  -2.19544  -2.19434  -2.18979  -1.13573
 Alpha  occ. eigenvalues --   -1.13531  -1.13476  -1.13470  -1.13454  -1.13413
 Alpha  occ. eigenvalues --   -1.13385  -1.13348  -1.13282  -1.13281  -1.13280
 Alpha  occ. eigenvalues --   -1.13253  -1.13216  -1.13214  -1.13169  -1.13142
 Alpha  occ. eigenvalues --   -1.13094  -1.13017  -1.12656  -1.12638  -1.12601
 Alpha  occ. eigenvalues --   -0.18454  -0.12776  -0.11997  -0.11462
 Alpha virt. eigenvalues --   -0.05516  -0.05267  -0.04367  -0.03280  -0.03096
 Alpha virt. eigenvalues --   -0.02891  -0.01480  -0.01261  -0.00571   0.00097
 Alpha virt. eigenvalues --    0.00314   0.00361   0.00594   0.00742   0.00799

  Beta  occ. eigenvalues --  -38.43961 -38.43818 -38.43788 -38.43783 -38.43760
  Beta  occ. eigenvalues --  -38.43505 -38.43095  -2.19812  -2.19659  -2.19621
  Beta  occ. eigenvalues --   -2.19604  -2.19538  -2.19371  -2.18961  -1.13531
  Beta  occ. eigenvalues --   -1.13474  -1.13442  -1.13384  -1.13352  -1.13335
  Beta  occ. eigenvalues --   -1.13315  -1.13303  -1.13269  -1.13253  -1.13242
  Beta  occ. eigenvalues --   -1.13239  -1.13210  -1.13205  -1.13166  -1.13097
  Beta  occ. eigenvalues --   -1.13026  -1.12978  -1.12635  -1.12620  -1.12585
  Beta  occ. eigenvalues --   -0.17636  -0.12603  -0.11819
  Beta virt. eigenvalues --   -0.07497  -0.05332  -0.05099  -0.04131  -0.02825
  Beta virt. eigenvalues --   -0.02554  -0.01967  -0.01376  -0.01095  -0.00275
  Beta virt. eigenvalues --    0.00074   0.00376   0.00402   0.00714   0.00791

 Mulliken charges and spin densities:
               1          2
     1  Na  -0.117716  -0.171208
     2  Na  -0.401575   0.822121
     3  Na  -0.105258   0.190385
     4  Na  -0.068995   0.229888
     5  Na   0.065998   0.234151
     6  Na   0.299052  -0.177051
     7  Na   0.328493  -0.128286
 Sum of Mulliken charges =  -0.00000   1.00000

 Dipole moment (field-independent basis, Debye):
    X=              0.3920    Y=             -0.0482    Z=              0.0386  Tot=              0.3968
 Quadrupole moment (field-independent basis, Debye-Ang):
   XX=            -60.4124   YY=            -65.1663   ZZ=            -68.3935
   XY=             -1.2586   XZ=             -0.3340   YZ=             -1.9709

 Normal termination of Gaussian 16 at Tue Dec  5 21:23:58 2023.
