 Gaussian 16, Revision B.01,
 Gaussian 16:  ES64L-G16RevB.01 20-Dec-2017

 -------------------------
 #P B3LYP/6-311+g(d) force
 -------------------------

 -----
 DPGEN
 -----
 Symbolic Z-matrix:
 Charge =  0 Multiplicity = 2

                         Standard orientation:
 ---------------------------------------------------------------------
 Center     Atomic      Atomic             Coordinates (Angstroms)
 Number     Number       Type             X           Y           Z
 ---------------------------------------------------------------------
      1         11           0       -1.601753    1.689404   -0.953812
      2         11           0       -3.818004   -0.284859    0.579191
      3         11           0        1.445296   -0.048593   -1.857294
      4         11           0       -0.164388    0.131334    2.178258
      5         11           0       -1.270910   -1.655576   -0.896249
      6         11           0        2.491421    2.072960    0.433796
      7         11           0        2.918337   -1.904670    0.516110
 ---------------------------------------------------------------------

 SCF Done:  E(UB3LYP) =  -1136.12164388     A.U. after   29 cycles

 The electronic state is 2-A.
 Alpha  occ. eigenvalues --  -38.45158 -38.44801 -38.44174 -38.44058 -38.43523
 Alpha  occ. eigenvalues --  -38.43448 -38.43235  -2.20987  -2.20609  -2.19960
 Alpha  occ. eigenvalues --   -2.19924  -2.19444  -2.19248  -2.19129  -1.14654
 Alpha  occ. eigenvalues --   -1.14648  -1.14622  -1.14288  -1.14245  -1.14222
 Alpha  occ. eigenvalues --   -1.13638  -1.13626  -1.13610  -1.13594  -1.13576
 Alpha  occ. eigenvalues --   -1.13535  -1.13151  -1.13108  -1.13055  -1.12927
 Alpha  occ. eigenvalues --   -1.12901  -1.12884  -1.12834  -1.12803  -1.12731
 Alpha  occ. eigenvalues --   -0.18376  -0.13949  -0.11574  -0.10633
 Alpha virt. eigenvalues --   -0.06764  -0.05506  -0.04572  -0.03237  -0.02755
 Alpha virt. eigenvalues --   -0.02531  -0.02258  -0.01187  -0.00768  -0.00133
 Alpha virt. eigenvalues --    0.00133   0.00205   0.00316   0.00588   0.00634

  Beta  occ. eigenvalues --  -38.45151 -38.44731 -38.44157 -38.44021 -38.43473
  Beta  occ. eigenvalues --  -38.43454 -38.43218  -2.20975  -2.20479  -2.19929
  Beta  occ. eigenvalues --   -2.19859  -2.19356  -2.19261  -2.19103  -1.14644
  Beta  occ. eigenvalues --   -1.14640  -1.14609  -1.14202  -1.14150  -1.14128
  Beta  occ. eigenvalues --   -1.13615  -1.13585  -1.13578  -1.13574  -1.13512
  Beta  occ. eigenvalues --   -1.13494  -1.13086  -1.13059  -1.12982  -1.12921
  Beta  occ. eigenvalues --   -1.12904  -1.12890  -1.12813  -1.12753  -1.12721
  Beta  occ. eigenvalues --   -0.17581  -0.13810  -0.10462
  Beta virt. eigenvalues --   -0.07660  -0.06486  -0.05348  -0.04041  -0.02788
  Beta virt. eigenvalues --   -0.02345  -0.02039  -0.01880  -0.00949  -0.00517
  Beta virt. eigenvalues --   -0.00037   0.00191   0.00210   0.00440   0.00644

 Mulliken charges and spin densities:
               1          2
     1  Na  -0.029540   0.075116
     2  Na   0.397022   0.091766
     3  Na   0.383624   0.207596
     4  Na  -0.467578   0.584618
     5  Na  -0.186734   0.078639
     6  Na  -0.046088  -0.098050
     7  Na  -0.050704   0.060315
 Sum of Mulliken charges =  -0.00000   1.00000

 Dipole moment (field-independent basis, Debye):
    X=             -1.0731    Y=              0.0157    Z=              0.6637  Tot=              1.2619
 Quadrupole moment (field-independent basis, Debye-Ang):
   XX=            -48.1233   YY=            -76.9443   ZZ=            -69.1821
   XY=             -0.2099   XZ=             -0.5477   YZ=             -5.2023

 Normal termination of Gaussian 16 at Thu Dec  7 05:31:19 2023.
