 Gaussian 16, Revision B.01,
 Gaussian 16:  ES64L-G16RevB.01 20-Dec-2017

 -------------------------
 #P B3LYP/6-311+g(d) force
 -------------------------

 -----
 DPGEN
 -----
 Symbolic Z-matrix:
 Charge =  0 Multiplicity = 2

                         Standard orientation:
 ---------------------------------------------------------------------
 Center     Atomic      Atomic             Coordinates (Angstroms)
 Number     Number       Type             X           Y           Z
 ---------------------------------------------------------------------
      1         11           0        0.311896   -2.750838   -0.409473
      2         11           0       -0.298441   -0.360931    2.308396
      3         11           0        2.860236   -0.816334   -0.133684
      4         11           0       -2.781931   -1.200750   -0.067240
      5         11           0        1.995669    2.400472    0.120084
      6         11           0       -1.894433    2.656117   -0.247680
      7         11           0       -0.192997    0.072264   -1.570404
 ---------------------------------------------------------------------

 SCF Done:  E(UB3LYP) =  -1136.13532489     A.U. after   19 cycles

 The electronic state is 2-A.
 Alpha  occ. eigenvalues --  -38.44080 -38.43950 -38.43876 -38.43841 -38.43413
 Alpha  occ. eigenvalues --  -38.43310 -38.43182  -2.19924  -2.19737  -2.19726
 Alpha  occ. eigenvalues --   -2.19644  -2.19283  -2.19230  -2.19183  -1.13573
 Alpha  occ. eigenvalues --   -1.13550  -1.13547  -1.13427  -1.13420  -1.13395
 Alpha  occ. eigenvalues --   -1.13387  -1.13371  -1.13350  -1.13323  -1.13314
 Alpha  occ. eigenvalues --   -1.13280  -1.13034  -1.12965  -1.12944  -1.12934
 Alpha  occ. eigenvalues --   -1.12871  -1.12843  -1.12828  -1.12803  -1.12781
 Alpha  occ. eigenvalues --   -0.18548  -0.12803  -0.12532  -0.10998
 Alpha virt. eigenvalues --   -0.05675  -0.05030  -0.04775  -0.03161  -0.02935
 Alpha virt. eigenvalues --   -0.02897  -0.01308  -0.01249  -0.00440  -0.00278
 Alpha virt. eigenvalues --   -0.00047   0.00346   0.00817   0.00857   0.00901

  Beta  occ. eigenvalues --  -38.43971 -38.43948 -38.43870 -38.43840 -38.43410
  Beta  occ. eigenvalues --  -38.43297 -38.43126  -2.19735  -2.19722  -2.19719
  Beta  occ. eigenvalues --   -2.19645  -2.19281  -2.19210  -2.19083  -1.13446
  Beta  occ. eigenvalues --   -1.13417  -1.13412  -1.13408  -1.13401  -1.13389
  Beta  occ. eigenvalues --   -1.13372  -1.13353  -1.13350  -1.13324  -1.13303
  Beta  occ. eigenvalues --   -1.13283  -1.13017  -1.12948  -1.12936  -1.12915
  Beta  occ. eigenvalues --   -1.12834  -1.12818  -1.12781  -1.12733  -1.12714
  Beta  occ. eigenvalues --   -0.17822  -0.12596  -0.12319
  Beta virt. eigenvalues --   -0.06988  -0.05663  -0.04958  -0.04740  -0.02370
  Beta virt. eigenvalues --   -0.02216  -0.01779  -0.01230  -0.01178  -0.00477
  Beta virt. eigenvalues --   -0.00331   0.00130   0.00386   0.00837   0.00893

 Mulliken charges and spin densities:
               1          2
     1  Na   0.525160   0.115118
     2  Na  -0.715741   0.754232
     3  Na   0.023177   0.011946
     4  Na   0.326448   0.015591
     5  Na  -0.005698  -0.006090
     6  Na   0.021169  -0.054557
     7  Na  -0.174516   0.163759
 Sum of Mulliken charges =  -0.00000   1.00000

 Dipole moment (field-independent basis, Debye):
    X=             -0.2945    Y=              0.2062    Z=              0.2805  Tot=              0.4560
 Quadrupole moment (field-independent basis, Debye-Ang):
   XX=            -59.6068   YY=            -61.4049   ZZ=            -73.4557
   XY=              0.1619   XZ=              0.3112   YZ=              1.0569

 Normal termination of Gaussian 16 at Thu Dec  7 21:22:41 2023.
