 Gaussian 16, Revision B.01,
 Gaussian 16:  ES64L-G16RevB.01 20-Dec-2017

 -------------------------
 #P B3LYP/6-311+g(d) force
 -------------------------

 -----
 DPGEN
 -----
 Symbolic Z-matrix:
 Charge =  0 Multiplicity = 2

                         Standard orientation:
 ---------------------------------------------------------------------
 Center     Atomic      Atomic             Coordinates (Angstroms)
 Number     Number       Type             X           Y           Z
 ---------------------------------------------------------------------
      1         11           0       -2.828379   -0.986669   -0.172497
      2         11           0        0.021336   -0.541168    1.819908
      3         11           0        2.904503   -0.801425   -0.033334
      4         11           0        1.575137    2.349714    0.053122
      5         11           0       -1.724846    2.106655    0.389807
      6         11           0        0.170990   -2.662555   -0.294988
      7         11           0       -0.118742    0.535447   -1.762020
 ---------------------------------------------------------------------

 SCF Done:  E(UB3LYP) =  -1136.13728352     A.U. after   18 cycles

 The electronic state is 2-A.
 Alpha  occ. eigenvalues --  -38.43695 -38.43621 -38.43380 -38.43352 -38.43314
 Alpha  occ. eigenvalues --  -38.43303 -38.43242  -2.19562  -2.19497  -2.19309
 Alpha  occ. eigenvalues --   -2.19302  -2.19260  -2.19246  -2.19230  -1.13244
 Alpha  occ. eigenvalues --   -1.13232  -1.13211  -1.13185  -1.13164  -1.13154
 Alpha  occ. eigenvalues --   -1.13097  -1.13088  -1.13006  -1.12990  -1.12947
 Alpha  occ. eigenvalues --   -1.12935  -1.12910  -1.12900  -1.12891  -1.12870
 Alpha  occ. eigenvalues --   -1.12862  -1.12837  -1.12834  -1.12831  -1.12819
 Alpha  occ. eigenvalues --   -0.19355  -0.13086  -0.12859  -0.10921
 Alpha virt. eigenvalues --   -0.05315  -0.05006  -0.04652  -0.03214  -0.03096
 Alpha virt. eigenvalues --   -0.02450  -0.01335  -0.00952  -0.00067  -0.00036
 Alpha virt. eigenvalues --    0.00024   0.00375   0.00885   0.00956   0.00959

  Beta  occ. eigenvalues --  -38.43692 -38.43615 -38.43368 -38.43346 -38.43293
  Beta  occ. eigenvalues --  -38.43236 -38.43169  -2.19559  -2.19490  -2.19290
  Beta  occ. eigenvalues --   -2.19251  -2.19218  -2.19157  -2.19115  -1.13241
  Beta  occ. eigenvalues --   -1.13223  -1.13195  -1.13180  -1.13154  -1.13127
  Beta  occ. eigenvalues --   -1.13066  -1.13035  -1.12979  -1.12940  -1.12928
  Beta  occ. eigenvalues --   -1.12883  -1.12866  -1.12859  -1.12843  -1.12834
  Beta  occ. eigenvalues --   -1.12804  -1.12791  -1.12764  -1.12753  -1.12740
  Beta  occ. eigenvalues --   -0.18599  -0.12834  -0.12606
  Beta virt. eigenvalues --   -0.06959  -0.05303  -0.05005  -0.04593  -0.02399
  Beta virt. eigenvalues --   -0.02298  -0.01395  -0.01264  -0.00885  -0.00097
  Beta virt. eigenvalues --   -0.00071   0.00132   0.00396   0.00931   0.00949

 Mulliken charges and spin densities:
               1          2
     1  Na   0.184911  -0.051908
     2  Na  -0.538067   0.618451
     3  Na   0.101943  -0.088142
     4  Na   0.266743  -0.049348
     5  Na   0.244978   0.000694
     6  Na   0.268069  -0.034838
     7  Na  -0.528576   0.605091
 Sum of Mulliken charges =  -0.00000   1.00000

 Dipole moment (field-independent basis, Debye):
    X=              0.0223    Y=             -0.0536    Z=              0.0254  Tot=              0.0634
 Quadrupole moment (field-independent basis, Debye-Ang):
   XX=            -57.5822   YY=            -63.5285   ZZ=            -73.0148
   XY=              0.3405   XZ=             -0.1609   YZ=              2.1490

 Normal termination of Gaussian 16 at Fri Dec  8 03:38:38 2023.
