 Gaussian 16, Revision B.01,
 Gaussian 16:  ES64L-G16RevB.01 20-Dec-2017

 -------------------------
 #P B3LYP/6-311+g(d) force
 -------------------------

 -----
 DPGEN
 -----
 Symbolic Z-matrix:
 Charge =  0 Multiplicity = 2

                         Standard orientation:
 ---------------------------------------------------------------------
 Center     Atomic      Atomic             Coordinates (Angstroms)
 Number     Number       Type             X           Y           Z
 ---------------------------------------------------------------------
      1         11           0        3.038594    1.120790   -0.310663
      2         11           0        1.817598   -2.144474    0.203814
      3         11           0        0.214974   -0.308606    2.029125
      4         11           0       -3.169851    0.885496    0.070473
      5         11           0        0.149938   -0.143238   -1.747608
      6         11           0       -1.821173   -2.213970   -0.355943
      7         11           0       -0.230081    2.804003    0.110801
 ---------------------------------------------------------------------

 SCF Done:  E(UB3LYP) =  -1136.13672276     A.U. after   19 cycles

 The electronic state is 2-A.
 Alpha  occ. eigenvalues --  -38.44090 -38.44082 -38.43758 -38.43430 -38.43429
 Alpha  occ. eigenvalues --  -38.43376 -38.43201  -2.19903  -2.19897  -2.19674
 Alpha  occ. eigenvalues --   -2.19400  -2.19345  -2.19250  -2.19031  -1.13580
 Alpha  occ. eigenvalues --   -1.13567  -1.13557  -1.13555  -1.13547  -1.13545
 Alpha  occ. eigenvalues --   -1.13393  -1.13309  -1.13280  -1.13123  -1.13063
 Alpha  occ. eigenvalues --   -1.13050  -1.13017  -1.12968  -1.12947  -1.12910
 Alpha  occ. eigenvalues --   -1.12903  -1.12865  -1.12712  -1.12707  -1.12654
 Alpha  occ. eigenvalues --   -0.18740  -0.13103  -0.12335  -0.10964
 Alpha virt. eigenvalues --   -0.05787  -0.05161  -0.04396  -0.03267  -0.02915
 Alpha virt. eigenvalues --   -0.02707  -0.01651  -0.01063  -0.00254  -0.00230
 Alpha virt. eigenvalues --   -0.00022   0.00344   0.00791   0.00892   0.00912

  Beta  occ. eigenvalues --  -38.44092 -38.44075 -38.43663 -38.43417 -38.43366
  Beta  occ. eigenvalues --  -38.43358 -38.43197  -2.19902  -2.19892  -2.19501
  Beta  occ. eigenvalues --   -2.19328  -2.19271  -2.19235  -2.19027  -1.13568
  Beta  occ. eigenvalues --   -1.13561  -1.13555  -1.13548  -1.13543  -1.13541
  Beta  occ. eigenvalues --   -1.13285  -1.13184  -1.13161  -1.13062  -1.13004
  Beta  occ. eigenvalues --   -1.12964  -1.12963  -1.12941  -1.12907  -1.12886
  Beta  occ. eigenvalues --   -1.12860  -1.12856  -1.12710  -1.12687  -1.12652
  Beta  occ. eigenvalues --   -0.18002  -0.12874  -0.12074
  Beta virt. eigenvalues --   -0.07025  -0.05744  -0.05144  -0.04353  -0.02501
  Beta virt. eigenvalues --   -0.02125  -0.01644  -0.01561  -0.01006  -0.00288
  Beta virt. eigenvalues --   -0.00264   0.00109   0.00372   0.00861   0.00886

 Mulliken charges and spin densities:
               1          2
     1  Na   0.070684  -0.069455
     2  Na   0.492120  -0.005368
     3  Na  -0.450074   0.702510
     4  Na  -0.117238  -0.079033
     5  Na  -0.224800   0.581052
     6  Na   0.285542  -0.045482
     7  Na  -0.056233  -0.084224
 Sum of Mulliken charges =  -0.00000   1.00000

 Dipole moment (field-independent basis, Debye):
    X=              0.0642    Y=              0.0604    Z=              0.0786  Tot=              0.1181
 Quadrupole moment (field-independent basis, Debye-Ang):
   XX=            -54.9697   YY=            -65.6464   ZZ=            -73.3737
   XY=              0.4174   XZ=             -0.5320   YZ=              0.3871

 Normal termination of Gaussian 16 at Thu Dec  7 18:19:17 2023.
