 Gaussian 16, Revision B.01,
 Gaussian 16:  ES64L-G16RevB.01 20-Dec-2017

 -------------------------
 #P B3LYP/6-311+g(d) force
 -------------------------

 -----
 DPGEN
 -----
 Symbolic Z-matrix:
 Charge =  0 Multiplicity = 2

                         Standard orientation:
 ---------------------------------------------------------------------
 Center     Atomic      Atomic             Coordinates (Angstroms)
 Number     Number       Type             X           Y           Z
 ---------------------------------------------------------------------
      1         11           0        2.758713   -0.431480    0.690567
      2         11           0        3.203262    2.963080   -0.281991
      3         11           0       -3.659156    0.421622    0.535519
      4         11           0        4.903930   -2.666188   -0.402004
      5         11           0       -6.587535   -0.823520   -0.459001
      6         11           0        0.040148    1.780055   -0.213453
      7         11           0       -0.659361   -1.243569    0.130364
 ---------------------------------------------------------------------

 SCF Done:  E(UB3LYP) =  -1136.11400017     A.U. after   23 cycles

 The electronic state is 2-A.
 Alpha  occ. eigenvalues --  -38.45544 -38.45011 -38.44850 -38.44227 -38.43900
 Alpha  occ. eigenvalues --  -38.43288 -38.43084  -2.21407  -2.20806  -2.20672
 Alpha  occ. eigenvalues --   -2.20033  -2.19774  -2.19045  -2.18952  -1.15082
 Alpha  occ. eigenvalues --   -1.15058  -1.15006  -1.14443  -1.14442  -1.14430
 Alpha  occ. eigenvalues --   -1.14316  -1.14307  -1.14290  -1.13727  -1.13716
 Alpha  occ. eigenvalues --   -1.13668  -1.13483  -1.13453  -1.13391  -1.12728
 Alpha  occ. eigenvalues --   -1.12716  -1.12710  -1.12657  -1.12634  -1.12534
 Alpha  occ. eigenvalues --   -0.17205  -0.14265  -0.12049  -0.11408
 Alpha virt. eigenvalues --   -0.06483  -0.05384  -0.04794  -0.03666  -0.02968
 Alpha virt. eigenvalues --   -0.02639  -0.02209  -0.01495  -0.01013  -0.00927
 Alpha virt. eigenvalues --   -0.00576  -0.00191  -0.00089   0.00460   0.00602

  Beta  occ. eigenvalues --  -38.45476 -38.44922 -38.44768 -38.44232 -38.43895
  Beta  occ. eigenvalues --  -38.43311 -38.43073  -2.21283  -2.20640  -2.20518
  Beta  occ. eigenvalues --   -2.20051  -2.19772  -2.19089  -2.18933  -1.15001
  Beta  occ. eigenvalues --   -1.14974  -1.14915  -1.14331  -1.14329  -1.14321
  Beta  occ. eigenvalues --   -1.14211  -1.14200  -1.14191  -1.13745  -1.13735
  Beta  occ. eigenvalues --   -1.13630  -1.13476  -1.13458  -1.13354  -1.12754
  Beta  occ. eigenvalues --   -1.12745  -1.12737  -1.12627  -1.12616  -1.12537
  Beta  occ. eigenvalues --   -0.16531  -0.13456  -0.11201
  Beta virt. eigenvalues --   -0.08650  -0.06166  -0.04887  -0.04538  -0.03346
  Beta virt. eigenvalues --   -0.02585  -0.02365  -0.01739  -0.01360  -0.00862
  Beta virt. eigenvalues --   -0.00515  -0.00332  -0.00111   0.00017   0.00554

 Mulliken charges and spin densities:
               1          2
     1  Na  -0.245395   0.058139
     2  Na   1.046849   0.205134
     3  Na   0.113702   0.187960
     4  Na   0.135503  -0.131176
     5  Na   0.158089   0.303407
     6  Na  -1.034441   0.179958
     7  Na  -0.174307   0.196578
 Sum of Mulliken charges =  -0.00000   1.00000

 Dipole moment (field-independent basis, Debye):
    X=             -1.3478    Y=              0.6964    Z=             -0.5125  Tot=              1.6013
 Quadrupole moment (field-independent basis, Debye-Ang):
   XX=            -60.1173   YY=            -66.1876   ZZ=            -72.0636
   XY=              8.1751   XZ=             -0.6609   YZ=              1.8879

 Normal termination of Gaussian 16 at Wed Nov 29 03:19:15 2023.
