 Gaussian 16, Revision B.01,
 Gaussian 16:  ES64L-G16RevB.01 20-Dec-2017

 -------------------------
 #P B3LYP/6-311+g(d) force
 -------------------------

 -----
 DPGEN
 -----
 Symbolic Z-matrix:
 Charge =  0 Multiplicity = 2

                         Standard orientation:
 ---------------------------------------------------------------------
 Center     Atomic      Atomic             Coordinates (Angstroms)
 Number     Number       Type             X           Y           Z
 ---------------------------------------------------------------------
      1         11           0        1.511280   -1.823583   -0.739762
      2         11           0       -1.678041    2.189502   -0.244125
      3         11           0       -3.667248   -0.347984    0.980920
      4         11           0       -1.464640   -1.112419   -1.585415
      5         11           0        3.692535    0.227092    1.228832
      6         11           0        1.831824    1.400617   -1.201826
      7         11           0       -0.225710   -0.533224    1.561376
 ---------------------------------------------------------------------

 SCF Done:  E(UB3LYP) =  -1136.12316254     A.U. after   25 cycles

 The electronic state is 2-A.
 Alpha  occ. eigenvalues --  -38.44936 -38.44742 -38.44505 -38.43925 -38.43366
 Alpha  occ. eigenvalues --  -38.43061 -38.42500  -2.20771  -2.20644  -2.20324
 Alpha  occ. eigenvalues --   -2.19797  -2.19213  -2.18980  -2.18451  -1.14445
 Alpha  occ. eigenvalues --   -1.14419  -1.14397  -1.14350  -1.14294  -1.14258
 Alpha  occ. eigenvalues --   -1.13991  -1.13977  -1.13960  -1.13472  -1.13457
 Alpha  occ. eigenvalues --   -1.13428  -1.12898  -1.12887  -1.12828  -1.12673
 Alpha  occ. eigenvalues --   -1.12628  -1.12613  -1.12150  -1.12130  -1.12049
 Alpha  occ. eigenvalues --   -0.18683  -0.14333  -0.11378  -0.10814
 Alpha virt. eigenvalues --   -0.06839  -0.05279  -0.04608  -0.03139  -0.02766
 Alpha virt. eigenvalues --   -0.02371  -0.02231  -0.01268  -0.00611  -0.00153
 Alpha virt. eigenvalues --    0.00116   0.00231   0.00401   0.00676   0.00740

  Beta  occ. eigenvalues --  -38.44909 -38.44708 -38.44482 -38.43891 -38.43337
  Beta  occ. eigenvalues --  -38.43033 -38.42493  -2.20721  -2.20582  -2.20281
  Beta  occ. eigenvalues --   -2.19737  -2.19163  -2.18931  -2.18442  -1.14403
  Beta  occ. eigenvalues --   -1.14384  -1.14367  -1.14298  -1.14255  -1.14207
  Beta  occ. eigenvalues --   -1.13965  -1.13948  -1.13926  -1.13435  -1.13411
  Beta  occ. eigenvalues --   -1.13366  -1.12867  -1.12847  -1.12778  -1.12641
  Beta  occ. eigenvalues --   -1.12587  -1.12569  -1.12150  -1.12104  -1.12035
  Beta  occ. eigenvalues --   -0.17980  -0.14110  -0.10583
  Beta virt. eigenvalues --   -0.07612  -0.06597  -0.04592  -0.04569  -0.02856
  Beta virt. eigenvalues --   -0.02475  -0.01850  -0.01559  -0.00869  -0.00540
  Beta virt. eigenvalues --   -0.00063   0.00150   0.00332   0.00419   0.00784

 Mulliken charges and spin densities:
               1          2
     1  Na   0.354846   0.144766
     2  Na  -0.277733   0.114809
     3  Na   0.882189   0.096740
     4  Na  -0.249217   0.271516
     5  Na   0.459549   0.092675
     6  Na  -0.431851   0.064907
     7  Na  -0.737783   0.214588
 Sum of Mulliken charges =  -0.00000   1.00000

 Dipole moment (field-independent basis, Debye):
    X=             -0.4395    Y=             -0.3906    Z=              0.5031  Tot=              0.7738
 Quadrupole moment (field-independent basis, Debye-Ang):
   XX=            -49.2778   YY=            -78.4990   ZZ=            -67.1296
   XY=              0.8040   XZ=              0.8072   YZ=             -3.2615

 Normal termination of Gaussian 16 at Tue Dec  5 13:30:41 2023.
