 Gaussian 16, Revision B.01,
 Gaussian 16:  ES64L-G16RevB.01 20-Dec-2017

 -------------------------
 #P B3LYP/6-311+g(d) force
 -------------------------

 -----
 DPGEN
 -----
 Symbolic Z-matrix:
 Charge =  0 Multiplicity = 2

                         Standard orientation:
 ---------------------------------------------------------------------
 Center     Atomic      Atomic             Coordinates (Angstroms)
 Number     Number       Type             X           Y           Z
 ---------------------------------------------------------------------
      1         11           0       -3.186794    1.262381    0.395179
      2         11           0        2.986975   -1.901725    0.436184
      3         11           0        3.072566    1.493499   -0.507958
      4         11           0        0.035182   -0.296663    2.113604
      5         11           0        0.091977   -0.804977   -1.543807
      6         11           0       -0.418911    2.700039   -0.333241
      7         11           0       -2.580994   -2.452555   -0.559961
 ---------------------------------------------------------------------

 SCF Done:  E(UB3LYP) =  -1136.12614069     A.U. after   21 cycles

 The electronic state is 2-A.
 Alpha  occ. eigenvalues --  -38.44690 -38.44600 -38.44476 -38.44447 -38.43767
 Alpha  occ. eigenvalues --  -38.43639 -38.42868  -2.20488  -2.20390  -2.20287
 Alpha  occ. eigenvalues --   -2.20236  -2.19630  -2.19431  -2.18704  -1.14172
 Alpha  occ. eigenvalues --   -1.14150  -1.14115  -1.14056  -1.14046  -1.14039
 Alpha  occ. eigenvalues --   -1.13958  -1.13927  -1.13909  -1.13890  -1.13887
 Alpha  occ. eigenvalues --   -1.13869  -1.13325  -1.13286  -1.13263  -1.13093
 Alpha  occ. eigenvalues --   -1.13081  -1.13067  -1.12389  -1.12370  -1.12348
 Alpha  occ. eigenvalues --   -0.17702  -0.13363  -0.11823  -0.10655
 Alpha virt. eigenvalues --   -0.06464  -0.05995  -0.04301  -0.03251  -0.02640
 Alpha virt. eigenvalues --   -0.02524  -0.02195  -0.01717  -0.00851  -0.00212
 Alpha virt. eigenvalues --   -0.00167   0.00225   0.00548   0.00600   0.00638

  Beta  occ. eigenvalues --  -38.44686 -38.44589 -38.44430 -38.44386 -38.43722
  Beta  occ. eigenvalues --  -38.43625 -38.42865  -2.20482  -2.20371  -2.20206
  Beta  occ. eigenvalues --   -2.20121  -2.19549  -2.19409  -2.18703  -1.14171
  Beta  occ. eigenvalues --   -1.14134  -1.14114  -1.14041  -1.14029  -1.14017
  Beta  occ. eigenvalues --   -1.13882  -1.13864  -1.13849  -1.13846  -1.13817
  Beta  occ. eigenvalues --   -1.13765  -1.13267  -1.13228  -1.13204  -1.13067
  Beta  occ. eigenvalues --   -1.13061  -1.13053  -1.12390  -1.12369  -1.12329
  Beta  occ. eigenvalues --   -0.17063  -0.13181  -0.11494
  Beta virt. eigenvalues --   -0.07020  -0.06264  -0.05830  -0.04068  -0.02790
  Beta virt. eigenvalues --   -0.02111  -0.01970  -0.01745  -0.01407  -0.00836
  Beta virt. eigenvalues --   -0.00198   0.00008   0.00282   0.00637   0.00681

 Mulliken charges and spin densities:
               1          2
     1  Na   0.253068   0.028510
     2  Na   0.180599   0.114984
     3  Na   0.064254   0.059120
     4  Na  -0.152033   0.501065
     5  Na  -0.019239   0.252564
     6  Na  -0.322804   0.001854
     7  Na  -0.003845   0.041904
 Sum of Mulliken charges =  -0.00000   1.00000

 Dipole moment (field-independent basis, Debye):
    X=              0.3328    Y=             -0.2955    Z=              0.3458  Tot=              0.5636
 Quadrupole moment (field-independent basis, Debye-Ang):
   XX=            -50.3665   YY=            -69.2740   ZZ=            -74.7122
   XY=             -1.2778   XZ=             -1.4409   YZ=             -1.1796

 Normal termination of Gaussian 16 at Thu Dec  7 16:35:24 2023.
