 Gaussian 16, Revision B.01,
 Gaussian 16:  ES64L-G16RevB.01 20-Dec-2017

 -------------------------
 #P B3LYP/6-311+g(d) force
 -------------------------

 -----
 DPGEN
 -----
 Symbolic Z-matrix:
 Charge =  0 Multiplicity = 2

                         Standard orientation:
 ---------------------------------------------------------------------
 Center     Atomic      Atomic             Coordinates (Angstroms)
 Number     Number       Type             X           Y           Z
 ---------------------------------------------------------------------
      1         11           0        2.252854   -1.602665   -2.074629
      2         11           0        0.812003   -2.431515    0.788126
      3         11           0       -3.649593    0.357257   -1.355161
      4         11           0       -2.330016   -1.439946    0.656020
      5         11           0        2.597972    1.651984   -0.429266
      6         11           0       -0.346833    3.025827   -0.127944
      7         11           0        0.663613    0.439057    2.542854
 ---------------------------------------------------------------------

 SCF Done:  E(UB3LYP) =  -1136.11991326     A.U. after   20 cycles

 The electronic state is 2-A.
 Alpha  occ. eigenvalues --  -38.45193 -38.44479 -38.44111 -38.44096 -38.44022
 Alpha  occ. eigenvalues --  -38.43610 -38.43401  -2.21021  -2.20288  -2.19924
 Alpha  occ. eigenvalues --   -2.19873  -2.19834  -2.19459  -2.19262  -1.14684
 Alpha  occ. eigenvalues --   -1.14671  -1.14614  -1.13934  -1.13929  -1.13921
 Alpha  occ. eigenvalues --   -1.13635  -1.13593  -1.13571  -1.13561  -1.13546
 Alpha  occ. eigenvalues --   -1.13529  -1.13477  -1.13476  -1.13455  -1.13133
 Alpha  occ. eigenvalues --   -1.13116  -1.13108  -1.12938  -1.12929  -1.12901
 Alpha  occ. eigenvalues --   -0.17281  -0.13091  -0.12340  -0.11759
 Alpha virt. eigenvalues --   -0.05821  -0.05438  -0.04568  -0.03778  -0.03584
 Alpha virt. eigenvalues --   -0.02845  -0.01111  -0.00803  -0.00734  -0.00501
 Alpha virt. eigenvalues --   -0.00237   0.00054   0.00416   0.00486   0.00609

  Beta  occ. eigenvalues --  -38.45103 -38.44411 -38.44101 -38.44099 -38.43990
  Beta  occ. eigenvalues --  -38.43610 -38.43394  -2.20854  -2.20160  -2.19908
  Beta  occ. eigenvalues --   -2.19878  -2.19774  -2.19462  -2.19254  -1.14575
  Beta  occ. eigenvalues --   -1.14559  -1.14488  -1.13849  -1.13845  -1.13831
  Beta  occ. eigenvalues --   -1.13630  -1.13577  -1.13557  -1.13539  -1.13531
  Beta  occ. eigenvalues --   -1.13524  -1.13474  -1.13435  -1.13414  -1.13141
  Beta  occ. eigenvalues --   -1.13115  -1.13085  -1.12929  -1.12922  -1.12868
  Beta  occ. eigenvalues --   -0.16565  -0.12657  -0.12080
  Beta virt. eigenvalues --   -0.08215  -0.05611  -0.05068  -0.04038  -0.03581
  Beta virt. eigenvalues --   -0.02964  -0.02378  -0.01025  -0.00711  -0.00533
  Beta virt. eigenvalues --   -0.00252  -0.00121   0.00303   0.00511   0.00691

 Mulliken charges and spin densities:
               1          2
     1  Na  -0.014023   0.477338
     2  Na   0.333571  -0.191720
     3  Na   0.402041   0.125686
     4  Na  -0.579433   0.030870
     5  Na   0.037125   0.060012
     6  Na  -0.186425  -0.000627
     7  Na   0.007142   0.498441
 Sum of Mulliken charges =  -0.00000   1.00000

 Dipole moment (field-independent basis, Debye):
    X=              0.4675    Y=              0.4911    Z=             -0.0970  Tot=              0.6849
 Quadrupole moment (field-independent basis, Debye-Ang):
   XX=            -67.4699   YY=            -69.8902   ZZ=            -62.9787
   XY=             -1.4297   XZ=              1.0576   YZ=             -0.1650

 Normal termination of Gaussian 16 at Mon Dec  4 03:06:42 2023.
