 Gaussian 16, Revision B.01,
 Gaussian 16:  ES64L-G16RevB.01 20-Dec-2017

 -------------------------
 #P B3LYP/6-311+g(d) force
 -------------------------

 -----
 DPGEN
 -----
 Symbolic Z-matrix:
 Charge =  0 Multiplicity = 2

                         Standard orientation:
 ---------------------------------------------------------------------
 Center     Atomic      Atomic             Coordinates (Angstroms)
 Number     Number       Type             X           Y           Z
 ---------------------------------------------------------------------
      1         11           0       -2.088226   -1.979740   -0.016358
      2         11           0       -0.127002   -0.298012   -1.719761
      3         11           0        3.068708    0.553388    0.417990
      4         11           0        0.884164    2.857185   -0.530091
      5         11           0       -3.106107    1.370201    0.030655
      6         11           0        1.635534   -2.527531   -0.255408
      7         11           0       -0.267071    0.024509    2.072973
 ---------------------------------------------------------------------

 SCF Done:  E(UB3LYP) =  -1136.13486531     A.U. after   19 cycles

 The electronic state is 2-A.
 Alpha  occ. eigenvalues --  -38.44358 -38.43949 -38.43933 -38.43762 -38.43399
 Alpha  occ. eigenvalues --  -38.43366 -38.43311  -2.20141  -2.19797  -2.19782
 Alpha  occ. eigenvalues --   -2.19648  -2.19330  -2.19215  -2.19160  -1.13816
 Alpha  occ. eigenvalues --   -1.13795  -1.13790  -1.13475  -1.13456  -1.13446
 Alpha  occ. eigenvalues --   -1.13436  -1.13431  -1.13407  -1.13384  -1.13311
 Alpha  occ. eigenvalues --   -1.13245  -1.13017  -1.12975  -1.12967  -1.12886
 Alpha  occ. eigenvalues --   -1.12870  -1.12852  -1.12824  -1.12810  -1.12789
 Alpha  occ. eigenvalues --   -0.18440  -0.13150  -0.12139  -0.10865
 Alpha virt. eigenvalues --   -0.05864  -0.05267  -0.04495  -0.03364  -0.02881
 Alpha virt. eigenvalues --   -0.02652  -0.01669  -0.01118  -0.00428  -0.00281
 Alpha virt. eigenvalues --   -0.00027   0.00360   0.00758   0.00846   0.00886

  Beta  occ. eigenvalues --  -38.44359 -38.43944 -38.43843 -38.43754 -38.43389
  Beta  occ. eigenvalues --  -38.43307 -38.43296  -2.20146  -2.19775  -2.19637
  Beta  occ. eigenvalues --   -2.19631  -2.19203  -2.19199  -2.19156  -1.13809
  Beta  occ. eigenvalues --   -1.13796  -1.13791  -1.13444  -1.13435  -1.13424
  Beta  occ. eigenvalues --   -1.13386  -1.13347  -1.13323  -1.13292  -1.13269
  Beta  occ. eigenvalues --   -1.13239  -1.12944  -1.12901  -1.12891  -1.12853
  Beta  occ. eigenvalues --   -1.12847  -1.12840  -1.12803  -1.12795  -1.12772
  Beta  occ. eigenvalues --   -0.17705  -0.12947  -0.11895
  Beta virt. eigenvalues --   -0.06980  -0.05798  -0.05225  -0.04417  -0.02604
  Beta virt. eigenvalues --   -0.02135  -0.01663  -0.01553  -0.01058  -0.00433
  Beta virt. eigenvalues --   -0.00320   0.00107   0.00377   0.00805   0.00868

 Mulliken charges and spin densities:
               1          2
     1  Na   0.283097  -0.062662
     2  Na  -0.034181   0.519757
     3  Na   0.034452   0.049538
     4  Na  -0.046968  -0.041831
     5  Na  -0.019620  -0.098269
     6  Na   0.153028  -0.037100
     7  Na  -0.369808   0.670567
 Sum of Mulliken charges =  -0.00000   1.00000

 Dipole moment (field-independent basis, Debye):
    X=             -0.3659    Y=              0.0606    Z=              0.2209  Tot=              0.4316
 Quadrupole moment (field-independent basis, Debye-Ang):
   XX=            -55.8476   YY=            -64.3534   ZZ=            -73.7875
   XY=             -1.5455   XZ=              0.7839   YZ=             -0.7639

 Normal termination of Gaussian 16 at Tue Dec  5 20:06:13 2023.
