 Gaussian 16, Revision B.01,
 Gaussian 16:  ES64L-G16RevB.01 20-Dec-2017

 -------------------------
 #P B3LYP/6-311+g(d) force
 -------------------------

 -----
 DPGEN
 -----
 Symbolic Z-matrix:
 Charge =  0 Multiplicity = 2

                         Standard orientation:
 ---------------------------------------------------------------------
 Center     Atomic      Atomic             Coordinates (Angstroms)
 Number     Number       Type             X           Y           Z
 ---------------------------------------------------------------------
      1         11           0        0.730874    2.851178   -0.132305
      2         11           0        1.347877   -2.751417   -0.439415
      3         11           0       -2.465655   -1.698110    0.365098
      4         11           0       -2.530567    1.671489   -0.313584
      5         11           0       -0.096031   -0.356240   -1.736303
      6         11           0        3.141604    0.510639    0.280746
      7         11           0       -0.128101   -0.227538    1.975764
 ---------------------------------------------------------------------

 SCF Done:  E(UB3LYP) =  -1136.13797764     A.U. after   18 cycles

 The electronic state is 2-A.
 Alpha  occ. eigenvalues --  -38.43985 -38.43801 -38.43744 -38.43642 -38.43592
 Alpha  occ. eigenvalues --  -38.43360 -38.43278  -2.19792  -2.19671  -2.19645
 Alpha  occ. eigenvalues --   -2.19483  -2.19442  -2.19318  -2.19114  -1.13467
 Alpha  occ. eigenvalues --   -1.13458  -1.13430  -1.13416  -1.13339  -1.13300
 Alpha  occ. eigenvalues --   -1.13295  -1.13263  -1.13243  -1.13235  -1.13126
 Alpha  occ. eigenvalues --   -1.13122  -1.13102  -1.13102  -1.13079  -1.12981
 Alpha  occ. eigenvalues --   -1.12938  -1.12928  -1.12788  -1.12780  -1.12754
 Alpha  occ. eigenvalues --   -0.18578  -0.12937  -0.12518  -0.10906
 Alpha virt. eigenvalues --   -0.05529  -0.05172  -0.04754  -0.03219  -0.02971
 Alpha virt. eigenvalues --   -0.02646  -0.01437  -0.01192  -0.00418  -0.00275
 Alpha virt. eigenvalues --   -0.00009   0.00353   0.00814   0.00856   0.00901

  Beta  occ. eigenvalues --  -38.43981 -38.43788 -38.43657 -38.43629 -38.43585
  Beta  occ. eigenvalues --  -38.43289 -38.43277  -2.19788  -2.19651  -2.19486
  Beta  occ. eigenvalues --   -2.19462  -2.19431  -2.19190  -2.19115  -1.13459
  Beta  occ. eigenvalues --   -1.13448  -1.13427  -1.13374  -1.13306  -1.13284
  Beta  occ. eigenvalues --   -1.13206  -1.13195  -1.13159  -1.13135  -1.13106
  Beta  occ. eigenvalues --   -1.13099  -1.13091  -1.13091  -1.13065  -1.12897
  Beta  occ. eigenvalues --   -1.12853  -1.12837  -1.12783  -1.12777  -1.12745
  Beta  occ. eigenvalues --   -0.17866  -0.12698  -0.12237
  Beta virt. eigenvalues --   -0.07023  -0.05473  -0.05150  -0.04680  -0.02464
  Beta virt. eigenvalues --   -0.02232  -0.01611  -0.01329  -0.01094  -0.00450
  Beta virt. eigenvalues --   -0.00315   0.00118   0.00392   0.00854   0.00880

 Mulliken charges and spin densities:
               1          2
     1  Na  -0.093306  -0.063556
     2  Na   0.110171  -0.083145
     3  Na   0.355122   0.000814
     4  Na   0.063911  -0.039132
     5  Na  -0.119158   0.566956
     6  Na  -0.019748  -0.040295
     7  Na  -0.296992   0.658358
 Sum of Mulliken charges =  -0.00000   1.00000

 Dipole moment (field-independent basis, Debye):
    X=              0.0225    Y=             -0.2095    Z=              0.1393  Tot=              0.2526
 Quadrupole moment (field-independent basis, Debye-Ang):
   XX=            -57.6576   YY=            -62.7226   ZZ=            -73.7869
   XY=             -0.3130   XZ=              0.5128   YZ=             -0.4509

 Normal termination of Gaussian 16 at Thu Dec  7 07:16:36 2023.
