 Gaussian 16, Revision B.01,
 Gaussian 16:  ES64L-G16RevB.01 20-Dec-2017

 -------------------------
 #P B3LYP/6-311+g(d) force
 -------------------------

 -----
 DPGEN
 -----
 Symbolic Z-matrix:
 Charge =  0 Multiplicity = 2

                         Standard orientation:
 ---------------------------------------------------------------------
 Center     Atomic      Atomic             Coordinates (Angstroms)
 Number     Number       Type             X           Y           Z
 ---------------------------------------------------------------------
      1         11           0        2.545040   -0.943506   -0.306660
      2         11           0        0.121110    0.246832    1.991194
      3         11           0       -0.108930   -2.651848    0.282603
      4         11           0        0.103610   -0.067389   -1.663110
      5         11           0        2.230928    1.889936   -0.005828
      6         11           0       -2.914926   -0.948485   -0.176870
      7         11           0       -1.976831    2.474461   -0.121329
 ---------------------------------------------------------------------

 SCF Done:  E(UB3LYP) =  -1136.13009795     A.U. after   20 cycles

 The electronic state is 2-A.
 Alpha  occ. eigenvalues --  -38.44091 -38.43793 -38.43699 -38.43674 -38.43585
 Alpha  occ. eigenvalues --  -38.43383 -38.42778  -2.19933  -2.19726  -2.19684
 Alpha  occ. eigenvalues --   -2.19520  -2.19497  -2.19422  -2.18717  -1.13625
 Alpha  occ. eigenvalues --   -1.13613  -1.13598  -1.13568  -1.13464  -1.13379
 Alpha  occ. eigenvalues --   -1.13348  -1.13301  -1.13208  -1.13191  -1.13176
 Alpha  occ. eigenvalues --   -1.13162  -1.13144  -1.13139  -1.13122  -1.13084
 Alpha  occ. eigenvalues --   -1.13033  -1.13021  -1.12400  -1.12367  -1.12357
 Alpha  occ. eigenvalues --   -0.19326  -0.13429  -0.12325  -0.11089
 Alpha virt. eigenvalues --   -0.05632  -0.05181  -0.04250  -0.03411  -0.02905
 Alpha virt. eigenvalues --   -0.02615  -0.01448  -0.01017  -0.00202  -0.00064
 Alpha virt. eigenvalues --    0.00079   0.00362   0.00830   0.00887   0.00970

  Beta  occ. eigenvalues --  -38.44088 -38.43786 -38.43700 -38.43658 -38.43491
  Beta  occ. eigenvalues --  -38.43314 -38.42768  -2.19931  -2.19715  -2.19664
  Beta  occ. eigenvalues --   -2.19501  -2.19346  -2.19296  -2.18702  -1.13616
  Beta  occ. eigenvalues --   -1.13607  -1.13583  -1.13571  -1.13435  -1.13347
  Beta  occ. eigenvalues --   -1.13327  -1.13251  -1.13200  -1.13164  -1.13161
  Beta  occ. eigenvalues --   -1.13141  -1.13080  -1.13020  -1.13007  -1.13000
  Beta  occ. eigenvalues --   -1.12945  -1.12929  -1.12394  -1.12353  -1.12319
  Beta  occ. eigenvalues --   -0.18549  -0.13157  -0.12078
  Beta virt. eigenvalues --   -0.07090  -0.05620  -0.05144  -0.04252  -0.02572
  Beta virt. eigenvalues --   -0.02094  -0.01576  -0.01356  -0.00951  -0.00250
  Beta virt. eigenvalues --   -0.00026   0.00142   0.00386   0.00878   0.00902

 Mulliken charges and spin densities:
               1          2
     1  Na   0.644108   0.210370
     2  Na  -0.555092   0.644172
     3  Na   0.223318   0.058274
     4  Na  -0.382785   0.352241
     5  Na   0.175357  -0.071769
     6  Na  -0.023401  -0.074190
     7  Na  -0.081505  -0.119099
 Sum of Mulliken charges =  -0.00000   1.00000

 Dipole moment (field-independent basis, Debye):
    X=             -0.3836    Y=              0.2907    Z=              0.1613  Tot=              0.5076
 Quadrupole moment (field-independent basis, Debye-Ang):
   XX=            -57.5705   YY=            -64.0293   ZZ=            -72.9315
   XY=              0.7766   XZ=              0.0631   YZ=             -0.5165

 Normal termination of Gaussian 16 at Thu Dec  7 15:25:52 2023.
