 Gaussian 16, Revision B.01,
 Gaussian 16:  ES64L-G16RevB.01 20-Dec-2017

 -------------------------
 #P B3LYP/6-311+g(d) force
 -------------------------

 -----
 DPGEN
 -----
 Symbolic Z-matrix:
 Charge =  0 Multiplicity = 2

                         Standard orientation:
 ---------------------------------------------------------------------
 Center     Atomic      Atomic             Coordinates (Angstroms)
 Number     Number       Type             X           Y           Z
 ---------------------------------------------------------------------
      1         11           0       -1.782633   -2.071724   -0.154505
      2         11           0       -3.008420    0.714315    0.066492
      3         11           0       -0.037704    0.348417   -1.479818
      4         11           0        2.827436    1.067910   -0.059860
      5         11           0        1.754313   -2.488492   -0.243757
      6         11           0        0.269506   -0.445955    1.739001
      7         11           0       -0.022498    2.875530    0.132448
 ---------------------------------------------------------------------

 SCF Done:  E(UB3LYP) =  -1136.13486134     A.U. after   19 cycles

 The electronic state is 2-A.
 Alpha  occ. eigenvalues --  -38.43963 -38.43814 -38.43597 -38.43535 -38.43465
 Alpha  occ. eigenvalues --  -38.42903 -38.42766  -2.19833  -2.19691  -2.19459
 Alpha  occ. eigenvalues --   -2.19426  -2.19406  -2.18899  -2.18843  -1.13522
 Alpha  occ. eigenvalues --   -1.13501  -1.13461  -1.13422  -1.13343  -1.13331
 Alpha  occ. eigenvalues --   -1.13173  -1.13153  -1.13124  -1.13101  -1.13088
 Alpha  occ. eigenvalues --   -1.13074  -1.13066  -1.13038  -1.13010  -1.12613
 Alpha  occ. eigenvalues --   -1.12522  -1.12510  -1.12501  -1.12475  -1.12447
 Alpha  occ. eigenvalues --   -0.19270  -0.13267  -0.12813  -0.10339
 Alpha virt. eigenvalues --   -0.05544  -0.05188  -0.04831  -0.03002  -0.02817
 Alpha virt. eigenvalues --   -0.01947  -0.01503  -0.01218  -0.00310  -0.00213
 Alpha virt. eigenvalues --    0.00050   0.00361   0.00836   0.00901   0.00919

  Beta  occ. eigenvalues --  -38.43957 -38.43811 -38.43590 -38.43529 -38.43455
  Beta  occ. eigenvalues --  -38.42823 -38.42702  -2.19825  -2.19688  -2.19449
  Beta  occ. eigenvalues --   -2.19419  -2.19391  -2.18753  -2.18728  -1.13517
  Beta  occ. eigenvalues --   -1.13467  -1.13461  -1.13423  -1.13338  -1.13311
  Beta  occ. eigenvalues --   -1.13162  -1.13145  -1.13101  -1.13088  -1.13082
  Beta  occ. eigenvalues --   -1.13045  -1.13037  -1.13017  -1.13007  -1.12520
  Beta  occ. eigenvalues --   -1.12422  -1.12409  -1.12401  -1.12391  -1.12363
  Beta  occ. eigenvalues --   -0.18546  -0.12999  -0.12565
  Beta virt. eigenvalues --   -0.06422  -0.05533  -0.05166  -0.04806  -0.02193
  Beta virt. eigenvalues --   -0.02043  -0.01427  -0.01153  -0.00956  -0.00358
  Beta virt. eigenvalues --   -0.00257   0.00188   0.00400   0.00862   0.00912

 Mulliken charges and spin densities:
               1          2
     1  Na   0.334156  -0.000136
     2  Na   0.105362  -0.025530
     3  Na  -0.544708   0.501289
     4  Na   0.186942  -0.076019
     5  Na   0.203921  -0.060751
     6  Na  -0.500826   0.706967
     7  Na   0.215154  -0.045820
 Sum of Mulliken charges =  -0.00000   1.00000

 Dipole moment (field-independent basis, Debye):
    X=              0.2108    Y=              0.0919    Z=              0.1065  Tot=              0.2534
 Quadrupole moment (field-independent basis, Debye-Ang):
   XX=            -55.3135   YY=            -60.0373   ZZ=            -76.4589
   XY=             -0.8877   XZ=             -0.8075   YZ=              1.8564

 Normal termination of Gaussian 16 at Tue Nov 28 23:11:47 2023.
