 Gaussian 16, Revision B.01,
 Gaussian 16:  ES64L-G16RevB.01 20-Dec-2017

 -------------------------
 #P B3LYP/6-311+g(d) force
 -------------------------

 -----
 DPGEN
 -----
 Symbolic Z-matrix:
 Charge =  0 Multiplicity = 2

                         Standard orientation:
 ---------------------------------------------------------------------
 Center     Atomic      Atomic             Coordinates (Angstroms)
 Number     Number       Type             X           Y           Z
 ---------------------------------------------------------------------
      1         11           0       -1.419643   -2.810925   -0.106226
      2         11           0        4.284338   -0.047200    0.217745
      3         11           0        2.572707   -2.605500   -0.276150
      4         11           0       -2.879547   -0.061299   -1.869828
      5         11           0       -3.729091   -0.165907    2.079240
      6         11           0       -0.787988    3.286939   -0.758554
      7         11           0        1.959225    2.403892    0.713774
 ---------------------------------------------------------------------

 SCF Done:  E(UB3LYP) =  -1136.10596698     A.U. after   24 cycles

 The electronic state is 2-A.
 Alpha  occ. eigenvalues --  -38.45652 -38.44979 -38.44588 -38.44392 -38.44363
 Alpha  occ. eigenvalues --  -38.44285 -38.44007  -2.21387  -2.20728  -2.20364
 Alpha  occ. eigenvalues --   -2.20185  -2.20182  -2.20072  -2.19783  -1.15067
 Alpha  occ. eigenvalues --   -1.15047  -1.15026  -1.14411  -1.14401  -1.14347
 Alpha  occ. eigenvalues --   -1.14071  -1.14038  -1.14016  -1.13847  -1.13839
 Alpha  occ. eigenvalues --   -1.13826  -1.13818  -1.13813  -1.13776  -1.13752
 Alpha  occ. eigenvalues --   -1.13749  -1.13713  -1.13449  -1.13442  -1.13415
 Alpha  occ. eigenvalues --   -0.15830  -0.13986  -0.12498  -0.10526
 Alpha virt. eigenvalues --   -0.07292  -0.06828  -0.03784  -0.03353  -0.03237
 Alpha virt. eigenvalues --   -0.02622  -0.02193  -0.01916  -0.01431  -0.00914
 Alpha virt. eigenvalues --   -0.00724  -0.00122   0.00034   0.00238   0.00458

  Beta  occ. eigenvalues --  -38.45648 -38.44960 -38.44587 -38.44352 -38.44290
  Beta  occ. eigenvalues --  -38.44261 -38.43996  -2.21380  -2.20696  -2.20362
  Beta  occ. eigenvalues --   -2.20164  -2.20082  -2.19938  -2.19762  -1.15055
  Beta  occ. eigenvalues --   -1.15040  -1.15018  -1.14388  -1.14376  -1.14315
  Beta  occ. eigenvalues --   -1.14067  -1.14038  -1.14010  -1.13831  -1.13824
  Beta  occ. eigenvalues --   -1.13804  -1.13757  -1.13756  -1.13714  -1.13659
  Beta  occ. eigenvalues --   -1.13651  -1.13612  -1.13433  -1.13431  -1.13402
  Beta  occ. eigenvalues --   -0.15490  -0.13618  -0.12374
  Beta virt. eigenvalues --   -0.07088  -0.06943  -0.06117  -0.03673  -0.03184
  Beta virt. eigenvalues --   -0.02982  -0.02301  -0.01784  -0.01346  -0.01311
  Beta virt. eigenvalues --   -0.00878  -0.00407   0.00088   0.00291   0.00418

 Mulliken charges and spin densities:
               1          2
     1  Na  -0.180676   0.145807
     2  Na   0.473695   0.044524
     3  Na  -0.078929  -0.000073
     4  Na   0.167832   0.086553
     5  Na   0.001154   0.652386
     6  Na   0.084203   0.075948
     7  Na  -0.467279  -0.005144
 Sum of Mulliken charges =  -0.00000   1.00000

 Dipole moment (field-independent basis, Debye):
    X=              0.2255    Y=             -0.3022    Z=             -0.6913  Tot=              0.7875
 Quadrupole moment (field-independent basis, Debye-Ang):
   XX=            -64.3344   YY=            -68.6015   ZZ=            -71.3493
   XY=             -1.7704   XZ=              6.8594   YZ=              0.1711

 Normal termination of Gaussian 16 at Sun Dec  3 17:46:33 2023.
