 Gaussian 16, Revision B.01,
 Gaussian 16:  ES64L-G16RevB.01 20-Dec-2017

 -------------------------
 #P B3LYP/6-311+g(d) force
 -------------------------

 -----
 DPGEN
 -----
 Symbolic Z-matrix:
 Charge =  0 Multiplicity = 2

                         Standard orientation:
 ---------------------------------------------------------------------
 Center     Atomic      Atomic             Coordinates (Angstroms)
 Number     Number       Type             X           Y           Z
 ---------------------------------------------------------------------
      1         11           0       -1.838110    2.379640   -0.405316
      2         11           0        3.183889   -1.449779    0.026203
      3         11           0        2.071876    2.332573    0.310734
      4         11           0        0.577620    0.056285   -1.540198
      5         11           0       -0.484012   -2.478472   -0.158248
      6         11           0       -3.329990   -0.880593    0.107635
      7         11           0       -0.181272    0.040347    1.659190
 ---------------------------------------------------------------------

 SCF Done:  E(UB3LYP) =  -1136.13066768     A.U. after   21 cycles

 The electronic state is 2-A.
 Alpha  occ. eigenvalues --  -38.44671 -38.44430 -38.43920 -38.43676 -38.43141
 Alpha  occ. eigenvalues --  -38.43068 -38.42906  -2.20457  -2.20249  -2.19745
 Alpha  occ. eigenvalues --   -2.19494  -2.19074  -2.19042  -2.18916  -1.14136
 Alpha  occ. eigenvalues --   -1.14105  -1.14100  -1.13921  -1.13910  -1.13891
 Alpha  occ. eigenvalues --   -1.13431  -1.13417  -1.13364  -1.13170  -1.13165
 Alpha  occ. eigenvalues --   -1.13120  -1.12893  -1.12789  -1.12730  -1.12671
 Alpha  occ. eigenvalues --   -1.12645  -1.12628  -1.12588  -1.12543  -1.12500
 Alpha  occ. eigenvalues --   -0.18698  -0.13264  -0.12268  -0.10088
 Alpha virt. eigenvalues --   -0.06213  -0.05688  -0.04226  -0.03031  -0.02560
 Alpha virt. eigenvalues --   -0.02131  -0.01862  -0.01491  -0.00565  -0.00182
 Alpha virt. eigenvalues --   -0.00009   0.00277   0.00683   0.00774   0.00872

  Beta  occ. eigenvalues --  -38.44671 -38.44430 -38.43910 -38.43663 -38.43128
  Beta  occ. eigenvalues --  -38.42994 -38.42841  -2.20460  -2.20251  -2.19730
  Beta  occ. eigenvalues --   -2.19473  -2.19055  -2.18908  -2.18798  -1.14126
  Beta  occ. eigenvalues --   -1.14104  -1.14101  -1.13926  -1.13897  -1.13889
  Beta  occ. eigenvalues --   -1.13420  -1.13386  -1.13356  -1.13155  -1.13132
  Beta  occ. eigenvalues --   -1.13109  -1.12860  -1.12725  -1.12660  -1.12650
  Beta  occ. eigenvalues --   -1.12559  -1.12534  -1.12507  -1.12458  -1.12412
  Beta  occ. eigenvalues --   -0.18001  -0.13049  -0.11986
  Beta virt. eigenvalues --   -0.06267  -0.06149  -0.05648  -0.04212  -0.02328
  Beta virt. eigenvalues --   -0.02048  -0.01812  -0.01419  -0.00904  -0.00594
  Beta virt. eigenvalues --   -0.00204   0.00140   0.00318   0.00728   0.00779

 Mulliken charges and spin densities:
               1          2
     1  Na   0.058945  -0.032133
     2  Na   0.169465  -0.086986
     3  Na   0.000557  -0.059126
     4  Na  -0.263364   0.600048
     5  Na   0.268082  -0.103302
     6  Na   0.125314  -0.003631
     7  Na  -0.358999   0.685131
 Sum of Mulliken charges =  -0.00000   1.00000

 Dipole moment (field-independent basis, Debye):
    X=              0.2488    Y=              0.0400    Z=              0.1214  Tot=              0.2797
 Quadrupole moment (field-independent basis, Debye-Ang):
   XX=            -47.8381   YY=            -64.1061   ZZ=            -77.6678
   XY=             -0.4465   XZ=              1.3826   YZ=             -0.1337

 Normal termination of Gaussian 16 at Fri Dec  8 03:28:23 2023.
