 Gaussian 16, Revision B.01,
 Gaussian 16:  ES64L-G16RevB.01 20-Dec-2017

 -------------------------
 #P B3LYP/6-311+g(d) force
 -------------------------

 -----
 DPGEN
 -----
 Symbolic Z-matrix:
 Charge =  0 Multiplicity = 2

                         Standard orientation:
 ---------------------------------------------------------------------
 Center     Atomic      Atomic             Coordinates (Angstroms)
 Number     Number       Type             X           Y           Z
 ---------------------------------------------------------------------
      1         11           0        0.302423   -0.160429   -1.942191
      2         11           0        1.283820   -2.480846   -0.412270
      3         11           0       -3.002601    1.350309   -0.307757
      4         11           0       -0.091680    0.054710    1.944893
      5         11           0        0.758764    2.699770   -0.164723
      6         11           0       -2.341168   -1.798242    0.410569
      7         11           0        3.090443    0.334728    0.471479
 ---------------------------------------------------------------------

 SCF Done:  E(UB3LYP) =  -1136.13493972     A.U. after   19 cycles

 The electronic state is 2-A.
 Alpha  occ. eigenvalues --  -38.44198 -38.44187 -38.43853 -38.43773 -38.43643
 Alpha  occ. eigenvalues --  -38.43060 -38.43009  -2.20041  -2.19994  -2.19763
 Alpha  occ. eigenvalues --   -2.19716  -2.19496  -2.18913  -2.18904  -1.13717
 Alpha  occ. eigenvalues --   -1.13697  -1.13681  -1.13671  -1.13660  -1.13634
 Alpha  occ. eigenvalues --   -1.13444  -1.13429  -1.13409  -1.13384  -1.13357
 Alpha  occ. eigenvalues --   -1.13319  -1.13176  -1.13152  -1.13118  -1.12614
 Alpha  occ. eigenvalues --   -1.12598  -1.12584  -1.12543  -1.12538  -1.12515
 Alpha  occ. eigenvalues --   -0.18677  -0.13237  -0.12095  -0.11178
 Alpha virt. eigenvalues --   -0.05856  -0.05051  -0.04215  -0.03505  -0.03000
 Alpha virt. eigenvalues --   -0.02832  -0.01659  -0.00953  -0.00235  -0.00177
 Alpha virt. eigenvalues --    0.00006   0.00361   0.00786   0.00857   0.00904

  Beta  occ. eigenvalues --  -38.44196 -38.44175 -38.43774 -38.43688 -38.43634
  Beta  occ. eigenvalues --  -38.43054 -38.42998  -2.20022  -2.19994  -2.19620
  Beta  occ. eigenvalues --   -2.19561  -2.19484  -2.18907  -2.18889  -1.13695
  Beta  occ. eigenvalues --   -1.13682  -1.13672  -1.13663  -1.13648  -1.13633
  Beta  occ. eigenvalues --   -1.13351  -1.13323  -1.13306  -1.13283  -1.13247
  Beta  occ. eigenvalues --   -1.13213  -1.13151  -1.13136  -1.13111  -1.12596
  Beta  occ. eigenvalues --   -1.12588  -1.12563  -1.12530  -1.12519  -1.12505
  Beta  occ. eigenvalues --   -0.17929  -0.13019  -0.11818
  Beta virt. eigenvalues --   -0.07275  -0.05765  -0.05023  -0.04177  -0.02755
  Beta virt. eigenvalues --   -0.02195  -0.01831  -0.01541  -0.00875  -0.00241
  Beta virt. eigenvalues --   -0.00187   0.00098   0.00387   0.00867   0.00891

 Mulliken charges and spin densities:
               1          2
     1  Na  -0.249731   0.625769
     2  Na   0.226020  -0.020678
     3  Na  -0.103832  -0.074562
     4  Na  -0.194039   0.566622
     5  Na  -0.057617  -0.086912
     6  Na   0.158317  -0.032417
     7  Na   0.220883   0.022178
 Sum of Mulliken charges =  -0.00000   1.00000

 Dipole moment (field-independent basis, Debye):
    X=             -0.0926    Y=              0.1366    Z=              0.1296  Tot=              0.2098
 Quadrupole moment (field-independent basis, Debye-Ang):
   XX=            -55.7172   YY=            -66.9587   ZZ=            -72.0430
   XY=             -0.5185   XZ=              1.5910   YZ=             -1.1393

 Normal termination of Gaussian 16 at Tue Dec  5 22:04:48 2023.
