 Gaussian 16, Revision B.01,
 Gaussian 16:  ES64L-G16RevB.01 20-Dec-2017

 -------------------------
 #P B3LYP/6-311+g(d) force
 -------------------------

 -----
 DPGEN
 -----
 Symbolic Z-matrix:
 Charge =  0 Multiplicity = 2

                         Standard orientation:
 ---------------------------------------------------------------------
 Center     Atomic      Atomic             Coordinates (Angstroms)
 Number     Number       Type             X           Y           Z
 ---------------------------------------------------------------------
      1         11           0        3.610326   -0.805835   -0.407845
      2         11           0       -1.420168   -0.058255    1.716968
      3         11           0        1.911871    1.713575    0.488975
      4         11           0       -3.377420   -1.219934   -0.957045
      5         11           0       -1.316006    2.946035   -0.039304
      6         11           0        0.323547   -0.052112   -1.675782
      7         11           0        0.267849   -2.523474    0.874033
 ---------------------------------------------------------------------

 SCF Done:  E(UB3LYP) =  -1136.12898076     A.U. after   20 cycles

 The electronic state is 2-A.
 Alpha  occ. eigenvalues --  -38.44625 -38.44235 -38.44224 -38.43645 -38.43628
 Alpha  occ. eigenvalues --  -38.43275 -38.43228  -2.20402  -2.20121  -2.20045
 Alpha  occ. eigenvalues --   -2.19516  -2.19489  -2.19191  -2.19042  -1.14069
 Alpha  occ. eigenvalues --   -1.14048  -1.14022  -1.13835  -1.13776  -1.13747
 Alpha  occ. eigenvalues --   -1.13734  -1.13693  -1.13669  -1.13225  -1.13216
 Alpha  occ. eigenvalues --   -1.13178  -1.13146  -1.13128  -1.13088  -1.12876
 Alpha  occ. eigenvalues --   -1.12834  -1.12800  -1.12709  -1.12693  -1.12684
 Alpha  occ. eigenvalues --   -0.18146  -0.13305  -0.12010  -0.10648
 Alpha virt. eigenvalues --   -0.06444  -0.05127  -0.04401  -0.03513  -0.02650
 Alpha virt. eigenvalues --   -0.02315  -0.02189  -0.01235  -0.00618  -0.00132
 Alpha virt. eigenvalues --   -0.00082   0.00238   0.00469   0.00718   0.00781

  Beta  occ. eigenvalues --  -38.44580 -38.44224 -38.44191 -38.43624 -38.43609
  Beta  occ. eigenvalues --  -38.43227 -38.43221  -2.20318  -2.20047  -2.20039
  Beta  occ. eigenvalues --   -2.19511  -2.19427  -2.19093  -2.19043  -1.14009
  Beta  occ. eigenvalues --   -1.13985  -1.13970  -1.13774  -1.13747  -1.13723
  Beta  occ. eigenvalues --   -1.13700  -1.13679  -1.13649  -1.13212  -1.13171
  Beta  occ. eigenvalues --   -1.13163  -1.13123  -1.13089  -1.13050  -1.12808
  Beta  occ. eigenvalues --   -1.12758  -1.12739  -1.12700  -1.12688  -1.12678
  Beta  occ. eigenvalues --   -0.17535  -0.13033  -0.11780
  Beta virt. eigenvalues --   -0.06893  -0.06207  -0.05101  -0.04202  -0.02981
  Beta virt. eigenvalues --   -0.02151  -0.01937  -0.01436  -0.01194  -0.00377
  Beta virt. eigenvalues --   -0.00115   0.00037   0.00295   0.00602   0.00766

 Mulliken charges and spin densities:
               1          2
     1  Na   0.519202   0.018503
     2  Na   0.217998   0.234641
     3  Na  -0.144995   0.031155
     4  Na  -0.104107   0.203795
     5  Na   0.152851  -0.032643
     6  Na  -0.447696   0.442285
     7  Na  -0.193252   0.102263
 Sum of Mulliken charges =  -0.00000   1.00000

 Dipole moment (field-independent basis, Debye):
    X=              0.2177    Y=             -0.2128    Z=             -0.1884  Tot=              0.3580
 Quadrupole moment (field-independent basis, Debye-Ang):
   XX=            -53.1811   YY=            -67.6631   ZZ=            -72.8455
   XY=             -2.3000   XZ=              1.3801   YZ=              0.8879

 Normal termination of Gaussian 16 at Thu Dec  7 21:38:55 2023.
