 Gaussian 16, Revision B.01,
 Gaussian 16:  ES64L-G16RevB.01 20-Dec-2017

 -------------------------
 #P B3LYP/6-311+g(d) force
 -------------------------

 -----
 DPGEN
 -----
 Symbolic Z-matrix:
 Charge =  0 Multiplicity = 2

                         Standard orientation:
 ---------------------------------------------------------------------
 Center     Atomic      Atomic             Coordinates (Angstroms)
 Number     Number       Type             X           Y           Z
 ---------------------------------------------------------------------
      1         11           0        0.037264   -2.608209   -0.730991
      2         11           0       -2.710046   -1.383458    0.516873
      3         11           0        6.165424   -0.250547   -0.455302
      4         11           0        3.116635   -1.065570    0.315031
      5         11           0        7.388971    2.767017    0.256584
      6         11           0       -7.904539    2.070342   -1.078727
      7         11           0       -6.093709    0.470425    1.176533
 ---------------------------------------------------------------------

 SCF Done:  E(UB3LYP) =  -1136.10669817     A.U. after   20 cycles

 The electronic state is 2-A.
 Alpha  occ. eigenvalues --  -38.45049 -38.45023 -38.44520 -38.44460 -38.44324
 Alpha  occ. eigenvalues --  -38.44253 -38.44094  -2.20838  -2.20793  -2.20334
 Alpha  occ. eigenvalues --   -2.20251  -2.20085  -2.20032  -2.19897  -1.14478
 Alpha  occ. eigenvalues --   -1.14477  -1.14458  -1.14446  -1.14445  -1.14423
 Alpha  occ. eigenvalues --   -1.13991  -1.13985  -1.13959  -1.13914  -1.13909
 Alpha  occ. eigenvalues --   -1.13885  -1.13764  -1.13756  -1.13732  -1.13708
 Alpha  occ. eigenvalues --   -1.13696  -1.13681  -1.13573  -1.13569  -1.13551
 Alpha  occ. eigenvalues --   -0.15128  -0.14198  -0.12988  -0.11212
 Alpha virt. eigenvalues --   -0.07448  -0.05279  -0.04176  -0.03339  -0.02930
 Alpha virt. eigenvalues --   -0.02752  -0.02618  -0.02086  -0.01655  -0.01290
 Alpha virt. eigenvalues --   -0.00594  -0.00444  -0.00293   0.00238   0.00352

  Beta  occ. eigenvalues --  -38.44980 -38.44961 -38.44447 -38.44401 -38.44338
  Beta  occ. eigenvalues --  -38.44275 -38.44106  -2.20714  -2.20674  -2.20198
  Beta  occ. eigenvalues --   -2.20141  -2.20113  -2.20078  -2.19926  -1.14391
  Beta  occ. eigenvalues --   -1.14390  -1.14373  -1.14366  -1.14364  -1.14352
  Beta  occ. eigenvalues --   -1.13899  -1.13891  -1.13880  -1.13846  -1.13833
  Beta  occ. eigenvalues --   -1.13825  -1.13786  -1.13777  -1.13743  -1.13730
  Beta  occ. eigenvalues --   -1.13725  -1.13673  -1.13595  -1.13591  -1.13527
  Beta  occ. eigenvalues --   -0.14533  -0.13647  -0.12545
  Beta virt. eigenvalues --   -0.08160  -0.06780  -0.04813  -0.04053  -0.03175
  Beta virt. eigenvalues --   -0.02778  -0.02528  -0.02319  -0.01881  -0.01461
  Beta virt. eigenvalues --   -0.00962  -0.00258  -0.00224  -0.00018   0.00307

 Mulliken charges and spin densities:
               1          2
     1  Na   1.048822  -0.057975
     2  Na  -0.731138   0.245842
     3  Na   0.162510  -0.023859
     4  Na  -0.309150   0.286325
     5  Na   0.128043   0.409221
     6  Na   0.147739   0.197710
     7  Na  -0.446825  -0.057264
 Sum of Mulliken charges =  -0.00000   1.00000

 Dipole moment (field-independent basis, Debye):
    X=             -0.2483    Y=              0.9671    Z=             -0.2849  Tot=              1.0383
 Quadrupole moment (field-independent basis, Debye-Ang):
   XX=            -55.6441   YY=            -64.4178   ZZ=            -68.2642
   XY=             -0.7681   XZ=              4.8701   YZ=              0.2200

 Normal termination of Gaussian 16 at Sun Dec  3 13:30:57 2023.
