 Gaussian 16, Revision B.01,
 Gaussian 16:  ES64L-G16RevB.01 20-Dec-2017

 -------------------------
 #P B3LYP/6-311+g(d) force
 -------------------------

 -----
 DPGEN
 -----
 Symbolic Z-matrix:
 Charge =  0 Multiplicity = 2

                         Standard orientation:
 ---------------------------------------------------------------------
 Center     Atomic      Atomic             Coordinates (Angstroms)
 Number     Number       Type             X           Y           Z
 ---------------------------------------------------------------------
      1         11           0       -1.024354   -2.759993    0.055624
      2         11           0       -2.636364    2.198436    0.066893
      3         11           0       -4.163935   -0.896198    0.156512
      4         11           0        1.796579   -1.913805   -1.804545
      5         11           0        0.452927    3.348418   -0.380515
      6         11           0        3.307119    1.064569   -0.022651
      7         11           0        2.268027   -1.041428    1.928681
 ---------------------------------------------------------------------

 SCF Done:  E(UB3LYP) =  -1136.11379294     A.U. after   21 cycles

 The electronic state is 2-A.
 Alpha  occ. eigenvalues --  -38.44981 -38.44654 -38.44533 -38.44465 -38.44284
 Alpha  occ. eigenvalues --  -38.44169 -38.43654  -2.20816  -2.20487  -2.20344
 Alpha  occ. eigenvalues --   -2.20230  -2.20061  -2.19957  -2.19443  -1.14530
 Alpha  occ. eigenvalues --   -1.14465  -1.14420  -1.14159  -1.14135  -1.14116
 Alpha  occ. eigenvalues --   -1.14006  -1.13989  -1.13964  -1.13920  -1.13906
 Alpha  occ. eigenvalues --   -1.13852  -1.13745  -1.13738  -1.13715  -1.13617
 Alpha  occ. eigenvalues --   -1.13594  -1.13593  -1.13106  -1.13104  -1.13078
 Alpha  occ. eigenvalues --   -0.16632  -0.13762  -0.12797  -0.10457
 Alpha virt. eigenvalues --   -0.07036  -0.06501  -0.03853  -0.03143  -0.02948
 Alpha virt. eigenvalues --   -0.02793  -0.02220  -0.02008  -0.01126  -0.00819
 Alpha virt. eigenvalues --   -0.00247  -0.00054   0.00214   0.00493   0.00581

  Beta  occ. eigenvalues --  -38.44917 -38.44639 -38.44463 -38.44462 -38.44283
  Beta  occ. eigenvalues --  -38.44135 -38.43628  -2.20698  -2.20466  -2.20229
  Beta  occ. eigenvalues --   -2.20213  -2.20062  -2.19894  -2.19394  -1.14450
  Beta  occ. eigenvalues --   -1.14386  -1.14330  -1.14132  -1.14125  -1.14082
  Beta  occ. eigenvalues --   -1.13926  -1.13920  -1.13908  -1.13893  -1.13874
  Beta  occ. eigenvalues --   -1.13824  -1.13749  -1.13740  -1.13692  -1.13573
  Beta  occ. eigenvalues --   -1.13555  -1.13553  -1.13073  -1.13069  -1.13046
  Beta  occ. eigenvalues --   -0.16124  -0.13292  -0.12323
  Beta virt. eigenvalues --   -0.07111  -0.06651  -0.06498  -0.03599  -0.02706
  Beta virt. eigenvalues --   -0.02647  -0.02338  -0.01896  -0.01741  -0.01052
  Beta virt. eigenvalues --   -0.00697   0.00091   0.00228   0.00288   0.00594

 Mulliken charges and spin densities:
               1          2
     1  Na  -0.673504   0.027798
     2  Na  -0.443610   0.028641
     3  Na   0.733135   0.145576
     4  Na   0.275756   0.314785
     5  Na   0.117158   0.021719
     6  Na  -0.198123   0.251372
     7  Na   0.189187   0.210109
 Sum of Mulliken charges =  -0.00000   1.00000

 Dipole moment (field-independent basis, Debye):
    X=              0.5433    Y=             -0.6128    Z=              0.0910  Tot=              0.8240
 Quadrupole moment (field-independent basis, Debye-Ang):
   XX=            -61.3827   YY=            -70.7583   ZZ=            -70.2591
   XY=              1.9043   XZ=             -3.8389   YZ=             -2.5855

 Normal termination of Gaussian 16 at Mon Dec  4 04:02:02 2023.
