 Gaussian 16, Revision B.01,
 Gaussian 16:  ES64L-G16RevB.01 20-Dec-2017

 -------------------------
 #P B3LYP/6-311+g(d) force
 -------------------------

 -----
 DPGEN
 -----
 Symbolic Z-matrix:
 Charge =  0 Multiplicity = 2

                         Standard orientation:
 ---------------------------------------------------------------------
 Center     Atomic      Atomic             Coordinates (Angstroms)
 Number     Number       Type             X           Y           Z
 ---------------------------------------------------------------------
      1         11           0       -2.888936   -1.104445    0.221265
      2         11           0       -0.160226   -0.181086   -1.775772
      3         11           0        0.272123   -0.185293    1.935882
      4         11           0        0.366791   -2.622725   -0.248399
      5         11           0        2.978182   -0.484222    0.017491
      6         11           0       -1.941881    2.127610   -0.022211
      7         11           0        1.373948    2.450160   -0.128255
 ---------------------------------------------------------------------

 SCF Done:  E(UB3LYP) =  -1136.13819551     A.U. after   19 cycles

 The electronic state is 2-A.
 Alpha  occ. eigenvalues --  -38.43847 -38.43798 -38.43532 -38.43374 -38.43352
 Alpha  occ. eigenvalues --  -38.43202 -38.43145  -2.19691  -2.19681  -2.19479
 Alpha  occ. eigenvalues --   -2.19362  -2.19246  -2.19144  -2.19030  -1.13369
 Alpha  occ. eigenvalues --   -1.13362  -1.13358  -1.13343  -1.13336  -1.13329
 Alpha  occ. eigenvalues --   -1.13169  -1.13140  -1.13115  -1.13089  -1.13022
 Alpha  occ. eigenvalues --   -1.12964  -1.12913  -1.12907  -1.12889  -1.12794
 Alpha  occ. eigenvalues --   -1.12784  -1.12732  -1.12700  -1.12691  -1.12663
 Alpha  occ. eigenvalues --   -0.19204  -0.13141  -0.12603  -0.11016
 Alpha virt. eigenvalues --   -0.05504  -0.04977  -0.04505  -0.03267  -0.02984
 Alpha virt. eigenvalues --   -0.02653  -0.01468  -0.00922  -0.00105  -0.00067
 Alpha virt. eigenvalues --    0.00000   0.00369   0.00851   0.00937   0.00957

  Beta  occ. eigenvalues --  -38.43843 -38.43793 -38.43446 -38.43371 -38.43272
  Beta  occ. eigenvalues --  -38.43188 -38.43140  -2.19686  -2.19675  -2.19321
  Beta  occ. eigenvalues --   -2.19243  -2.19218  -2.19124  -2.19024  -1.13361
  Beta  occ. eigenvalues --   -1.13361  -1.13336  -1.13332  -1.13332  -1.13310
  Beta  occ. eigenvalues --   -1.13086  -1.13044  -1.13005  -1.12975  -1.12950
  Beta  occ. eigenvalues --   -1.12901  -1.12888  -1.12879  -1.12849  -1.12768
  Beta  occ. eigenvalues --   -1.12725  -1.12720  -1.12695  -1.12670  -1.12654
  Beta  occ. eigenvalues --   -0.18448  -0.12897  -0.12327
  Beta virt. eigenvalues --   -0.07059  -0.05464  -0.04991  -0.04482  -0.02457
  Beta virt. eigenvalues --   -0.02156  -0.01575  -0.01378  -0.00866  -0.00148
  Beta virt. eigenvalues --   -0.00117   0.00118   0.00388   0.00903   0.00930

 Mulliken charges and spin densities:
               1          2
     1  Na   0.102075  -0.060523
     2  Na  -0.389208   0.584572
     3  Na  -0.576878   0.754100
     4  Na   0.453147  -0.071494
     5  Na   0.325548  -0.040401
     6  Na   0.021699  -0.082089
     7  Na   0.063617  -0.084166
 Sum of Mulliken charges =  -0.00000   1.00000

 Dipole moment (field-independent basis, Debye):
    X=             -0.0630    Y=             -0.0840    Z=              0.1612  Tot=              0.1924
 Quadrupole moment (field-independent basis, Debye-Ang):
   XX=            -56.5414   YY=            -64.6778   ZZ=            -72.9322
   XY=              0.2800   XZ=             -0.9891   YZ=             -0.1907

 Normal termination of Gaussian 16 at Thu Dec  7 16:58:19 2023.
