 Gaussian 16, Revision B.01,
 Gaussian 16:  ES64L-G16RevB.01 20-Dec-2017

 -------------------------
 #P B3LYP/6-311+g(d) force
 -------------------------

 -----
 DPGEN
 -----
 Symbolic Z-matrix:
 Charge =  0 Multiplicity = 2

                         Standard orientation:
 ---------------------------------------------------------------------
 Center     Atomic      Atomic             Coordinates (Angstroms)
 Number     Number       Type             X           Y           Z
 ---------------------------------------------------------------------
      1         11           0        3.134696   -0.438446    0.649394
      2         11           0       -0.536334   -1.621480   -0.853643
      3         11           0       -8.480623    1.961018   -0.462296
      4         11           0       -6.247497    0.639328    0.871524
      5         11           0       -3.778486   -1.941278   -0.237056
      6         11           0        9.464229    1.578482   -0.685923
      7         11           0        6.444014   -0.177625    0.718001
 ---------------------------------------------------------------------

 SCF Done:  E(UB3LYP) =  -1136.10178505     A.U. after   20 cycles

 The electronic state is 2-A.
 Alpha  occ. eigenvalues --  -38.45713 -38.44772 -38.44678 -38.44612 -38.44519
 Alpha  occ. eigenvalues --  -38.44299 -38.44191  -2.21486  -2.20587  -2.20469
 Alpha  occ. eigenvalues --   -2.20399  -2.20266  -2.20054  -2.20013  -1.15121
 Alpha  occ. eigenvalues --   -1.15121  -1.15087  -1.14318  -1.14223  -1.14221
 Alpha  occ. eigenvalues --   -1.14120  -1.14119  -1.14090  -1.14062  -1.14059
 Alpha  occ. eigenvalues --   -1.14042  -1.13947  -1.13943  -1.13895  -1.13743
 Alpha  occ. eigenvalues --   -1.13740  -1.13702  -1.13670  -1.13664  -1.13656
 Alpha  occ. eigenvalues --   -0.14840  -0.14336  -0.13000  -0.11820
 Alpha virt. eigenvalues --   -0.07425  -0.05485  -0.03952  -0.03266  -0.03169
 Alpha virt. eigenvalues --   -0.02828  -0.02594  -0.02345  -0.01725  -0.01413
 Alpha virt. eigenvalues --   -0.01255  -0.00504  -0.00362   0.00088   0.00349

  Beta  occ. eigenvalues --  -38.45591 -38.44751 -38.44603 -38.44574 -38.44540
  Beta  occ. eigenvalues --  -38.44321 -38.44194  -2.21259  -2.20547  -2.20330
  Beta  occ. eigenvalues --   -2.20327  -2.20307  -2.20102  -2.20022  -1.14967
  Beta  occ. eigenvalues --   -1.14966  -1.14935  -1.14293  -1.14196  -1.14194
  Beta  occ. eigenvalues --   -1.14024  -1.14024  -1.14018  -1.14013  -1.14007
  Beta  occ. eigenvalues --   -1.14004  -1.13977  -1.13971  -1.13893  -1.13782
  Beta  occ. eigenvalues --   -1.13778  -1.13687  -1.13674  -1.13672  -1.13649
  Beta  occ. eigenvalues --   -0.14494  -0.13602  -0.12420
  Beta virt. eigenvalues --   -0.08585  -0.06970  -0.05071  -0.03625  -0.03162
  Beta virt. eigenvalues --   -0.03007  -0.02581  -0.02370  -0.02050  -0.01466
  Beta virt. eigenvalues --   -0.00988  -0.00773  -0.00358  -0.00071   0.00187

 Mulliken charges and spin densities:
               1          2
     1  Na  -0.404399   0.362120
     2  Na   0.208623  -0.103608
     3  Na   0.371055   0.081942
     4  Na  -0.420967   0.001772
     5  Na   0.007483   0.178700
     6  Na   0.297736   0.624160
     7  Na  -0.059532  -0.145087
 Sum of Mulliken charges =  -0.00000   1.00000

 Dipole moment (field-independent basis, Debye):
    X=             -0.0840    Y=              0.7537    Z=             -0.5303  Tot=              0.9254
 Quadrupole moment (field-independent basis, Debye-Ang):
   XX=            -38.0470   YY=            -70.1609   ZZ=            -71.6855
   XY=              1.4211   XZ=              0.1391   YZ=             -2.4558

 Normal termination of Gaussian 16 at Sun Dec  3 16:39:52 2023.
