 Gaussian 16, Revision B.01,
 Gaussian 16:  ES64L-G16RevB.01 20-Dec-2017

 -------------------------
 #P B3LYP/6-311+g(d) force
 -------------------------

 -----
 DPGEN
 -----
 Symbolic Z-matrix:
 Charge =  0 Multiplicity = 2

                         Standard orientation:
 ---------------------------------------------------------------------
 Center     Atomic      Atomic             Coordinates (Angstroms)
 Number     Number       Type             X           Y           Z
 ---------------------------------------------------------------------
      1         11           0        1.456194    1.708826    0.778295
      2         11           0       -1.780380    0.159288    1.635224
      3         11           0       -1.737279    2.519768   -0.634753
      4         11           0        0.047441   -0.644634   -1.386663
      5         11           0        1.203807   -1.768227    1.536873
      6         11           0       -3.006180   -1.739725   -0.916465
      7         11           0        3.816397   -0.235297   -1.012511
 ---------------------------------------------------------------------

 SCF Done:  E(UB3LYP) =  -1136.13028752     A.U. after   21 cycles

 The electronic state is 2-A.
 Alpha  occ. eigenvalues --  -38.44735 -38.44080 -38.43793 -38.43712 -38.43624
 Alpha  occ. eigenvalues --  -38.43246 -38.43017  -2.20521  -2.19935  -2.19706
 Alpha  occ. eigenvalues --   -2.19635  -2.19446  -2.19115  -2.18852  -1.14188
 Alpha  occ. eigenvalues --   -1.14181  -1.14135  -1.13632  -1.13589  -1.13533
 Alpha  occ. eigenvalues --   -1.13397  -1.13378  -1.13340  -1.13322  -1.13291
 Alpha  occ. eigenvalues --   -1.13266  -1.13112  -1.13084  -1.13072  -1.12822
 Alpha  occ. eigenvalues --   -1.12802  -1.12712  -1.12529  -1.12513  -1.12474
 Alpha  occ. eigenvalues --   -0.18416  -0.13473  -0.11340  -0.11233
 Alpha virt. eigenvalues --   -0.06279  -0.05077  -0.04553  -0.03133  -0.02614
 Alpha virt. eigenvalues --   -0.02515  -0.02104  -0.01079  -0.00847   0.00036
 Alpha virt. eigenvalues --    0.00125   0.00234   0.00358   0.00671   0.00740

  Beta  occ. eigenvalues --  -38.44707 -38.44018 -38.43756 -38.43679 -38.43609
  Beta  occ. eigenvalues --  -38.43236 -38.43010  -2.20469  -2.19824  -2.19641
  Beta  occ. eigenvalues --   -2.19578  -2.19419  -2.19102  -2.18840  -1.14150
  Beta  occ. eigenvalues --   -1.14140  -1.14104  -1.13560  -1.13498  -1.13452
  Beta  occ. eigenvalues --   -1.13354  -1.13304  -1.13288  -1.13282  -1.13249
  Beta  occ. eigenvalues --   -1.13223  -1.13087  -1.13062  -1.13054  -1.12817
  Beta  occ. eigenvalues --   -1.12759  -1.12708  -1.12517  -1.12503  -1.12464
  Beta  occ. eigenvalues --   -0.17680  -0.13211  -0.11121
  Beta virt. eigenvalues --   -0.07416  -0.06036  -0.04947  -0.04093  -0.02880
  Beta virt. eigenvalues --   -0.02140  -0.02000  -0.01595  -0.00961  -0.00489
  Beta virt. eigenvalues --    0.00122   0.00205   0.00292   0.00448   0.00727

 Mulliken charges and spin densities:
               1          2
     1  Na  -0.236352   0.169944
     2  Na   0.369500   0.115367
     3  Na  -0.015142   0.003190
     4  Na  -0.503557   0.359592
     5  Na  -0.095907   0.245204
     6  Na   0.007755   0.056328
     7  Na   0.473704   0.050374
 Sum of Mulliken charges =  -0.00000   1.00000

 Dipole moment (field-independent basis, Debye):
    X=              0.6889    Y=             -0.2466    Z=             -0.0147  Tot=              0.7319
 Quadrupole moment (field-independent basis, Debye-Ang):
   XX=            -51.5715   YY=            -73.4691   ZZ=            -67.6440
   XY=             -0.8916   XZ=             -1.0577   YZ=             -1.9519

 Normal termination of Gaussian 16 at Tue Dec  5 11:53:26 2023.
