 Gaussian 16, Revision B.01,
 Gaussian 16:  ES64L-G16RevB.01 20-Dec-2017

 -------------------------
 #P B3LYP/6-311+g(d) force
 -------------------------

 -----
 DPGEN
 -----
 Symbolic Z-matrix:
 Charge =  0 Multiplicity = 2

                         Standard orientation:
 ---------------------------------------------------------------------
 Center     Atomic      Atomic             Coordinates (Angstroms)
 Number     Number       Type             X           Y           Z
 ---------------------------------------------------------------------
      1         11           0        2.909302   -1.060982    0.539684
      2         11           0       -2.290138    2.059226   -0.781099
      3         11           0        0.521064    1.667093    0.358040
      4         11           0       -4.349340   -0.722165   -0.321230
      5         11           0        5.655531    0.324374   -0.393324
      6         11           0       -1.835826   -0.468458    1.920516
      7         11           0       -0.610593   -1.799088   -1.322588
 ---------------------------------------------------------------------

 SCF Done:  E(UB3LYP) =  -1136.10864746     A.U. after   28 cycles

 The electronic state is 2-A.
 Alpha  occ. eigenvalues --  -38.46667 -38.45483 -38.44163 -38.43903 -38.43592
 Alpha  occ. eigenvalues --  -38.43338 -38.42309  -2.22476  -2.21260  -2.19968
 Alpha  occ. eigenvalues --   -2.19788  -2.19398  -2.19173  -2.18198  -1.16158
 Alpha  occ. eigenvalues --   -1.16138  -1.16098  -1.14941  -1.14908  -1.14860
 Alpha  occ. eigenvalues --   -1.13611  -1.13605  -1.13602  -1.13471  -1.13438
 Alpha  occ. eigenvalues --   -1.13413  -1.13083  -1.13077  -1.13042  -1.12847
 Alpha  occ. eigenvalues --   -1.12836  -1.12794  -1.11890  -1.11865  -1.11823
 Alpha  occ. eigenvalues --   -0.17752  -0.13909  -0.11230  -0.10982
 Alpha virt. eigenvalues --   -0.07744  -0.05279  -0.04270  -0.03246  -0.03014
 Alpha virt. eigenvalues --   -0.02263  -0.02155  -0.01765  -0.01559  -0.01000
 Alpha virt. eigenvalues --   -0.00218   0.00076   0.00192   0.00543   0.00656

  Beta  occ. eigenvalues --  -38.46664 -38.45422 -38.44085 -38.43862 -38.43600
  Beta  occ. eigenvalues --  -38.43313 -38.42309  -2.22472  -2.21150  -2.19823
  Beta  occ. eigenvalues --   -2.19712  -2.19419  -2.19128  -2.18198  -1.16141
  Beta  occ. eigenvalues --   -1.16123  -1.16104  -1.14861  -1.14831  -1.14783
  Beta  occ. eigenvalues --   -1.13517  -1.13506  -1.13504  -1.13417  -1.13393
  Beta  occ. eigenvalues --   -1.13353  -1.13104  -1.13098  -1.13004  -1.12818
  Beta  occ. eigenvalues --   -1.12799  -1.12760  -1.11890  -1.11866  -1.11817
  Beta  occ. eigenvalues --   -0.17178  -0.13237  -0.10714
  Beta virt. eigenvalues --   -0.07837  -0.07513  -0.04691  -0.04064  -0.03014
  Beta virt. eigenvalues --   -0.02785  -0.02093  -0.01789  -0.01376  -0.01148
  Beta virt. eigenvalues --   -0.00681  -0.00076   0.00167   0.00229   0.00618

 Mulliken charges and spin densities:
               1          2
     1  Na  -0.206094   0.027166
     2  Na  -0.037115   0.305613
     3  Na  -0.162181  -0.132510
     4  Na   0.241075   0.052247
     5  Na   0.150923   0.355263
     6  Na   0.147115   0.173947
     7  Na  -0.133724   0.218274
 Sum of Mulliken charges =  -0.00000   1.00000

 Dipole moment (field-independent basis, Debye):
    X=             -0.8437    Y=             -0.1696    Z=              0.2496  Tot=              0.8960
 Quadrupole moment (field-independent basis, Debye-Ang):
   XX=            -68.6265   YY=            -78.5231   ZZ=            -58.3583
   XY=              0.6217   XZ=             -1.9340   YZ=             -2.8153

 Normal termination of Gaussian 16 at Fri Dec  8 04:42:57 2023.
