 Gaussian 16, Revision B.01,
 Gaussian 16:  ES64L-G16RevB.01 20-Dec-2017

 -------------------------
 #P B3LYP/6-311+g(d) force
 -------------------------

 -----
 DPGEN
 -----
 Symbolic Z-matrix:
 Charge =  0 Multiplicity = 2

                         Standard orientation:
 ---------------------------------------------------------------------
 Center     Atomic      Atomic             Coordinates (Angstroms)
 Number     Number       Type             X           Y           Z
 ---------------------------------------------------------------------
      1         11           0       -3.470847    1.964549   -0.235492
      2         11           0        5.456962   -0.833456   -0.412230
      3         11           0        1.360302   -1.792244   -0.058517
      4         11           0       -0.289698    2.306415   -0.326114
      5         11           0        3.623839    1.224578    0.899479
      6         11           0       -1.865860   -1.282589   -0.407796
      7         11           0       -4.814698   -1.587252    0.540670
 ---------------------------------------------------------------------

 SCF Done:  E(UB3LYP) =  -1136.11445588     A.U. after   24 cycles

 The electronic state is 2-A.
 Alpha  occ. eigenvalues --  -38.45415 -38.45250 -38.45007 -38.44578 -38.43415
 Alpha  occ. eigenvalues --  -38.43176 -38.42328  -2.21225  -2.21072  -2.20820
 Alpha  occ. eigenvalues --   -2.20402  -2.19310  -2.18992  -2.18136  -1.14922
 Alpha  occ. eigenvalues --   -1.14886  -1.14866  -1.14733  -1.14720  -1.14672
 Alpha  occ. eigenvalues --   -1.14476  -1.14467  -1.14437  -1.14078  -1.14070
 Alpha  occ. eigenvalues --   -1.14003  -1.13011  -1.12996  -1.12947  -1.12649
 Alpha  occ. eigenvalues --   -1.12645  -1.12623  -1.11813  -1.11806  -1.11786
 Alpha  occ. eigenvalues --   -0.16769  -0.14704  -0.11927  -0.11021
 Alpha virt. eigenvalues --   -0.06842  -0.05170  -0.04299  -0.03739  -0.03286
 Alpha virt. eigenvalues --   -0.02737  -0.01680  -0.01610  -0.00914  -0.00709
 Alpha virt. eigenvalues --   -0.00175  -0.00084   0.00143   0.00373   0.00577

  Beta  occ. eigenvalues --  -38.45400 -38.45145 -38.44978 -38.44540 -38.43382
  Beta  occ. eigenvalues --  -38.43165 -38.42329  -2.21199  -2.20884  -2.20767
  Beta  occ. eigenvalues --   -2.20331  -2.19256  -2.18972  -2.18139  -1.14897
  Beta  occ. eigenvalues --   -1.14872  -1.14839  -1.14610  -1.14584  -1.14529
  Beta  occ. eigenvalues --   -1.14433  -1.14427  -1.14408  -1.14031  -1.14026
  Beta  occ. eigenvalues --   -1.13948  -1.12972  -1.12937  -1.12898  -1.12635
  Beta  occ. eigenvalues --   -1.12631  -1.12601  -1.11816  -1.11810  -1.11778
  Beta  occ. eigenvalues --   -0.15955  -0.14287  -0.10919
  Beta virt. eigenvalues --   -0.07992  -0.06674  -0.04706  -0.04052  -0.03487
  Beta virt. eigenvalues --   -0.02834  -0.02368  -0.01496  -0.01303  -0.00656
  Beta virt. eigenvalues --   -0.00388  -0.00075   0.00078   0.00204   0.00460

 Mulliken charges and spin densities:
               1          2
     1  Na   0.558105   0.186016
     2  Na   0.362332   0.144872
     3  Na  -0.042737   0.131801
     4  Na  -0.489749  -0.016150
     5  Na  -0.020339   0.202713
     6  Na  -1.559460   0.185438
     7  Na   1.191847   0.165310
 Sum of Mulliken charges =  -0.00000   1.00000

 Dipole moment (field-independent basis, Debye):
    X=              2.0784    Y=             -0.1621    Z=              0.2052  Tot=              2.0947
 Quadrupole moment (field-independent basis, Debye-Ang):
   XX=            -51.7438   YY=            -71.2433   ZZ=            -70.8751
   XY=             -6.5837   XZ=             -2.3418   YZ=              2.4798

 Normal termination of Gaussian 16 at Sun Dec  3 22:21:03 2023.
