 Gaussian 16, Revision B.01,
 Gaussian 16:  ES64L-G16RevB.01 20-Dec-2017

 -------------------------
 #P B3LYP/6-311+g(d) force
 -------------------------

 -----
 DPGEN
 -----
 Symbolic Z-matrix:
 Charge =  0 Multiplicity = 2

                         Standard orientation:
 ---------------------------------------------------------------------
 Center     Atomic      Atomic             Coordinates (Angstroms)
 Number     Number       Type             X           Y           Z
 ---------------------------------------------------------------------
      1         11           0        0.979111   -2.809659    0.156958
      2         11           0       -2.086954    2.196846   -0.156586
      3         11           0        2.989573   -0.246961   -0.237866
      4         11           0        1.369303    2.589994   -0.189986
      5         11           0       -0.246427   -0.329641   -1.578346
      6         11           0       -2.819503   -1.589365   -0.179600
      7         11           0       -0.185104    0.188785    2.185427
 ---------------------------------------------------------------------

 SCF Done:  E(UB3LYP) =  -1136.13808520     A.U. after   19 cycles

 The electronic state is 2-A.
 Alpha  occ. eigenvalues --  -38.44057 -38.43851 -38.43750 -38.43674 -38.43533
 Alpha  occ. eigenvalues --  -38.43355 -38.43116  -2.19869  -2.19682  -2.19610
 Alpha  occ. eigenvalues --   -2.19524  -2.19401  -2.19212  -2.19101  -1.13570
 Alpha  occ. eigenvalues --   -1.13522  -1.13498  -1.13367  -1.13354  -1.13312
 Alpha  occ. eigenvalues --   -1.13267  -1.13234  -1.13233  -1.13226  -1.13186
 Alpha  occ. eigenvalues --   -1.13165  -1.13088  -1.13058  -1.13037  -1.12881
 Alpha  occ. eigenvalues --   -1.12871  -1.12848  -1.12781  -1.12733  -1.12730
 Alpha  occ. eigenvalues --   -0.18574  -0.12884  -0.12589  -0.10786
 Alpha virt. eigenvalues --   -0.05664  -0.05122  -0.04771  -0.03107  -0.02974
 Alpha virt. eigenvalues --   -0.02670  -0.01427  -0.01232  -0.00390  -0.00337
 Alpha virt. eigenvalues --   -0.00025   0.00353   0.00816   0.00848   0.00908

  Beta  occ. eigenvalues --  -38.44054 -38.43846 -38.43669 -38.43645 -38.43529
  Beta  occ. eigenvalues --  -38.43350 -38.43061  -2.19865  -2.19677  -2.19519
  Beta  occ. eigenvalues --   -2.19417  -2.19395  -2.19206  -2.19002  -1.13559
  Beta  occ. eigenvalues --   -1.13509  -1.13498  -1.13360  -1.13329  -1.13312
  Beta  occ. eigenvalues --   -1.13229  -1.13172  -1.13159  -1.13136  -1.13100
  Beta  occ. eigenvalues --   -1.13088  -1.13083  -1.13042  -1.13028  -1.12874
  Beta  occ. eigenvalues --   -1.12855  -1.12839  -1.12711  -1.12662  -1.12656
  Beta  occ. eigenvalues --   -0.17854  -0.12659  -0.12374
  Beta virt. eigenvalues --   -0.06837  -0.05665  -0.05064  -0.04733  -0.02325
  Beta virt. eigenvalues --   -0.02211  -0.01582  -0.01344  -0.01159  -0.00436
  Beta virt. eigenvalues --   -0.00389   0.00132   0.00386   0.00831   0.00887

 Mulliken charges and spin densities:
               1          2
     1  Na   0.216081   0.019183
     2  Na   0.210386  -0.045945
     3  Na   0.124220   0.004450
     4  Na   0.147545   0.009778
     5  Na  -0.279119   0.319102
     6  Na   0.198122  -0.070916
     7  Na  -0.617236   0.764348
 Sum of Mulliken charges =  -0.00000   1.00000

 Dipole moment (field-independent basis, Debye):
    X=             -0.3829    Y=             -0.1298    Z=              0.1728  Tot=              0.4397
 Quadrupole moment (field-independent basis, Debye-Ang):
   XX=            -58.3757   YY=            -61.1171   ZZ=            -74.3477
   XY=              0.0191   XZ=             -0.2266   YZ=             -1.1822

 Normal termination of Gaussian 16 at Thu Dec  7 15:45:15 2023.
