 Gaussian 16, Revision B.01,
 Gaussian 16:  ES64L-G16RevB.01 20-Dec-2017

 -------------------------
 #P B3LYP/6-311+g(d) force
 -------------------------

 -----
 DPGEN
 -----
 Symbolic Z-matrix:
 Charge =  0 Multiplicity = 2

                         Standard orientation:
 ---------------------------------------------------------------------
 Center     Atomic      Atomic             Coordinates (Angstroms)
 Number     Number       Type             X           Y           Z
 ---------------------------------------------------------------------
      1         11           0       -1.377910   -1.600985    0.927482
      2         11           0        1.494685    0.662585    1.766972
      3         11           0        1.309026    3.139525   -0.424643
      4         11           0       -1.942151    1.387896   -0.201912
      5         11           0       -4.540694   -0.550588   -0.581644
      6         11           0        2.718848   -0.016251   -0.959587
      7         11           0        2.338196   -3.022182   -0.526668
 ---------------------------------------------------------------------

 SCF Done:  E(UB3LYP) =  -1136.12388601     A.U. after   21 cycles

 The electronic state is 2-A.
 Alpha  occ. eigenvalues --  -38.44508 -38.44306 -38.44288 -38.44023 -38.43622
 Alpha  occ. eigenvalues --  -38.43547 -38.43456  -2.20398  -2.20153  -2.20107
 Alpha  occ. eigenvalues --   -2.19855  -2.19542  -2.19357  -2.19299  -1.14120
 Alpha  occ. eigenvalues --   -1.14051  -1.14000  -1.13875  -1.13844  -1.13817
 Alpha  occ. eigenvalues --   -1.13758  -1.13748  -1.13686  -1.13554  -1.13522
 Alpha  occ. eigenvalues --   -1.13440  -1.13240  -1.13231  -1.13187  -1.13013
 Alpha  occ. eigenvalues --   -1.12994  -1.12974  -1.12965  -1.12945  -1.12942
 Alpha  occ. eigenvalues --   -0.17640  -0.14090  -0.12220  -0.10375
 Alpha virt. eigenvalues --   -0.06395  -0.05352  -0.04836  -0.03511  -0.02686
 Alpha virt. eigenvalues --   -0.02360  -0.01731  -0.01200  -0.01147  -0.00719
 Alpha virt. eigenvalues --   -0.00170   0.00236   0.00353   0.00646   0.00693

  Beta  occ. eigenvalues --  -38.44464 -38.44302 -38.44248 -38.43981 -38.43585
  Beta  occ. eigenvalues --  -38.43535 -38.43447  -2.20319  -2.20150  -2.20031
  Beta  occ. eigenvalues --   -2.19782  -2.19475  -2.19337  -2.19282  -1.14064
  Beta  occ. eigenvalues --   -1.13983  -1.13938  -1.13867  -1.13834  -1.13785
  Beta  occ. eigenvalues --   -1.13706  -1.13697  -1.13652  -1.13507  -1.13462
  Beta  occ. eigenvalues --   -1.13382  -1.13197  -1.13184  -1.13138  -1.13000
  Beta  occ. eigenvalues --   -1.12963  -1.12959  -1.12952  -1.12930  -1.12925
  Beta  occ. eigenvalues --   -0.17027  -0.13701  -0.11998
  Beta virt. eigenvalues --   -0.06788  -0.06213  -0.04993  -0.04676  -0.03102
  Beta virt. eigenvalues --   -0.02274  -0.02108  -0.01219  -0.01086  -0.00975
  Beta virt. eigenvalues --   -0.00429   0.00105   0.00331   0.00483   0.00722

 Mulliken charges and spin densities:
               1          2
     1  Na  -0.415749   0.111519
     2  Na  -0.410467   0.320692
     3  Na   0.650162   0.092569
     4  Na  -0.696376   0.006321
     5  Na   0.732919   0.206950
     6  Na  -0.160541   0.345123
     7  Na   0.300051  -0.083174
 Sum of Mulliken charges =  -0.00000   1.00000

 Dipole moment (field-independent basis, Debye):
    X=             -0.9329    Y=              0.0430    Z=              0.3534  Tot=              0.9985
 Quadrupole moment (field-independent basis, Debye-Ang):
   XX=            -63.3470   YY=            -62.5881   ZZ=            -71.0503
   XY=              4.3929   XZ=              3.3757   YZ=             -0.6671

 Normal termination of Gaussian 16 at Tue Nov 28 22:30:32 2023.
