 Gaussian 16, Revision B.01,
 Gaussian 16:  ES64L-G16RevB.01 20-Dec-2017

 -------------------------
 #P B3LYP/6-311+g(d) force
 -------------------------

 -----
 DPGEN
 -----
 Symbolic Z-matrix:
 Charge =  0 Multiplicity = 2

                         Standard orientation:
 ---------------------------------------------------------------------
 Center     Atomic      Atomic             Coordinates (Angstroms)
 Number     Number       Type             X           Y           Z
 ---------------------------------------------------------------------
      1         11           0       -3.843614   -1.077279    0.532386
      2         11           0        3.360160    0.901073    0.203805
      3         11           0       -0.904815   -2.877924   -0.389407
      4         11           0        2.701773   -2.542282    0.027750
      5         11           0       -0.034043   -0.047243   -0.110400
      6         11           0       -2.472916    2.629514   -0.339744
      7         11           0        1.193455    3.014142    0.075609
 ---------------------------------------------------------------------

 SCF Done:  E(UB3LYP) =  -1136.12413209     A.U. after   27 cycles

 The electronic state is 2-A.
 Alpha  occ. eigenvalues --  -38.44297 -38.44093 -38.44048 -38.44012 -38.43831
 Alpha  occ. eigenvalues --  -38.43784 -38.43545  -2.20151  -2.19949  -2.19905
 Alpha  occ. eigenvalues --   -2.19846  -2.19666  -2.19636  -2.19437  -1.13967
 Alpha  occ. eigenvalues --   -1.13823  -1.13738  -1.13670  -1.13606  -1.13575
 Alpha  occ. eigenvalues --   -1.13566  -1.13547  -1.13522  -1.13510  -1.13489
 Alpha  occ. eigenvalues --   -1.13461  -1.13401  -1.13331  -1.13312  -1.13298
 Alpha  occ. eigenvalues --   -1.13269  -1.13261  -1.13083  -1.13070  -1.13053
 Alpha  occ. eigenvalues --   -0.17391  -0.13833  -0.13364  -0.09796
 Alpha virt. eigenvalues --   -0.06826  -0.05365  -0.04400  -0.03372  -0.02579
 Alpha virt. eigenvalues --   -0.02371  -0.01982  -0.01705  -0.01286  -0.00228
 Alpha virt. eigenvalues --    0.00042   0.00315   0.00501   0.00582   0.00701

  Beta  occ. eigenvalues --  -38.44292 -38.44067 -38.44024 -38.43984 -38.43771
  Beta  occ. eigenvalues --  -38.43768 -38.43500  -2.20147  -2.19968  -2.19859
  Beta  occ. eigenvalues --   -2.19728  -2.19645  -2.19525  -2.19357  -1.13977
  Beta  occ. eigenvalues --   -1.13825  -1.13691  -1.13679  -1.13629  -1.13560
  Beta  occ. eigenvalues --   -1.13543  -1.13527  -1.13494  -1.13430  -1.13399
  Beta  occ. eigenvalues --   -1.13385  -1.13373  -1.13324  -1.13260  -1.13223
  Beta  occ. eigenvalues --   -1.13196  -1.13183  -1.13030  -1.13021  -1.12985
  Beta  occ. eigenvalues --   -0.17152  -0.13087  -0.12710
  Beta virt. eigenvalues --   -0.06808  -0.06558  -0.05120  -0.04279  -0.02751
  Beta virt. eigenvalues --   -0.02355  -0.01826  -0.01723  -0.01443  -0.01206
  Beta virt. eigenvalues --   -0.00064   0.00275   0.00517   0.00555   0.00699

 Mulliken charges and spin densities:
               1          2
     1  Na   0.552154   0.356808
     2  Na  -0.146957   0.236094
     3  Na   2.187845   0.162104
     4  Na   1.022552   0.136822
     5  Na  -6.133866  -0.289878
     6  Na   0.995769   0.274196
     7  Na   1.522503   0.123854
 Sum of Mulliken charges =  -0.00000   1.00000

 Dipole moment (field-independent basis, Debye):
    X=              0.1768    Y=             -0.3452    Z=              0.0243  Tot=              0.3886
 Quadrupole moment (field-independent basis, Debye-Ang):
   XX=            -59.4864   YY=            -65.0189   ZZ=            -72.2981
   XY=             -5.9628   XZ=              0.0068   YZ=              0.7499

 Normal termination of Gaussian 16 at Fri Dec  8 20:25:13 2023.
