 Gaussian 16, Revision B.01,
 Gaussian 16:  ES64L-G16RevB.01 20-Dec-2017

 -------------------------
 #P B3LYP/6-311+g(d) force
 -------------------------

 -----
 DPGEN
 -----
 Symbolic Z-matrix:
 Charge =  0 Multiplicity = 2

                         Standard orientation:
 ---------------------------------------------------------------------
 Center     Atomic      Atomic             Coordinates (Angstroms)
 Number     Number       Type             X           Y           Z
 ---------------------------------------------------------------------
      1         11           0        3.043758    1.178441   -0.031787
      2         11           0       -0.166993   -0.159515    2.187392
      3         11           0        0.010875   -0.033504   -1.689624
      4         11           0       -0.506634    3.074228   -0.053895
      5         11           0        2.106216   -2.194271   -0.110263
      6         11           0       -2.729605    0.733201   -0.159314
      7         11           0       -1.757616   -2.598580   -0.142508
 ---------------------------------------------------------------------

 SCF Done:  E(UB3LYP) =  -1136.13820696     A.U. after   19 cycles

 The electronic state is 2-A.
 Alpha  occ. eigenvalues --  -38.44031 -38.43865 -38.43844 -38.43546 -38.43536
 Alpha  occ. eigenvalues --  -38.43489 -38.43324  -2.19817  -2.19697  -2.19686
 Alpha  occ. eigenvalues --   -2.19393  -2.19375  -2.19364  -2.19277  -1.13493
 Alpha  occ. eigenvalues --   -1.13479  -1.13464  -1.13375  -1.13361  -1.13350
 Alpha  occ. eigenvalues --   -1.13322  -1.13315  -1.13307  -1.13136  -1.13092
 Alpha  occ. eigenvalues --   -1.13058  -1.13045  -1.13028  -1.13025  -1.13016
 Alpha  occ. eigenvalues --   -1.13011  -1.12961  -1.12950  -1.12904  -1.12887
 Alpha  occ. eigenvalues --   -0.18423  -0.12897  -0.12388  -0.10815
 Alpha virt. eigenvalues --   -0.05530  -0.05112  -0.04997  -0.03164  -0.02894
 Alpha virt. eigenvalues --   -0.02752  -0.01380  -0.01241  -0.00524  -0.00369
 Alpha virt. eigenvalues --   -0.00036   0.00362   0.00797   0.00837   0.00884

  Beta  occ. eigenvalues --  -38.44032 -38.43861 -38.43741 -38.43543 -38.43535
  Beta  occ. eigenvalues --  -38.43481 -38.43261  -2.19821  -2.19682  -2.19506
  Beta  occ. eigenvalues --   -2.19382  -2.19372  -2.19364  -2.19162  -1.13483
  Beta  occ. eigenvalues --   -1.13480  -1.13469  -1.13365  -1.13336  -1.13309
  Beta  occ. eigenvalues --   -1.13230  -1.13190  -1.13181  -1.13124  -1.13086
  Beta  occ. eigenvalues --   -1.13032  -1.13026  -1.13017  -1.13014  -1.13010
  Beta  occ. eigenvalues --   -1.12999  -1.12961  -1.12876  -1.12823  -1.12805
  Beta  occ. eigenvalues --   -0.17680  -0.12686  -0.12190
  Beta virt. eigenvalues --   -0.06853  -0.05550  -0.05079  -0.04918  -0.02368
  Beta virt. eigenvalues --   -0.02151  -0.01664  -0.01303  -0.01160  -0.00582
  Beta virt. eigenvalues --   -0.00430   0.00122   0.00387   0.00819   0.00879

 Mulliken charges and spin densities:
               1          2
     1  Na  -0.011536  -0.082666
     2  Na  -0.577460   0.796898
     3  Na  -0.112263   0.443829
     4  Na   0.004421  -0.072322
     5  Na   0.109438  -0.085343
     6  Na   0.366597   0.043898
     7  Na   0.220802  -0.044294
 Sum of Mulliken charges =  -0.00000   1.00000

 Dipole moment (field-independent basis, Debye):
    X=              0.2825    Y=             -0.0821    Z=              0.1341  Tot=              0.3234
 Quadrupole moment (field-independent basis, Debye-Ang):
   XX=            -59.8106   YY=            -60.0070   ZZ=            -74.1899
   XY=              1.0136   XZ=              0.4504   YZ=              0.3604

 Normal termination of Gaussian 16 at Thu Dec  7 17:33:29 2023.
