 Gaussian 16, Revision B.01,
 Gaussian 16:  ES64L-G16RevB.01 20-Dec-2017

 -------------------------
 #P B3LYP/6-311+g(d) force
 -------------------------

 -----
 DPGEN
 -----
 Symbolic Z-matrix:
 Charge =  0 Multiplicity = 2

                         Standard orientation:
 ---------------------------------------------------------------------
 Center     Atomic      Atomic             Coordinates (Angstroms)
 Number     Number       Type             X           Y           Z
 ---------------------------------------------------------------------
      1         11           0       -0.352550    3.506944   -0.397613
      2         11           0        1.718282   -2.452282    0.432682
      3         11           0       -0.354949   -0.138445   -1.783495
      4         11           0        3.461161    0.644176   -0.195894
      5         11           0        0.292514    0.740448    1.802426
      6         11           0       -1.325784   -2.346117   -0.415537
      7         11           0       -3.438675    0.045275    0.557431
 ---------------------------------------------------------------------

 SCF Done:  E(UB3LYP) =  -1136.12085911     A.U. after   21 cycles

 The electronic state is 2-A.
 Alpha  occ. eigenvalues --  -38.45102 -38.44605 -38.44178 -38.43767 -38.43697
 Alpha  occ. eigenvalues --  -38.43675 -38.43316  -2.20848  -2.20392  -2.19932
 Alpha  occ. eigenvalues --   -2.19635  -2.19604  -2.19519  -2.19275  -1.14528
 Alpha  occ. eigenvalues --   -1.14496  -1.14495  -1.14057  -1.14048  -1.14025
 Alpha  occ. eigenvalues --   -1.13604  -1.13582  -1.13579  -1.13509  -1.13303
 Alpha  occ. eigenvalues --   -1.13261  -1.13246  -1.13233  -1.13222  -1.13210
 Alpha  occ. eigenvalues --   -1.13175  -1.13155  -1.12905  -1.12893  -1.12868
 Alpha  occ. eigenvalues --   -0.18021  -0.12812  -0.12330  -0.10368
 Alpha virt. eigenvalues --   -0.06653  -0.05387  -0.04487  -0.03145  -0.03009
 Alpha virt. eigenvalues --   -0.02255  -0.02062  -0.01439  -0.00698  -0.00371
 Alpha virt. eigenvalues --   -0.00046   0.00317   0.00517   0.00664   0.00863

  Beta  occ. eigenvalues --  -38.45107 -38.44580 -38.44170 -38.43715 -38.43669
  Beta  occ. eigenvalues --  -38.43619 -38.43302  -2.20860  -2.20347  -2.19917
  Beta  occ. eigenvalues --   -2.19512  -2.19507  -2.19492  -2.19255  -1.14527
  Beta  occ. eigenvalues --   -1.14505  -1.14502  -1.14027  -1.14006  -1.13997
  Beta  occ. eigenvalues --   -1.13584  -1.13573  -1.13568  -1.13422  -1.13239
  Beta  occ. eigenvalues --   -1.13222  -1.13173  -1.13162  -1.13157  -1.13153
  Beta  occ. eigenvalues --   -1.13141  -1.13116  -1.12882  -1.12864  -1.12827
  Beta  occ. eigenvalues --   -0.17346  -0.12591  -0.12090
  Beta virt. eigenvalues --   -0.06744  -0.06502  -0.05191  -0.04427  -0.02511
  Beta virt. eigenvalues --   -0.02341  -0.01943  -0.01421  -0.01247  -0.00699
  Beta virt. eigenvalues --   -0.00366   0.00095   0.00362   0.00594   0.00698

 Mulliken charges and spin densities:
               1          2
     1  Na  -0.148164  -0.054840
     2  Na  -0.119861  -0.018486
     3  Na  -0.001395   0.373996
     4  Na   0.029611  -0.061135
     5  Na  -0.188854   0.442618
     6  Na   0.556550   0.283465
     7  Na  -0.127887   0.034381
 Sum of Mulliken charges =  -0.00000   1.00000

 Dipole moment (field-independent basis, Debye):
    X=              0.3824    Y=              0.5694    Z=              0.0970  Tot=              0.6927
 Quadrupole moment (field-independent basis, Debye-Ang):
   XX=            -54.6389   YY=            -62.8334   ZZ=            -75.4651
   XY=             -0.0571   XZ=             -1.9749   YZ=             -2.0700

 Normal termination of Gaussian 16 at Thu Dec  7 11:19:28 2023.
