 Gaussian 16, Revision B.01,
 Gaussian 16:  ES64L-G16RevB.01 20-Dec-2017

 -------------------------
 #P B3LYP/6-311+g(d) force
 -------------------------

 -----
 DPGEN
 -----
 Symbolic Z-matrix:
 Charge =  0 Multiplicity = 2

                         Standard orientation:
 ---------------------------------------------------------------------
 Center     Atomic      Atomic             Coordinates (Angstroms)
 Number     Number       Type             X           Y           Z
 ---------------------------------------------------------------------
      1         11           0       -1.441405   -2.135420    0.110932
      2         11           0        3.166698    1.046298    0.125047
      3         11           0       -0.235801    2.818758   -0.212210
      4         11           0       -3.401431    0.407572    0.002256
      5         11           0       -0.050122    0.235472    1.796000
      6         11           0        0.058867   -0.101475   -1.778008
      7         11           0        1.903195   -2.271204   -0.044016
 ---------------------------------------------------------------------

 SCF Done:  E(UB3LYP) =  -1136.13464723     A.U. after   20 cycles

 The electronic state is 2-A.
 Alpha  occ. eigenvalues --  -38.44609 -38.44570 -38.43324 -38.43298 -38.43255
 Alpha  occ. eigenvalues --  -38.43189 -38.42982  -2.20415  -2.20360  -2.19274
 Alpha  occ. eigenvalues --   -2.19163  -2.19144  -2.19126  -2.18937  -1.14098
 Alpha  occ. eigenvalues --   -1.14078  -1.14045  -1.14036  -1.14017  -1.13996
 Alpha  occ. eigenvalues --   -1.12988  -1.12952  -1.12887  -1.12877  -1.12866
 Alpha  occ. eigenvalues --   -1.12818  -1.12806  -1.12788  -1.12779  -1.12765
 Alpha  occ. eigenvalues --   -1.12749  -1.12737  -1.12612  -1.12590  -1.12546
 Alpha  occ. eigenvalues --   -0.18846  -0.13149  -0.12306  -0.10594
 Alpha virt. eigenvalues --   -0.06309  -0.04919  -0.04345  -0.03132  -0.02765
 Alpha virt. eigenvalues --   -0.02352  -0.02061  -0.01080  -0.00391  -0.00099
 Alpha virt. eigenvalues --   -0.00023   0.00320   0.00776   0.00861   0.00894

  Beta  occ. eigenvalues --  -38.44609 -38.44568 -38.43289 -38.43250 -38.43246
  Beta  occ. eigenvalues --  -38.43107 -38.42970  -2.20418  -2.20359  -2.19134
  Beta  occ. eigenvalues --   -2.19131  -2.19121  -2.19013  -2.18920  -1.14103
  Beta  occ. eigenvalues --   -1.14061  -1.14049  -1.14019  -1.14016  -1.13998
  Beta  occ. eigenvalues --   -1.12906  -1.12878  -1.12826  -1.12814  -1.12781
  Beta  occ. eigenvalues --   -1.12777  -1.12763  -1.12756  -1.12749  -1.12743
  Beta  occ. eigenvalues --   -1.12688  -1.12648  -1.12591  -1.12547  -1.12526
  Beta  occ. eigenvalues --   -0.18099  -0.12936  -0.12032
  Beta virt. eigenvalues --   -0.06675  -0.06271  -0.04928  -0.04333  -0.02381
  Beta virt. eigenvalues --   -0.01969  -0.01953  -0.01296  -0.01035  -0.00434
  Beta virt. eigenvalues --   -0.00136   0.00112   0.00337   0.00803   0.00872

 Mulliken charges and spin densities:
               1          2
     1  Na   0.348109   0.013481
     2  Na   0.078922  -0.097511
     3  Na   0.000994  -0.188066
     4  Na   0.116110  -0.092280
     5  Na  -0.401820   0.709565
     6  Na  -0.350181   0.706595
     7  Na   0.207866  -0.051784
 Sum of Mulliken charges =  -0.00000   1.00000

 Dipole moment (field-independent basis, Debye):
    X=              0.0608    Y=              0.3829    Z=              0.0266  Tot=              0.3886
 Quadrupole moment (field-independent basis, Debye-Ang):
   XX=            -50.5711   YY=            -65.8413   ZZ=            -75.2645
   XY=             -0.7264   XZ=              0.3668   YZ=             -0.6155

 Normal termination of Gaussian 16 at Sat Dec  9 07:03:34 2023.
