 Gaussian 16, Revision B.01,
 Gaussian 16:  ES64L-G16RevB.01 20-Dec-2017

 -------------------------
 #P B3LYP/6-311+g(d) force
 -------------------------

 -----
 DPGEN
 -----
 Symbolic Z-matrix:
 Charge =  0 Multiplicity = 2

                         Standard orientation:
 ---------------------------------------------------------------------
 Center     Atomic      Atomic             Coordinates (Angstroms)
 Number     Number       Type             X           Y           Z
 ---------------------------------------------------------------------
      1         11           0        0.998389   -2.582526    0.409535
      2         11           0        0.225376   -0.003473   -1.511201
      3         11           0       -2.552328    1.704622   -0.110723
      4         11           0       -0.286188   -0.165034    2.133848
      5         11           0       -2.373889   -1.963865   -0.645116
      6         11           0        3.349275    0.109230   -0.404056
      7         11           0        0.639366    2.901046    0.127712
 ---------------------------------------------------------------------

 SCF Done:  E(UB3LYP) =  -1136.13835808     A.U. after   19 cycles

 The electronic state is 2-A.
 Alpha  occ. eigenvalues --  -38.43879 -38.43785 -38.43721 -38.43597 -38.43579
 Alpha  occ. eigenvalues --  -38.43443 -38.43082  -2.19685  -2.19673  -2.19554
 Alpha  occ. eigenvalues --   -2.19431  -2.19412  -2.19325  -2.19077  -1.13370
 Alpha  occ. eigenvalues --   -1.13352  -1.13333  -1.13324  -1.13305  -1.13290
 Alpha  occ. eigenvalues --   -1.13234  -1.13219  -1.13198  -1.13120  -1.13100
 Alpha  occ. eigenvalues --   -1.13080  -1.13077  -1.13070  -1.13029  -1.13017
 Alpha  occ. eigenvalues --   -1.12999  -1.12928  -1.12764  -1.12714  -1.12695
 Alpha  occ. eigenvalues --   -0.18541  -0.12755  -0.12567  -0.10904
 Alpha virt. eigenvalues --   -0.05458  -0.05081  -0.04834  -0.03136  -0.02962
 Alpha virt. eigenvalues --   -0.02622  -0.01530  -0.01161  -0.00379  -0.00285
 Alpha virt. eigenvalues --   -0.00008   0.00333   0.00798   0.00863   0.00888

  Beta  occ. eigenvalues --  -38.43874 -38.43718 -38.43683 -38.43579 -38.43577
  Beta  occ. eigenvalues --  -38.43430 -38.43032  -2.19676  -2.19552  -2.19487
  Beta  occ. eigenvalues --   -2.19410  -2.19401  -2.19305  -2.18986  -1.13354
  Beta  occ. eigenvalues --   -1.13327  -1.13320  -1.13236  -1.13227  -1.13217
  Beta  occ. eigenvalues --   -1.13190  -1.13164  -1.13159  -1.13096  -1.13089
  Beta  occ. eigenvalues --   -1.13067  -1.13056  -1.13045  -1.13028  -1.13002
  Beta  occ. eigenvalues --   -1.12947  -1.12921  -1.12699  -1.12653  -1.12623
  Beta  occ. eigenvalues --   -0.17833  -0.12521  -0.12305
  Beta virt. eigenvalues --   -0.06984  -0.05414  -0.05040  -0.04751  -0.02343
  Beta virt. eigenvalues --   -0.02295  -0.01598  -0.01408  -0.01092  -0.00369
  Beta virt. eigenvalues --   -0.00309   0.00122   0.00374   0.00853   0.00880

 Mulliken charges and spin densities:
               1          2
     1  Na   0.292097   0.105346
     2  Na  -0.269150   0.353382
     3  Na   0.079831  -0.025013
     4  Na  -0.315076   0.581732
     5  Na   0.114282   0.037277
     6  Na   0.083288  -0.038880
     7  Na   0.014729  -0.013845
 Sum of Mulliken charges =  -0.00000   1.00000

 Dipole moment (field-independent basis, Debye):
    X=              0.0062    Y=              0.1044    Z=              0.1757  Tot=              0.2045
 Quadrupole moment (field-independent basis, Debye-Ang):
   XX=            -57.2556   YY=            -62.2670   ZZ=            -73.7227
   XY=              0.2763   XZ=              0.9540   YZ=              0.6392

 Normal termination of Gaussian 16 at Thu Dec  7 14:20:56 2023.
