 Gaussian 16, Revision B.01,
 Gaussian 16:  ES64L-G16RevB.01 20-Dec-2017

 -------------------------
 #P B3LYP/6-311+g(d) force
 -------------------------

 -----
 DPGEN
 -----
 Symbolic Z-matrix:
 Charge =  0 Multiplicity = 2

                         Standard orientation:
 ---------------------------------------------------------------------
 Center     Atomic      Atomic             Coordinates (Angstroms)
 Number     Number       Type             X           Y           Z
 ---------------------------------------------------------------------
      1         11           0       -2.704112    1.855840   -0.223371
      2         11           0        0.847410    1.932028   -0.592913
      3         11           0       -0.454822   -1.156635   -1.573838
      4         11           0       -0.254056   -0.469295    1.965538
      5         11           0        3.683442    0.772363    0.481724
      6         11           0       -3.560453   -1.175776    0.325313
      7         11           0        2.442591   -1.758526   -0.382454
 ---------------------------------------------------------------------

 SCF Done:  E(UB3LYP) =  -1136.11495729     A.U. after   31 cycles

 The electronic state is 2-A.
 Alpha  occ. eigenvalues --  -38.45707 -38.45112 -38.45026 -38.44044 -38.43840
 Alpha  occ. eigenvalues --  -38.43105 -38.42691  -2.21502  -2.20933  -2.20890
 Alpha  occ. eigenvalues --   -2.19869  -2.19741  -2.19021  -2.18570  -1.15199
 Alpha  occ. eigenvalues --   -1.15145  -1.15116  -1.14611  -1.14611  -1.14590
 Alpha  occ. eigenvalues --   -1.14560  -1.14531  -1.14515  -1.13541  -1.13531
 Alpha  occ. eigenvalues --   -1.13519  -1.13434  -1.13396  -1.13375  -1.12711
 Alpha  occ. eigenvalues --   -1.12648  -1.12636  -1.12265  -1.12236  -1.12195
 Alpha  occ. eigenvalues --   -0.18519  -0.14547  -0.11023  -0.10797
 Alpha virt. eigenvalues --   -0.07678  -0.05680  -0.04178  -0.03201  -0.03111
 Alpha virt. eigenvalues --   -0.02419  -0.02221  -0.01475  -0.00679  -0.00438
 Alpha virt. eigenvalues --   -0.00021   0.00178   0.00298   0.00580   0.00651

  Beta  occ. eigenvalues --  -38.45665 -38.45095 -38.45009 -38.44044 -38.43827
  Beta  occ. eigenvalues --  -38.43029 -38.42667  -2.21424  -2.20901  -2.20858
  Beta  occ. eigenvalues --   -2.19873  -2.19722  -2.18884  -2.18529  -1.15140
  Beta  occ. eigenvalues --   -1.15095  -1.15056  -1.14594  -1.14591  -1.14554
  Beta  occ. eigenvalues --   -1.14540  -1.14509  -1.14487  -1.13548  -1.13529
  Beta  occ. eigenvalues --   -1.13504  -1.13400  -1.13385  -1.13349  -1.12620
  Beta  occ. eigenvalues --   -1.12547  -1.12533  -1.12242  -1.12185  -1.12164
  Beta  occ. eigenvalues --   -0.17845  -0.14277  -0.10756
  Beta virt. eigenvalues --   -0.07446  -0.07036  -0.05701  -0.03487  -0.02957
  Beta virt. eigenvalues --   -0.02943  -0.01774  -0.01557  -0.01376  -0.00509
  Beta virt. eigenvalues --   -0.00262   0.00041   0.00183   0.00495   0.00662

 Mulliken charges and spin densities:
               1          2
     1  Na  -0.180862  -0.019540
     2  Na  -0.533905  -0.037412
     3  Na  -0.107210   0.346741
     4  Na  -0.396952   0.295069
     5  Na   0.628226   0.247348
     6  Na   0.580550   0.167575
     7  Na   0.010153   0.000219
 Sum of Mulliken charges =  -0.00000   1.00000

 Dipole moment (field-independent basis, Debye):
    X=             -0.4642    Y=             -0.4112    Z=              0.5071  Tot=              0.8011
 Quadrupole moment (field-independent basis, Debye-Ang):
   XX=            -45.9784   YY=            -77.8647   ZZ=            -71.5767
   XY=              0.4446   XZ=              1.4252   YZ=              0.1684

 Normal termination of Gaussian 16 at Thu Dec  7 11:07:40 2023.
