 Gaussian 16, Revision B.01,
 Gaussian 16:  ES64L-G16RevB.01 20-Dec-2017

 -------------------------
 #P B3LYP/6-311+g(d) force
 -------------------------

 -----
 DPGEN
 -----
 Symbolic Z-matrix:
 Charge =  0 Multiplicity = 2

                         Standard orientation:
 ---------------------------------------------------------------------
 Center     Atomic      Atomic             Coordinates (Angstroms)
 Number     Number       Type             X           Y           Z
 ---------------------------------------------------------------------
      1         11           0        1.501626    2.064952    0.189854
      2         11           0        4.838575    0.948487   -0.726230
      3         11           0        5.308047   -1.913606    0.609155
      4         11           0        1.548362   -0.985652   -0.454669
      5         11           0       -1.573188    0.587423    0.176653
      6         11           0       -4.848499    0.085311    1.229099
      7         11           0       -6.774923   -0.786916   -1.023862
 ---------------------------------------------------------------------

 SCF Done:  E(UB3LYP) =  -1136.11550549     A.U. after   22 cycles

 The electronic state is 2-A.
 Alpha  occ. eigenvalues --  -38.45156 -38.44820 -38.44204 -38.43891 -38.43706
 Alpha  occ. eigenvalues --  -38.43647 -38.43577  -2.20985  -2.20611  -2.20022
 Alpha  occ. eigenvalues --   -2.19728  -2.19595  -2.19463  -2.19415  -1.14706
 Alpha  occ. eigenvalues --   -1.14683  -1.14561  -1.14281  -1.14260  -1.14256
 Alpha  occ. eigenvalues --   -1.13687  -1.13679  -1.13672  -1.13413  -1.13390
 Alpha  occ. eigenvalues --   -1.13384  -1.13286  -1.13255  -1.13196  -1.13114
 Alpha  occ. eigenvalues --   -1.13111  -1.13093  -1.13089  -1.13082  -1.13016
 Alpha  occ. eigenvalues --   -0.16642  -0.14393  -0.12306  -0.10236
 Alpha virt. eigenvalues --   -0.07136  -0.05327  -0.04521  -0.03570  -0.02775
 Alpha virt. eigenvalues --   -0.02692  -0.02107  -0.01911  -0.01024  -0.00727
 Alpha virt. eigenvalues --   -0.00377  -0.00052   0.00203   0.00381   0.00594

  Beta  occ. eigenvalues --  -38.45144 -38.44794 -38.44209 -38.43869 -38.43652
  Beta  occ. eigenvalues --  -38.43603 -38.43556  -2.20964  -2.20562  -2.20033
  Beta  occ. eigenvalues --   -2.19690  -2.19496  -2.19380  -2.19374  -1.14683
  Beta  occ. eigenvalues --   -1.14656  -1.14548  -1.14252  -1.14226  -1.14223
  Beta  occ. eigenvalues --   -1.13691  -1.13687  -1.13667  -1.13391  -1.13367
  Beta  occ. eigenvalues --   -1.13321  -1.13225  -1.13190  -1.13113  -1.13064
  Beta  occ. eigenvalues --   -1.13057  -1.13054  -1.13053  -1.13028  -1.12993
  Beta  occ. eigenvalues --   -0.16092  -0.14091  -0.12097
  Beta virt. eigenvalues --   -0.07067  -0.06400  -0.04943  -0.04339  -0.03308
  Beta virt. eigenvalues --   -0.02642  -0.02291  -0.01917  -0.01509  -0.00829
  Beta virt. eigenvalues --   -0.00491  -0.00161   0.00255   0.00307   0.00493

 Mulliken charges and spin densities:
               1          2
     1  Na  -0.074895   0.670975
     2  Na   0.117109  -0.017556
     3  Na   0.258932   0.198389
     4  Na  -0.217513   0.364954
     5  Na  -0.500867  -0.249405
     6  Na   0.331084  -0.083114
     7  Na   0.086151   0.115758
 Sum of Mulliken charges =  -0.00000   1.00000

 Dipole moment (field-independent basis, Debye):
    X=             -0.9565    Y=             -0.1396    Z=             -0.3306  Tot=              1.0216
 Quadrupole moment (field-independent basis, Debye-Ang):
   XX=            -60.9288   YY=            -70.1152   ZZ=            -66.3063
   XY=              2.1821   XZ=              4.4164   YZ=              2.3120

 Normal termination of Gaussian 16 at Wed Nov 29 01:01:40 2023.
