 Gaussian 16, Revision B.01,
 Gaussian 16:  ES64L-G16RevB.01 20-Dec-2017

 -------------------------
 #P B3LYP/6-311+g(d) force
 -------------------------

 -----
 DPGEN
 -----
 Symbolic Z-matrix:
 Charge =  0 Multiplicity = 2

                         Standard orientation:
 ---------------------------------------------------------------------
 Center     Atomic      Atomic             Coordinates (Angstroms)
 Number     Number       Type             X           Y           Z
 ---------------------------------------------------------------------
      1         11           0        1.614725    0.851261    2.139425
      2         11           0       -0.055753    1.888570   -0.674227
      3         11           0        3.433484    0.932509   -1.106707
      4         11           0        4.376829   -1.623324    0.309717
      5         11           0        0.255869   -1.245711   -0.634749
      6         11           0       -3.195551   -0.684032   -0.340318
      7         11           0       -6.429604   -0.119272    0.306859
 ---------------------------------------------------------------------

 SCF Done:  E(UB3LYP) =  -1136.10928471     A.U. after   28 cycles

 The electronic state is 2-A.
 Alpha  occ. eigenvalues --  -38.45492 -38.45259 -38.44632 -38.44225 -38.43739
 Alpha  occ. eigenvalues --  -38.43655 -38.43075  -2.21353  -2.21100  -2.20520
 Alpha  occ. eigenvalues --   -2.20081  -2.19534  -2.19469  -2.18873  -1.15023
 Alpha  occ. eigenvalues --   -1.15019  -1.14979  -1.14768  -1.14719  -1.14705
 Alpha  occ. eigenvalues --   -1.14202  -1.14190  -1.14114  -1.13769  -1.13754
 Alpha  occ. eigenvalues --   -1.13718  -1.13175  -1.13174  -1.13161  -1.13161
 Alpha  occ. eigenvalues --   -1.13121  -1.13119  -1.12570  -1.12562  -1.12507
 Alpha  occ. eigenvalues --   -0.18052  -0.13738  -0.11764  -0.10936
 Alpha virt. eigenvalues --   -0.07822  -0.05369  -0.04555  -0.03193  -0.03024
 Alpha virt. eigenvalues --   -0.02442  -0.02081  -0.01874  -0.01488  -0.01259
 Alpha virt. eigenvalues --   -0.00520   0.00087   0.00115   0.00438   0.00573

  Beta  occ. eigenvalues --  -38.45474 -38.45163 -38.44562 -38.44253 -38.43672
  Beta  occ. eigenvalues --  -38.43663 -38.43082  -2.21320  -2.20921  -2.20392
  Beta  occ. eigenvalues --   -2.20139  -2.19503  -2.19393  -2.18893  -1.15014
  Beta  occ. eigenvalues --   -1.14987  -1.14952  -1.14639  -1.14605  -1.14581
  Beta  occ. eigenvalues --   -1.14131  -1.14094  -1.14019  -1.13814  -1.13783
  Beta  occ. eigenvalues --   -1.13731  -1.13175  -1.13148  -1.13136  -1.13079
  Beta  occ. eigenvalues --   -1.13078  -1.13069  -1.12590  -1.12580  -1.12472
  Beta  occ. eigenvalues --   -0.17571  -0.13264  -0.11222
  Beta virt. eigenvalues --   -0.07908  -0.07174  -0.05137  -0.04447  -0.02836
  Beta virt. eigenvalues --   -0.02643  -0.02003  -0.01642  -0.01615  -0.01193
  Beta virt. eigenvalues --   -0.00763  -0.00495   0.00150   0.00314   0.00500

 Mulliken charges and spin densities:
               1          2
     1  Na  -0.088227   0.386702
     2  Na   0.056403  -0.046507
     3  Na   0.473112   0.256148
     4  Na   0.234983  -0.178595
     5  Na  -0.520775   0.186606
     6  Na  -0.462015   0.090666
     7  Na   0.306518   0.304980
 Sum of Mulliken charges =  -0.00000   1.00000

 Dipole moment (field-independent basis, Debye):
    X=              2.0367    Y=              0.9238    Z=              0.1027  Tot=              2.2387
 Quadrupole moment (field-independent basis, Debye-Ang):
   XX=            -72.5024   YY=            -67.8997   ZZ=            -67.7724
   XY=             -1.4198   XZ=             -2.0367   YZ=             -7.3207

 Normal termination of Gaussian 16 at Fri Dec  8 19:18:51 2023.
