 Gaussian 16, Revision B.01,
 Gaussian 16:  ES64L-G16RevB.01 20-Dec-2017

 -------------------------
 #P B3LYP/6-311+g(d) force
 -------------------------

 -----
 DPGEN
 -----
 Symbolic Z-matrix:
 Charge =  0 Multiplicity = 2

                         Standard orientation:
 ---------------------------------------------------------------------
 Center     Atomic      Atomic             Coordinates (Angstroms)
 Number     Number       Type             X           Y           Z
 ---------------------------------------------------------------------
      1         11           0       -0.997347    0.895982    1.609901
      2         11           0        1.923082    1.223626    0.371730
      3         11           0        0.926174   -2.267001    1.179975
      4         11           0       -3.575365   -0.173835   -0.982096
      5         11           0       -1.624080   -2.925103   -0.591675
      6         11           0        4.329305   -0.290877   -1.173636
      7         11           0       -0.981769    3.537207   -0.414200
 ---------------------------------------------------------------------

 SCF Done:  E(UB3LYP) =  -1136.12164288     A.U. after   20 cycles

 The electronic state is 2-A.
 Alpha  occ. eigenvalues --  -38.44731 -38.44339 -38.44214 -38.43991 -38.43927
 Alpha  occ. eigenvalues --  -38.43882 -38.43397  -2.20506  -2.20219  -2.20011
 Alpha  occ. eigenvalues --   -2.19803  -2.19738  -2.19715  -2.19268  -1.14183
 Alpha  occ. eigenvalues --   -1.14161  -1.14153  -1.13931  -1.13871  -1.13820
 Alpha  occ. eigenvalues --   -1.13675  -1.13660  -1.13632  -1.13524  -1.13472
 Alpha  occ. eigenvalues --   -1.13444  -1.13395  -1.13376  -1.13374  -1.13364
 Alpha  occ. eigenvalues --   -1.13354  -1.13317  -1.12975  -1.12954  -1.12876
 Alpha  occ. eigenvalues --   -0.17165  -0.13297  -0.12744  -0.10816
 Alpha virt. eigenvalues --   -0.06502  -0.05325  -0.04503  -0.03826  -0.02887
 Alpha virt. eigenvalues --   -0.01997  -0.01634  -0.01467  -0.01155  -0.00683
 Alpha virt. eigenvalues --   -0.00395   0.00098   0.00453   0.00576   0.00627

  Beta  occ. eigenvalues --  -38.44735 -38.44305 -38.44152 -38.43992 -38.43846
  Beta  occ. eigenvalues --  -38.43844 -38.43392  -2.20515  -2.20161  -2.19895
  Beta  occ. eigenvalues --   -2.19809  -2.19650  -2.19584  -2.19267  -1.14188
  Beta  occ. eigenvalues --   -1.14166  -1.14155  -1.13889  -1.13825  -1.13773
  Beta  occ. eigenvalues --   -1.13596  -1.13588  -1.13552  -1.13507  -1.13476
  Beta  occ. eigenvalues --   -1.13439  -1.13326  -1.13318  -1.13291  -1.13281
  Beta  occ. eigenvalues --   -1.13271  -1.13253  -1.12960  -1.12937  -1.12867
  Beta  occ. eigenvalues --   -0.16658  -0.12730  -0.12308
  Beta virt. eigenvalues --   -0.07444  -0.06309  -0.05070  -0.04068  -0.03528
  Beta virt. eigenvalues --   -0.02609  -0.01562  -0.01379  -0.01167  -0.00884
  Beta virt. eigenvalues --   -0.00626  -0.00126   0.00250   0.00494   0.00661

 Mulliken charges and spin densities:
               1          2
     1  Na   0.895549   0.176150
     2  Na  -1.208783   0.043013
     3  Na  -0.112421   0.148664
     4  Na  -0.274034   0.393387
     5  Na   0.101102  -0.054055
     6  Na   0.408713   0.349762
     7  Na   0.189874  -0.056921
 Sum of Mulliken charges =  -0.00000   1.00000

 Dipole moment (field-independent basis, Debye):
    X=             -0.5459    Y=              0.5221    Z=             -0.2288  Tot=              0.7892
 Quadrupole moment (field-independent basis, Debye-Ang):
   XX=            -70.2099   YY=            -59.7798   ZZ=            -68.4454
   XY=             -5.1963   XZ=             -0.9304   YZ=             -1.6121

 Normal termination of Gaussian 16 at Tue Nov 28 22:28:32 2023.
