 Gaussian 16, Revision B.01,
 Gaussian 16:  ES64L-G16RevB.01 20-Dec-2017

 -------------------------
 #P B3LYP/6-311+g(d) force
 -------------------------

 -----
 DPGEN
 -----
 Symbolic Z-matrix:
 Charge =  0 Multiplicity = 2

                         Standard orientation:
 ---------------------------------------------------------------------
 Center     Atomic      Atomic             Coordinates (Angstroms)
 Number     Number       Type             X           Y           Z
 ---------------------------------------------------------------------
      1         11           0        0.093355    0.128977   -1.563447
      2         11           0       -0.446816   -2.134460    0.355453
      3         11           0        2.253332   -1.200496   -0.324147
      4         11           0        1.740276    1.659998    0.117553
      5         11           0       -1.195567    1.917460    0.032353
      6         11           0        0.020256    0.091476    1.720683
      7         11           0       -2.464837   -0.462956   -0.338447
 ---------------------------------------------------------------------

 SCF Done:  E(UB3LYP) =  -1136.06826125     A.U. after   19 cycles

 The electronic state is 2-A.
 Alpha  occ. eigenvalues --  -38.44332 -38.44128 -38.44072 -38.43740 -38.43717
 Alpha  occ. eigenvalues --  -38.43690 -38.43605  -2.20641  -2.20460  -2.20276
 Alpha  occ. eigenvalues --   -2.19948  -2.19873  -2.19798  -2.19747  -1.14555
 Alpha  occ. eigenvalues --   -1.14514  -1.14364  -1.14274  -1.14218  -1.14182
 Alpha  occ. eigenvalues --   -1.14128  -1.13975  -1.13823  -1.13617  -1.13569
 Alpha  occ. eigenvalues --   -1.13539  -1.13525  -1.13479  -1.13446  -1.13420
 Alpha  occ. eigenvalues --   -1.13407  -1.13364  -1.13346  -1.13300  -1.13219
 Alpha  occ. eigenvalues --   -0.21912  -0.13968  -0.13174  -0.12216
 Alpha virt. eigenvalues --   -0.05113  -0.04383  -0.04110  -0.03656  -0.03226
 Alpha virt. eigenvalues --   -0.02689  -0.00995  -0.00563  -0.00044   0.00348
 Alpha virt. eigenvalues --    0.00809   0.00878   0.01040   0.01160   0.01181

  Beta  occ. eigenvalues --  -38.44234 -38.44113 -38.43985 -38.43723 -38.43704
  Beta  occ. eigenvalues --  -38.43671 -38.43591  -2.20465  -2.20311  -2.20249
  Beta  occ. eigenvalues --   -2.19925  -2.19846  -2.19780  -2.19729  -1.14476
  Beta  occ. eigenvalues --   -1.14396  -1.14273  -1.14180  -1.14132  -1.14099
  Beta  occ. eigenvalues --   -1.14073  -1.13920  -1.13753  -1.13602  -1.13539
  Beta  occ. eigenvalues --   -1.13520  -1.13471  -1.13445  -1.13413  -1.13358
  Beta  occ. eigenvalues --   -1.13351  -1.13337  -1.13296  -1.13280  -1.13212
  Beta  occ. eigenvalues --   -0.21121  -0.13581  -0.12803
  Beta virt. eigenvalues --   -0.07985  -0.05150  -0.04360  -0.04083  -0.02686
  Beta virt. eigenvalues --   -0.02285  -0.01568  -0.00919  -0.00525   0.00094
  Beta virt. eigenvalues --    0.00381   0.00786   0.00859   0.01073   0.01161

 Mulliken charges and spin densities:
               1          2
     1  Na  -0.555009   0.393885
     2  Na   0.553874   0.146934
     3  Na  -0.003788  -0.014110
     4  Na   0.179678   0.000267
     5  Na   0.304687   0.042605
     6  Na  -0.465209   0.435340
     7  Na  -0.014232  -0.004921
 Sum of Mulliken charges =  -0.00000   1.00000

 Dipole moment (field-independent basis, Debye):
    X=              0.1846    Y=             -0.1063    Z=              0.0652  Tot=              0.2228
 Quadrupole moment (field-independent basis, Debye-Ang):
   XX=            -60.4355   YY=            -67.6393   ZZ=            -69.7762
   XY=             -0.0920   XZ=              0.2205   YZ=              0.3457

 Normal termination of Gaussian 16 at Fri Dec  8 00:43:25 2023.
