 Gaussian 16, Revision B.01,
 Gaussian 16:  ES64L-G16RevB.01 20-Dec-2017

 -------------------------
 #P B3LYP/6-311+g(d) force
 -------------------------

 -----
 DPGEN
 -----
 Symbolic Z-matrix:
 Charge =  0 Multiplicity = 2

                         Standard orientation:
 ---------------------------------------------------------------------
 Center     Atomic      Atomic             Coordinates (Angstroms)
 Number     Number       Type             X           Y           Z
 ---------------------------------------------------------------------
      1         11           0        1.550323    1.623954    0.178186
      2         11           0       -1.149120    1.934817    0.012165
      3         11           0        2.328179   -0.930470    0.071767
      4         11           0       -0.190523   -0.213948    1.904314
      5         11           0        0.204351    0.185890   -1.848647
      6         11           0       -0.274344   -2.108164   -0.215688
      7         11           0       -2.468866   -0.492078   -0.102096
 ---------------------------------------------------------------------

 SCF Done:  E(UB3LYP) =  -1136.07698552     A.U. after   19 cycles

 The electronic state is 2-A.
 Alpha  occ. eigenvalues --  -38.44402 -38.44325 -38.43934 -38.43814 -38.43802
 Alpha  occ. eigenvalues --  -38.43490 -38.43434  -2.20635  -2.20511  -2.20050
 Alpha  occ. eigenvalues --   -2.20016  -2.19908  -2.19657  -2.19618  -1.14460
 Alpha  occ. eigenvalues --   -1.14350  -1.14288  -1.14268  -1.14192  -1.14155
 Alpha  occ. eigenvalues --   -1.14024  -1.13904  -1.13835  -1.13765  -1.13643
 Alpha  occ. eigenvalues --   -1.13636  -1.13584  -1.13495  -1.13360  -1.13260
 Alpha  occ. eigenvalues --   -1.13243  -1.13233  -1.13224  -1.13168  -1.13100
 Alpha  occ. eigenvalues --   -0.21871  -0.13821  -0.12984  -0.12660
 Alpha virt. eigenvalues --   -0.05094  -0.04164  -0.04051  -0.03837  -0.03381
 Alpha virt. eigenvalues --   -0.03139  -0.00894  -0.00408  -0.00171   0.00344
 Alpha virt. eigenvalues --    0.00870   0.00915   0.01094   0.01208   0.01291

  Beta  occ. eigenvalues --  -38.44305 -38.44227 -38.43923 -38.43804 -38.43786
  Beta  occ. eigenvalues --  -38.43475 -38.43415  -2.20460  -2.20335  -2.20037
  Beta  occ. eigenvalues --   -2.19995  -2.19894  -2.19638  -2.19593  -1.14370
  Beta  occ. eigenvalues --   -1.14231  -1.14180  -1.14157  -1.14068  -1.14038
  Beta  occ. eigenvalues --   -1.14005  -1.13900  -1.13809  -1.13741  -1.13634
  Beta  occ. eigenvalues --   -1.13576  -1.13508  -1.13432  -1.13354  -1.13242
  Beta  occ. eigenvalues --   -1.13219  -1.13178  -1.13162  -1.13145  -1.13093
  Beta  occ. eigenvalues --   -0.20988  -0.13440  -0.12599
  Beta virt. eigenvalues --   -0.08430  -0.05116  -0.04153  -0.04004  -0.02864
  Beta virt. eigenvalues --   -0.02446  -0.02058  -0.00824  -0.00366  -0.00004
  Beta virt. eigenvalues --    0.00365   0.00867   0.00891   0.01121   0.01209

 Mulliken charges and spin densities:
               1          2
     1  Na   0.114788   0.074980
     2  Na   0.092384   0.033490
     3  Na  -0.004490  -0.032921
     4  Na  -0.223493   0.461896
     5  Na  -0.152238   0.424413
     6  Na   0.137914   0.059547
     7  Na   0.035136  -0.021404
 Sum of Mulliken charges =  -0.00000   1.00000

 Dipole moment (field-independent basis, Debye):
    X=             -0.0334    Y=             -0.1117    Z=              0.1148  Tot=              0.1636
 Quadrupole moment (field-independent basis, Debye-Ang):
   XX=            -62.4926   YY=            -70.4080   ZZ=            -66.3300
   XY=             -0.4104   XZ=              0.6501   YZ=              0.5866

 Normal termination of Gaussian 16 at Fri Dec  8 20:19:37 2023.
