 Gaussian 16, Revision B.01,
 Gaussian 16:  ES64L-G16RevB.01 20-Dec-2017

 -------------------------
 #P B3LYP/6-311+g(d) force
 -------------------------

 -----
 DPGEN
 -----
 Symbolic Z-matrix:
 Charge =  0 Multiplicity = 2

                         Standard orientation:
 ---------------------------------------------------------------------
 Center     Atomic      Atomic             Coordinates (Angstroms)
 Number     Number       Type             X           Y           Z
 ---------------------------------------------------------------------
      1         11           0       -2.237367    0.700486   -1.304657
      2         11           0        0.935056    0.776166    1.035508
      3         11           0        2.601240   -1.795747   -0.767430
      4         11           0       -1.322654   -1.960999    1.215738
      5         11           0       -4.185506   -1.202391   -0.219845
      6         11           0        4.896002    0.049794   -0.210506
      7         11           0       -0.686771    3.432691    0.251191
 ---------------------------------------------------------------------

 SCF Done:  E(UB3LYP) =  -1136.11990475     A.U. after   20 cycles

 The electronic state is 2-A.
 Alpha  occ. eigenvalues --  -38.44535 -38.44465 -38.44251 -38.43911 -38.43634
 Alpha  occ. eigenvalues --  -38.43598 -38.42821  -2.20366  -2.20296  -2.20140
 Alpha  occ. eigenvalues --   -2.19759  -2.19517  -2.19469  -2.18645  -1.14142
 Alpha  occ. eigenvalues --   -1.14035  -1.14015  -1.13929  -1.13923  -1.13872
 Alpha  occ. eigenvalues --   -1.13863  -1.13796  -1.13765  -1.13430  -1.13420
 Alpha  occ. eigenvalues --   -1.13388  -1.13188  -1.13161  -1.13147  -1.13144
 Alpha  occ. eigenvalues --   -1.13122  -1.13084  -1.12313  -1.12301  -1.12288
 Alpha  occ. eigenvalues --   -0.17188  -0.14289  -0.11917  -0.10966
 Alpha virt. eigenvalues --   -0.06294  -0.04899  -0.04381  -0.03824  -0.03242
 Alpha virt. eigenvalues --   -0.02262  -0.01638  -0.01309  -0.00982  -0.00550
 Alpha virt. eigenvalues --   -0.00219  -0.00113   0.00435   0.00636   0.00727

  Beta  occ. eigenvalues --  -38.44537 -38.44412 -38.44210 -38.43854 -38.43605
  Beta  occ. eigenvalues --  -38.43568 -38.42820  -2.20375  -2.20198  -2.20068
  Beta  occ. eigenvalues --   -2.19654  -2.19465  -2.19416  -2.18643  -1.14116
  Beta  occ. eigenvalues --   -1.14046  -1.14002  -1.13863  -1.13855  -1.13816
  Beta  occ. eigenvalues --   -1.13815  -1.13744  -1.13705  -1.13359  -1.13349
  Beta  occ. eigenvalues --   -1.13305  -1.13140  -1.13128  -1.13112  -1.13087
  Beta  occ. eigenvalues --   -1.13083  -1.13054  -1.12308  -1.12300  -1.12287
  Beta  occ. eigenvalues --   -0.16506  -0.13778  -0.11800
  Beta virt. eigenvalues --   -0.07315  -0.06044  -0.04678  -0.03914  -0.03496
  Beta virt. eigenvalues --   -0.02854  -0.02111  -0.01261  -0.01138  -0.00573
  Beta virt. eigenvalues --   -0.00290  -0.00098   0.00080   0.00516   0.00691

 Mulliken charges and spin densities:
               1          2
     1  Na  -0.272858   0.266887
     2  Na  -0.973508   0.152253
     3  Na   0.077050   0.074583
     4  Na   0.115217   0.171279
     5  Na   0.269288   0.164521
     6  Na   0.243354   0.208116
     7  Na   0.541455  -0.037638
 Sum of Mulliken charges =  -0.00000   1.00000

 Dipole moment (field-independent basis, Debye):
    X=              0.5849    Y=             -0.3343    Z=              0.0216  Tot=              0.6740
 Quadrupole moment (field-independent basis, Debye-Ang):
   XX=            -61.8423   YY=            -67.6611   ZZ=            -68.3810
   XY=              3.5120   XZ=             -0.0150   YZ=              1.3075

 Normal termination of Gaussian 16 at Tue Nov 28 22:23:31 2023.
