 Gaussian 16, Revision B.01,
 Gaussian 16:  ES64L-G16RevB.01 20-Dec-2017

 -------------------------
 #P B3LYP/6-311+g(d) force
 -------------------------

 -----
 DPGEN
 -----
 Symbolic Z-matrix:
 Charge =  0 Multiplicity = 2

                         Standard orientation:
 ---------------------------------------------------------------------
 Center     Atomic      Atomic             Coordinates (Angstroms)
 Number     Number       Type             X           Y           Z
 ---------------------------------------------------------------------
      1         11           0        1.130421   -0.288044   -1.580311
      2         11           0       -1.768945    1.101400   -0.768279
      3         11           0        1.796131    0.396980    1.994571
      4         11           0        3.459156   -1.982970   -0.681907
      5         11           0        1.374599    2.738584   -0.020741
      6         11           0       -4.495317   -0.571705   -0.271072
      7         11           0       -1.496045   -1.394246    1.327739
 ---------------------------------------------------------------------

 SCF Done:  E(UB3LYP) =  -1136.11777920     A.U. after   23 cycles

 The electronic state is 2-A.
 Alpha  occ. eigenvalues --  -38.45402 -38.45095 -38.44403 -38.43772 -38.43502
 Alpha  occ. eigenvalues --  -38.43078 -38.42949  -2.21203  -2.20921  -2.20267
 Alpha  occ. eigenvalues --   -2.19689  -2.19453  -2.18941  -2.18773  -1.14884
 Alpha  occ. eigenvalues --   -1.14862  -1.14834  -1.14624  -1.14583  -1.14507
 Alpha  occ. eigenvalues --   -1.13944  -1.13923  -1.13869  -1.13425  -1.13370
 Alpha  occ. eigenvalues --   -1.13266  -1.13154  -1.13103  -1.13074  -1.12631
 Alpha  occ. eigenvalues --   -1.12600  -1.12566  -1.12454  -1.12421  -1.12397
 Alpha  occ. eigenvalues --   -0.18160  -0.14165  -0.11340  -0.11190
 Alpha virt. eigenvalues --   -0.07258  -0.05059  -0.04287  -0.03161  -0.03012
 Alpha virt. eigenvalues --   -0.02567  -0.02374  -0.01393  -0.00858  -0.00183
 Alpha virt. eigenvalues --    0.00013   0.00082   0.00293   0.00704   0.00787

  Beta  occ. eigenvalues --  -38.45407 -38.45048 -38.44333 -38.43746 -38.43448
  Beta  occ. eigenvalues --  -38.43077 -38.42941  -2.21213  -2.20834  -2.20137
  Beta  occ. eigenvalues --   -2.19643  -2.19354  -2.18944  -2.18762  -1.14886
  Beta  occ. eigenvalues --   -1.14868  -1.14840  -1.14567  -1.14519  -1.14437
  Beta  occ. eigenvalues --   -1.13851  -1.13832  -1.13780  -1.13393  -1.13319
  Beta  occ. eigenvalues --   -1.13237  -1.13086  -1.13034  -1.13003  -1.12630
  Beta  occ. eigenvalues --   -1.12591  -1.12562  -1.12435  -1.12413  -1.12390
  Beta  occ. eigenvalues --   -0.17474  -0.14035  -0.10979
  Beta virt. eigenvalues --   -0.07428  -0.06956  -0.04684  -0.04049  -0.03001
  Beta virt. eigenvalues --   -0.02552  -0.01999  -0.01844  -0.01264  -0.00459
  Beta virt. eigenvalues --   -0.00090   0.00062   0.00163   0.00446   0.00769

 Mulliken charges and spin densities:
               1          2
     1  Na  -0.091280   0.301111
     2  Na  -0.260133   0.088205
     3  Na   0.047880   0.321890
     4  Na  -0.007355  -0.050392
     5  Na   0.007141   0.096859
     6  Na   0.511368  -0.020744
     7  Na  -0.207621   0.263070
 Sum of Mulliken charges =  -0.00000   1.00000

 Dipole moment (field-independent basis, Debye):
    X=             -2.1848    Y=              0.0769    Z=              0.4788  Tot=              2.2379
 Quadrupole moment (field-independent basis, Debye-Ang):
   XX=            -48.9999   YY=            -73.0594   ZZ=            -71.5959
   XY=              4.9116   XZ=              4.6545   YZ=             -1.7910

 Normal termination of Gaussian 16 at Sun Dec  3 22:39:13 2023.
