 Gaussian 16, Revision B.01,
 Gaussian 16:  ES64L-G16RevB.01 20-Dec-2017

 -------------------------
 #P B3LYP/6-311+g(d) force
 -------------------------

 -----
 DPGEN
 -----
 Symbolic Z-matrix:
 Charge =  0 Multiplicity = 2

                         Standard orientation:
 ---------------------------------------------------------------------
 Center     Atomic      Atomic             Coordinates (Angstroms)
 Number     Number       Type             X           Y           Z
 ---------------------------------------------------------------------
      1         11           0       -0.469241    3.214654   -0.898509
      2         11           0       -1.117342    0.669841    1.763582
      3         11           0        3.651378   -1.100813   -0.711432
      4         11           0        2.355206    1.099095    1.341474
      5         11           0       -2.417481   -2.309382    0.758761
      6         11           0       -2.310928    0.538251   -1.342543
      7         11           0        0.308408   -2.111645   -0.911332
 ---------------------------------------------------------------------

 SCF Done:  E(UB3LYP) =  -1136.12968412     A.U. after   20 cycles

 The electronic state is 2-A.
 Alpha  occ. eigenvalues --  -38.44044 -38.44028 -38.43931 -38.43848 -38.43841
 Alpha  occ. eigenvalues --  -38.43808 -38.43768  -2.19915  -2.19854  -2.19766
 Alpha  occ. eigenvalues --   -2.19731  -2.19714  -2.19613  -2.19571  -1.13606
 Alpha  occ. eigenvalues --   -1.13597  -1.13540  -1.13530  -1.13517  -1.13493
 Alpha  occ. eigenvalues --   -1.13483  -1.13446  -1.13418  -1.13408  -1.13398
 Alpha  occ. eigenvalues --   -1.13373  -1.13358  -1.13320  -1.13311  -1.13271
 Alpha  occ. eigenvalues --   -1.13262  -1.13250  -1.13240  -1.13224  -1.13199
 Alpha  occ. eigenvalues --   -0.17822  -0.13274  -0.12542  -0.10971
 Alpha virt. eigenvalues --   -0.05794  -0.05313  -0.05117  -0.03380  -0.03207
 Alpha virt. eigenvalues --   -0.02356  -0.01573  -0.01209  -0.00583  -0.00255
 Alpha virt. eigenvalues --   -0.00060   0.00288   0.00322   0.00557   0.00778

  Beta  occ. eigenvalues --  -38.44016 -38.43985 -38.43911 -38.43835 -38.43802
  Beta  occ. eigenvalues --  -38.43778 -38.43748  -2.19837  -2.19804  -2.19729
  Beta  occ. eigenvalues --   -2.19693  -2.19618  -2.19603  -2.19538  -1.13559
  Beta  occ. eigenvalues --   -1.13534  -1.13496  -1.13481  -1.13472  -1.13462
  Beta  occ. eigenvalues --   -1.13452  -1.13421  -1.13393  -1.13357  -1.13342
  Beta  occ. eigenvalues --   -1.13328  -1.13297  -1.13291  -1.13264  -1.13251
  Beta  occ. eigenvalues --   -1.13243  -1.13240  -1.13214  -1.13196  -1.13171
  Beta  occ. eigenvalues --   -0.17198  -0.13098  -0.12185
  Beta virt. eigenvalues --   -0.07306  -0.05664  -0.05098  -0.04634  -0.02972
  Beta virt. eigenvalues --   -0.02697  -0.01730  -0.01417  -0.01063  -0.00414
  Beta virt. eigenvalues --   -0.00088   0.00103   0.00379   0.00443   0.00692

 Mulliken charges and spin densities:
               1          2
     1  Na   0.027875  -0.006686
     2  Na  -0.446736   0.369845
     3  Na   0.210725   0.042195
     4  Na   0.000400   0.083022
     5  Na   0.946578   0.031318
     6  Na   0.108629   0.379283
     7  Na  -0.847471   0.101022
 Sum of Mulliken charges =  -0.00000   1.00000

 Dipole moment (field-independent basis, Debye):
    X=             -0.1932    Y=             -0.0707    Z=             -0.1059  Tot=              0.2314
 Quadrupole moment (field-independent basis, Debye-Ang):
   XX=            -59.7724   YY=            -65.7619   ZZ=            -70.7056
   XY=              4.4549   XZ=             -1.7017   YZ=             -0.7532

 Normal termination of Gaussian 16 at Sun Dec  3 22:26:04 2023.
