 Gaussian 16, Revision B.01,
 Gaussian 16:  ES64L-G16RevB.01 20-Dec-2017

 -------------------------
 #P B3LYP/6-311+g(d) force
 -------------------------

 -----
 DPGEN
 -----
 Symbolic Z-matrix:
 Charge =  0 Multiplicity = 2

                         Standard orientation:
 ---------------------------------------------------------------------
 Center     Atomic      Atomic             Coordinates (Angstroms)
 Number     Number       Type             X           Y           Z
 ---------------------------------------------------------------------
      1         11           0        0.393305    0.103490    2.110996
      2         11           0        1.798886   -2.266407    0.163656
      3         11           0        2.901923    0.780607   -0.366460
      4         11           0       -2.867442    0.734106    0.391556
      5         11           0       -0.157721    2.869848   -0.321678
      6         11           0       -2.001966   -2.160160   -0.453908
      7         11           0       -0.066985   -0.061484   -1.524162
 ---------------------------------------------------------------------

 SCF Done:  E(UB3LYP) =  -1136.13616803     A.U. after   19 cycles

 The electronic state is 2-A.
 Alpha  occ. eigenvalues --  -38.43981 -38.43851 -38.43793 -38.43434 -38.43398
 Alpha  occ. eigenvalues --  -38.43097 -38.43028  -2.19854  -2.19724  -2.19688
 Alpha  occ. eigenvalues --   -2.19314  -2.19285  -2.19088  -2.18960  -1.13548
 Alpha  occ. eigenvalues --   -1.13516  -1.13485  -1.13420  -1.13386  -1.13370
 Alpha  occ. eigenvalues --   -1.13352  -1.13313  -1.13305  -1.13041  -1.12996
 Alpha  occ. eigenvalues --   -1.12982  -1.12942  -1.12929  -1.12898  -1.12787
 Alpha  occ. eigenvalues --   -1.12736  -1.12702  -1.12616  -1.12606  -1.12583
 Alpha  occ. eigenvalues --   -0.19001  -0.13325  -0.12330  -0.11018
 Alpha virt. eigenvalues --   -0.05541  -0.05022  -0.04473  -0.03413  -0.02836
 Alpha virt. eigenvalues --   -0.02695  -0.01455  -0.00993  -0.00223  -0.00103
 Alpha virt. eigenvalues --    0.00030   0.00369   0.00833   0.00912   0.00931

  Beta  occ. eigenvalues --  -38.43971 -38.43845 -38.43696 -38.43427 -38.43390
  Beta  occ. eigenvalues --  -38.43091 -38.42967  -2.19840  -2.19715  -2.19509
  Beta  occ. eigenvalues --   -2.19306  -2.19273  -2.18979  -2.18952  -1.13535
  Beta  occ. eigenvalues --   -1.13489  -1.13474  -1.13417  -1.13368  -1.13353
  Beta  occ. eigenvalues --   -1.13237  -1.13189  -1.13177  -1.13017  -1.12990
  Beta  occ. eigenvalues --   -1.12951  -1.12934  -1.12913  -1.12889  -1.12732
  Beta  occ. eigenvalues --   -1.12667  -1.12626  -1.12595  -1.12582  -1.12565
  Beta  occ. eigenvalues --   -0.18273  -0.13089  -0.12063
  Beta virt. eigenvalues --   -0.07065  -0.05491  -0.04994  -0.04440  -0.02615
  Beta virt. eigenvalues --   -0.02085  -0.01609  -0.01363  -0.00923  -0.00210
  Beta virt. eigenvalues --   -0.00145   0.00141   0.00395   0.00889   0.00923

 Mulliken charges and spin densities:
               1          2
     1  Na  -0.535508   0.660143
     2  Na   0.242771   0.048848
     3  Na   0.193294  -0.036979
     4  Na   0.104262   0.094053
     5  Na   0.096188  -0.010635
     6  Na   0.221826  -0.001903
     7  Na  -0.322832   0.246475
 Sum of Mulliken charges =  -0.00000   1.00000

 Dipole moment (field-independent basis, Debye):
    X=              0.1940    Y=              0.0513    Z=              0.3029  Tot=              0.3634
 Quadrupole moment (field-independent basis, Debye-Ang):
   XX=            -57.0779   YY=            -63.8179   ZZ=            -73.0693
   XY=             -0.0751   XZ=             -1.3319   YZ=             -0.0944

 Normal termination of Gaussian 16 at Thu Dec  7 21:02:35 2023.
