 Gaussian 16, Revision B.01,
 Gaussian 16:  ES64L-G16RevB.01 20-Dec-2017

 -------------------------
 #P B3LYP/6-311+g(d) force
 -------------------------

 -----
 DPGEN
 -----
 Symbolic Z-matrix:
 Charge =  0 Multiplicity = 2

                         Standard orientation:
 ---------------------------------------------------------------------
 Center     Atomic      Atomic             Coordinates (Angstroms)
 Number     Number       Type             X           Y           Z
 ---------------------------------------------------------------------
      1         11           0       -3.106844   -0.533054   -0.352263
      2         11           0       -0.847659    2.837043   -0.107083
      3         11           0       -0.478538   -0.117688   -1.503855
      4         11           0        2.314160    1.719087    0.130188
      5         11           0       -0.350443    0.320228    1.756219
      6         11           0       -0.351075   -2.757177    0.569849
      7         11           0        2.820399   -1.468440   -0.493054
 ---------------------------------------------------------------------

 SCF Done:  E(UB3LYP) =  -1136.13384459     A.U. after   19 cycles

 The electronic state is 2-A.
 Alpha  occ. eigenvalues --  -38.44156 -38.43620 -38.43557 -38.43548 -38.43548
 Alpha  occ. eigenvalues --  -38.43129 -38.43127  -2.20037  -2.19494  -2.19440
 Alpha  occ. eigenvalues --   -2.19421  -2.19384  -2.19175  -2.19127  -1.13804
 Alpha  occ. eigenvalues --   -1.13673  -1.13642  -1.13194  -1.13179  -1.13165
 Alpha  occ. eigenvalues --   -1.13134  -1.13125  -1.13115  -1.13091  -1.13051
 Alpha  occ. eigenvalues --   -1.13047  -1.13046  -1.13021  -1.13007  -1.12883
 Alpha  occ. eigenvalues --   -1.12809  -1.12777  -1.12776  -1.12747  -1.12728
 Alpha  occ. eigenvalues --   -0.19038  -0.13118  -0.12747  -0.10615
 Alpha virt. eigenvalues --   -0.05588  -0.05013  -0.04865  -0.03105  -0.02900
 Alpha virt. eigenvalues --   -0.02192  -0.01519  -0.01190  -0.00341  -0.00180
 Alpha virt. eigenvalues --    0.00060   0.00334   0.00848   0.00878   0.00903

  Beta  occ. eigenvalues --  -38.44142 -38.43616 -38.43550 -38.43542 -38.43530
  Beta  occ. eigenvalues --  -38.43068 -38.43047  -2.20014  -2.19490  -2.19433
  Beta  occ. eigenvalues --   -2.19390  -2.19372  -2.19067  -2.18976  -1.13778
  Beta  occ. eigenvalues --   -1.13647  -1.13622  -1.13190  -1.13180  -1.13139
  Beta  occ. eigenvalues --   -1.13125  -1.13103  -1.13086  -1.13046  -1.13043
  Beta  occ. eigenvalues --   -1.13036  -1.13026  -1.13015  -1.12995  -1.12803
  Beta  occ. eigenvalues --   -1.12730  -1.12700  -1.12679  -1.12644  -1.12617
  Beta  occ. eigenvalues --   -0.18352  -0.12824  -0.12486
  Beta virt. eigenvalues --   -0.06740  -0.05512  -0.04970  -0.04827  -0.02331
  Beta virt. eigenvalues --   -0.02191  -0.01428  -0.01189  -0.01129  -0.00301
  Beta virt. eigenvalues --   -0.00218   0.00169   0.00376   0.00850   0.00886

 Mulliken charges and spin densities:
               1          2
     1  Na   0.314156  -0.039246
     2  Na   0.199537  -0.058915
     3  Na  -0.449334   0.551941
     4  Na  -0.009066   0.033872
     5  Na  -0.081515   0.427295
     6  Na   0.068054   0.097187
     7  Na  -0.041832  -0.012134
 Sum of Mulliken charges =  -0.00000   1.00000

 Dipole moment (field-independent basis, Debye):
    X=             -0.3054    Y=              0.0467    Z=              0.1052  Tot=              0.3264
 Quadrupole moment (field-independent basis, Debye-Ang):
   XX=            -57.2493   YY=            -60.5056   ZZ=            -75.0803
   XY=              0.0271   XZ=             -0.4193   YZ=             -0.7635

 Normal termination of Gaussian 16 at Thu Dec  7 23:19:48 2023.
