 Gaussian 16, Revision B.01,
 Gaussian 16:  ES64L-G16RevB.01 20-Dec-2017

 -------------------------
 #P B3LYP/6-311+g(d) force
 -------------------------

 -----
 DPGEN
 -----
 Symbolic Z-matrix:
 Charge =  0 Multiplicity = 2

                         Standard orientation:
 ---------------------------------------------------------------------
 Center     Atomic      Atomic             Coordinates (Angstroms)
 Number     Number       Type             X           Y           Z
 ---------------------------------------------------------------------
      1         11           0       -2.706088    1.966779   -0.511956
      2         11           0        1.745397   -1.862039   -1.613323
      3         11           0        3.067290    1.088982   -0.544943
      4         11           0       -3.935963   -1.670133    0.329369
      5         11           0       -0.879205   -0.753154   -0.041761
      6         11           0        0.413020    2.563695    0.588437
      7         11           0        2.295549   -1.334131    1.794177
 ---------------------------------------------------------------------

 SCF Done:  E(UB3LYP) =  -1136.11816329     A.U. after   26 cycles

 The electronic state is 2-A.
 Alpha  occ. eigenvalues --  -38.45273 -38.45031 -38.44699 -38.43765 -38.43526
 Alpha  occ. eigenvalues --  -38.43370 -38.42968  -2.21114  -2.20807  -2.20510
 Alpha  occ. eigenvalues --   -2.19617  -2.19457  -2.19257  -2.18812  -1.14790
 Alpha  occ. eigenvalues --   -1.14780  -1.14753  -1.14484  -1.14468  -1.14439
 Alpha  occ. eigenvalues --   -1.14203  -1.14183  -1.14119  -1.13280  -1.13253
 Alpha  occ. eigenvalues --   -1.13242  -1.13172  -1.13122  -1.13108  -1.12916
 Alpha  occ. eigenvalues --   -1.12891  -1.12867  -1.12491  -1.12486  -1.12447
 Alpha  occ. eigenvalues --   -0.17889  -0.14114  -0.11887  -0.10053
 Alpha virt. eigenvalues --   -0.07252  -0.06019  -0.04096  -0.03314  -0.02649
 Alpha virt. eigenvalues --   -0.02390  -0.01953  -0.01602  -0.00889  -0.00351
 Alpha virt. eigenvalues --   -0.00199  -0.00005   0.00214   0.00548   0.00650

  Beta  occ. eigenvalues --  -38.45259 -38.45032 -38.44700 -38.43689 -38.43515
  Beta  occ. eigenvalues --  -38.43302 -38.42965  -2.21094  -2.20808  -2.20511
  Beta  occ. eigenvalues --   -2.19476  -2.19441  -2.19132  -2.18808  -1.14781
  Beta  occ. eigenvalues --   -1.14748  -1.14721  -1.14485  -1.14468  -1.14441
  Beta  occ. eigenvalues --   -1.14202  -1.14183  -1.14122  -1.13183  -1.13158
  Beta  occ. eigenvalues --   -1.13141  -1.13127  -1.13110  -1.13098  -1.12835
  Beta  occ. eigenvalues --   -1.12802  -1.12776  -1.12491  -1.12484  -1.12432
  Beta  occ. eigenvalues --   -0.17335  -0.13903  -0.11724
  Beta virt. eigenvalues --   -0.07115  -0.06206  -0.05759  -0.03946  -0.02975
  Beta virt. eigenvalues --   -0.02588  -0.01889  -0.01544  -0.01081  -0.00719
  Beta virt. eigenvalues --   -0.00111   0.00041   0.00111   0.00357   0.00617

 Mulliken charges and spin densities:
               1          2
     1  Na   0.107241  -0.074905
     2  Na   1.195642   0.241201
     3  Na   0.618519   0.281798
     4  Na  -0.244346  -0.061175
     5  Na  -2.370172   0.208286
     6  Na   0.544922  -0.010578
     7  Na   0.148194   0.415373
 Sum of Mulliken charges =  -0.00000   1.00000

 Dipole moment (field-independent basis, Debye):
    X=             -1.0802    Y=              0.1631    Z=             -0.2939  Tot=              1.1313
 Quadrupole moment (field-independent basis, Debye-Ang):
   XX=            -47.3569   YY=            -69.0759   ZZ=            -75.8231
   XY=              1.9145   XZ=             -1.4511   YZ=             -1.9644

 Normal termination of Gaussian 16 at Tue Dec  5 10:20:28 2023.
