 Gaussian 16, Revision B.01,
 Gaussian 16:  ES64L-G16RevB.01 20-Dec-2017

 -------------------------
 #P B3LYP/6-311+g(d) force
 -------------------------

 -----
 DPGEN
 -----
 Symbolic Z-matrix:
 Charge =  0 Multiplicity = 2

                         Standard orientation:
 ---------------------------------------------------------------------
 Center     Atomic      Atomic             Coordinates (Angstroms)
 Number     Number       Type             X           Y           Z
 ---------------------------------------------------------------------
      1         11           0       -0.066979    0.247761   -1.681232
      2         11           0        0.154103   -0.382128    2.046204
      3         11           0        3.127786   -0.168005   -0.234776
      4         11           0        1.407200    2.727038    0.227522
      5         11           0       -2.824934    1.955449   -0.107205
      6         11           0       -2.394438   -1.639059    0.055822
      7         11           0        0.597263   -2.741057   -0.306334
 ---------------------------------------------------------------------

 SCF Done:  E(UB3LYP) =  -1136.13731250     A.U. after   19 cycles

 The electronic state is 2-A.
 Alpha  occ. eigenvalues --  -38.43979 -38.43978 -38.43886 -38.43681 -38.43616
 Alpha  occ. eigenvalues --  -38.43262 -38.43071  -2.19817  -2.19750  -2.19699
 Alpha  occ. eigenvalues --   -2.19560  -2.19508  -2.19207  -2.18979  -1.13491
 Alpha  occ. eigenvalues --   -1.13482  -1.13467  -1.13426  -1.13406  -1.13399
 Alpha  occ. eigenvalues --   -1.13373  -1.13363  -1.13324  -1.13260  -1.13237
 Alpha  occ. eigenvalues --   -1.13189  -1.13170  -1.13137  -1.13119  -1.12899
 Alpha  occ. eigenvalues --   -1.12853  -1.12824  -1.12650  -1.12633  -1.12613
 Alpha  occ. eigenvalues --   -0.18573  -0.13036  -0.12324  -0.10732
 Alpha virt. eigenvalues --   -0.05737  -0.05270  -0.04682  -0.03212  -0.02839
 Alpha virt. eigenvalues --   -0.02558  -0.01548  -0.01181  -0.00547  -0.00284
 Alpha virt. eigenvalues --   -0.00025   0.00352   0.00789   0.00842   0.00889

  Beta  occ. eigenvalues --  -38.43981 -38.43973 -38.43881 -38.43675 -38.43523
  Beta  occ. eigenvalues --  -38.43198 -38.43060  -2.19809  -2.19756  -2.19693
  Beta  occ. eigenvalues --   -2.19552  -2.19336  -2.19091  -2.18963  -1.13485
  Beta  occ. eigenvalues --   -1.13466  -1.13454  -1.13418  -1.13412  -1.13403
  Beta  occ. eigenvalues --   -1.13365  -1.13345  -1.13324  -1.13254  -1.13204
  Beta  occ. eigenvalues --   -1.13183  -1.13061  -1.13017  -1.12996  -1.12824
  Beta  occ. eigenvalues --   -1.12767  -1.12737  -1.12640  -1.12611  -1.12581
  Beta  occ. eigenvalues --   -0.17822  -0.12816  -0.12117
  Beta virt. eigenvalues --   -0.06797  -0.05727  -0.05204  -0.04641  -0.02414
  Beta virt. eigenvalues --   -0.02136  -0.01558  -0.01416  -0.01091  -0.00582
  Beta virt. eigenvalues --   -0.00335   0.00127   0.00379   0.00829   0.00870

 Mulliken charges and spin densities:
               1          2
     1  Na  -0.159437   0.503724
     2  Na  -0.440306   0.698039
     3  Na   0.207268  -0.024333
     4  Na  -0.058687  -0.079178
     5  Na  -0.042515  -0.109708
     6  Na   0.228027  -0.009801
     7  Na   0.265649   0.021258
 Sum of Mulliken charges =  -0.00000   1.00000

 Dipole moment (field-independent basis, Debye):
    X=              0.1069    Y=              0.2652    Z=              0.1331  Tot=              0.3154
 Quadrupole moment (field-independent basis, Debye-Ang):
   XX=            -57.0928   YY=            -62.0026   ZZ=            -74.4302
   XY=             -0.3783   XZ=             -0.6985   YZ=              1.4565

 Normal termination of Gaussian 16 at Fri Dec  8 05:19:30 2023.
