 Gaussian 16, Revision B.01,
 Gaussian 16:  ES64L-G16RevB.01 20-Dec-2017

 -------------------------
 #P B3LYP/6-311+g(d) force
 -------------------------

 -----
 DPGEN
 -----
 Symbolic Z-matrix:
 Charge =  0 Multiplicity = 2

                         Standard orientation:
 ---------------------------------------------------------------------
 Center     Atomic      Atomic             Coordinates (Angstroms)
 Number     Number       Type             X           Y           Z
 ---------------------------------------------------------------------
      1         11           0        1.268755   -2.792188   -0.122591
      2         11           0       -2.822926   -1.658567   -0.045012
      3         11           0       -2.256822    1.964537   -0.358084
      4         11           0       -0.302380   -0.127128   -1.182882
      5         11           0       -0.297915    0.022052    1.877671
      6         11           0        3.100697   -0.074744   -0.199055
      7         11           0        1.310591    2.666038    0.029953
 ---------------------------------------------------------------------

 SCF Done:  E(UB3LYP) =  -1136.13206326     A.U. after   20 cycles

 The electronic state is 2-A.
 Alpha  occ. eigenvalues --  -38.44359 -38.43946 -38.43894 -38.43656 -38.43355
 Alpha  occ. eigenvalues --  -38.42972 -38.42758  -2.20190  -2.19831  -2.19755
 Alpha  occ. eigenvalues --   -2.19500  -2.19216  -2.18926  -2.18875  -1.13884
 Alpha  occ. eigenvalues --   -1.13846  -1.13818  -1.13577  -1.13479  -1.13432
 Alpha  occ. eigenvalues --   -1.13429  -1.13425  -1.13411  -1.13188  -1.13155
 Alpha  occ. eigenvalues --   -1.13128  -1.12896  -1.12876  -1.12858  -1.12725
 Alpha  occ. eigenvalues --   -1.12536  -1.12522  -1.12511  -1.12505  -1.12480
 Alpha  occ. eigenvalues --   -0.18927  -0.13364  -0.12520  -0.10123
 Alpha virt. eigenvalues --   -0.05888  -0.05388  -0.04709  -0.02943  -0.02523
 Alpha virt. eigenvalues --   -0.01917  -0.01749  -0.01361  -0.00550  -0.00408
 Alpha virt. eigenvalues --    0.00036   0.00327   0.00772   0.00813   0.00874

  Beta  occ. eigenvalues --  -38.44353 -38.43930 -38.43890 -38.43652 -38.43352
  Beta  occ. eigenvalues --  -38.42873 -38.42714  -2.20184  -2.19805  -2.19749
  Beta  occ. eigenvalues --   -2.19496  -2.19212  -2.18802  -2.18742  -1.13877
  Beta  occ. eigenvalues --   -1.13827  -1.13810  -1.13556  -1.13436  -1.13428
  Beta  occ. eigenvalues --   -1.13423  -1.13418  -1.13389  -1.13183  -1.13143
  Beta  occ. eigenvalues --   -1.13120  -1.12895  -1.12859  -1.12847  -1.12625
  Beta  occ. eigenvalues --   -1.12462  -1.12436  -1.12410  -1.12401  -1.12381
  Beta  occ. eigenvalues --   -0.18226  -0.13094  -0.12285
  Beta virt. eigenvalues --   -0.06248  -0.05869  -0.05300  -0.04701  -0.02198
  Beta virt. eigenvalues --   -0.01805  -0.01673  -0.01297  -0.00900  -0.00576
  Beta virt. eigenvalues --   -0.00440   0.00192   0.00389   0.00800   0.00853

 Mulliken charges and spin densities:
               1          2
     1  Na   0.345421   0.030077
     2  Na   0.359055   0.014440
     3  Na   0.513114   0.100102
     4  Na  -1.264542   0.033423
     5  Na  -0.369993   0.728001
     6  Na   0.092108   0.027871
     7  Na   0.324837   0.066086
 Sum of Mulliken charges =  -0.00000   1.00000

 Dipole moment (field-independent basis, Debye):
    X=             -0.3382    Y=             -0.1998    Z=              0.2286  Tot=              0.4544
 Quadrupole moment (field-independent basis, Debye-Ang):
   XX=            -53.7636   YY=            -59.2453   ZZ=            -77.6697
   XY=              1.1127   XZ=              0.0058   YZ=             -0.2744

 Normal termination of Gaussian 16 at Thu Dec  7 17:56:09 2023.
