 Gaussian 16, Revision B.01,
 Gaussian 16:  ES64L-G16RevB.01 20-Dec-2017

 -------------------------
 #P B3LYP/6-311+g(d) force
 -------------------------

 -----
 DPGEN
 -----
 Symbolic Z-matrix:
 Charge =  0 Multiplicity = 2

                         Standard orientation:
 ---------------------------------------------------------------------
 Center     Atomic      Atomic             Coordinates (Angstroms)
 Number     Number       Type             X           Y           Z
 ---------------------------------------------------------------------
      1         11           0       -2.408218   -1.828470    0.568703
      2         11           0        3.176315   -0.154649    0.372570
      3         11           0       -2.342240    1.586582   -0.225522
      4         11           0       -0.020750    0.238110    2.022868
      5         11           0       -0.295335   -0.098557   -1.872149
      6         11           0        1.038740   -2.344278   -0.615306
      7         11           0        0.851488    2.601263   -0.251164
 ---------------------------------------------------------------------

 SCF Done:  E(UB3LYP) =  -1136.13489305     A.U. after   19 cycles

 The electronic state is 2-A.
 Alpha  occ. eigenvalues --  -38.43958 -38.43880 -38.43775 -38.43557 -38.43540
 Alpha  occ. eigenvalues --  -38.43208 -38.43099  -2.19871  -2.19783  -2.19713
 Alpha  occ. eigenvalues --   -2.19448  -2.19400  -2.19126  -2.18982  -1.13546
 Alpha  occ. eigenvalues --   -1.13537  -1.13507  -1.13497  -1.13449  -1.13392
 Alpha  occ. eigenvalues --   -1.13380  -1.13374  -1.13351  -1.13133  -1.13108
 Alpha  occ. eigenvalues --   -1.13083  -1.13074  -1.13039  -1.13029  -1.12830
 Alpha  occ. eigenvalues --   -1.12758  -1.12720  -1.12667  -1.12653  -1.12600
 Alpha  occ. eigenvalues --   -0.19044  -0.13029  -0.12389  -0.11499
 Alpha virt. eigenvalues --   -0.05409  -0.04885  -0.04266  -0.03435  -0.03222
 Alpha virt. eigenvalues --   -0.03027  -0.01386  -0.00917  -0.00162   0.00079
 Alpha virt. eigenvalues --    0.00184   0.00374   0.00824   0.00915   0.00963

  Beta  occ. eigenvalues --  -38.43877 -38.43875 -38.43691 -38.43544 -38.43532
  Beta  occ. eigenvalues --  -38.43192 -38.43093  -2.19719  -2.19711  -2.19631
  Beta  occ. eigenvalues --   -2.19437  -2.19379  -2.19100  -2.18975  -1.13448
  Beta  occ. eigenvalues --   -1.13427  -1.13406  -1.13395  -1.13380  -1.13360
  Beta  occ. eigenvalues --   -1.13354  -1.13343  -1.13276  -1.13112  -1.13085
  Beta  occ. eigenvalues --   -1.13069  -1.13047  -1.13021  -1.13014  -1.12795
  Beta  occ. eigenvalues --   -1.12728  -1.12707  -1.12662  -1.12631  -1.12590
  Beta  occ. eigenvalues --   -0.18281  -0.12778  -0.12110
  Beta virt. eigenvalues --   -0.07539  -0.05328  -0.04868  -0.04219  -0.02683
  Beta virt. eigenvalues --   -0.02407  -0.01971  -0.01281  -0.00851  -0.00053
  Beta virt. eigenvalues --    0.00058   0.00175   0.00394   0.00903   0.00922

 Mulliken charges and spin densities:
               1          2
     1  Na   0.015259   0.035688
     2  Na  -0.081458  -0.049410
     3  Na   0.339992  -0.052323
     4  Na  -0.514859   0.691364
     5  Na  -0.146689   0.394165
     6  Na   0.306146   0.026541
     7  Na   0.081609  -0.046025
 Sum of Mulliken charges =  -0.00000   1.00000

 Dipole moment (field-independent basis, Debye):
    X=             -0.0364    Y=              0.0995    Z=              0.3213  Tot=              0.3383
 Quadrupole moment (field-independent basis, Debye-Ang):
   XX=            -58.0784   YY=            -66.5925   ZZ=            -70.4707
   XY=              0.7724   XZ=             -0.1112   YZ=             -1.1116

 Normal termination of Gaussian 16 at Tue Dec  5 16:28:15 2023.
