 Gaussian 16, Revision B.01,
 Gaussian 16:  ES64L-G16RevB.01 20-Dec-2017

 -------------------------
 #P B3LYP/6-311+g(d) force
 -------------------------

 -----
 DPGEN
 -----
 Symbolic Z-matrix:
 Charge =  0 Multiplicity = 2

                         Standard orientation:
 ---------------------------------------------------------------------
 Center     Atomic      Atomic             Coordinates (Angstroms)
 Number     Number       Type             X           Y           Z
 ---------------------------------------------------------------------
      1         11           0       -4.107023   -1.021420    0.467194
      2         11           0       -0.642983   -1.869977   -0.746755
      3         11           0        2.180830    0.828534   -0.753350
      4         11           0        3.808294   -2.013633    0.170045
      5         11           0       -0.467577   -0.011757    1.862465
      6         11           0       -1.571779    1.185832   -1.730483
      7         11           0        0.800238    2.902421    0.730884
 ---------------------------------------------------------------------

 SCF Done:  E(UB3LYP) =  -1136.11817350     A.U. after   23 cycles

 The electronic state is 2-A.
 Alpha  occ. eigenvalues --  -38.45560 -38.44554 -38.44438 -38.44073 -38.43635
 Alpha  occ. eigenvalues --  -38.43566 -38.43075  -2.21302  -2.20396  -2.20308
 Alpha  occ. eigenvalues --   -2.19921  -2.19478  -2.19389  -2.18966  -1.14981
 Alpha  occ. eigenvalues --   -1.14969  -1.14918  -1.14163  -1.14092  -1.13984
 Alpha  occ. eigenvalues --   -1.13959  -1.13945  -1.13899  -1.13610  -1.13561
 Alpha  occ. eigenvalues --   -1.13511  -1.13235  -1.13150  -1.13126  -1.13059
 Alpha  occ. eigenvalues --   -1.13056  -1.13014  -1.12639  -1.12608  -1.12571
 Alpha  occ. eigenvalues --   -0.18124  -0.13304  -0.11538  -0.10919
 Alpha virt. eigenvalues --   -0.07062  -0.05334  -0.04118  -0.03396  -0.02710
 Alpha virt. eigenvalues --   -0.02614  -0.02393  -0.01490  -0.00660  -0.00276
 Alpha virt. eigenvalues --    0.00028   0.00098   0.00444   0.00593   0.00607

  Beta  occ. eigenvalues --  -38.45556 -38.44531 -38.44362 -38.43995 -38.43645
  Beta  occ. eigenvalues --  -38.43560 -38.43066  -2.21297  -2.20360  -2.20170
  Beta  occ. eigenvalues --   -2.19778  -2.19468  -2.19408  -2.18952  -1.14978
  Beta  occ. eigenvalues --   -1.14953  -1.14917  -1.14131  -1.14029  -1.13939
  Beta  occ. eigenvalues --   -1.13894  -1.13850  -1.13798  -1.13507  -1.13459
  Beta  occ. eigenvalues --   -1.13414  -1.13228  -1.13143  -1.13116  -1.13070
  Beta  occ. eigenvalues --   -1.13064  -1.13024  -1.12633  -1.12588  -1.12552
  Beta  occ. eigenvalues --   -0.17344  -0.13149  -0.11432
  Beta virt. eigenvalues --   -0.07010  -0.06868  -0.05146  -0.03954  -0.02861
  Beta virt. eigenvalues --   -0.02498  -0.01987  -0.01781  -0.01220  -0.00408
  Beta virt. eigenvalues --   -0.00253   0.00070   0.00161   0.00602   0.00656

 Mulliken charges and spin densities:
               1          2
     1  Na   0.149166  -0.026543
     2  Na   0.050174   0.230361
     3  Na  -0.025562   0.281937
     4  Na   0.079248  -0.127839
     5  Na  -0.172551   0.481646
     6  Na  -0.263166   0.273069
     7  Na   0.182691  -0.112631
 Sum of Mulliken charges =  -0.00000   1.00000

 Dipole moment (field-independent basis, Debye):
    X=             -1.9990    Y=             -0.0813    Z=              0.2472  Tot=              2.0159
 Quadrupole moment (field-independent basis, Debye-Ang):
   XX=            -52.1134   YY=            -68.1960   ZZ=            -72.9142
   XY=              2.1141   XZ=              0.3764   YZ=             -0.9822

 Normal termination of Gaussian 16 at Tue Dec  5 23:28:33 2023.
