 Gaussian 16, Revision B.01,
 Gaussian 16:  ES64L-G16RevB.01 20-Dec-2017

 -------------------------
 #P B3LYP/6-311+g(d) force
 -------------------------

 -----
 DPGEN
 -----
 Symbolic Z-matrix:
 Charge =  0 Multiplicity = 2

                         Standard orientation:
 ---------------------------------------------------------------------
 Center     Atomic      Atomic             Coordinates (Angstroms)
 Number     Number       Type             X           Y           Z
 ---------------------------------------------------------------------
      1         11           0        2.782327    1.180007    0.444629
      2         11           0       -0.180938    3.262797   -0.428705
      3         11           0       -3.276273   -0.745556   -0.861435
      4         11           0        5.325841   -1.092366   -0.341600
      5         11           0       -6.023128   -0.688026    0.285267
      6         11           0       -0.506488   -0.058432    0.961666
      7         11           0        1.878658   -1.858423   -0.059822
 ---------------------------------------------------------------------

 SCF Done:  E(UB3LYP) =  -1136.11768178     A.U. after   20 cycles

 The electronic state is 2-A.
 Alpha  occ. eigenvalues --  -38.44447 -38.44417 -38.44134 -38.43987 -38.43961
 Alpha  occ. eigenvalues --  -38.43761 -38.43726  -2.20315  -2.20309  -2.19923
 Alpha  occ. eigenvalues --   -2.19799  -2.19762  -2.19669  -2.19565  -1.14089
 Alpha  occ. eigenvalues --   -1.14017  -1.13980  -1.13966  -1.13914  -1.13868
 Alpha  occ. eigenvalues --   -1.13584  -1.13573  -1.13540  -1.13537  -1.13440
 Alpha  occ. eigenvalues --   -1.13438  -1.13427  -1.13424  -1.13382  -1.13361
 Alpha  occ. eigenvalues --   -1.13348  -1.13269  -1.13219  -1.13212  -1.13175
 Alpha  occ. eigenvalues --   -0.17263  -0.13868  -0.12137  -0.11124
 Alpha virt. eigenvalues --   -0.06324  -0.05306  -0.04653  -0.03362  -0.03120
 Alpha virt. eigenvalues --   -0.02241  -0.02036  -0.01428  -0.01082  -0.00866
 Alpha virt. eigenvalues --   -0.00336   0.00039   0.00191   0.00511   0.00667

  Beta  occ. eigenvalues --  -38.44426 -38.44363 -38.44083 -38.43964 -38.43941
  Beta  occ. eigenvalues --  -38.43729 -38.43717  -2.20277  -2.20217  -2.19828
  Beta  occ. eigenvalues --   -2.19756  -2.19726  -2.19595  -2.19573  -1.14046
  Beta  occ. eigenvalues --   -1.13990  -1.13918  -1.13911  -1.13860  -1.13802
  Beta  occ. eigenvalues --   -1.13519  -1.13515  -1.13504  -1.13478  -1.13410
  Beta  occ. eigenvalues --   -1.13409  -1.13400  -1.13396  -1.13361  -1.13322
  Beta  occ. eigenvalues --   -1.13283  -1.13224  -1.13219  -1.13192  -1.13158
  Beta  occ. eigenvalues --   -0.16557  -0.13681  -0.11660
  Beta virt. eigenvalues --   -0.07571  -0.06098  -0.04795  -0.04424  -0.03082
  Beta virt. eigenvalues --   -0.02772  -0.02139  -0.01643  -0.01196  -0.00813
  Beta virt. eigenvalues --   -0.00539  -0.00131   0.00215   0.00358   0.00558

 Mulliken charges and spin densities:
               1          2
     1  Na  -0.328784   0.306383
     2  Na   0.162675   0.273731
     3  Na  -0.321149   0.072875
     4  Na   0.532430   0.101648
     5  Na   0.346450   0.068005
     6  Na  -0.261527  -0.007749
     7  Na  -0.130095   0.185107
 Sum of Mulliken charges =  -0.00000   1.00000

 Dipole moment (field-independent basis, Debye):
    X=              0.7432    Y=              0.0900    Z=             -0.0540  Tot=              0.7505
 Quadrupole moment (field-independent basis, Debye-Ang):
   XX=            -58.9125   YY=            -68.1038   ZZ=            -69.2406
   XY=             -4.5485   XZ=             -3.3654   YZ=              0.1705

 Normal termination of Gaussian 16 at Wed Nov 29 01:06:27 2023.
