 Gaussian 16, Revision B.01,
 Gaussian 16:  ES64L-G16RevB.01 20-Dec-2017

 -------------------------
 #P B3LYP/6-311+g(d) force
 -------------------------

 -----
 DPGEN
 -----
 Symbolic Z-matrix:
 Charge =  0 Multiplicity = 2

                         Standard orientation:
 ---------------------------------------------------------------------
 Center     Atomic      Atomic             Coordinates (Angstroms)
 Number     Number       Type             X           Y           Z
 ---------------------------------------------------------------------
      1         11           0       -3.201773    0.064693   -0.536627
      2         11           0       -1.334448   -2.440909    0.304271
      3         11           0       -0.267441   -0.103791    1.963322
      4         11           0        2.582115   -2.069082   -0.352181
      5         11           0       -0.355910    2.920507    0.251520
      6         11           0        2.572734    1.283663    0.085490
      7         11           0        0.004723    0.344918   -1.715796
 ---------------------------------------------------------------------

 SCF Done:  E(UB3LYP) =  -1136.13588815     A.U. after   20 cycles

 The electronic state is 2-A.
 Alpha  occ. eigenvalues --  -38.44128 -38.43716 -38.43651 -38.43592 -38.43505
 Alpha  occ. eigenvalues --  -38.43476 -38.43188  -2.19968  -2.19601  -2.19581
 Alpha  occ. eigenvalues --   -2.19431  -2.19393  -2.19389  -2.19059  -1.13647
 Alpha  occ. eigenvalues --   -1.13624  -1.13607  -1.13317  -1.13312  -1.13276
 Alpha  occ. eigenvalues --   -1.13235  -1.13221  -1.13188  -1.13113  -1.13077
 Alpha  occ. eigenvalues --   -1.13063  -1.13050  -1.13050  -1.13041  -1.13035
 Alpha  occ. eigenvalues --   -1.13029  -1.13000  -1.12727  -1.12722  -1.12690
 Alpha  occ. eigenvalues --   -0.18717  -0.13225  -0.12290  -0.10933
 Alpha virt. eigenvalues --   -0.05566  -0.05091  -0.04664  -0.03368  -0.02911
 Alpha virt. eigenvalues --   -0.02565  -0.01572  -0.01108  -0.00320  -0.00154
 Alpha virt. eigenvalues --   -0.00011   0.00346   0.00808   0.00883   0.00900

  Beta  occ. eigenvalues --  -38.44112 -38.43711 -38.43591 -38.43559 -38.43494
  Beta  occ. eigenvalues --  -38.43413 -38.43181  -2.19943  -2.19595  -2.19414
  Beta  occ. eigenvalues --   -2.19389  -2.19376  -2.19316  -2.19050  -1.13628
  Beta  occ. eigenvalues --   -1.13596  -1.13587  -1.13304  -1.13256  -1.13226
  Beta  occ. eigenvalues --   -1.13221  -1.13111  -1.13076  -1.13057  -1.13042
  Beta  occ. eigenvalues --   -1.13037  -1.13030  -1.13024  -1.12996  -1.12990
  Beta  occ. eigenvalues --   -1.12982  -1.12959  -1.12723  -1.12696  -1.12677
  Beta  occ. eigenvalues --   -0.17993  -0.12961  -0.12046
  Beta virt. eigenvalues --   -0.07046  -0.05464  -0.05075  -0.04615  -0.02584
  Beta virt. eigenvalues --   -0.02171  -0.01584  -0.01429  -0.01048  -0.00332
  Beta virt. eigenvalues --   -0.00186   0.00112   0.00376   0.00870   0.00879

 Mulliken charges and spin densities:
               1          2
     1  Na   0.079776  -0.009807
     2  Na   0.160664   0.007207
     3  Na  -0.193262   0.531043
     4  Na  -0.109551  -0.058452
     5  Na   0.158022  -0.048253
     6  Na   0.170342  -0.007094
     7  Na  -0.265991   0.585356
 Sum of Mulliken charges =  -0.00000   1.00000

 Dipole moment (field-independent basis, Debye):
    X=             -0.2391    Y=              0.0882    Z=             -0.0046  Tot=              0.2549
 Quadrupole moment (field-independent basis, Debye-Ang):
   XX=            -57.5407   YY=            -63.2343   ZZ=            -73.4054
   XY=             -0.6906   XZ=              0.9177   YZ=              1.1323

 Normal termination of Gaussian 16 at Thu Dec  7 19:09:24 2023.
