 Gaussian 16, Revision B.01,
 Gaussian 16:  ES64L-G16RevB.01 20-Dec-2017

 -------------------------
 #P B3LYP/6-311+g(d) force
 -------------------------

 -----
 DPGEN
 -----
 Symbolic Z-matrix:
 Charge =  0 Multiplicity = 2

                         Standard orientation:
 ---------------------------------------------------------------------
 Center     Atomic      Atomic             Coordinates (Angstroms)
 Number     Number       Type             X           Y           Z
 ---------------------------------------------------------------------
      1         11           0       -2.807928   -0.775844    0.692870
      2         11           0       -5.505625   -0.806180   -0.581698
      3         11           0       -2.871610    2.091635   -0.210729
      4         11           0        0.360429    1.231233   -0.006991
      5         11           0        0.824724   -1.937331   -0.127638
      6         11           0        3.389727    0.234590    1.025431
      7         11           0        6.610285   -0.038104   -0.791245
 ---------------------------------------------------------------------

 SCF Done:  E(UB3LYP) =  -1136.11045261     A.U. after   23 cycles

 The electronic state is 2-A.
 Alpha  occ. eigenvalues --  -38.44863 -38.44589 -38.44475 -38.44453 -38.43943
 Alpha  occ. eigenvalues --  -38.43766 -38.43747  -2.20753  -2.20438  -2.20387
 Alpha  occ. eigenvalues --   -2.20311  -2.19846  -2.19583  -2.19462  -1.14490
 Alpha  occ. eigenvalues --   -1.14401  -1.14344  -1.14154  -1.14103  -1.14076
 Alpha  occ. eigenvalues --   -1.14067  -1.14058  -1.14036  -1.13949  -1.13936
 Alpha  occ. eigenvalues --   -1.13861  -1.13535  -1.13507  -1.13488  -1.13281
 Alpha  occ. eigenvalues --   -1.13253  -1.13175  -1.13146  -1.13145  -1.13097
 Alpha  occ. eigenvalues --   -0.17657  -0.14483  -0.11775  -0.10936
 Alpha virt. eigenvalues --   -0.06804  -0.05490  -0.04982  -0.03467  -0.03083
 Alpha virt. eigenvalues --   -0.02751  -0.01905  -0.01159  -0.01065  -0.00785
 Alpha virt. eigenvalues --   -0.00383  -0.00227   0.00039   0.00233   0.00504

  Beta  occ. eigenvalues --  -38.44786 -38.44527 -38.44438 -38.44432 -38.43921
  Beta  occ. eigenvalues --  -38.43777 -38.43753  -2.20615  -2.20353  -2.20323
  Beta  occ. eigenvalues --   -2.20242  -2.19812  -2.19556  -2.19519  -1.14407
  Beta  occ. eigenvalues --   -1.14310  -1.14226  -1.14111  -1.14030  -1.14014
  Beta  occ. eigenvalues --   -1.14004  -1.14002  -1.13974  -1.13902  -1.13884
  Beta  occ. eigenvalues --   -1.13823  -1.13515  -1.13478  -1.13428  -1.13259
  Beta  occ. eigenvalues --   -1.13234  -1.13185  -1.13184  -1.13172  -1.13130
  Beta  occ. eigenvalues --   -0.16881  -0.14226  -0.11042
  Beta virt. eigenvalues --   -0.07764  -0.06547  -0.05074  -0.04567  -0.03109
  Beta virt. eigenvalues --   -0.02731  -0.02332  -0.01597  -0.01067  -0.00728
  Beta virt. eigenvalues --   -0.00601  -0.00111  -0.00056   0.00191   0.00354

 Mulliken charges and spin densities:
               1          2
     1  Na  -0.576579   0.200274
     2  Na   0.349095   0.098007
     3  Na   0.291246  -0.007910
     4  Na  -0.843189   0.425247
     5  Na   0.168853   0.292916
     6  Na   0.634581   0.183829
     7  Na  -0.024007  -0.192364
 Sum of Mulliken charges =  -0.00000   1.00000

 Dipole moment (field-independent basis, Debye):
    X=             -2.6415    Y=             -0.2976    Z=             -0.5275  Tot=              2.7101
 Quadrupole moment (field-independent basis, Debye-Ang):
   XX=            -69.0587   YY=            -67.3463   ZZ=            -68.7453
   XY=             -3.1119   XZ=              0.2900   YZ=              0.6614

 Normal termination of Gaussian 16 at Wed Nov 29 01:59:11 2023.
