 Gaussian 16, Revision B.01,
 Gaussian 16:  ES64L-G16RevB.01 20-Dec-2017

 -------------------------
 #P B3LYP/6-311+g(d) force
 -------------------------

 -----
 DPGEN
 -----
 Symbolic Z-matrix:
 Charge =  0 Multiplicity = 2

                         Standard orientation:
 ---------------------------------------------------------------------
 Center     Atomic      Atomic             Coordinates (Angstroms)
 Number     Number       Type             X           Y           Z
 ---------------------------------------------------------------------
      1         11           0       -3.193992   -0.127103   -0.047143
      2         11           0       -0.388484   -0.129641    2.058397
      3         11           0        2.372531    1.833018    0.112532
      4         11           0        0.183575    0.131661   -1.580861
      5         11           0       -0.969650   -2.848440   -0.361744
      6         11           0        2.814728   -1.832327    0.047669
      7         11           0       -0.818707    2.972833   -0.228851
 ---------------------------------------------------------------------

 SCF Done:  E(UB3LYP) =  -1136.13801907     A.U. after   19 cycles

 The electronic state is 2-A.
 Alpha  occ. eigenvalues --  -38.44006 -38.43935 -38.43812 -38.43788 -38.43554
 Alpha  occ. eigenvalues --  -38.43530 -38.43100  -2.19822  -2.19713  -2.19637
 Alpha  occ. eigenvalues --   -2.19636  -2.19399  -2.19392  -2.19065  -1.13497
 Alpha  occ. eigenvalues --   -1.13484  -1.13466  -1.13388  -1.13372  -1.13362
 Alpha  occ. eigenvalues --   -1.13338  -1.13323  -1.13302  -1.13301  -1.13261
 Alpha  occ. eigenvalues --   -1.13257  -1.13085  -1.13066  -1.13049  -1.13026
 Alpha  occ. eigenvalues --   -1.13019  -1.13015  -1.12752  -1.12702  -1.12682
 Alpha  occ. eigenvalues --   -0.18335  -0.12908  -0.12433  -0.10475
 Alpha virt. eigenvalues --   -0.05605  -0.05297  -0.05046  -0.03112  -0.02789
 Alpha virt. eigenvalues --   -0.02415  -0.01522  -0.01316  -0.00605  -0.00529
 Alpha virt. eigenvalues --   -0.00010   0.00349   0.00794   0.00825   0.00850

  Beta  occ. eigenvalues --  -38.44003 -38.43937 -38.43802 -38.43784 -38.43548
  Beta  occ. eigenvalues --  -38.43435 -38.43041  -2.19819  -2.19717  -2.19632
  Beta  occ. eigenvalues --   -2.19621  -2.19387  -2.19222  -2.18958  -1.13487
  Beta  occ. eigenvalues --   -1.13468  -1.13466  -1.13381  -1.13372  -1.13366
  Beta  occ. eigenvalues --   -1.13331  -1.13307  -1.13283  -1.13276  -1.13258
  Beta  occ. eigenvalues --   -1.13250  -1.13073  -1.13034  -1.13019  -1.12946
  Beta  occ. eigenvalues --   -1.12899  -1.12889  -1.12676  -1.12624  -1.12605
  Beta  occ. eigenvalues --   -0.17623  -0.12683  -0.12229
  Beta virt. eigenvalues --   -0.06586  -0.05583  -0.05295  -0.04958  -0.02327
  Beta virt. eigenvalues --   -0.02087  -0.01445  -0.01362  -0.01231  -0.00652
  Beta virt. eigenvalues --   -0.00571   0.00140   0.00378   0.00818   0.00837

 Mulliken charges and spin densities:
               1          2
     1  Na   0.212869  -0.050513
     2  Na  -0.466628   0.814893
     3  Na   0.112986  -0.022606
     4  Na  -0.100672   0.448763
     5  Na   0.076048  -0.068012
     6  Na  -0.022993  -0.071902
     7  Na   0.188389  -0.050622
 Sum of Mulliken charges =  -0.00000   1.00000

 Dipole moment (field-independent basis, Debye):
    X=             -0.0863    Y=             -0.0720    Z=              0.0973  Tot=              0.1487
 Quadrupole moment (field-independent basis, Debye-Ang):
   XX=            -56.8650   YY=            -59.8410   ZZ=            -75.9207
   XY=             -0.6388   XZ=              1.4173   YZ=              0.5133

 Normal termination of Gaussian 16 at Thu Dec  7 21:10:04 2023.
