 Gaussian 16, Revision B.01,
 Gaussian 16:  ES64L-G16RevB.01 20-Dec-2017

 -------------------------
 #P B3LYP/6-311+g(d) force
 -------------------------

 -----
 DPGEN
 -----
 Symbolic Z-matrix:
 Charge =  0 Multiplicity = 2

                         Standard orientation:
 ---------------------------------------------------------------------
 Center     Atomic      Atomic             Coordinates (Angstroms)
 Number     Number       Type             X           Y           Z
 ---------------------------------------------------------------------
      1         11           0       -0.233494    0.294578    2.283553
      2         11           0       -2.626541   -2.215715    0.014926
      3         11           0       -2.487412    1.293253   -0.501504
      4         11           0        0.330003    3.288429   -0.087071
      5         11           0        1.692564   -2.575503    0.030850
      6         11           0       -0.131200   -0.288212   -1.482366
      7         11           0        3.456079    0.203169   -0.258389
 ---------------------------------------------------------------------

 SCF Done:  E(UB3LYP) =  -1136.13059572     A.U. after   19 cycles

 The electronic state is 2-A.
 Alpha  occ. eigenvalues --  -38.44435 -38.43944 -38.43911 -38.43855 -38.43742
 Alpha  occ. eigenvalues --  -38.43609 -38.43442  -2.20215  -2.19769  -2.19704
 Alpha  occ. eigenvalues --   -2.19683  -2.19639  -2.19402  -2.19395  -1.13888
 Alpha  occ. eigenvalues --   -1.13873  -1.13860  -1.13471  -1.13430  -1.13429
 Alpha  occ. eigenvalues --   -1.13391  -1.13372  -1.13364  -1.13355  -1.13336
 Alpha  occ. eigenvalues --   -1.13319  -1.13294  -1.13283  -1.13230  -1.13079
 Alpha  occ. eigenvalues --   -1.13064  -1.13053  -1.13046  -1.13041  -1.12993
 Alpha  occ. eigenvalues --   -0.18012  -0.13050  -0.12119  -0.10609
 Alpha virt. eigenvalues --   -0.05801  -0.05279  -0.05054  -0.03087  -0.02832
 Alpha virt. eigenvalues --   -0.02594  -0.01703  -0.01346  -0.00708  -0.00510
 Alpha virt. eigenvalues --   -0.00053   0.00304   0.00701   0.00803   0.00815

  Beta  occ. eigenvalues --  -38.44433 -38.43941 -38.43911 -38.43744 -38.43725
  Beta  occ. eigenvalues --  -38.43610 -38.43396  -2.20214  -2.19767  -2.19706
  Beta  occ. eigenvalues --   -2.19612  -2.19477  -2.19399  -2.19318  -1.13881
  Beta  occ. eigenvalues --   -1.13871  -1.13860  -1.13464  -1.13418  -1.13403
  Beta  occ. eigenvalues --   -1.13388  -1.13370  -1.13358  -1.13349  -1.13254
  Beta  occ. eigenvalues --   -1.13217  -1.13195  -1.13171  -1.13145  -1.13058
  Beta  occ. eigenvalues --   -1.13047  -1.13046  -1.13017  -1.12983  -1.12936
  Beta  occ. eigenvalues --   -0.17315  -0.12854  -0.11968
  Beta virt. eigenvalues --   -0.06615  -0.05775  -0.05256  -0.04956  -0.02395
  Beta virt. eigenvalues --   -0.02088  -0.01623  -0.01549  -0.01270  -0.00737
  Beta virt. eigenvalues --   -0.00529   0.00127   0.00351   0.00745   0.00816

 Mulliken charges and spin densities:
               1          2
     1  Na  -0.595928   0.807705
     2  Na   0.102003   0.012789
     3  Na   0.426066   0.078005
     4  Na  -0.031144  -0.050463
     5  Na   0.132311   0.011434
     6  Na  -0.035831   0.175904
     7  Na   0.002522  -0.035373
 Sum of Mulliken charges =  -0.00000   1.00000

 Dipole moment (field-independent basis, Debye):
    X=              0.3182    Y=             -0.1869    Z=              0.1039  Tot=              0.3834
 Quadrupole moment (field-independent basis, Debye-Ang):
   XX=            -57.1859   YY=            -60.5283   ZZ=            -75.8705
   XY=              2.6346   XZ=             -0.0754   YZ=             -1.4093

 Normal termination of Gaussian 16 at Thu Dec  7 21:29:38 2023.
