 Gaussian 16, Revision B.01,
 Gaussian 16:  ES64L-G16RevB.01 20-Dec-2017

 -------------------------
 #P B3LYP/6-311+g(d) force
 -------------------------

 -----
 DPGEN
 -----
 Symbolic Z-matrix:
 Charge =  0 Multiplicity = 2

                         Standard orientation:
 ---------------------------------------------------------------------
 Center     Atomic      Atomic             Coordinates (Angstroms)
 Number     Number       Type             X           Y           Z
 ---------------------------------------------------------------------
      1         11           0        3.045495    2.106296   -0.011444
      2         11           0        2.289647   -0.976462   -1.467077
      3         11           0       -3.308344   -1.169835    0.778760
      4         11           0       -2.689427    2.839039   -0.523087
      5         11           0       -0.443731    0.642915    0.165665
      6         11           0       -0.600991   -2.490147   -1.226885
      7         11           0        1.707351   -0.951805    2.284067
 ---------------------------------------------------------------------

 SCF Done:  E(UB3LYP) =  -1136.12001670     A.U. after   22 cycles

 The electronic state is 2-A.
 Alpha  occ. eigenvalues --  -38.45357 -38.44761 -38.44430 -38.43906 -38.43711
 Alpha  occ. eigenvalues --  -38.43054 -38.42854  -2.21118  -2.20530  -2.20255
 Alpha  occ. eigenvalues --   -2.19676  -2.19586  -2.18901  -2.18816  -1.14801
 Alpha  occ. eigenvalues --   -1.14776  -1.14741  -1.14203  -1.14190  -1.14164
 Alpha  occ. eigenvalues --   -1.13923  -1.13877  -1.13852  -1.13364  -1.13339
 Alpha  occ. eigenvalues --   -1.13305  -1.13272  -1.13239  -1.13204  -1.12601
 Alpha  occ. eigenvalues --   -1.12550  -1.12544  -1.12537  -1.12466  -1.12441
 Alpha  occ. eigenvalues --   -0.17666  -0.13288  -0.11622  -0.10764
 Alpha virt. eigenvalues --   -0.06922  -0.05389  -0.04518  -0.03080  -0.02616
 Alpha virt. eigenvalues --   -0.02473  -0.02212  -0.01251  -0.00928  -0.00379
 Alpha virt. eigenvalues --   -0.00230   0.00165   0.00231   0.00551   0.00679

  Beta  occ. eigenvalues --  -38.45356 -38.44754 -38.44322 -38.43911 -38.43666
  Beta  occ. eigenvalues --  -38.43035 -38.42842  -2.21117  -2.20517  -2.20054
  Beta  occ. eigenvalues --   -2.19684  -2.19504  -2.18869  -2.18798  -1.14795
  Beta  occ. eigenvalues --   -1.14777  -1.14743  -1.14186  -1.14179  -1.14155
  Beta  occ. eigenvalues --   -1.13782  -1.13741  -1.13713  -1.13369  -1.13345
  Beta  occ. eigenvalues --   -1.13311  -1.13215  -1.13177  -1.13139  -1.12580
  Beta  occ. eigenvalues --   -1.12530  -1.12501  -1.12487  -1.12462  -1.12434
  Beta  occ. eigenvalues --   -0.17016  -0.13149  -0.11368
  Beta virt. eigenvalues --   -0.07081  -0.06529  -0.05150  -0.04279  -0.02752
  Beta virt. eigenvalues --   -0.02205  -0.02021  -0.01692  -0.01081  -0.00632
  Beta virt. eigenvalues --   -0.00250   0.00011   0.00248   0.00288   0.00606

 Mulliken charges and spin densities:
               1          2
     1  Na   0.743476   0.104559
     2  Na   0.220724   0.132880
     3  Na   0.770590   0.014750
     4  Na   0.315104  -0.208692
     5  Na  -2.498465   0.673051
     6  Na   0.215909   0.021621
     7  Na   0.232661   0.261832
 Sum of Mulliken charges =  -0.00000   1.00000

 Dipole moment (field-independent basis, Debye):
    X=             -0.2003    Y=             -0.1134    Z=              0.3291  Tot=              0.4015
 Quadrupole moment (field-independent basis, Debye-Ang):
   XX=            -52.2278   YY=            -66.3959   ZZ=            -72.5061
   XY=              5.0720   XZ=             -1.6206   YZ=             -2.3581

 Normal termination of Gaussian 16 at Tue Dec  5 12:01:08 2023.
