 Gaussian 16, Revision B.01,
 Gaussian 16:  ES64L-G16RevB.01 20-Dec-2017

 -------------------------
 #P B3LYP/6-311+g(d) force
 -------------------------

 -----
 DPGEN
 -----
 Symbolic Z-matrix:
 Charge =  0 Multiplicity = 2

                         Standard orientation:
 ---------------------------------------------------------------------
 Center     Atomic      Atomic             Coordinates (Angstroms)
 Number     Number       Type             X           Y           Z
 ---------------------------------------------------------------------
      1         11           0        1.762080    2.378544   -0.436538
      2         11           0       -0.376512   -0.471030   -1.939381
      3         11           0        0.081405   -0.026265    1.947826
      4         11           0       -2.902941   -0.438068   -0.231391
      5         11           0        2.977938   -1.110080   -0.069525
      6         11           0       -0.279595   -2.801064    0.341948
      7         11           0       -1.262375    2.467963    0.387061
 ---------------------------------------------------------------------

 SCF Done:  E(UB3LYP) =  -1136.13646496     A.U. after   19 cycles

 The electronic state is 2-A.
 Alpha  occ. eigenvalues --  -38.43841 -38.43768 -38.43686 -38.43596 -38.43593
 Alpha  occ. eigenvalues --  -38.43528 -38.43213  -2.19706  -2.19635  -2.19625
 Alpha  occ. eigenvalues --   -2.19482  -2.19433  -2.19422  -2.19118  -1.13430
 Alpha  occ. eigenvalues --   -1.13358  -1.13333  -1.13321  -1.13309  -1.13295
 Alpha  occ. eigenvalues --   -1.13293  -1.13278  -1.13233  -1.13148  -1.13141
 Alpha  occ. eigenvalues --   -1.13134  -1.13094  -1.13091  -1.13090  -1.13070
 Alpha  occ. eigenvalues --   -1.13067  -1.13040  -1.12796  -1.12766  -1.12742
 Alpha  occ. eigenvalues --   -0.18844  -0.12828  -0.12659  -0.11200
 Alpha virt. eigenvalues --   -0.05423  -0.04893  -0.04709  -0.03351  -0.03198
 Alpha virt. eigenvalues --   -0.02839  -0.01259  -0.01023  -0.00177  -0.00153
 Alpha virt. eigenvalues --    0.00019   0.00378   0.00870   0.00921   0.00951

  Beta  occ. eigenvalues --  -38.43842 -38.43690 -38.43601 -38.43587 -38.43584
  Beta  occ. eigenvalues --  -38.43520 -38.43204  -2.19638  -2.19562  -2.19470
  Beta  occ. eigenvalues --   -2.19463  -2.19423  -2.19411  -2.19106  -1.13346
  Beta  occ. eigenvalues --   -1.13305  -1.13300  -1.13281  -1.13260  -1.13231
  Beta  occ. eigenvalues --   -1.13223  -1.13189  -1.13133  -1.13123  -1.13113
  Beta  occ. eigenvalues --   -1.13094  -1.13077  -1.13071  -1.13068  -1.13063
  Beta  occ. eigenvalues --   -1.13036  -1.13030  -1.12780  -1.12745  -1.12731
  Beta  occ. eigenvalues --   -0.18086  -0.12583  -0.12416
  Beta virt. eigenvalues --   -0.07272  -0.05426  -0.04768  -0.04683  -0.02554
  Beta virt. eigenvalues --   -0.02414  -0.01811  -0.01190  -0.00952  -0.00193
  Beta virt. eigenvalues --   -0.00149   0.00110   0.00404   0.00882   0.00933

 Mulliken charges and spin densities:
               1          2
     1  Na  -0.104917  -0.026662
     2  Na  -0.410888   0.671593
     3  Na  -0.173155   0.572810
     4  Na   0.409623  -0.013310
     5  Na  -0.101746  -0.100441
     6  Na   0.230419  -0.114177
     7  Na   0.150663   0.010187
 Sum of Mulliken charges =  -0.00000   1.00000

 Dipole moment (field-independent basis, Debye):
    X=              0.1584    Y=             -0.2574    Z=             -0.0560  Tot=              0.3074
 Quadrupole moment (field-independent basis, Debye-Ang):
   XX=            -60.3315   YY=            -63.2598   ZZ=            -71.6889
   XY=             -0.0907   XZ=             -1.2149   YZ=             -0.9270

 Normal termination of Gaussian 16 at Tue Dec  5 14:29:35 2023.
