 Gaussian 16, Revision B.01,
 Gaussian 16:  ES64L-G16RevB.01 20-Dec-2017

 -------------------------
 #P B3LYP/6-311+g(d) force
 -------------------------

 -----
 DPGEN
 -----
 Symbolic Z-matrix:
 Charge =  0 Multiplicity = 2

                         Standard orientation:
 ---------------------------------------------------------------------
 Center     Atomic      Atomic             Coordinates (Angstroms)
 Number     Number       Type             X           Y           Z
 ---------------------------------------------------------------------
      1         11           0        2.715654    1.438763    0.543696
      2         11           0       -2.994765    0.373721    0.127277
      3         11           0        0.386538    0.180821   -1.645441
      4         11           0        2.232222   -1.806734   -0.461244
      5         11           0       -1.382943   -2.568642   -0.255586
      6         11           0       -0.874931    2.751454   -0.447766
      7         11           0       -0.081776   -0.369383    2.139064
 ---------------------------------------------------------------------

 SCF Done:  E(UB3LYP) =  -1136.13582948     A.U. after   19 cycles

 The electronic state is 2-A.
 Alpha  occ. eigenvalues --  -38.43989 -38.43959 -38.43779 -38.43698 -38.43319
 Alpha  occ. eigenvalues --  -38.43292 -38.43174  -2.19861  -2.19792  -2.19638
 Alpha  occ. eigenvalues --   -2.19592  -2.19335  -2.19144  -2.19042  -1.13526
 Alpha  occ. eigenvalues --   -1.13496  -1.13488  -1.13462  -1.13449  -1.13433
 Alpha  occ. eigenvalues --   -1.13385  -1.13313  -1.13305  -1.13287  -1.13231
 Alpha  occ. eigenvalues --   -1.13193  -1.13022  -1.12979  -1.12937  -1.12818
 Alpha  occ. eigenvalues --   -1.12808  -1.12779  -1.12719  -1.12688  -1.12661
 Alpha  occ. eigenvalues --   -0.18774  -0.13153  -0.12342  -0.11145
 Alpha virt. eigenvalues --   -0.05428  -0.05169  -0.04469  -0.03452  -0.02969
 Alpha virt. eigenvalues --   -0.02819  -0.01385  -0.01026  -0.00234  -0.00129
 Alpha virt. eigenvalues --    0.00011   0.00371   0.00817   0.00901   0.00925

  Beta  occ. eigenvalues --  -38.43945 -38.43897 -38.43777 -38.43684 -38.43288
  Beta  occ. eigenvalues --  -38.43255 -38.43166  -2.19769  -2.19691  -2.19638
  Beta  occ. eigenvalues --   -2.19570  -2.19220  -2.19141  -2.19031  -1.13456
  Beta  occ. eigenvalues --   -1.13427  -1.13417  -1.13410  -1.13381  -1.13352
  Beta  occ. eigenvalues --   -1.13349  -1.13312  -1.13301  -1.13272  -1.13202
  Beta  occ. eigenvalues --   -1.13178  -1.12942  -1.12907  -1.12863  -1.12810
  Beta  occ. eigenvalues --   -1.12798  -1.12767  -1.12695  -1.12674  -1.12652
  Beta  occ. eigenvalues --   -0.18045  -0.12926  -0.12087
  Beta virt. eigenvalues --   -0.07207  -0.05329  -0.05153  -0.04420  -0.02674
  Beta virt. eigenvalues --   -0.02243  -0.01757  -0.01273  -0.00940  -0.00223
  Beta virt. eigenvalues --   -0.00172   0.00121   0.00399   0.00896   0.00901

 Mulliken charges and spin densities:
               1          2
     1  Na  -0.008046   0.113595
     2  Na   0.045085  -0.011055
     3  Na  -0.174409   0.332756
     4  Na   0.368925  -0.031153
     5  Na   0.098049  -0.042373
     6  Na   0.179802  -0.023424
     7  Na  -0.509406   0.661654
 Sum of Mulliken charges =  -0.00000   1.00000

 Dipole moment (field-independent basis, Debye):
    X=              0.1868    Y=             -0.0648    Z=              0.3555  Tot=              0.4068
 Quadrupole moment (field-independent basis, Debye-Ang):
   XX=            -58.1250   YY=            -64.3065   ZZ=            -72.2637
   XY=              0.7909   XZ=              0.8892   YZ=              1.5493

 Normal termination of Gaussian 16 at Wed Nov 29 17:16:58 2023.
