 Gaussian 16, Revision B.01,
 Gaussian 16:  ES64L-G16RevB.01 20-Dec-2017

 -------------------------
 #P B3LYP/6-311+g(d) force
 -------------------------

 -----
 DPGEN
 -----
 Symbolic Z-matrix:
 Charge =  0 Multiplicity = 2

                         Standard orientation:
 ---------------------------------------------------------------------
 Center     Atomic      Atomic             Coordinates (Angstroms)
 Number     Number       Type             X           Y           Z
 ---------------------------------------------------------------------
      1         11           0        0.011785    2.972410   -0.398946
      2         11           0       -0.366182   -0.423269   -1.881048
      3         11           0       -2.701628    0.853100   -0.163953
      4         11           0       -0.410465   -0.222332    2.316301
      5         11           0       -1.470689   -2.381720    0.160851
      6         11           0        2.625740    1.163443    0.435978
      7         11           0        2.311439   -1.961632   -0.469183
 ---------------------------------------------------------------------

 SCF Done:  E(UB3LYP) =  -1136.13423653     A.U. after   19 cycles

 The electronic state is 2-A.
 Alpha  occ. eigenvalues --  -38.44530 -38.43854 -38.43579 -38.43576 -38.43533
 Alpha  occ. eigenvalues --  -38.43440 -38.43306  -2.20399  -2.19822  -2.19487
 Alpha  occ. eigenvalues --   -2.19471  -2.19366  -2.19284  -2.19139  -1.14060
 Alpha  occ. eigenvalues --   -1.14024  -1.14015  -1.13554  -1.13469  -1.13453
 Alpha  occ. eigenvalues --   -1.13168  -1.13159  -1.13152  -1.13134  -1.13108
 Alpha  occ. eigenvalues --   -1.13066  -1.13064  -1.13038  -1.13001  -1.12964
 Alpha  occ. eigenvalues --   -1.12950  -1.12913  -1.12808  -1.12791  -1.12778
 Alpha  occ. eigenvalues --   -0.18732  -0.12883  -0.12469  -0.11630
 Alpha virt. eigenvalues --   -0.05265  -0.04907  -0.04682  -0.03433  -0.03362
 Alpha virt. eigenvalues --   -0.03217  -0.01085  -0.00924  -0.00212  -0.00017
 Alpha virt. eigenvalues --    0.00002   0.00392   0.00898   0.00914   0.00948

  Beta  occ. eigenvalues --  -38.44424 -38.43783 -38.43571 -38.43566 -38.43528
  Beta  occ. eigenvalues --  -38.43437 -38.43305  -2.20204  -2.19693  -2.19474
  Beta  occ. eigenvalues --   -2.19460  -2.19360  -2.19280  -2.19140  -1.13931
  Beta  occ. eigenvalues --   -1.13890  -1.13874  -1.13480  -1.13373  -1.13362
  Beta  occ. eigenvalues --   -1.13155  -1.13136  -1.13114  -1.13105  -1.13095
  Beta  occ. eigenvalues --   -1.13063  -1.13058  -1.13017  -1.13000  -1.12964
  Beta  occ. eigenvalues --   -1.12933  -1.12911  -1.12801  -1.12790  -1.12774
  Beta  occ. eigenvalues --   -0.17958  -0.12677  -0.12227
  Beta virt. eigenvalues --   -0.07634  -0.05272  -0.04806  -0.04537  -0.02668
  Beta virt. eigenvalues --   -0.02465  -0.02299  -0.01025  -0.00872  -0.00133
  Beta virt. eigenvalues --   -0.00047   0.00072   0.00434   0.00900   0.00959

 Mulliken charges and spin densities:
               1          2
     1  Na  -0.166576  -0.051740
     2  Na  -0.097853   0.452934
     3  Na   0.342529   0.021436
     4  Na  -0.511320   0.619512
     5  Na   0.471446   0.001322
     6  Na  -0.045427   0.030322
     7  Na   0.007201  -0.073785
 Sum of Mulliken charges =  -0.00000   1.00000

 Dipole moment (field-independent basis, Debye):
    X=             -0.2137    Y=             -0.1957    Z=              0.2340  Tot=              0.3725
 Quadrupole moment (field-independent basis, Debye-Ang):
   XX=            -63.3300   YY=            -64.5887   ZZ=            -69.1372
   XY=             -0.4907   XZ=              0.1098   YZ=             -0.1923

 Normal termination of Gaussian 16 at Tue Dec  5 12:41:00 2023.
