 Gaussian 16, Revision B.01,
 Gaussian 16:  ES64L-G16RevB.01 20-Dec-2017

 -------------------------
 #P B3LYP/6-311+g(d) force
 -------------------------

 -----
 DPGEN
 -----
 Symbolic Z-matrix:
 Charge =  0 Multiplicity = 2

                         Standard orientation:
 ---------------------------------------------------------------------
 Center     Atomic      Atomic             Coordinates (Angstroms)
 Number     Number       Type             X           Y           Z
 ---------------------------------------------------------------------
      1         11           0       -2.457007   -1.835711    0.668561
      2         11           0        3.133636    0.920946   -0.968443
      3         11           0       -4.111281    1.011450   -0.646315
      4         11           0       -0.556021    0.575771   -0.576669
      5         11           0        0.925637    3.010077    0.823234
      6         11           0        1.486420   -1.185516    1.810072
      7         11           0        1.578617   -2.497016   -1.110440
 ---------------------------------------------------------------------

 SCF Done:  E(UB3LYP) =  -1136.12588972     A.U. after   21 cycles

 The electronic state is 2-A.
 Alpha  occ. eigenvalues --  -38.44573 -38.44337 -38.44174 -38.43932 -38.43472
 Alpha  occ. eigenvalues --  -38.43472 -38.43227  -2.20368  -2.20123  -2.19995
 Alpha  occ. eigenvalues --   -2.19783  -2.19403  -2.19308  -2.19056  -1.14067
 Alpha  occ. eigenvalues --   -1.14048  -1.13971  -1.13787  -1.13779  -1.13740
 Alpha  occ. eigenvalues --   -1.13681  -1.13647  -1.13605  -1.13455  -1.13443
 Alpha  occ. eigenvalues --   -1.13407  -1.13131  -1.13092  -1.13018  -1.12983
 Alpha  occ. eigenvalues --   -1.12965  -1.12928  -1.12731  -1.12697  -1.12680
 Alpha  occ. eigenvalues --   -0.17656  -0.13504  -0.11967  -0.10130
 Alpha virt. eigenvalues --   -0.06253  -0.05670  -0.04647  -0.03067  -0.02858
 Alpha virt. eigenvalues --   -0.02261  -0.01749  -0.01479  -0.00798  -0.00508
 Alpha virt. eigenvalues --   -0.00176   0.00194   0.00416   0.00564   0.00709

  Beta  occ. eigenvalues --  -38.44566 -38.44311 -38.44134 -38.43887 -38.43465
  Beta  occ. eigenvalues --  -38.43450 -38.43210  -2.20357  -2.20074  -2.19922
  Beta  occ. eigenvalues --   -2.19701  -2.19393  -2.19268  -2.19024  -1.14061
  Beta  occ. eigenvalues --   -1.14038  -1.13949  -1.13753  -1.13745  -1.13710
  Beta  occ. eigenvalues --   -1.13629  -1.13602  -1.13540  -1.13405  -1.13372
  Beta  occ. eigenvalues --   -1.13348  -1.13103  -1.13075  -1.13018  -1.12957
  Beta  occ. eigenvalues --   -1.12943  -1.12877  -1.12711  -1.12667  -1.12662
  Beta  occ. eigenvalues --   -0.17084  -0.13170  -0.11773
  Beta virt. eigenvalues --   -0.06618  -0.05938  -0.05460  -0.04460  -0.02636
  Beta virt. eigenvalues --   -0.02366  -0.02105  -0.01363  -0.01110  -0.00622
  Beta virt. eigenvalues --   -0.00354   0.00050   0.00299   0.00554   0.00674

 Mulliken charges and spin densities:
               1          2
     1  Na   0.231963  -0.086364
     2  Na   0.690143   0.299702
     3  Na   0.537930   0.103349
     4  Na  -1.947038   0.170306
     5  Na   0.132336  -0.098603
     6  Na   0.175105   0.353370
     7  Na   0.179562   0.258240
 Sum of Mulliken charges =  -0.00000   1.00000

 Dipole moment (field-independent basis, Debye):
    X=             -0.6089    Y=             -0.1412    Z=              0.4915  Tot=              0.7951
 Quadrupole moment (field-independent basis, Debye-Ang):
   XX=            -56.4791   YY=            -65.4360   ZZ=            -71.0810
   XY=              0.9108   XZ=              1.2249   YZ=              0.4087

 Normal termination of Gaussian 16 at Wed Dec  6 00:13:14 2023.
