 Gaussian 16, Revision B.01,
 Gaussian 16:  ES64L-G16RevB.01 20-Dec-2017

 -------------------------
 #P B3LYP/6-311+g(d) force
 -------------------------

 -----
 DPGEN
 -----
 Symbolic Z-matrix:
 Charge =  0 Multiplicity = 2

                         Standard orientation:
 ---------------------------------------------------------------------
 Center     Atomic      Atomic             Coordinates (Angstroms)
 Number     Number       Type             X           Y           Z
 ---------------------------------------------------------------------
      1         11           0       -1.251116    2.497609    0.070374
      2         11           0        2.123076    2.178416    0.162423
      3         11           0       -0.124931   -2.881620   -0.062464
      4         11           0       -1.089035   -0.330040    1.821984
      5         11           0        3.105743   -1.128422    0.231809
      6         11           0        0.583756    0.040813   -1.639573
      7         11           0       -3.347492   -0.376756   -0.584552
 ---------------------------------------------------------------------

 SCF Done:  E(UB3LYP) =  -1136.13355152     A.U. after   19 cycles

 The electronic state is 2-A.
 Alpha  occ. eigenvalues --  -38.44715 -38.44439 -38.43577 -38.43532 -38.43370
 Alpha  occ. eigenvalues --  -38.43219 -38.43184  -2.20519  -2.20253  -2.19438
 Alpha  occ. eigenvalues --   -2.19369  -2.19240  -2.19141  -2.19133  -1.14194
 Alpha  occ. eigenvalues --   -1.14169  -1.14160  -1.13929  -1.13920  -1.13888
 Alpha  occ. eigenvalues --   -1.13148  -1.13093  -1.13081  -1.13071  -1.13050
 Alpha  occ. eigenvalues --   -1.12985  -1.12945  -1.12912  -1.12862  -1.12818
 Alpha  occ. eigenvalues --   -1.12791  -1.12769  -1.12762  -1.12757  -1.12756
 Alpha  occ. eigenvalues --   -0.18426  -0.13368  -0.12421  -0.10174
 Alpha virt. eigenvalues --   -0.06297  -0.05223  -0.04664  -0.03379  -0.02723
 Alpha virt. eigenvalues --   -0.02060  -0.01923  -0.01044  -0.00591  -0.00396
 Alpha virt. eigenvalues --   -0.00035   0.00328   0.00727   0.00807   0.00842

  Beta  occ. eigenvalues --  -38.44702 -38.44438 -38.43574 -38.43524 -38.43361
  Beta  occ. eigenvalues --  -38.43148 -38.43123  -2.20497  -2.20253  -2.19434
  Beta  occ. eigenvalues --   -2.19359  -2.19228  -2.19028  -2.19005  -1.14169
  Beta  occ. eigenvalues --   -1.14152  -1.14141  -1.13925  -1.13910  -1.13890
  Beta  occ. eigenvalues --   -1.13140  -1.13083  -1.13074  -1.13064  -1.13013
  Beta  occ. eigenvalues --   -1.12982  -1.12932  -1.12873  -1.12856  -1.12743
  Beta  occ. eigenvalues --   -1.12706  -1.12692  -1.12675  -1.12670  -1.12666
  Beta  occ. eigenvalues --   -0.17759  -0.13171  -0.12185
  Beta virt. eigenvalues --   -0.06422  -0.06171  -0.05199  -0.04574  -0.02686
  Beta virt. eigenvalues --   -0.01997  -0.01795  -0.01125  -0.00979  -0.00612
  Beta virt. eigenvalues --   -0.00429   0.00145   0.00380   0.00810   0.00818

 Mulliken charges and spin densities:
               1          2
     1  Na   0.105700   0.002588
     2  Na   0.011881  -0.043002
     3  Na   0.043787  -0.093129
     4  Na  -0.259546   0.581103
     5  Na   0.043651  -0.052697
     6  Na  -0.056102   0.584493
     7  Na   0.110629   0.020643
 Sum of Mulliken charges =  -0.00000   1.00000

 Dipole moment (field-independent basis, Debye):
    X=             -0.0156    Y=             -0.2324    Z=             -0.0188  Tot=              0.2337
 Quadrupole moment (field-independent basis, Debye-Ang):
   XX=            -52.1644   YY=            -64.3636   ZZ=            -76.0433
   XY=             -0.0925   XZ=              3.4770   YZ=              0.6892

 Normal termination of Gaussian 16 at Tue Dec  5 17:23:11 2023.
