 Gaussian 16, Revision B.01,
 Gaussian 16:  ES64L-G16RevB.01 20-Dec-2017

 -------------------------
 #P B3LYP/6-311+g(d) force
 -------------------------

 -----
 DPGEN
 -----
 Symbolic Z-matrix:
 Charge =  0 Multiplicity = 2

                         Standard orientation:
 ---------------------------------------------------------------------
 Center     Atomic      Atomic             Coordinates (Angstroms)
 Number     Number       Type             X           Y           Z
 ---------------------------------------------------------------------
      1         11           0       -1.908570   -2.488635   -0.105205
      2         11           0        2.907317    0.765771   -0.552161
      3         11           0       -0.049090    3.202502   -0.314386
      4         11           0        0.210199    0.700606    2.022900
      5         11           0        2.046719   -2.335334    0.527639
      6         11           0       -3.126662    0.713535    0.079502
      7         11           0       -0.079912   -0.558445   -1.658290
 ---------------------------------------------------------------------

 SCF Done:  E(UB3LYP) =  -1136.13578631     A.U. after   19 cycles

 The electronic state is 2-A.
 Alpha  occ. eigenvalues --  -38.44248 -38.43906 -38.43748 -38.43732 -38.43729
 Alpha  occ. eigenvalues --  -38.43586 -38.43337  -2.20042  -2.19744  -2.19573
 Alpha  occ. eigenvalues --   -2.19569  -2.19525  -2.19441  -2.19270  -1.13723
 Alpha  occ. eigenvalues --   -1.13706  -1.13675  -1.13429  -1.13409  -1.13378
 Alpha  occ. eigenvalues --   -1.13310  -1.13233  -1.13229  -1.13221  -1.13212
 Alpha  occ. eigenvalues --   -1.13210  -1.13190  -1.13189  -1.13166  -1.13106
 Alpha  occ. eigenvalues --   -1.13076  -1.13053  -1.12945  -1.12907  -1.12883
 Alpha  occ. eigenvalues --   -0.18128  -0.12946  -0.12417  -0.10514
 Alpha virt. eigenvalues --   -0.05685  -0.05243  -0.05041  -0.03174  -0.03074
 Alpha virt. eigenvalues --   -0.02375  -0.01467  -0.01249  -0.00609  -0.00561
 Alpha virt. eigenvalues --   -0.00016   0.00366   0.00785   0.00826   0.00842

  Beta  occ. eigenvalues --  -38.44246 -38.43891 -38.43735 -38.43729 -38.43727
  Beta  occ. eigenvalues --  -38.43506 -38.43280  -2.20041  -2.19719  -2.19570
  Beta  occ. eigenvalues --   -2.19548  -2.19522  -2.19294  -2.19167  -1.13712
  Beta  occ. eigenvalues --   -1.13705  -1.13675  -1.13410  -1.13371  -1.13364
  Beta  occ. eigenvalues --   -1.13298  -1.13218  -1.13211  -1.13203  -1.13197
  Beta  occ. eigenvalues --   -1.13194  -1.13188  -1.13182  -1.13158  -1.13009
  Beta  occ. eigenvalues --   -1.12975  -1.12945  -1.12873  -1.12831  -1.12811
  Beta  occ. eigenvalues --   -0.17437  -0.12730  -0.12223
  Beta virt. eigenvalues --   -0.06696  -0.05677  -0.05192  -0.04864  -0.02457
  Beta virt. eigenvalues --   -0.02382  -0.01442  -0.01340  -0.01150  -0.00614
  Beta virt. eigenvalues --   -0.00589   0.00132   0.00406   0.00808   0.00846

 Mulliken charges and spin densities:
               1          2
     1  Na   0.176604  -0.033709
     2  Na   0.190396   0.016276
     3  Na  -0.021265  -0.083661
     4  Na  -0.355246   0.692499
     5  Na  -0.024903   0.076915
     6  Na  -0.030374  -0.107274
     7  Na   0.064789   0.438954
 Sum of Mulliken charges =  -0.00000   1.00000

 Dipole moment (field-independent basis, Debye):
    X=             -0.1666    Y=              0.0432    Z=              0.0726  Tot=              0.1868
 Quadrupole moment (field-independent basis, Debye-Ang):
   XX=            -58.0970   YY=            -60.6230   ZZ=            -74.8645
   XY=             -0.6049   XZ=             -0.6750   YZ=             -2.9057

 Normal termination of Gaussian 16 at Sun Dec  3 15:04:15 2023.
