 Gaussian 16, Revision B.01,
 Gaussian 16:  ES64L-G16RevB.01 20-Dec-2017

 -------------------------
 #P B3LYP/6-311+g(d) force
 -------------------------

 -----
 DPGEN
 -----
 Symbolic Z-matrix:
 Charge =  0 Multiplicity = 2

                         Standard orientation:
 ---------------------------------------------------------------------
 Center     Atomic      Atomic             Coordinates (Angstroms)
 Number     Number       Type             X           Y           Z
 ---------------------------------------------------------------------
      1         11           0       -0.962993    0.139411    2.257272
      2         11           0        2.236723   -0.676862    1.954324
      3         11           0        3.072730    0.573266   -1.352423
      4         11           0        0.335063    2.674000   -0.550622
      5         11           0       -2.684225    1.750670   -0.496794
      6         11           0        1.124172   -2.410314   -1.141470
      7         11           0       -3.121471   -2.050172   -0.670287
 ---------------------------------------------------------------------

 SCF Done:  E(UB3LYP) =  -1136.12114200     A.U. after   23 cycles

 The electronic state is 2-A.
 Alpha  occ. eigenvalues --  -38.44951 -38.44761 -38.44548 -38.44312 -38.44152
 Alpha  occ. eigenvalues --  -38.43937 -38.43052  -2.20770  -2.20592  -2.20308
 Alpha  occ. eigenvalues --   -2.20123  -2.19891  -2.19759  -2.18872  -1.14467
 Alpha  occ. eigenvalues --   -1.14402  -1.14393  -1.14262  -1.14237  -1.14202
 Alpha  occ. eigenvalues --   -1.13996  -1.13970  -1.13927  -1.13799  -1.13773
 Alpha  occ. eigenvalues --   -1.13744  -1.13569  -1.13540  -1.13531  -1.13451
 Alpha  occ. eigenvalues --   -1.13427  -1.13380  -1.12558  -1.12529  -1.12513
 Alpha  occ. eigenvalues --   -0.17264  -0.13294  -0.11959  -0.11554
 Alpha virt. eigenvalues --   -0.06132  -0.05426  -0.05104  -0.03584  -0.03162
 Alpha virt. eigenvalues --   -0.02841  -0.01532  -0.00976  -0.00772  -0.00449
 Alpha virt. eigenvalues --   -0.00216   0.00146   0.00347   0.00371   0.00430

  Beta  occ. eigenvalues --  -38.44874 -38.44700 -38.44527 -38.44283 -38.44136
  Beta  occ. eigenvalues --  -38.43933 -38.43049  -2.20632  -2.20484  -2.20269
  Beta  occ. eigenvalues --   -2.20070  -2.19862  -2.19751  -2.18868  -1.14366
  Beta  occ. eigenvalues --   -1.14313  -1.14279  -1.14180  -1.14169  -1.14108
  Beta  occ. eigenvalues --   -1.13964  -1.13944  -1.13899  -1.13756  -1.13741
  Beta  occ. eigenvalues --   -1.13709  -1.13548  -1.13520  -1.13514  -1.13446
  Beta  occ. eigenvalues --   -1.13419  -1.13377  -1.12554  -1.12524  -1.12508
  Beta  occ. eigenvalues --   -0.16558  -0.13143  -0.11372
  Beta virt. eigenvalues --   -0.07951  -0.05936  -0.05224  -0.04599  -0.03353
  Beta virt. eigenvalues --   -0.02550  -0.02165  -0.01415  -0.00902  -0.00552
  Beta virt. eigenvalues --   -0.00213  -0.00176   0.00405   0.00425   0.00456

 Mulliken charges and spin densities:
               1          2
     1  Na  -0.207135   0.294083
     2  Na   0.244534   0.178398
     3  Na   0.233371   0.169216
     4  Na  -0.358918   0.072827
     5  Na   0.492507   0.010697
     6  Na  -0.341637   0.178965
     7  Na  -0.062723   0.095813
 Sum of Mulliken charges =  -0.00000   1.00000

 Dipole moment (field-independent basis, Debye):
    X=              0.4629    Y=             -0.2958    Z=              0.1255  Tot=              0.5635
 Quadrupole moment (field-independent basis, Debye-Ang):
   XX=            -58.3838   YY=            -73.5527   ZZ=            -67.1409
   XY=             -0.9509   XZ=              0.3779   YZ=              0.7327

 Normal termination of Gaussian 16 at Tue Nov 28 23:37:58 2023.
