 Gaussian 16, Revision B.01,
 Gaussian 16:  ES64L-G16RevB.01 20-Dec-2017

 -------------------------
 #P B3LYP/6-311+g(d) force
 -------------------------

 -----
 DPGEN
 -----
 Symbolic Z-matrix:
 Charge =  0 Multiplicity = 2

                         Standard orientation:
 ---------------------------------------------------------------------
 Center     Atomic      Atomic             Coordinates (Angstroms)
 Number     Number       Type             X           Y           Z
 ---------------------------------------------------------------------
      1         11           0       -0.013658   -2.485018    0.436395
      2         11           0       -1.938279    2.341891   -0.533445
      3         11           0       -0.148097   -0.192329   -1.339885
      4         11           0        0.399106    0.022272    2.241092
      5         11           0        2.834802   -0.931026   -1.110392
      6         11           0        1.851476    2.237335    0.401315
      7         11           0       -2.985352   -0.993125   -0.095080
 ---------------------------------------------------------------------

 SCF Done:  E(UB3LYP) =  -1136.12922689     A.U. after   19 cycles

 The electronic state is 2-A.
 Alpha  occ. eigenvalues --  -38.44249 -38.43989 -38.43839 -38.43476 -38.43474
 Alpha  occ. eigenvalues --  -38.43084 -38.42993  -2.20164  -2.19854  -2.19698
 Alpha  occ. eigenvalues --   -2.19320  -2.19301  -2.19198  -2.18960  -1.13836
 Alpha  occ. eigenvalues --   -1.13804  -1.13769  -1.13575  -1.13477  -1.13471
 Alpha  occ. eigenvalues --   -1.13402  -1.13357  -1.13328  -1.13040  -1.13017
 Alpha  occ. eigenvalues --   -1.12985  -1.12976  -1.12960  -1.12943  -1.12915
 Alpha  occ. eigenvalues --   -1.12822  -1.12809  -1.12640  -1.12589  -1.12538
 Alpha  occ. eigenvalues --   -0.18953  -0.13081  -0.12260  -0.11520
 Alpha virt. eigenvalues --   -0.05353  -0.05050  -0.04187  -0.03382  -0.03083
 Alpha virt. eigenvalues --   -0.02890  -0.01520  -0.00926  -0.00278   0.00022
 Alpha virt. eigenvalues --    0.00190   0.00331   0.00827   0.00907   0.00958

  Beta  occ. eigenvalues --  -38.44143 -38.43948 -38.43840 -38.43470 -38.43466
  Beta  occ. eigenvalues --  -38.43040 -38.42978  -2.19969  -2.19780  -2.19701
  Beta  occ. eigenvalues --   -2.19307  -2.19295  -2.19119  -2.18938  -1.13704
  Beta  occ. eigenvalues --   -1.13660  -1.13638  -1.13512  -1.13428  -1.13421
  Beta  occ. eigenvalues --   -1.13402  -1.13354  -1.13326  -1.13021  -1.12994
  Beta  occ. eigenvalues --   -1.12955  -1.12954  -1.12946  -1.12938  -1.12910
  Beta  occ. eigenvalues --   -1.12768  -1.12746  -1.12606  -1.12556  -1.12518
  Beta  occ. eigenvalues --   -0.18240  -0.12778  -0.11996
  Beta virt. eigenvalues --   -0.07532  -0.05297  -0.04901  -0.04153  -0.02678
  Beta virt. eigenvalues --   -0.02310  -0.01922  -0.01372  -0.00854  -0.00169
  Beta virt. eigenvalues --    0.00076   0.00200   0.00376   0.00902   0.00927

 Mulliken charges and spin densities:
               1          2
     1  Na   0.616023   0.263457
     2  Na   0.072455   0.008212
     3  Na  -0.645663   0.109364
     4  Na  -0.321739   0.427944
     5  Na   0.200075   0.086814
     6  Na   0.070315   0.099754
     7  Na   0.008535   0.004454
 Sum of Mulliken charges =  -0.00000   1.00000

 Dipole moment (field-independent basis, Debye):
    X=              0.0167    Y=              0.0838    Z=              0.2894  Tot=              0.3018
 Quadrupole moment (field-independent basis, Debye-Ang):
   XX=            -56.9062   YY=            -66.0774   ZZ=            -70.7747
   XY=              0.4099   XZ=             -1.8994   YZ=             -0.1151

 Normal termination of Gaussian 16 at Tue Dec  5 23:48:27 2023.
