 Gaussian 16, Revision B.01,
 Gaussian 16:  ES64L-G16RevB.01 20-Dec-2017

 -------------------------
 #P B3LYP/6-311+g(d) force
 -------------------------

 -----
 DPGEN
 -----
 Symbolic Z-matrix:
 Charge =  0 Multiplicity = 2

                         Standard orientation:
 ---------------------------------------------------------------------
 Center     Atomic      Atomic             Coordinates (Angstroms)
 Number     Number       Type             X           Y           Z
 ---------------------------------------------------------------------
      1         11           0       -0.093635   -0.072021   -1.773413
      2         11           0        3.219918    0.097800    0.315407
      3         11           0        0.592118    2.894625   -0.456057
      4         11           0       -2.204758   -2.025081   -0.109145
      5         11           0       -0.182348   -0.015526    2.240652
      6         11           0       -2.557654    1.433480    0.126055
      7         11           0        1.226359   -2.313279   -0.343499
 ---------------------------------------------------------------------

 SCF Done:  E(UB3LYP) =  -1136.13605022     A.U. after   19 cycles

 The electronic state is 2-A.
 Alpha  occ. eigenvalues --  -38.44264 -38.43953 -38.43662 -38.43546 -38.43367
 Alpha  occ. eigenvalues --  -38.43357 -38.43184  -2.20121  -2.19768  -2.19544
 Alpha  occ. eigenvalues --   -2.19521  -2.19225  -2.19191  -2.19115  -1.13777
 Alpha  occ. eigenvalues --   -1.13753  -1.13739  -1.13453  -1.13430  -1.13406
 Alpha  occ. eigenvalues --   -1.13288  -1.13231  -1.13197  -1.13175  -1.13153
 Alpha  occ. eigenvalues --   -1.13150  -1.12898  -1.12888  -1.12877  -1.12865
 Alpha  occ. eigenvalues --   -1.12844  -1.12818  -1.12802  -1.12756  -1.12715
 Alpha  occ. eigenvalues --   -0.18753  -0.12918  -0.12388  -0.11318
 Alpha virt. eigenvalues --   -0.05489  -0.04948  -0.04485  -0.03394  -0.03123
 Alpha virt. eigenvalues --   -0.03007  -0.01374  -0.00987  -0.00247  -0.00043
 Alpha virt. eigenvalues --    0.00010   0.00374   0.00818   0.00911   0.00946

  Beta  occ. eigenvalues --  -38.44165 -38.43951 -38.43657 -38.43474 -38.43359
  Beta  occ. eigenvalues --  -38.43353 -38.43174  -2.19937  -2.19766  -2.19516
  Beta  occ. eigenvalues --   -2.19414  -2.19222  -2.19179  -2.19101  -1.13656
  Beta  occ. eigenvalues --   -1.13625  -1.13605  -1.13455  -1.13414  -1.13405
  Beta  occ. eigenvalues --   -1.13209  -1.13201  -1.13173  -1.13148  -1.13095
  Beta  occ. eigenvalues --   -1.13073  -1.12891  -1.12880  -1.12857  -1.12847
  Beta  occ. eigenvalues --   -1.12830  -1.12813  -1.12779  -1.12726  -1.12707
  Beta  occ. eigenvalues --   -0.17993  -0.12701  -0.12128
  Beta virt. eigenvalues --   -0.07361  -0.05398  -0.04949  -0.04440  -0.02589
  Beta virt. eigenvalues --   -0.02288  -0.02002  -0.01275  -0.00924  -0.00263
  Beta virt. eigenvalues --   -0.00044   0.00090   0.00391   0.00882   0.00910

 Mulliken charges and spin densities:
               1          2
     1  Na  -0.154513   0.354784
     2  Na  -0.048715   0.001977
     3  Na   0.066373  -0.036952
     4  Na   0.226283  -0.040416
     5  Na  -0.632347   0.702759
     6  Na   0.185908  -0.004957
     7  Na   0.357011   0.022805
 Sum of Mulliken charges =  -0.00000   1.00000

 Dipole moment (field-independent basis, Debye):
    X=             -0.0245    Y=              0.1515    Z=              0.3634  Tot=              0.3945
 Quadrupole moment (field-independent basis, Debye-Ang):
   XX=            -58.5463   YY=            -65.3222   ZZ=            -71.2345
   XY=              1.1953   XZ=              0.4623   YZ=             -0.0704

 Normal termination of Gaussian 16 at Fri Dec  8 05:43:29 2023.
