 Gaussian 16, Revision B.01,
 Gaussian 16:  ES64L-G16RevB.01 20-Dec-2017

 -------------------------
 #P B3LYP/6-311+g(d) force
 -------------------------

 -----
 DPGEN
 -----
 Symbolic Z-matrix:
 Charge =  0 Multiplicity = 2

                         Standard orientation:
 ---------------------------------------------------------------------
 Center     Atomic      Atomic             Coordinates (Angstroms)
 Number     Number       Type             X           Y           Z
 ---------------------------------------------------------------------
      1         11           0       -2.514343   -1.749332   -0.260441
      2         11           0        1.091388   -2.636268    0.004351
      3         11           0       -0.307061   -0.022140    1.514589
      4         11           0        1.564083    2.717859    0.028677
      5         11           0       -2.825862    1.594218    0.140093
      6         11           0       -0.092407    0.493918   -1.435023
      7         11           0        3.084203   -0.398255    0.007752
 ---------------------------------------------------------------------

 SCF Done:  E(UB3LYP) =  -1136.12962621     A.U. after   21 cycles

 The electronic state is 2-A.
 Alpha  occ. eigenvalues --  -38.44479 -38.44297 -38.44065 -38.43640 -38.43133
 Alpha  occ. eigenvalues --  -38.42792 -38.42763  -2.20334  -2.20177  -2.19930
 Alpha  occ. eigenvalues --   -2.19488  -2.19031  -2.18833  -2.18800  -1.14010
 Alpha  occ. eigenvalues --   -1.13999  -1.13970  -1.13891  -1.13829  -1.13811
 Alpha  occ. eigenvalues --   -1.13608  -1.13593  -1.13561  -1.13190  -1.13142
 Alpha  occ. eigenvalues --   -1.13120  -1.12732  -1.12693  -1.12678  -1.12660
 Alpha  occ. eigenvalues --   -1.12447  -1.12438  -1.12421  -1.12409  -1.12399
 Alpha  occ. eigenvalues --   -0.19074  -0.13715  -0.12406  -0.09887
 Alpha virt. eigenvalues --   -0.06094  -0.05622  -0.04488  -0.03118  -0.02377
 Alpha virt. eigenvalues --   -0.01939  -0.01616  -0.01411  -0.00587  -0.00299
 Alpha virt. eigenvalues --    0.00062   0.00332   0.00730   0.00785   0.00884

  Beta  occ. eigenvalues --  -38.44470 -38.44294 -38.44054 -38.43636 -38.43127
  Beta  occ. eigenvalues --  -38.42720 -38.42701  -2.20322  -2.20175  -2.19914
  Beta  occ. eigenvalues --   -2.19485  -2.19025  -2.18707  -2.18685  -1.14005
  Beta  occ. eigenvalues --   -1.13968  -1.13957  -1.13894  -1.13814  -1.13800
  Beta  occ. eigenvalues --   -1.13598  -1.13556  -1.13550  -1.13184  -1.13129
  Beta  occ. eigenvalues --   -1.13114  -1.12723  -1.12685  -1.12638  -1.12589
  Beta  occ. eigenvalues --   -1.12355  -1.12349  -1.12334  -1.12319  -1.12314
  Beta  occ. eigenvalues --   -0.18378  -0.13453  -0.12156
  Beta virt. eigenvalues --   -0.06084  -0.06017  -0.05582  -0.04485  -0.02315
  Beta virt. eigenvalues --   -0.01854  -0.01669  -0.01360  -0.00745  -0.00583
  Beta virt. eigenvalues --   -0.00324   0.00218   0.00384   0.00768   0.00801

 Mulliken charges and spin densities:
               1          2
     1  Na   0.247555   0.086516
     2  Na   0.106649   0.014305
     3  Na  -0.573363   0.532347
     4  Na   0.379108  -0.039350
     5  Na   0.340109  -0.029856
     6  Na  -0.644997   0.420928
     7  Na   0.144939   0.015109
 Sum of Mulliken charges =  -0.00000   1.00000

 Dipole moment (field-independent basis, Debye):
    X=             -0.3626    Y=              0.2900    Z=              0.0113  Tot=              0.4645
 Quadrupole moment (field-independent basis, Debye-Ang):
   XX=            -50.4671   YY=            -60.7915   ZZ=            -78.8727
   XY=              0.1486   XZ=              0.5623   YZ=              1.2127

 Normal termination of Gaussian 16 at Tue Nov 28 19:30:34 2023.
