 Gaussian 16, Revision B.01,
 Gaussian 16:  ES64L-G16RevB.01 20-Dec-2017

 -------------------------
 #P B3LYP/6-311+g(d) force
 -------------------------

 -----
 DPGEN
 -----
 Symbolic Z-matrix:
 Charge =  0 Multiplicity = 2

                         Standard orientation:
 ---------------------------------------------------------------------
 Center     Atomic      Atomic             Coordinates (Angstroms)
 Number     Number       Type             X           Y           Z
 ---------------------------------------------------------------------
      1         11           0       -3.045942    0.136609   -0.001793
      2         11           0       -0.068501   -0.280537    2.135293
      3         11           0       -1.036539   -2.594804   -0.563316
      4         11           0        2.220145   -1.885048    0.251477
      5         11           0       -1.057431    2.812220    0.091317
      6         11           0        2.886704    1.681097   -0.255123
      7         11           0        0.101565    0.130463   -1.657855
 ---------------------------------------------------------------------

 SCF Done:  E(UB3LYP) =  -1136.13807193     A.U. after   19 cycles

 The electronic state is 2-A.
 Alpha  occ. eigenvalues --  -38.43955 -38.43879 -38.43754 -38.43638 -38.43617
 Alpha  occ. eigenvalues --  -38.43255 -38.43133  -2.19757  -2.19739  -2.19612
 Alpha  occ. eigenvalues --   -2.19500  -2.19444  -2.19232  -2.19030  -1.13423
 Alpha  occ. eigenvalues --   -1.13420  -1.13393  -1.13389  -1.13383  -1.13378
 Alpha  occ. eigenvalues --   -1.13287  -1.13275  -1.13268  -1.13178  -1.13173
 Alpha  occ. eigenvalues --   -1.13129  -1.13124  -1.13108  -1.13069  -1.12938
 Alpha  occ. eigenvalues --   -1.12888  -1.12850  -1.12697  -1.12672  -1.12655
 Alpha  occ. eigenvalues --   -0.18637  -0.12947  -0.12383  -0.10992
 Alpha virt. eigenvalues --   -0.05581  -0.05161  -0.04599  -0.03264  -0.02918
 Alpha virt. eigenvalues --   -0.02769  -0.01458  -0.01122  -0.00364  -0.00250
 Alpha virt. eigenvalues --   -0.00017   0.00358   0.00813   0.00870   0.00909

  Beta  occ. eigenvalues --  -38.43954 -38.43781 -38.43750 -38.43629 -38.43615
  Beta  occ. eigenvalues --  -38.43192 -38.43116  -2.19739  -2.19609  -2.19575
  Beta  occ. eigenvalues --   -2.19489  -2.19443  -2.19118  -2.19004  -1.13408
  Beta  occ. eigenvalues --   -1.13391  -1.13385  -1.13309  -1.13290  -1.13276
  Beta  occ. eigenvalues --   -1.13257  -1.13253  -1.13240  -1.13168  -1.13133
  Beta  occ. eigenvalues --   -1.13122  -1.13120  -1.13095  -1.13069  -1.12867
  Beta  occ. eigenvalues --   -1.12803  -1.12770  -1.12664  -1.12648  -1.12626
  Beta  occ. eigenvalues --   -0.17896  -0.12722  -0.12143
  Beta virt. eigenvalues --   -0.07039  -0.05573  -0.05084  -0.04567  -0.02456
  Beta virt. eigenvalues --   -0.02203  -0.01702  -0.01371  -0.01035  -0.00405
  Beta virt. eigenvalues --   -0.00277   0.00117   0.00384   0.00854   0.00899

 Mulliken charges and spin densities:
               1          2
     1  Na   0.160398  -0.000750
     2  Na  -0.436166   0.669420
     3  Na   0.298514   0.052887
     4  Na   0.204802   0.043474
     5  Na  -0.039593  -0.075820
     6  Na  -0.037514  -0.096775
     7  Na  -0.150440   0.407565
 Sum of Mulliken charges =  -0.00000   1.00000

 Dipole moment (field-independent basis, Debye):
    X=              0.0939    Y=              0.1670    Z=              0.2324  Tot=              0.3012
 Quadrupole moment (field-independent basis, Debye-Ang):
   XX=            -57.9270   YY=            -62.8192   ZZ=            -73.2666
   XY=              0.3055   XZ=              0.3013   YZ=              0.8296

 Normal termination of Gaussian 16 at Thu Dec  7 04:49:21 2023.
