 Gaussian 16, Revision B.01,
 Gaussian 16:  ES64L-G16RevB.01 20-Dec-2017

 -------------------------
 #P B3LYP/6-311+g(d) force
 -------------------------

 -----
 DPGEN
 -----
 Symbolic Z-matrix:
 Charge =  0 Multiplicity = 2

                         Standard orientation:
 ---------------------------------------------------------------------
 Center     Atomic      Atomic             Coordinates (Angstroms)
 Number     Number       Type             X           Y           Z
 ---------------------------------------------------------------------
      1         11           0       -0.363977    0.333312   -1.666429
      2         11           0        2.897619   -0.375478   -0.418631
      3         11           0       -2.569334   -1.571018   -0.281861
      4         11           0        1.488429    2.774374    0.084274
      5         11           0        0.116206   -0.229538    1.949172
      6         11           0        0.782877   -2.909698    0.100370
      7         11           0       -2.351820    1.978047    0.233105
 ---------------------------------------------------------------------

 SCF Done:  E(UB3LYP) =  -1136.13980445     A.U. after   18 cycles

 The electronic state is 2-A.
 Alpha  occ. eigenvalues --  -38.43922 -38.43742 -38.43739 -38.43575 -38.43432
 Alpha  occ. eigenvalues --  -38.43398 -38.43156  -2.19759  -2.19590  -2.19556
 Alpha  occ. eigenvalues --   -2.19431  -2.19306  -2.19288  -2.19125  -1.13459
 Alpha  occ. eigenvalues --   -1.13423  -1.13385  -1.13294  -1.13246  -1.13231
 Alpha  occ. eigenvalues --   -1.13225  -1.13213  -1.13199  -1.13118  -1.13097
 Alpha  occ. eigenvalues --   -1.13071  -1.13010  -1.12966  -1.12940  -1.12928
 Alpha  occ. eigenvalues --   -1.12919  -1.12900  -1.12802  -1.12757  -1.12746
 Alpha  occ. eigenvalues --   -0.18644  -0.12923  -0.12615  -0.10634
 Alpha virt. eigenvalues --   -0.05515  -0.05059  -0.04998  -0.03155  -0.02943
 Alpha virt. eigenvalues --   -0.02429  -0.01335  -0.01286  -0.00406  -0.00368
 Alpha virt. eigenvalues --    0.00009   0.00369   0.00845   0.00871   0.00884

  Beta  occ. eigenvalues --  -38.43917 -38.43741 -38.43731 -38.43565 -38.43428
  Beta  occ. eigenvalues --  -38.43310 -38.43092  -2.19752  -2.19578  -2.19556
  Beta  occ. eigenvalues --   -2.19416  -2.19284  -2.19144  -2.19010  -1.13451
  Beta  occ. eigenvalues --   -1.13403  -1.13379  -1.13277  -1.13228  -1.13222
  Beta  occ. eigenvalues --   -1.13215  -1.13209  -1.13195  -1.13108  -1.13067
  Beta  occ. eigenvalues --   -1.13062  -1.12971  -1.12925  -1.12920  -1.12865
  Beta  occ. eigenvalues --   -1.12813  -1.12799  -1.12723  -1.12676  -1.12659
  Beta  occ. eigenvalues --   -0.17921  -0.12679  -0.12387
  Beta virt. eigenvalues --   -0.06750  -0.05520  -0.05017  -0.04928  -0.02368
  Beta virt. eigenvalues --   -0.02191  -0.01398  -0.01255  -0.01200  -0.00457
  Beta virt. eigenvalues --   -0.00399   0.00140   0.00394   0.00843   0.00889

 Mulliken charges and spin densities:
               1          2
     1  Na  -0.136187   0.504996
     2  Na   0.058483  -0.025018
     3  Na   0.187293  -0.073129
     4  Na   0.014894  -0.073774
     5  Na  -0.377401   0.766861
     6  Na   0.180980  -0.027318
     7  Na   0.071938  -0.072618
 Sum of Mulliken charges =  -0.00000   1.00000

 Dipole moment (field-independent basis, Debye):
    X=             -0.1885    Y=              0.1811    Z=              0.1016  Tot=              0.2805
 Quadrupole moment (field-independent basis, Debye-Ang):
   XX=            -59.2435   YY=            -59.1474   ZZ=            -74.7748
   XY=              0.0742   XZ=             -1.0794   YZ=              1.4113

 Normal termination of Gaussian 16 at Fri Dec  8 02:54:53 2023.
