 Gaussian 16, Revision B.01,
 Gaussian 16:  ES64L-G16RevB.01 20-Dec-2017

 -------------------------
 #P B3LYP/6-311+g(d) force
 -------------------------

 -----
 DPGEN
 -----
 Symbolic Z-matrix:
 Charge =  0 Multiplicity = 2

                         Standard orientation:
 ---------------------------------------------------------------------
 Center     Atomic      Atomic             Coordinates (Angstroms)
 Number     Number       Type             X           Y           Z
 ---------------------------------------------------------------------
      1         11           0        2.552714    2.102705   -0.039040
      2         11           0       -0.371752   -0.197117    2.152741
      3         11           0        0.386804    0.133466   -1.494260
      4         11           0       -1.113497    2.722562   -0.280004
      5         11           0       -3.419860   -0.197593    0.091690
      6         11           0        2.581150   -1.860073    0.379868
      7         11           0       -0.615560   -2.703951   -0.810995
 ---------------------------------------------------------------------

 SCF Done:  E(UB3LYP) =  -1136.13437365     A.U. after   19 cycles

 The electronic state is 2-A.
 Alpha  occ. eigenvalues --  -38.44158 -38.43945 -38.43926 -38.43916 -38.43750
 Alpha  occ. eigenvalues --  -38.43437 -38.43056  -2.19935  -2.19758  -2.19755
 Alpha  occ. eigenvalues --   -2.19727  -2.19576  -2.19301  -2.19054  -1.13610
 Alpha  occ. eigenvalues --   -1.13590  -1.13581  -1.13430  -1.13426  -1.13419
 Alpha  occ. eigenvalues --   -1.13414  -1.13400  -1.13391  -1.13384  -1.13364
 Alpha  occ. eigenvalues --   -1.13358  -1.13291  -1.13242  -1.13180  -1.13052
 Alpha  occ. eigenvalues --   -1.12941  -1.12906  -1.12728  -1.12683  -1.12678
 Alpha  occ. eigenvalues --   -0.18204  -0.12660  -0.12482  -0.10714
 Alpha virt. eigenvalues --   -0.05709  -0.05405  -0.04641  -0.03140  -0.02925
 Alpha virt. eigenvalues --   -0.02579  -0.01655  -0.01284  -0.00483  -0.00405
 Alpha virt. eigenvalues --   -0.00020   0.00328   0.00755   0.00810   0.00857

  Beta  occ. eigenvalues --  -38.44159 -38.43939 -38.43926 -38.43822 -38.43744
  Beta  occ. eigenvalues --  -38.43410 -38.43002  -2.19939  -2.19746  -2.19730
  Beta  occ. eigenvalues --   -2.19583  -2.19567  -2.19254  -2.18957  -1.13603
  Beta  occ. eigenvalues --   -1.13590  -1.13585  -1.13422  -1.13413  -1.13404
  Beta  occ. eigenvalues --   -1.13389  -1.13383  -1.13358  -1.13305  -1.13278
  Beta  occ. eigenvalues --   -1.13273  -1.13238  -1.13224  -1.13175  -1.13007
  Beta  occ. eigenvalues --   -1.12897  -1.12878  -1.12658  -1.12611  -1.12607
  Beta  occ. eigenvalues --   -0.17502  -0.12476  -0.12237
  Beta virt. eigenvalues --   -0.06818  -0.05649  -0.05339  -0.04575  -0.02417
  Beta virt. eigenvalues --   -0.02244  -0.01594  -0.01509  -0.01208  -0.00486
  Beta virt. eigenvalues --   -0.00399   0.00119   0.00365   0.00804   0.00826

 Mulliken charges and spin densities:
               1          2
     1  Na   0.004770  -0.029109
     2  Na  -0.486632   0.783950
     3  Na   0.124668   0.242245
     4  Na   0.046030  -0.081549
     5  Na   0.057399  -0.036777
     6  Na   0.043907   0.086259
     7  Na   0.209858   0.034981
 Sum of Mulliken charges =  -0.00000   1.00000

 Dipole moment (field-independent basis, Debye):
    X=              0.0276    Y=              0.1006    Z=              0.2945  Tot=              0.3124
 Quadrupole moment (field-independent basis, Debye-Ang):
   XX=            -55.1688   YY=            -62.7459   ZZ=            -74.7927
   XY=             -0.0032   XZ=              1.9673   YZ=              0.5544

 Normal termination of Gaussian 16 at Thu Dec  7 06:42:57 2023.
