 Gaussian 16, Revision B.01,
 Gaussian 16:  ES64L-G16RevB.01 20-Dec-2017

 -------------------------
 #P B3LYP/6-311+g(d) force
 -------------------------

 -----
 DPGEN
 -----
 Symbolic Z-matrix:
 Charge =  0 Multiplicity = 2

                         Standard orientation:
 ---------------------------------------------------------------------
 Center     Atomic      Atomic             Coordinates (Angstroms)
 Number     Number       Type             X           Y           Z
 ---------------------------------------------------------------------
      1         11           0       -0.945394   -1.267487   -2.362565
      2         11           0       -1.353978   -1.021215    2.401662
      3         11           0        4.275802   -1.086533   -0.102642
      4         11           0        1.410714   -1.374809    0.446962
      5         11           0       -3.545444   -0.599646   -0.173759
      6         11           0       -0.549793    1.518266   -0.285389
      7         11           0        0.708094    3.831424    0.075731
 ---------------------------------------------------------------------

 SCF Done:  E(UB3LYP) =  -1136.10522043     A.U. after   23 cycles

 The electronic state is 2-A.
 Alpha  occ. eigenvalues --  -38.45501 -38.45238 -38.45132 -38.44941 -38.43415
 Alpha  occ. eigenvalues --  -38.42849 -38.42507  -2.21338  -2.21046  -2.20980
 Alpha  occ. eigenvalues --   -2.20730  -2.19314  -2.18716  -2.18481  -1.14989
 Alpha  occ. eigenvalues --   -1.14972  -1.14945  -1.14723  -1.14715  -1.14689
 Alpha  occ. eigenvalues --   -1.14634  -1.14608  -1.14573  -1.14445  -1.14373
 Alpha  occ. eigenvalues --   -1.14369  -1.12992  -1.12974  -1.12955  -1.12732
 Alpha  occ. eigenvalues --   -1.12328  -1.12324  -1.12116  -1.12114  -1.11976
 Alpha  occ. eigenvalues --   -0.18141  -0.12955  -0.12170  -0.11616
 Alpha virt. eigenvalues --   -0.07279  -0.05046  -0.04005  -0.03681  -0.02856
 Alpha virt. eigenvalues --   -0.02666  -0.02521  -0.00888  -0.00737  -0.00371
 Alpha virt. eigenvalues --   -0.00219  -0.00003   0.00373   0.00498   0.00731

  Beta  occ. eigenvalues --  -38.45400 -38.45237 -38.45032 -38.44953 -38.43401
  Beta  occ. eigenvalues --  -38.42855 -38.42497  -2.21151  -2.21049  -2.20794
  Beta  occ. eigenvalues --   -2.20753  -2.19292  -2.18726  -2.18466  -1.14860
  Beta  occ. eigenvalues --   -1.14843  -1.14820  -1.14723  -1.14700  -1.14671
  Beta  occ. eigenvalues --   -1.14504  -1.14479  -1.14460  -1.14458  -1.14387
  Beta  occ. eigenvalues --   -1.14384  -1.12978  -1.12944  -1.12933  -1.12736
  Beta  occ. eigenvalues --   -1.12332  -1.12330  -1.12106  -1.12080  -1.11977
  Beta  occ. eigenvalues --   -0.17263  -0.12909  -0.11537
  Beta virt. eigenvalues --   -0.08035  -0.07050  -0.04666  -0.03263  -0.02962
  Beta virt. eigenvalues --   -0.02792  -0.02533  -0.01943  -0.00842  -0.00488
  Beta virt. eigenvalues --   -0.00146  -0.00049   0.00016   0.00457   0.00571

 Mulliken charges and spin densities:
               1          2
     1  Na   0.981980   0.321197
     2  Na   1.371750   0.410698
     3  Na  -0.285729  -0.061971
     4  Na  -0.800942   0.071423
     5  Na   0.448859  -0.079904
     6  Na  -1.986203   0.546660
     7  Na   0.270286  -0.208103
 Sum of Mulliken charges =  -0.00000   1.00000

 Dipole moment (field-independent basis, Debye):
    X=             -0.4942    Y=             -1.4095    Z=             -0.2126  Tot=              1.5087
 Quadrupole moment (field-independent basis, Debye-Ang):
   XX=            -51.0752   YY=            -76.8232   ZZ=            -66.1975
   XY=              3.0649   XZ=             -1.3173   YZ=              2.2946

 Normal termination of Gaussian 16 at Thu Dec  7 19:27:13 2023.
