 Gaussian 16, Revision B.01,
 Gaussian 16:  ES64L-G16RevB.01 20-Dec-2017

 -------------------------
 #P B3LYP/6-311+g(d) force
 -------------------------

 -----
 DPGEN
 -----
 Symbolic Z-matrix:
 Charge =  0 Multiplicity = 2

                         Standard orientation:
 ---------------------------------------------------------------------
 Center     Atomic      Atomic             Coordinates (Angstroms)
 Number     Number       Type             X           Y           Z
 ---------------------------------------------------------------------
      1         11           0       -0.186591    2.818469   -0.268944
      2         11           0        1.556338   -2.399586   -0.093247
      3         11           0        0.040790   -0.225071    1.941878
      4         11           0       -1.676952   -1.996100   -0.473683
      5         11           0        2.647715    0.945986    0.288361
      6         11           0       -2.795284    0.603537    0.300649
      7         11           0        0.413984    0.252767   -1.695014
 ---------------------------------------------------------------------

 SCF Done:  E(UB3LYP) =  -1136.13388833     A.U. after   19 cycles

 The electronic state is 2-A.
 Alpha  occ. eigenvalues --  -38.43632 -38.43552 -38.43469 -38.43404 -38.43328
 Alpha  occ. eigenvalues --  -38.43309 -38.43297  -2.19551  -2.19526  -2.19382
 Alpha  occ. eigenvalues --   -2.19359  -2.19302  -2.19284  -2.19215  -1.13312
 Alpha  occ. eigenvalues --   -1.13255  -1.13226  -1.13185  -1.13175  -1.13153
 Alpha  occ. eigenvalues --   -1.13137  -1.13132  -1.13051  -1.13026  -1.13008
 Alpha  occ. eigenvalues --   -1.12976  -1.12949  -1.12934  -1.12918  -1.12909
 Alpha  occ. eigenvalues --   -1.12893  -1.12876  -1.12869  -1.12851  -1.12819
 Alpha  occ. eigenvalues --   -0.19569  -0.13138  -0.12814  -0.11269
 Alpha virt. eigenvalues --   -0.05162  -0.04831  -0.04598  -0.03364  -0.03105
 Alpha virt. eigenvalues --   -0.02735  -0.01113  -0.01020  -0.00086   0.00131
 Alpha virt. eigenvalues --    0.00197   0.00374   0.00931   0.00977   0.00996

  Beta  occ. eigenvalues --  -38.43622 -38.43463 -38.43463 -38.43397 -38.43315
  Beta  occ. eigenvalues --  -38.43302 -38.43225  -2.19537  -2.19374  -2.19362
  Beta  occ. eigenvalues --   -2.19295  -2.19265  -2.19224  -2.19208  -1.13290
  Beta  occ. eigenvalues --   -1.13206  -1.13200  -1.13162  -1.13105  -1.13093
  Beta  occ. eigenvalues --   -1.13055  -1.13036  -1.13011  -1.12981  -1.12975
  Beta  occ. eigenvalues --   -1.12927  -1.12913  -1.12908  -1.12902  -1.12868
  Beta  occ. eigenvalues --   -1.12862  -1.12844  -1.12842  -1.12811  -1.12802
  Beta  occ. eigenvalues --   -0.18808  -0.12869  -0.12530
  Beta virt. eigenvalues --   -0.07272  -0.05155  -0.04804  -0.04580  -0.02519
  Beta virt. eigenvalues --   -0.02295  -0.01640  -0.01042  -0.00956   0.00000
  Beta virt. eigenvalues --    0.00120   0.00174   0.00393   0.00940   0.00979

 Mulliken charges and spin densities:
               1          2
     1  Na   0.193631  -0.046754
     2  Na   0.232765  -0.055756
     3  Na  -0.537378   0.660644
     4  Na   0.168082   0.036014
     5  Na   0.247417  -0.040354
     6  Na   0.102266   0.007677
     7  Na  -0.406783   0.438530
 Sum of Mulliken charges =  -0.00000   1.00000

 Dipole moment (field-independent basis, Debye):
    X=              0.2203    Y=              0.0856    Z=              0.2009  Tot=              0.3102
 Quadrupole moment (field-independent basis, Debye-Ang):
   XX=            -60.7702   YY=            -62.4474   ZZ=            -71.8010
   XY=             -0.7814   XZ=              0.6391   YZ=              1.0857

 Normal termination of Gaussian 16 at Thu Dec  7 05:22:59 2023.
