 Gaussian 16, Revision B.01,
 Gaussian 16:  ES64L-G16RevB.01 20-Dec-2017

 -------------------------
 #P B3LYP/6-311+g(d) force
 -------------------------

 -----
 DPGEN
 -----
 Symbolic Z-matrix:
 Charge =  0 Multiplicity = 2

                         Standard orientation:
 ---------------------------------------------------------------------
 Center     Atomic      Atomic             Coordinates (Angstroms)
 Number     Number       Type             X           Y           Z
 ---------------------------------------------------------------------
      1         11           0        2.477628    0.095889   -2.006406
      2         11           0        0.016133    0.526375    2.490573
      3         11           0       -1.869634    1.840274   -1.075089
      4         11           0        0.976761    3.265625    0.386925
      5         11           0        2.517898   -2.158032    0.806926
      6         11           0       -3.694499   -1.199855   -0.078105
      7         11           0       -0.424287   -2.370275   -0.524824
 ---------------------------------------------------------------------

 SCF Done:  E(UB3LYP) =  -1136.12432805     A.U. after   19 cycles

 The electronic state is 2-A.
 Alpha  occ. eigenvalues --  -38.44844 -38.44832 -38.44495 -38.44035 -38.43916
 Alpha  occ. eigenvalues --  -38.43631 -38.43460  -2.20634  -2.20602  -2.20264
 Alpha  occ. eigenvalues --   -2.19844  -2.19728  -2.19414  -2.19238  -1.14280
 Alpha  occ. eigenvalues --   -1.14275  -1.14273  -1.14246  -1.14241  -1.14213
 Alpha  occ. eigenvalues --   -1.13953  -1.13936  -1.13876  -1.13553  -1.13499
 Alpha  occ. eigenvalues --   -1.13486  -1.13418  -1.13410  -1.13329  -1.13083
 Alpha  occ. eigenvalues --   -1.13073  -1.13069  -1.12908  -1.12901  -1.12882
 Alpha  occ. eigenvalues --   -0.16955  -0.12780  -0.12223  -0.11223
 Alpha virt. eigenvalues --   -0.05913  -0.05430  -0.05014  -0.03684  -0.03253
 Alpha virt. eigenvalues --   -0.02929  -0.01473  -0.01222  -0.00670  -0.00479
 Alpha virt. eigenvalues --   -0.00236   0.00270   0.00354   0.00541   0.00658

  Beta  occ. eigenvalues --  -38.44761 -38.44746 -38.44481 -38.44034 -38.43913
  Beta  occ. eigenvalues --  -38.43636 -38.43465  -2.20470  -2.20451  -2.20238
  Beta  occ. eigenvalues --   -2.19845  -2.19725  -2.19424  -2.19248  -1.14181
  Beta  occ. eigenvalues --   -1.14159  -1.14153  -1.14149  -1.14121  -1.14115
  Beta  occ. eigenvalues --   -1.13931  -1.13917  -1.13861  -1.13555  -1.13500
  Beta  occ. eigenvalues --   -1.13466  -1.13410  -1.13398  -1.13335  -1.13088
  Beta  occ. eigenvalues --   -1.13081  -1.13063  -1.12913  -1.12907  -1.12888
  Beta  occ. eigenvalues --   -0.16298  -0.12647  -0.12056
  Beta virt. eigenvalues --   -0.07465  -0.05496  -0.05321  -0.04756  -0.03104
  Beta virt. eigenvalues --   -0.02649  -0.02314  -0.01414  -0.01178  -0.00534
  Beta virt. eigenvalues --   -0.00310  -0.00010   0.00391   0.00540   0.00691

 Mulliken charges and spin densities:
               1          2
     1  Na   0.014881   0.300395
     2  Na  -0.131238   0.516465
     3  Na  -0.176677   0.112645
     4  Na   0.063286   0.020348
     5  Na   0.361364   0.042667
     6  Na   0.304647  -0.096532
     7  Na  -0.436263   0.104011
 Sum of Mulliken charges =  -0.00000   1.00000

 Dipole moment (field-independent basis, Debye):
    X=              0.4247    Y=              0.1024    Z=              0.0913  Tot=              0.4463
 Quadrupole moment (field-independent basis, Debye-Ang):
   XX=            -62.6746   YY=            -67.3852   ZZ=            -68.3881
   XY=             -0.5112   XZ=             -0.3301   YZ=             -2.3737

 Normal termination of Gaussian 16 at Mon Dec  4 05:42:41 2023.
