 Gaussian 16, Revision B.01,
 Gaussian 16:  ES64L-G16RevB.01 20-Dec-2017

 -------------------------
 #P B3LYP/6-311+g(d) force
 -------------------------

 -----
 DPGEN
 -----
 Symbolic Z-matrix:
 Charge =  0 Multiplicity = 2

                         Standard orientation:
 ---------------------------------------------------------------------
 Center     Atomic      Atomic             Coordinates (Angstroms)
 Number     Number       Type             X           Y           Z
 ---------------------------------------------------------------------
      1         11           0        3.070789    0.238803   -0.215487
      2         11           0       -1.248372    0.986143    1.809896
      3         11           0        2.755331   -2.774256   -0.336340
      4         11           0       -0.975515   -2.787768    0.394229
      5         11           0       -3.548731   -1.196659   -0.639855
      6         11           0        1.627017    3.167064    0.078712
      7         11           0       -1.680519    2.366674   -1.091154
 ---------------------------------------------------------------------

 SCF Done:  E(UB3LYP) =  -1136.11398342     A.U. after   30 cycles

 The electronic state is 2-A.
 Alpha  occ. eigenvalues --  -38.45374 -38.45336 -38.44384 -38.43749 -38.43666
 Alpha  occ. eigenvalues --  -38.43425 -38.43402  -2.21173  -2.21147  -2.20180
 Alpha  occ. eigenvalues --   -2.19580  -2.19515  -2.19258  -2.19245  -1.14888
 Alpha  occ. eigenvalues --   -1.14841  -1.14808  -1.14802  -1.14766  -1.14746
 Alpha  occ. eigenvalues --   -1.13874  -1.13857  -1.13812  -1.13246  -1.13242
 Alpha  occ. eigenvalues --   -1.13234  -1.13197  -1.13184  -1.13176  -1.12923
 Alpha  occ. eigenvalues --   -1.12912  -1.12899  -1.12887  -1.12876  -1.12854
 Alpha  occ. eigenvalues --   -0.16906  -0.13592  -0.13254  -0.09608
 Alpha virt. eigenvalues --   -0.07292  -0.06049  -0.04417  -0.03129  -0.02828
 Alpha virt. eigenvalues --   -0.02206  -0.01848  -0.01739  -0.01364  -0.01218
 Alpha virt. eigenvalues --   -0.00033   0.00091   0.00346   0.00436   0.00738

  Beta  occ. eigenvalues --  -38.45368 -38.45289 -38.44372 -38.43699 -38.43646
  Beta  occ. eigenvalues --  -38.43396 -38.43353  -2.21164  -2.21058  -2.20164
  Beta  occ. eigenvalues --   -2.19490  -2.19483  -2.19201  -2.19158  -1.14857
  Beta  occ. eigenvalues --   -1.14826  -1.14809  -1.14741  -1.14717  -1.14696
  Beta  occ. eigenvalues --   -1.13862  -1.13852  -1.13768  -1.13190  -1.13181
  Beta  occ. eigenvalues --   -1.13170  -1.13162  -1.13160  -1.13127  -1.12874
  Beta  occ. eigenvalues --   -1.12860  -1.12857  -1.12839  -1.12834  -1.12775
  Beta  occ. eigenvalues --   -0.16536  -0.12991  -0.12659
  Beta virt. eigenvalues --   -0.07123  -0.06254  -0.06054  -0.04128  -0.02941
  Beta virt. eigenvalues --   -0.02670  -0.01660  -0.01520  -0.01331  -0.01161
  Beta virt. eigenvalues --   -0.01064   0.00093   0.00364   0.00482   0.00586

 Mulliken charges and spin densities:
               1          2
     1  Na  -0.615367   0.006855
     2  Na  -0.105010   0.220242
     3  Na   0.583932   0.202462
     4  Na  -0.493662   0.062344
     5  Na   0.341529   0.266322
     6  Na   0.239899   0.294345
     7  Na   0.048679  -0.052570
 Sum of Mulliken charges =  -0.00000   1.00000

 Dipole moment (field-independent basis, Debye):
    X=             -1.4618    Y=              0.8629    Z=              0.0349  Tot=              1.6978
 Quadrupole moment (field-independent basis, Debye-Ang):
   XX=            -72.6525   YY=            -69.3079   ZZ=            -64.1434
   XY=             -7.1004   XZ=              3.0273   YZ=             -3.0098

 Normal termination of Gaussian 16 at Sun Dec  3 17:26:12 2023.
