 Gaussian 16, Revision B.01,
 Gaussian 16:  ES64L-G16RevB.01 20-Dec-2017

 -------------------------
 #P B3LYP/6-311+g(d) force
 -------------------------

 -----
 DPGEN
 -----
 Symbolic Z-matrix:
 Charge =  0 Multiplicity = 2

                         Standard orientation:
 ---------------------------------------------------------------------
 Center     Atomic      Atomic             Coordinates (Angstroms)
 Number     Number       Type             X           Y           Z
 ---------------------------------------------------------------------
      1         11           0        1.610648    1.694440    1.064183
      2         11           0       -1.030367   -0.554704    2.051986
      3         11           0        2.495964    0.638630   -1.313354
      4         11           0        2.003392   -2.197597    0.407207
      5         11           0       -1.250210    2.016794   -0.337421
      6         11           0       -0.389718   -1.136324   -1.311639
      7         11           0       -3.439709   -0.461238   -0.560962
 ---------------------------------------------------------------------

 SCF Done:  E(UB3LYP) =  -1136.12674141     A.U. after   21 cycles

 The electronic state is 2-A.
 Alpha  occ. eigenvalues --  -38.44468 -38.44278 -38.44182 -38.43216 -38.43203
 Alpha  occ. eigenvalues --  -38.43171 -38.43141  -2.20331  -2.20226  -2.20073
 Alpha  occ. eigenvalues --   -2.19171  -2.19127  -2.19116  -2.19039  -1.14035
 Alpha  occ. eigenvalues --   -1.14009  -1.13980  -1.13971  -1.13872  -1.13804
 Alpha  occ. eigenvalues --   -1.13750  -1.13696  -1.13686  -1.12879  -1.12855
 Alpha  occ. eigenvalues --   -1.12852  -1.12833  -1.12779  -1.12778  -1.12770
 Alpha  occ. eigenvalues --   -1.12760  -1.12699  -1.12687  -1.12680  -1.12658
 Alpha  occ. eigenvalues --   -0.19165  -0.13894  -0.11607  -0.11550
 Alpha virt. eigenvalues --   -0.05991  -0.04824  -0.04442  -0.03340  -0.02863
 Alpha virt. eigenvalues --   -0.02824  -0.01839  -0.00695  -0.00478   0.00186
 Alpha virt. eigenvalues --    0.00309   0.00386   0.00618   0.00784   0.00907

  Beta  occ. eigenvalues --  -38.44456 -38.44250 -38.44093 -38.43201 -38.43191
  Beta  occ. eigenvalues --  -38.43166 -38.43108  -2.20311  -2.20173  -2.19911
  Beta  occ. eigenvalues --   -2.19148  -2.19098  -2.19070  -2.19032  -1.14003
  Beta  occ. eigenvalues --   -1.13987  -1.13966  -1.13953  -1.13826  -1.13770
  Beta  occ. eigenvalues --   -1.13643  -1.13576  -1.13570  -1.12867  -1.12826
  Beta  occ. eigenvalues --   -1.12819  -1.12806  -1.12747  -1.12745  -1.12734
  Beta  occ. eigenvalues --   -1.12723  -1.12687  -1.12682  -1.12655  -1.12633
  Beta  occ. eigenvalues --   -0.18393  -0.13675  -0.11399
  Beta virt. eigenvalues --   -0.07560  -0.05856  -0.04720  -0.03822  -0.03210
  Beta virt. eigenvalues --   -0.02152  -0.01841  -0.01741  -0.00631  -0.00144
  Beta virt. eigenvalues --    0.00250   0.00322   0.00396   0.00749   0.00868

 Mulliken charges and spin densities:
               1          2
     1  Na   0.270622   0.184599
     2  Na  -0.473136   0.400917
     3  Na   0.284441  -0.040258
     4  Na  -0.089514   0.071915
     5  Na  -0.384253   0.045533
     6  Na  -0.452099   0.332592
     7  Na   0.843940   0.004702
 Sum of Mulliken charges =  -0.00000   1.00000

 Dipole moment (field-independent basis, Debye):
    X=             -0.7647    Y=             -0.2204    Z=              0.0789  Tot=              0.7997
 Quadrupole moment (field-independent basis, Debye-Ang):
   XX=            -53.0192   YY=            -74.7569   ZZ=            -67.1033
   XY=              0.0436   XZ=              0.2317   YZ=             -2.3713

 Normal termination of Gaussian 16 at Wed Dec  6 00:27:34 2023.
