 Gaussian 16, Revision B.01,
 Gaussian 16:  ES64L-G16RevB.01 20-Dec-2017

 -------------------------
 #P B3LYP/6-311+g(d) force
 -------------------------

 -----
 DPGEN
 -----
 Symbolic Z-matrix:
 Charge =  0 Multiplicity = 2

                         Standard orientation:
 ---------------------------------------------------------------------
 Center     Atomic      Atomic             Coordinates (Angstroms)
 Number     Number       Type             X           Y           Z
 ---------------------------------------------------------------------
      1         11           0       -0.097617    3.076244   -1.699958
      2         11           0        0.371125    2.370081    2.403383
      3         11           0        1.835051   -0.525915   -0.884682
      4         11           0       -3.418593   -2.368421    0.209548
      5         11           0       -0.908391   -0.541361    1.730702
      6         11           0        4.474397   -1.892701   -0.165547
      7         11           0       -2.255971   -0.117927   -1.593446
 ---------------------------------------------------------------------

 SCF Done:  E(UB3LYP) =  -1136.11513380     A.U. after   21 cycles

 The electronic state is 2-A.
 Alpha  occ. eigenvalues --  -38.44916 -38.44885 -38.44858 -38.44630 -38.44121
 Alpha  occ. eigenvalues --  -38.43041 -38.43020  -2.20764  -2.20723  -2.20648
 Alpha  occ. eigenvalues --   -2.20425  -2.19959  -2.18849  -2.18833  -1.14441
 Alpha  occ. eigenvalues --   -1.14437  -1.14398  -1.14395  -1.14391  -1.14344
 Alpha  occ. eigenvalues --   -1.14312  -1.14297  -1.14263  -1.14090  -1.14073
 Alpha  occ. eigenvalues --   -1.14030  -1.13630  -1.13606  -1.13595  -1.12613
 Alpha  occ. eigenvalues --   -1.12532  -1.12512  -1.12482  -1.12480  -1.12389
 Alpha  occ. eigenvalues --   -0.17306  -0.13048  -0.12337  -0.11653
 Alpha virt. eigenvalues --   -0.06219  -0.05568  -0.04796  -0.03478  -0.02841
 Alpha virt. eigenvalues --   -0.02645  -0.01789  -0.01686  -0.01193  -0.00368
 Alpha virt. eigenvalues --   -0.00056  -0.00001   0.00083   0.00420   0.00730

  Beta  occ. eigenvalues --  -38.44879 -38.44827 -38.44797 -38.44575 -38.44120
  Beta  occ. eigenvalues --  -38.43047 -38.43014  -2.20695  -2.20614  -2.20543
  Beta  occ. eigenvalues --   -2.20327  -2.19957  -2.18849  -2.18834  -1.14395
  Beta  occ. eigenvalues --   -1.14391  -1.14333  -1.14327  -1.14317  -1.14248
  Beta  occ. eigenvalues --   -1.14241  -1.14213  -1.14198  -1.14012  -1.14003
  Beta  occ. eigenvalues --   -1.13967  -1.13623  -1.13605  -1.13593  -1.12613
  Beta  occ. eigenvalues --   -1.12521  -1.12510  -1.12488  -1.12483  -1.12388
  Beta  occ. eigenvalues --   -0.16558  -0.12866  -0.11457
  Beta virt. eigenvalues --   -0.08314  -0.06120  -0.04969  -0.04429  -0.02896
  Beta virt. eigenvalues --   -0.02563  -0.02337  -0.01708  -0.01474  -0.00739
  Beta virt. eigenvalues --   -0.00277   0.00072   0.00094   0.00250   0.00612

 Mulliken charges and spin densities:
               1          2
     1  Na   0.343820   0.116608
     2  Na   0.242199   0.049802
     3  Na  -0.769588   0.193948
     4  Na   0.443070   0.011351
     5  Na  -0.268748   0.458080
     6  Na  -0.075926   0.075303
     7  Na   0.085173   0.094908
 Sum of Mulliken charges =  -0.00000   1.00000

 Dipole moment (field-independent basis, Debye):
    X=             -1.6679    Y=              0.6314    Z=              0.4647  Tot=              1.8429
 Quadrupole moment (field-independent basis, Debye-Ang):
   XX=            -66.3768   YY=            -63.4617   ZZ=            -66.2897
   XY=              6.4586   XZ=              3.8949   YZ=             -3.1624

 Normal termination of Gaussian 16 at Sun Dec  3 15:47:17 2023.
