 Gaussian 16, Revision B.01,
 Gaussian 16:  ES64L-G16RevB.01 20-Dec-2017

 -------------------------
 #P B3LYP/6-311+g(d) force
 -------------------------

 -----
 DPGEN
 -----
 Symbolic Z-matrix:
 Charge =  0 Multiplicity = 2

                         Standard orientation:
 ---------------------------------------------------------------------
 Center     Atomic      Atomic             Coordinates (Angstroms)
 Number     Number       Type             X           Y           Z
 ---------------------------------------------------------------------
      1         11           0        3.058636    1.171671   -0.100342
      2         11           0       -1.752523   -2.544654   -0.416921
      3         11           0        0.709794    0.220867   -1.627780
      4         11           0        2.010883   -2.187786    0.249985
      5         11           0       -0.126209   -0.184358    1.947667
      6         11           0       -3.119798    0.458420   -0.185411
      7         11           0       -0.780783    3.065839    0.132801
 ---------------------------------------------------------------------

 SCF Done:  E(UB3LYP) =  -1136.13420866     A.U. after   21 cycles

 The electronic state is 2-A.
 Alpha  occ. eigenvalues --  -38.44411 -38.44020 -38.43821 -38.43603 -38.43469
 Alpha  occ. eigenvalues --  -38.43447 -38.43441  -2.20259  -2.19844  -2.19681
 Alpha  occ. eigenvalues --   -2.19422  -2.19400  -2.19332  -2.19270  -1.14006
 Alpha  occ. eigenvalues --   -1.13899  -1.13876  -1.13517  -1.13515  -1.13488
 Alpha  occ. eigenvalues --   -1.13374  -1.13358  -1.13300  -1.13102  -1.13077
 Alpha  occ. eigenvalues --   -1.13066  -1.13061  -1.13042  -1.13024  -1.13002
 Alpha  occ. eigenvalues --   -1.12962  -1.12948  -1.12937  -1.12930  -1.12906
 Alpha  occ. eigenvalues --   -0.18374  -0.13285  -0.12271  -0.10491
 Alpha virt. eigenvalues --   -0.05862  -0.05356  -0.04795  -0.03276  -0.02807
 Alpha virt. eigenvalues --   -0.02308  -0.01622  -0.01223  -0.00610  -0.00510
 Alpha virt. eigenvalues --   -0.00007   0.00337   0.00776   0.00804   0.00871

  Beta  occ. eigenvalues --  -38.44404 -38.44015 -38.43809 -38.43601 -38.43436
  Beta  occ. eigenvalues --  -38.43414 -38.43351  -2.20251  -2.19838  -2.19664
  Beta  occ. eigenvalues --   -2.19398  -2.19321  -2.19253  -2.19166  -1.13990
  Beta  occ. eigenvalues --   -1.13877  -1.13875  -1.13514  -1.13500  -1.13479
  Beta  occ. eigenvalues --   -1.13365  -1.13313  -1.13293  -1.13070  -1.13056
  Beta  occ. eigenvalues --   -1.13041  -1.13027  -1.12985  -1.12960  -1.12929
  Beta  occ. eigenvalues --   -1.12912  -1.12898  -1.12888  -1.12839  -1.12823
  Beta  occ. eigenvalues --   -0.17688  -0.13028  -0.12041
  Beta virt. eigenvalues --   -0.06680  -0.05772  -0.05307  -0.04741  -0.02518
  Beta virt. eigenvalues --   -0.02087  -0.01532  -0.01342  -0.01129  -0.00642
  Beta virt. eigenvalues --   -0.00536   0.00138   0.00387   0.00802   0.00853

 Mulliken charges and spin densities:
               1          2
     1  Na   0.322211  -0.103967
     2  Na  -0.055855   0.011059
     3  Na  -0.172847   0.542965
     4  Na   0.194838   0.012449
     5  Na  -0.214425   0.665811
     6  Na  -0.023925  -0.022144
     7  Na  -0.049997  -0.106173
 Sum of Mulliken charges =  -0.00000   1.00000

 Dipole moment (field-independent basis, Debye):
    X=              0.3688    Y=              0.1306    Z=              0.1205  Tot=              0.4094
 Quadrupole moment (field-independent basis, Debye-Ang):
   XX=            -56.3024   YY=            -61.9928   ZZ=            -75.4263
   XY=             -0.0608   XZ=              1.7173   YZ=              0.9946

 Normal termination of Gaussian 16 at Thu Dec  7 15:09:08 2023.
