 Gaussian 16, Revision B.01,
 Gaussian 16:  ES64L-G16RevB.01 20-Dec-2017

 -------------------------
 #P B3LYP/6-311+g(d) force
 -------------------------

 -----
 DPGEN
 -----
 Symbolic Z-matrix:
 Charge =  0 Multiplicity = 2

                         Standard orientation:
 ---------------------------------------------------------------------
 Center     Atomic      Atomic             Coordinates (Angstroms)
 Number     Number       Type             X           Y           Z
 ---------------------------------------------------------------------
      1         11           0        0.353430    0.280738   -1.905599
      2         11           0        2.086727   -1.217514    0.081460
      3         11           0       -0.125997   -0.336762    1.940163
      4         11           0       -2.630322   -0.212241   -0.031426
      5         11           0        1.739093    1.522880    0.290203
      6         11           0       -0.480902   -1.827431   -0.417366
      7         11           0       -0.942028    1.790329    0.042564
 ---------------------------------------------------------------------

 SCF Done:  E(UB3LYP) =  -1136.06383867     A.U. after   20 cycles

 The electronic state is 2-A.
 Alpha  occ. eigenvalues --  -38.44861 -38.44554 -38.44351 -38.43794 -38.43712
 Alpha  occ. eigenvalues --  -38.43687 -38.43620  -2.21099  -2.20746  -2.20453
 Alpha  occ. eigenvalues --   -2.20013  -2.19937  -2.19890  -2.19822  -1.14924
 Alpha  occ. eigenvalues --   -1.14823  -1.14703  -1.14566  -1.14434  -1.14401
 Alpha  occ. eigenvalues --   -1.14349  -1.14275  -1.14009  -1.13938  -1.13845
 Alpha  occ. eigenvalues --   -1.13796  -1.13597  -1.13542  -1.13516  -1.13477
 Alpha  occ. eigenvalues --   -1.13427  -1.13397  -1.13350  -1.13316  -1.13208
 Alpha  occ. eigenvalues --   -0.22102  -0.13980  -0.13050  -0.12632
 Alpha virt. eigenvalues --   -0.05214  -0.04058  -0.03962  -0.03936  -0.03355
 Alpha virt. eigenvalues --   -0.03179  -0.00981  -0.00305  -0.00237   0.00321
 Alpha virt. eigenvalues --    0.00865   0.00988   0.01081   0.01217   0.01276

  Beta  occ. eigenvalues --  -38.44761 -38.44456 -38.44344 -38.43781 -38.43684
  Beta  occ. eigenvalues --  -38.43671 -38.43601  -2.20920  -2.20570  -2.20445
  Beta  occ. eigenvalues --   -2.19982  -2.19911  -2.19866  -2.19798  -1.14818
  Beta  occ. eigenvalues --   -1.14692  -1.14577  -1.14480  -1.14384  -1.14314
  Beta  occ. eigenvalues --   -1.14275  -1.14204  -1.13962  -1.13921  -1.13835
  Beta  occ. eigenvalues --   -1.13782  -1.13518  -1.13506  -1.13442  -1.13404
  Beta  occ. eigenvalues --   -1.13392  -1.13348  -1.13332  -1.13302  -1.13199
  Beta  occ. eigenvalues --   -0.21186  -0.13599  -0.12319
  Beta virt. eigenvalues --   -0.08699  -0.05220  -0.03988  -0.03756  -0.03038
  Beta virt. eigenvalues --   -0.02458  -0.02211  -0.00907  -0.00258  -0.00059
  Beta virt. eigenvalues --    0.00342   0.00896   0.00979   0.01118   0.01212

 Mulliken charges and spin densities:
               1          2
     1  Na   0.093734   0.451432
     2  Na   0.089495  -0.019449
     3  Na   0.009794   0.505930
     4  Na  -0.049130  -0.048628
     5  Na   0.032892   0.054857
     6  Na  -0.089067   0.017363
     7  Na  -0.087718   0.038495
 Sum of Mulliken charges =  -0.00000   1.00000

 Dipole moment (field-independent basis, Debye):
    X=             -0.0485    Y=             -0.0214    Z=              0.1729  Tot=              0.1809
 Quadrupole moment (field-independent basis, Debye-Ang):
   XX=            -61.3514   YY=            -73.4512   ZZ=            -64.6399
   XY=              0.1357   XZ=              0.6059   YZ=              0.8440

 Normal termination of Gaussian 16 at Sat Dec  9 05:38:23 2023.
