 Gaussian 16, Revision B.01,
 Gaussian 16:  ES64L-G16RevB.01 20-Dec-2017

 -------------------------
 #P B3LYP/6-311+g(d) force
 -------------------------

 -----
 DPGEN
 -----
 Symbolic Z-matrix:
 Charge =  0 Multiplicity = 2

                         Standard orientation:
 ---------------------------------------------------------------------
 Center     Atomic      Atomic             Coordinates (Angstroms)
 Number     Number       Type             X           Y           Z
 ---------------------------------------------------------------------
      1         11           0        2.654586   -1.829891   -0.973956
      2         11           0       -5.020356    0.063040   -0.351636
      3         11           0       -1.923430    1.966597   -0.066144
      4         11           0        4.228203    1.001524   -0.869778
      5         11           0        0.816014   -1.226103    2.570769
      6         11           0       -1.983056   -1.772627   -0.826035
      7         11           0        1.228040    1.797459    0.516781
 ---------------------------------------------------------------------

 SCF Done:  E(UB3LYP) =  -1136.10903320     A.U. after   30 cycles

 The electronic state is 2-A.
 Alpha  occ. eigenvalues --  -38.45809 -38.45211 -38.44876 -38.44556 -38.43892
 Alpha  occ. eigenvalues --  -38.43511 -38.42398  -2.21584  -2.20955  -2.20642
 Alpha  occ. eigenvalues --   -2.20390  -2.19674  -2.19330  -2.18260  -1.15232
 Alpha  occ. eigenvalues --   -1.15212  -1.15194  -1.14651  -1.14627  -1.14563
 Alpha  occ. eigenvalues --   -1.14315  -1.14308  -1.14265  -1.14040  -1.14033
 Alpha  occ. eigenvalues --   -1.14023  -1.13357  -1.13333  -1.13328  -1.13036
 Alpha  occ. eigenvalues --   -1.12998  -1.12945  -1.11952  -1.11926  -1.11895
 Alpha  occ. eigenvalues --   -0.16790  -0.14078  -0.11838  -0.10717
 Alpha virt. eigenvalues --   -0.07064  -0.05980  -0.04332  -0.03208  -0.03102
 Alpha virt. eigenvalues --   -0.02700  -0.02527  -0.01562  -0.01138  -0.00719
 Alpha virt. eigenvalues --   -0.00238   0.00015   0.00200   0.00516   0.00583

  Beta  occ. eigenvalues --  -38.45701 -38.45197 -38.44874 -38.44496 -38.43894
  Beta  occ. eigenvalues --  -38.43510 -38.42392  -2.21383  -2.20929  -2.20638
  Beta  occ. eigenvalues --   -2.20278  -2.19682  -2.19326  -2.18250  -1.15095
  Beta  occ. eigenvalues --   -1.15072  -1.15055  -1.14635  -1.14610  -1.14535
  Beta  occ. eigenvalues --   -1.14312  -1.14302  -1.14263  -1.13962  -1.13957
  Beta  occ. eigenvalues --   -1.13949  -1.13365  -1.13342  -1.13305  -1.13036
  Beta  occ. eigenvalues --   -1.12994  -1.12945  -1.11951  -1.11903  -1.11888
  Beta  occ. eigenvalues --   -0.16142  -0.13750  -0.10669
  Beta virt. eigenvalues --   -0.08157  -0.06506  -0.05592  -0.03904  -0.02942
  Beta virt. eigenvalues --   -0.02883  -0.02313  -0.01920  -0.01322  -0.00858
  Beta virt. eigenvalues --   -0.00625  -0.00137   0.00095   0.00426   0.00591

 Mulliken charges and spin densities:
               1          2
     1  Na  -0.334967  -0.034690
     2  Na   0.508872  -0.053516
     3  Na  -0.136033   0.031958
     4  Na   0.694961   0.187084
     5  Na   0.223896   0.553806
     6  Na  -0.326629   0.094001
     7  Na  -0.630100   0.221357
 Sum of Mulliken charges =  -0.00000   1.00000

 Dipole moment (field-independent basis, Debye):
    X=             -0.8409    Y=             -0.3898    Z=              0.6867  Tot=              1.1535
 Quadrupole moment (field-independent basis, Debye-Ang):
   XX=            -53.8541   YY=            -73.5082   ZZ=            -69.3240
   XY=              0.7737   XZ=              0.8657   YZ=             -4.7085

 Normal termination of Gaussian 16 at Sun Dec  3 16:37:14 2023.
