 Gaussian 16, Revision B.01,
 Gaussian 16:  ES64L-G16RevB.01 20-Dec-2017

 -------------------------
 #P B3LYP/6-311+g(d) force
 -------------------------

 -----
 DPGEN
 -----
 Symbolic Z-matrix:
 Charge =  0 Multiplicity = 2

                         Standard orientation:
 ---------------------------------------------------------------------
 Center     Atomic      Atomic             Coordinates (Angstroms)
 Number     Number       Type             X           Y           Z
 ---------------------------------------------------------------------
      1         11           0       -0.436810   -0.016392   -1.471797
      2         11           0        1.320035    2.898474   -0.316209
      3         11           0       -2.372670    1.871102   -0.220095
      4         11           0       -2.908717   -1.624912    0.262868
      5         11           0        0.407610    0.384464    2.216102
      6         11           0        0.817745   -2.916431   -0.257987
      7         11           0        3.172808   -0.596305   -0.212882
 ---------------------------------------------------------------------

 SCF Done:  E(UB3LYP) =  -1136.13368598     A.U. after   19 cycles

 The electronic state is 2-A.
 Alpha  occ. eigenvalues --  -38.44140 -38.44081 -38.44056 -38.43767 -38.43694
 Alpha  occ. eigenvalues --  -38.43550 -38.43198  -2.19946  -2.19914  -2.19879
 Alpha  occ. eigenvalues --   -2.19563  -2.19530  -2.19377  -2.19177  -1.13674
 Alpha  occ. eigenvalues --   -1.13618  -1.13614  -1.13587  -1.13568  -1.13549
 Alpha  occ. eigenvalues --   -1.13539  -1.13530  -1.13496  -1.13240  -1.13226
 Alpha  occ. eigenvalues --   -1.13203  -1.13184  -1.13155  -1.13145  -1.13070
 Alpha  occ. eigenvalues --   -1.13036  -1.13009  -1.12862  -1.12828  -1.12781
 Alpha  occ. eigenvalues --   -0.18135  -0.12974  -0.12374  -0.10478
 Alpha virt. eigenvalues --   -0.05622  -0.05576  -0.04881  -0.03157  -0.02824
 Alpha virt. eigenvalues --   -0.02448  -0.01566  -0.01342  -0.00643  -0.00586
 Alpha virt. eigenvalues --   -0.00027   0.00331   0.00750   0.00803   0.00842

  Beta  occ. eigenvalues --  -38.44137 -38.44077 -38.44048 -38.43763 -38.43590
  Beta  occ. eigenvalues --  -38.43545 -38.43150  -2.19943  -2.19902  -2.19874
  Beta  occ. eigenvalues --   -2.19558  -2.19371  -2.19338  -2.19091  -1.13659
  Beta  occ. eigenvalues --   -1.13615  -1.13599  -1.13584  -1.13547  -1.13538
  Beta  occ. eigenvalues --   -1.13531  -1.13524  -1.13492  -1.13227  -1.13214
  Beta  occ. eigenvalues --   -1.13199  -1.13062  -1.13054  -1.13025  -1.13020
  Beta  occ. eigenvalues --   -1.13011  -1.13004  -1.12800  -1.12763  -1.12720
  Beta  occ. eigenvalues --   -0.17459  -0.12771  -0.12167
  Beta virt. eigenvalues --   -0.06592  -0.05615  -0.05491  -0.04805  -0.02413
  Beta virt. eigenvalues --   -0.02117  -0.01484  -0.01396  -0.01263  -0.00683
  Beta virt. eigenvalues --   -0.00624   0.00148   0.00380   0.00802   0.00818

 Mulliken charges and spin densities:
               1          2
     1  Na  -0.040343   0.267186
     2  Na   0.100951  -0.066496
     3  Na   0.336663  -0.000381
     4  Na  -0.006267   0.044296
     5  Na  -0.592478   0.809735
     6  Na   0.091531  -0.021706
     7  Na   0.109944  -0.032634
 Sum of Mulliken charges =  -0.00000   1.00000

 Dipole moment (field-independent basis, Debye):
    X=             -0.0879    Y=              0.0694    Z=              0.1114  Tot=              0.1579
 Quadrupole moment (field-independent basis, Debye-Ang):
   XX=            -56.1826   YY=            -61.0298   ZZ=            -75.9723
   XY=              1.2702   XZ=             -1.9256   YZ=             -1.1534

 Normal termination of Gaussian 16 at Thu Dec  7 23:15:34 2023.
