 Gaussian 16, Revision B.01,
 Gaussian 16:  ES64L-G16RevB.01 20-Dec-2017

 -------------------------
 #P B3LYP/6-311+g(d) force
 -------------------------

 -----
 DPGEN
 -----
 Symbolic Z-matrix:
 Charge =  0 Multiplicity = 2

                         Standard orientation:
 ---------------------------------------------------------------------
 Center     Atomic      Atomic             Coordinates (Angstroms)
 Number     Number       Type             X           Y           Z
 ---------------------------------------------------------------------
      1         11           0        2.349295   -1.911241   -0.014665
      2         11           0       -0.193528   -0.249892   -1.614936
      3         11           0       -0.393441    2.672068   -0.010166
      4         11           0        0.374229   -0.332145    1.673288
      5         11           0       -2.866482    0.765423    0.222678
      6         11           0       -1.901903   -2.271060   -0.089176
      7         11           0        2.631831    1.326848   -0.167024
 ---------------------------------------------------------------------

 SCF Done:  E(UB3LYP) =  -1136.13275577     A.U. after   20 cycles

 The electronic state is 2-A.
 Alpha  occ. eigenvalues --  -38.43983 -38.43924 -38.43891 -38.43656 -38.43063
 Alpha  occ. eigenvalues --  -38.42940 -38.42841  -2.19891  -2.19820  -2.19791
 Alpha  occ. eigenvalues --   -2.19554  -2.19082  -2.18985  -2.18760  -1.13577
 Alpha  occ. eigenvalues --   -1.13565  -1.13558  -1.13540  -1.13502  -1.13464
 Alpha  occ. eigenvalues --   -1.13461  -1.13445  -1.13389  -1.13274  -1.13205
 Alpha  occ. eigenvalues --   -1.13173  -1.12787  -1.12712  -1.12691  -1.12655
 Alpha  occ. eigenvalues --   -1.12619  -1.12595  -1.12433  -1.12412  -1.12403
 Alpha  occ. eigenvalues --   -0.19433  -0.13705  -0.12495  -0.10543
 Alpha virt. eigenvalues --   -0.05649  -0.05482  -0.04334  -0.03349  -0.02624
 Alpha virt. eigenvalues --   -0.02093  -0.01596  -0.01146  -0.00275  -0.00049
 Alpha virt. eigenvalues --    0.00042   0.00354   0.00796   0.00885   0.00936

  Beta  occ. eigenvalues --  -38.43976 -38.43916 -38.43884 -38.43649 -38.42988
  Beta  occ. eigenvalues --  -38.42865 -38.42835  -2.19883  -2.19811  -2.19781
  Beta  occ. eigenvalues --   -2.19545  -2.18945  -2.18849  -2.18753  -1.13575
  Beta  occ. eigenvalues --   -1.13564  -1.13551  -1.13505  -1.13485  -1.13460
  Beta  occ. eigenvalues --   -1.13438  -1.13409  -1.13387  -1.13260  -1.13178
  Beta  occ. eigenvalues --   -1.13167  -1.12695  -1.12611  -1.12594  -1.12561
  Beta  occ. eigenvalues --   -1.12525  -1.12499  -1.12424  -1.12409  -1.12366
  Beta  occ. eigenvalues --   -0.18710  -0.13433  -0.12221
  Beta virt. eigenvalues --   -0.06624  -0.05607  -0.05472  -0.04332  -0.02495
  Beta virt. eigenvalues --   -0.01862  -0.01498  -0.01123  -0.01043  -0.00336
  Beta virt. eigenvalues --   -0.00083   0.00179   0.00388   0.00847   0.00892

 Mulliken charges and spin densities:
               1          2
     1  Na   0.472887  -0.086000
     2  Na  -0.627354   0.519411
     3  Na   0.067332  -0.019022
     4  Na  -0.629348   0.575113
     5  Na   0.099918   0.054275
     6  Na   0.457788  -0.070168
     7  Na   0.158777   0.026391
 Sum of Mulliken charges =  -0.00000   1.00000

 Dipole moment (field-independent basis, Debye):
    X=              0.1340    Y=             -0.2731    Z=              0.0310  Tot=              0.3058
 Quadrupole moment (field-independent basis, Debye-Ang):
   XX=            -53.9570   YY=            -63.2741   ZZ=            -75.6702
   XY=              0.0939   XZ=             -1.4473   YZ=              0.1892

 Normal termination of Gaussian 16 at Fri Dec  8 06:40:59 2023.
