 Gaussian 16, Revision B.01,
 Gaussian 16:  ES64L-G16RevB.01 20-Dec-2017

 -------------------------
 #P B3LYP/6-311+g(d) force
 -------------------------

 -----
 DPGEN
 -----
 Symbolic Z-matrix:
 Charge =  0 Multiplicity = 2

                         Standard orientation:
 ---------------------------------------------------------------------
 Center     Atomic      Atomic             Coordinates (Angstroms)
 Number     Number       Type             X           Y           Z
 ---------------------------------------------------------------------
      1         11           0       -2.612647    0.854570    1.557128
      2         11           0       -3.535713   -1.696391    0.211132
      3         11           0        2.505859   -2.076006   -0.216672
      4         11           0       -0.274298   -3.335343   -0.862829
      5         11           0        3.984052    0.790148    1.361945
      6         11           0       -1.457615    3.589048   -0.894027
      7         11           0        1.390362    1.873974   -1.156678
 ---------------------------------------------------------------------

 SCF Done:  E(UB3LYP) =  -1136.11511765     A.U. after   19 cycles

 The electronic state is 2-A.
 Alpha  occ. eigenvalues --  -38.44772 -38.44710 -38.44369 -38.44187 -38.44158
 Alpha  occ. eigenvalues --  -38.43908 -38.43859  -2.20578  -2.20479  -2.20169
 Alpha  occ. eigenvalues --   -2.20002  -2.19975  -2.19704  -2.19677  -1.14290
 Alpha  occ. eigenvalues --   -1.14236  -1.14198  -1.14172  -1.14162  -1.14099
 Alpha  occ. eigenvalues --   -1.13819  -1.13815  -1.13781  -1.13687  -1.13674
 Alpha  occ. eigenvalues --   -1.13654  -1.13653  -1.13626  -1.13609  -1.13363
 Alpha  occ. eigenvalues --   -1.13355  -1.13338  -1.13332  -1.13327  -1.13289
 Alpha  occ. eigenvalues --   -0.16011  -0.13784  -0.13106  -0.10941
 Alpha virt. eigenvalues --   -0.06483  -0.05399  -0.04462  -0.03442  -0.03330
 Alpha virt. eigenvalues --   -0.02265  -0.01752  -0.01514  -0.01289  -0.00998
 Alpha virt. eigenvalues --   -0.00268  -0.00193   0.00099   0.00491   0.00691

  Beta  occ. eigenvalues --  -38.44743 -38.44698 -38.44291 -38.44167 -38.44140
  Beta  occ. eigenvalues --  -38.43875 -38.43809  -2.20528  -2.20462  -2.20022
  Beta  occ. eigenvalues --   -2.19968  -2.19950  -2.19643  -2.19587  -1.14248
  Beta  occ. eigenvalues --   -1.14206  -1.14160  -1.14156  -1.14154  -1.14062
  Beta  occ. eigenvalues --   -1.13718  -1.13715  -1.13686  -1.13654  -1.13643
  Beta  occ. eigenvalues --   -1.13642  -1.13631  -1.13599  -1.13562  -1.13322
  Beta  occ. eigenvalues --   -1.13308  -1.13300  -1.13271  -1.13266  -1.13224
  Beta  occ. eigenvalues --   -0.15541  -0.13056  -0.12377
  Beta virt. eigenvalues --   -0.07744  -0.06560  -0.04937  -0.04228  -0.03136
  Beta virt. eigenvalues --   -0.02979  -0.01952  -0.01533  -0.01227  -0.00976
  Beta virt. eigenvalues --   -0.00819  -0.00101   0.00022   0.00297   0.00550

 Mulliken charges and spin densities:
               1          2
     1  Na  -0.124189   0.132029
     2  Na  -0.090463   0.071443
     3  Na  -0.022824   0.097928
     4  Na   0.024775   0.138726
     5  Na   0.387766   0.377330
     6  Na   0.264962   0.092489
     7  Na  -0.440028   0.090055
 Sum of Mulliken charges =  -0.00000   1.00000

 Dipole moment (field-independent basis, Debye):
    X=             -0.1816    Y=              0.4980    Z=              0.3049  Tot=              0.6115
 Quadrupole moment (field-independent basis, Debye-Ang):
   XX=            -64.3291   YY=            -67.9825   ZZ=            -67.9672
   XY=              0.2545   XZ=              3.0138   YZ=              2.2560

 Normal termination of Gaussian 16 at Sun Dec  3 11:48:50 2023.
