 Gaussian 16, Revision B.01,
 Gaussian 16:  ES64L-G16RevB.01 20-Dec-2017

 -------------------------
 #P B3LYP/6-311+g(d) force
 -------------------------

 -----
 DPGEN
 -----
 Symbolic Z-matrix:
 Charge =  0 Multiplicity = 2

                         Standard orientation:
 ---------------------------------------------------------------------
 Center     Atomic      Atomic             Coordinates (Angstroms)
 Number     Number       Type             X           Y           Z
 ---------------------------------------------------------------------
      1         11           0        0.922965    2.772841   -0.019500
      2         11           0       -3.037277    1.749747    0.372568
      3         11           0       -0.004429   -0.494702    1.925425
      4         11           0        1.605739   -2.433114    0.152067
      5         11           0        3.160269    0.426916   -0.234179
      6         11           0       -2.411309   -2.222070   -0.522102
      7         11           0       -0.235957    0.200381   -1.674278
 ---------------------------------------------------------------------

 SCF Done:  E(UB3LYP) =  -1136.13165489     A.U. after   20 cycles

 The electronic state is 2-A.
 Alpha  occ. eigenvalues --  -38.44640 -38.44218 -38.43950 -38.43613 -38.43460
 Alpha  occ. eigenvalues --  -38.43429 -38.43362  -2.20388  -2.20004  -2.19809
 Alpha  occ. eigenvalues --   -2.19508  -2.19338  -2.19284  -2.19275  -1.14064
 Alpha  occ. eigenvalues --   -1.14035  -1.14029  -1.13685  -1.13654  -1.13637
 Alpha  occ. eigenvalues --   -1.13490  -1.13474  -1.13459  -1.13237  -1.13156
 Alpha  occ. eigenvalues --   -1.13120  -1.13018  -1.12997  -1.12987  -1.12962
 Alpha  occ. eigenvalues --   -1.12951  -1.12938  -1.12909  -1.12894  -1.12884
 Alpha  occ. eigenvalues --   -0.18291  -0.12989  -0.12305  -0.10498
 Alpha virt. eigenvalues --   -0.06039  -0.05617  -0.04435  -0.03183  -0.02853
 Alpha virt. eigenvalues --   -0.02315  -0.01805  -0.01468  -0.00562  -0.00388
 Alpha virt. eigenvalues --   -0.00027   0.00310   0.00699   0.00756   0.00856

  Beta  occ. eigenvalues --  -38.44631 -38.44200 -38.43946 -38.43533 -38.43453
  Beta  occ. eigenvalues --  -38.43427 -38.43302  -2.20373  -2.19973  -2.19805
  Beta  occ. eigenvalues --   -2.19360  -2.19328  -2.19274  -2.19173  -1.14044
  Beta  occ. eigenvalues --   -1.14025  -1.14020  -1.13648  -1.13631  -1.13619
  Beta  occ. eigenvalues --   -1.13491  -1.13472  -1.13435  -1.13157  -1.13055
  Beta  occ. eigenvalues --   -1.13020  -1.12988  -1.12983  -1.12948  -1.12934
  Beta  occ. eigenvalues --   -1.12932  -1.12892  -1.12887  -1.12830  -1.12811
  Beta  occ. eigenvalues --   -0.17613  -0.12739  -0.12043
  Beta virt. eigenvalues --   -0.06749  -0.05939  -0.05521  -0.04391  -0.02493
  Beta virt. eigenvalues --   -0.02158  -0.01671  -0.01361  -0.01335  -0.00588
  Beta virt. eigenvalues --   -0.00421   0.00112   0.00353   0.00767   0.00777

 Mulliken charges and spin densities:
               1          2
     1  Na   0.092075  -0.023191
     2  Na  -0.090445  -0.005125
     3  Na  -0.404737   0.623218
     4  Na   0.481044   0.035667
     5  Na   0.054229  -0.025943
     6  Na   0.010743  -0.040463
     7  Na  -0.142910   0.435836
 Sum of Mulliken charges =  -0.00000   1.00000

 Dipole moment (field-independent basis, Debye):
    X=             -0.4573    Y=             -0.0085    Z=              0.0526  Tot=              0.4604
 Quadrupole moment (field-independent basis, Debye-Ang):
   XX=            -54.1861   YY=            -63.3146   ZZ=            -75.4273
   XY=             -0.1993   XZ=             -0.9579   YZ=              1.8656

 Normal termination of Gaussian 16 at Thu Dec  7 23:11:34 2023.
