 Gaussian 16, Revision B.01,
 Gaussian 16:  ES64L-G16RevB.01 20-Dec-2017

 -------------------------
 #P B3LYP/6-311+g(d) force
 -------------------------

 -----
 DPGEN
 -----
 Symbolic Z-matrix:
 Charge =  0 Multiplicity = 2

                         Standard orientation:
 ---------------------------------------------------------------------
 Center     Atomic      Atomic             Coordinates (Angstroms)
 Number     Number       Type             X           Y           Z
 ---------------------------------------------------------------------
      1         11           0       -3.647562   -0.935562    0.300905
      2         11           0        0.514080    1.627356   -0.957955
      3         11           0        2.804808   -1.596904   -0.791222
      4         11           0       -2.774312    2.215267   -0.002065
      5         11           0        0.481357   -0.885373    1.920391
      6         11           0       -1.116952   -1.727929   -0.954885
      7         11           0        3.738581    1.303144    0.484831
 ---------------------------------------------------------------------

 SCF Done:  E(UB3LYP) =  -1136.11241390     A.U. after   32 cycles

 The electronic state is 2-A.
 Alpha  occ. eigenvalues --  -38.46131 -38.45287 -38.44422 -38.44124 -38.43664
 Alpha  occ. eigenvalues --  -38.43320 -38.42930  -2.21903  -2.21100  -2.20297
 Alpha  occ. eigenvalues --   -2.19953  -2.19469  -2.19230  -2.18786  -1.15600
 Alpha  occ. eigenvalues --   -1.15562  -1.15518  -1.14775  -1.14759  -1.14740
 Alpha  occ. eigenvalues --   -1.14029  -1.13926  -1.13914  -1.13624  -1.13593
 Alpha  occ. eigenvalues --   -1.13585  -1.13143  -1.13131  -1.13122  -1.12903
 Alpha  occ. eigenvalues --   -1.12899  -1.12849  -1.12484  -1.12442  -1.12394
 Alpha  occ. eigenvalues --   -0.17986  -0.14413  -0.11331  -0.10084
 Alpha virt. eigenvalues --   -0.07580  -0.06217  -0.03977  -0.03332  -0.03031
 Alpha virt. eigenvalues --   -0.02506  -0.01973  -0.01715  -0.00892  -0.00614
 Alpha virt. eigenvalues --   -0.00042   0.00050   0.00295   0.00469   0.00602

  Beta  occ. eigenvalues --  -38.46125 -38.45274 -38.44384 -38.44083 -38.43665
  Beta  occ. eigenvalues --  -38.43293 -38.42882  -2.21892  -2.21081  -2.20225
  Beta  occ. eigenvalues --   -2.19876  -2.19473  -2.19185  -2.18699  -1.15589
  Beta  occ. eigenvalues --   -1.15546  -1.15511  -1.14760  -1.14748  -1.14697
  Beta  occ. eigenvalues --   -1.13981  -1.13877  -1.13865  -1.13573  -1.13537
  Beta  occ. eigenvalues --   -1.13530  -1.13150  -1.13132  -1.13104  -1.12875
  Beta  occ. eigenvalues --   -1.12844  -1.12809  -1.12428  -1.12364  -1.12338
  Beta  occ. eigenvalues --   -0.17397  -0.13990  -0.11097
  Beta virt. eigenvalues --   -0.07304  -0.06609  -0.06154  -0.03417  -0.03148
  Beta virt. eigenvalues --   -0.02731  -0.02023  -0.01686  -0.01439  -0.00768
  Beta virt. eigenvalues --   -0.00182   0.00009   0.00095   0.00477   0.00620

 Mulliken charges and spin densities:
               1          2
     1  Na   0.467895   0.517019
     2  Na  -0.750423   0.163136
     3  Na   0.335157   0.102498
     4  Na  -0.066905  -0.143896
     5  Na  -0.194983   0.029769
     6  Na  -0.173062   0.016961
     7  Na   0.382322   0.314512
 Sum of Mulliken charges =  -0.00000   1.00000

 Dipole moment (field-independent basis, Debye):
    X=              0.8301    Y=             -0.8383    Z=              0.2520  Tot=              1.2063
 Quadrupole moment (field-independent basis, Debye-Ang):
   XX=            -58.1041   YY=            -74.3036   ZZ=            -67.9525
   XY=             -2.4491   XZ=             -2.5804   YZ=              4.5040

 Normal termination of Gaussian 16 at Wed Nov 29 16:53:10 2023.
