 Gaussian 16, Revision B.01,
 Gaussian 16:  ES64L-G16RevB.01 20-Dec-2017

 -------------------------
 #P B3LYP/6-311+g(d) force
 -------------------------

 -----
 DPGEN
 -----
 Symbolic Z-matrix:
 Charge =  0 Multiplicity = 2

                         Standard orientation:
 ---------------------------------------------------------------------
 Center     Atomic      Atomic             Coordinates (Angstroms)
 Number     Number       Type             X           Y           Z
 ---------------------------------------------------------------------
      1         11           0        4.200295   -1.173817   -0.071275
      2         11           0       -2.148194   -1.677056    0.335632
      3         11           0       -5.004672    0.190804    0.048113
      4         11           0        0.707571    0.422964    2.056259
      5         11           0       -1.023658    1.937255   -0.861838
      6         11           0        0.364901   -1.219355   -1.299655
      7         11           0        2.903756    1.519204   -0.207237
 ---------------------------------------------------------------------

 SCF Done:  E(UB3LYP) =  -1136.10484883     A.U. after   26 cycles

 The electronic state is 2-A.
 Alpha  occ. eigenvalues --  -38.46515 -38.44520 -38.44325 -38.44109 -38.43992
 Alpha  occ. eigenvalues --  -38.43392 -38.43082  -2.22309  -2.20420  -2.20130
 Alpha  occ. eigenvalues --   -2.19912  -2.19893  -2.19264  -2.18919  -1.15989
 Alpha  occ. eigenvalues --   -1.15968  -1.15921  -1.14120  -1.14057  -1.14034
 Alpha  occ. eigenvalues --   -1.13770  -1.13760  -1.13747  -1.13628  -1.13590
 Alpha  occ. eigenvalues --   -1.13570  -1.13560  -1.13521  -1.13504  -1.12964
 Alpha  occ. eigenvalues --   -1.12934  -1.12894  -1.12606  -1.12567  -1.12544
 Alpha  occ. eigenvalues --   -0.18075  -0.14193  -0.11189  -0.10791
 Alpha virt. eigenvalues --   -0.08015  -0.04999  -0.04583  -0.03514  -0.02985
 Alpha virt. eigenvalues --   -0.02355  -0.02025  -0.01804  -0.01168  -0.01064
 Alpha virt. eigenvalues --   -0.00269   0.00098   0.00186   0.00590   0.00685

  Beta  occ. eigenvalues --  -38.46513 -38.44455 -38.44216 -38.44104 -38.43968
  Beta  occ. eigenvalues --  -38.43382 -38.43074  -2.22305  -2.20304  -2.19928
  Beta  occ. eigenvalues --   -2.19904  -2.19850  -2.19255  -2.18904  -1.15983
  Beta  occ. eigenvalues --   -1.15958  -1.15921  -1.14027  -1.13978  -1.13959
  Beta  occ. eigenvalues --   -1.13632  -1.13623  -1.13614  -1.13612  -1.13561
  Beta  occ. eigenvalues --   -1.13555  -1.13544  -1.13516  -1.13470  -1.12953
  Beta  occ. eigenvalues --   -1.12913  -1.12857  -1.12590  -1.12558  -1.12533
  Beta  occ. eigenvalues --   -0.17583  -0.13492  -0.10532
  Beta virt. eigenvalues --   -0.07911  -0.07558  -0.04811  -0.03924  -0.03303
  Beta virt. eigenvalues --   -0.02816  -0.02232  -0.01733  -0.01360  -0.00782
  Beta virt. eigenvalues --   -0.00608  -0.00114   0.00191   0.00287   0.00672

 Mulliken charges and spin densities:
               1          2
     1  Na  -0.107494   0.008268
     2  Na   0.061230  -0.094288
     3  Na  -0.001980   0.563889
     4  Na   0.077086  -0.003835
     5  Na  -0.187158   0.048965
     6  Na  -0.142400   0.180187
     7  Na   0.300716   0.296815
 Sum of Mulliken charges =  -0.00000   1.00000

 Dipole moment (field-independent basis, Debye):
    X=              0.2122    Y=              0.7707    Z=              0.8509  Tot=              1.1675
 Quadrupole moment (field-independent basis, Debye-Ang):
   XX=            -74.5178   YY=            -77.0143   ZZ=            -58.9179
   XY=             -1.4871   XZ=              1.4886   YZ=             -5.9745

 Normal termination of Gaussian 16 at Thu Dec  7 02:41:17 2023.
