 Gaussian 16, Revision B.01,
 Gaussian 16:  ES64L-G16RevB.01 20-Dec-2017

 -------------------------
 #P B3LYP/6-311+g(d) force
 -------------------------

 -----
 DPGEN
 -----
 Symbolic Z-matrix:
 Charge =  0 Multiplicity = 2

                         Standard orientation:
 ---------------------------------------------------------------------
 Center     Atomic      Atomic             Coordinates (Angstroms)
 Number     Number       Type             X           Y           Z
 ---------------------------------------------------------------------
      1         11           0        2.402368   -1.614232   -1.302664
      2         11           0        1.434873   -1.067429    1.859788
      3         11           0       -0.640632    2.599903    1.031278
      4         11           0        2.569286    1.922391   -0.085013
      5         11           0       -2.034625   -2.451216    0.964235
      6         11           0       -0.344242   -0.257405   -1.661650
      7         11           0       -3.387029    0.867988   -0.805975
 ---------------------------------------------------------------------

 SCF Done:  E(UB3LYP) =  -1136.12774611     A.U. after   21 cycles

 The electronic state is 2-A.
 Alpha  occ. eigenvalues --  -38.44450 -38.44273 -38.44186 -38.43936 -38.43854
 Alpha  occ. eigenvalues --  -38.43714 -38.43457  -2.20208  -2.20101  -2.19980
 Alpha  occ. eigenvalues --   -2.19739  -2.19729  -2.19620  -2.19244  -1.13881
 Alpha  occ. eigenvalues --   -1.13859  -1.13837  -1.13770  -1.13761  -1.13715
 Alpha  occ. eigenvalues --   -1.13671  -1.13627  -1.13610  -1.13486  -1.13418
 Alpha  occ. eigenvalues --   -1.13404  -1.13380  -1.13362  -1.13337  -1.13281
 Alpha  occ. eigenvalues --   -1.13247  -1.13232  -1.12923  -1.12914  -1.12872
 Alpha  occ. eigenvalues --   -0.17729  -0.13119  -0.11862  -0.11207
 Alpha virt. eigenvalues --   -0.05862  -0.05536  -0.04751  -0.03372  -0.03091
 Alpha virt. eigenvalues --   -0.02657  -0.01627  -0.01283  -0.00634  -0.00174
 Alpha virt. eigenvalues --   -0.00034   0.00266   0.00367   0.00550   0.00705

  Beta  occ. eigenvalues --  -38.44420 -38.44218 -38.44177 -38.43936 -38.43817
  Beta  occ. eigenvalues --  -38.43658 -38.43451  -2.20152  -2.19998  -2.19963
  Beta  occ. eigenvalues --   -2.19740  -2.19664  -2.19520  -2.19233  -1.13838
  Beta  occ. eigenvalues --   -1.13824  -1.13793  -1.13699  -1.13694  -1.13650
  Beta  occ. eigenvalues --   -1.13635  -1.13617  -1.13601  -1.13424  -1.13413
  Beta  occ. eigenvalues --   -1.13400  -1.13374  -1.13311  -1.13297  -1.13211
  Beta  occ. eigenvalues --   -1.13186  -1.13153  -1.12913  -1.12908  -1.12860
  Beta  occ. eigenvalues --   -0.17073  -0.12936  -0.11548
  Beta virt. eigenvalues --   -0.07450  -0.05713  -0.05400  -0.04314  -0.03048
  Beta virt. eigenvalues --   -0.02507  -0.01814  -0.01527  -0.01117  -0.00470
  Beta virt. eigenvalues --   -0.00054   0.00033   0.00361   0.00471   0.00711

 Mulliken charges and spin densities:
               1          2
     1  Na   0.594173  -0.009033
     2  Na  -0.034021   0.499943
     3  Na  -0.370771  -0.033412
     4  Na  -0.108749   0.061661
     5  Na  -0.292586   0.144399
     6  Na  -0.536238   0.340546
     7  Na   0.748191  -0.004105
 Sum of Mulliken charges =  -0.00000   1.00000

 Dipole moment (field-independent basis, Debye):
    X=             -0.1099    Y=             -0.2343    Z=              0.1426  Tot=              0.2955
 Quadrupole moment (field-independent basis, Debye-Ang):
   XX=            -54.8397   YY=            -70.0935   ZZ=            -70.2507
   XY=             -0.4285   XZ=             -1.3224   YZ=             -0.8415

 Normal termination of Gaussian 16 at Mon Dec  4 00:08:37 2023.
