 Gaussian 16, Revision B.01,
 Gaussian 16:  ES64L-G16RevB.01 20-Dec-2017

 -------------------------
 #P B3LYP/6-311+g(d) force
 -------------------------

 -----
 DPGEN
 -----
 Symbolic Z-matrix:
 Charge =  0 Multiplicity = 2

                         Standard orientation:
 ---------------------------------------------------------------------
 Center     Atomic      Atomic             Coordinates (Angstroms)
 Number     Number       Type             X           Y           Z
 ---------------------------------------------------------------------
      1         11           0        2.457411   -0.471818   -0.887527
      2         11           0        3.565971   -2.986739    0.734210
      3         11           0       -2.406392    0.248765   -1.080114
      4         11           0        2.853434    3.355468    1.000723
      5         11           0       -5.622994   -0.287748    1.090411
      6         11           0       -0.713650   -2.129951   -0.215228
      7         11           0       -0.133779    2.272023   -0.642475
 ---------------------------------------------------------------------

 SCF Done:  E(UB3LYP) =  -1136.11093340     A.U. after   21 cycles

 The electronic state is 2-A.
 Alpha  occ. eigenvalues --  -38.45251 -38.44962 -38.44303 -38.44237 -38.44234
 Alpha  occ. eigenvalues --  -38.43923 -38.43676  -2.21056  -2.20748  -2.20087
 Alpha  occ. eigenvalues --   -2.20054  -2.19991  -2.19755  -2.19564  -1.14745
 Alpha  occ. eigenvalues --   -1.14732  -1.14675  -1.14378  -1.14378  -1.14346
 Alpha  occ. eigenvalues --   -1.13812  -1.13753  -1.13741  -1.13726  -1.13716
 Alpha  occ. eigenvalues --   -1.13659  -1.13648  -1.13628  -1.13611  -1.13461
 Alpha  occ. eigenvalues --   -1.13436  -1.13415  -1.13248  -1.13209  -1.13175
 Alpha  occ. eigenvalues --   -0.16749  -0.13542  -0.12308  -0.11180
 Alpha virt. eigenvalues --   -0.06680  -0.05735  -0.04496  -0.03759  -0.02665
 Alpha virt. eigenvalues --   -0.02424  -0.02085  -0.01567  -0.01178  -0.00835
 Alpha virt. eigenvalues --   -0.00563  -0.00399  -0.00083   0.00300   0.00576

  Beta  occ. eigenvalues --  -38.45241 -38.44818 -38.44289 -38.44238 -38.44209
  Beta  occ. eigenvalues --  -38.43919 -38.43670  -2.21038  -2.20479  -2.20061
  Beta  occ. eigenvalues --   -2.20057  -2.19942  -2.19752  -2.19559  -1.14721
  Beta  occ. eigenvalues --   -1.14719  -1.14674  -1.14195  -1.14195  -1.14166
  Beta  occ. eigenvalues --   -1.13799  -1.13748  -1.13726  -1.13710  -1.13705
  Beta  occ. eigenvalues --   -1.13627  -1.13625  -1.13614  -1.13582  -1.13451
  Beta  occ. eigenvalues --   -1.13428  -1.13416  -1.13247  -1.13210  -1.13135
  Beta  occ. eigenvalues --   -0.16403  -0.12842  -0.12078
  Beta virt. eigenvalues --   -0.07407  -0.06507  -0.05393  -0.04249  -0.03569
  Beta virt. eigenvalues --   -0.02495  -0.02043  -0.01584  -0.01338  -0.00856
  Beta virt. eigenvalues --   -0.00630  -0.00195  -0.00100   0.00147   0.00486

 Mulliken charges and spin densities:
               1          2
     1  Na  -0.453198   0.004467
     2  Na   0.305369   0.090513
     3  Na  -0.145540  -0.036209
     4  Na   0.440463   0.197595
     5  Na  -0.009493   0.759869
     6  Na  -0.017042   0.006843
     7  Na  -0.120559  -0.023078
 Sum of Mulliken charges =  -0.00000   1.00000

 Dipole moment (field-independent basis, Debye):
    X=              0.7533    Y=             -0.8041    Z=              0.5494  Tot=              1.2312
 Quadrupole moment (field-independent basis, Debye-Ang):
   XX=            -67.1854   YY=            -64.8594   ZZ=            -68.6345
   XY=             -0.9730   XZ=              3.9686   YZ=             -1.8140

 Normal termination of Gaussian 16 at Tue Nov 28 22:41:23 2023.
