 Gaussian 16, Revision B.01,
 Gaussian 16:  ES64L-G16RevB.01 20-Dec-2017

 -------------------------
 #P B3LYP/6-311+g(d) force
 -------------------------

 -----
 DPGEN
 -----
 Symbolic Z-matrix:
 Charge =  0 Multiplicity = 2

                         Standard orientation:
 ---------------------------------------------------------------------
 Center     Atomic      Atomic             Coordinates (Angstroms)
 Number     Number       Type             X           Y           Z
 ---------------------------------------------------------------------
      1         11           0        1.595205    0.156871    2.081187
      2         11           0       -3.310790    0.554095   -0.360427
      3         11           0       -1.586462   -1.962273    0.944705
      4         11           0        2.400625    1.331347   -0.999356
      5         11           0       -0.580439    2.465946    0.497550
      6         11           0        1.726961   -1.986538   -0.434528
      7         11           0       -0.245099   -0.559448   -1.729130
 ---------------------------------------------------------------------

 SCF Done:  E(UB3LYP) =  -1136.13091614     A.U. after   20 cycles

 The electronic state is 2-A.
 Alpha  occ. eigenvalues --  -38.44137 -38.43873 -38.43791 -38.43749 -38.43687
 Alpha  occ. eigenvalues --  -38.43293 -38.43037  -2.20022  -2.19773  -2.19710
 Alpha  occ. eigenvalues --   -2.19683  -2.19547  -2.19259  -2.18875  -1.13679
 Alpha  occ. eigenvalues --   -1.13678  -1.13635  -1.13632  -1.13427  -1.13419
 Alpha  occ. eigenvalues --   -1.13388  -1.13359  -1.13355  -1.13337  -1.13325
 Alpha  occ. eigenvalues --   -1.13303  -1.13215  -1.13200  -1.13165  -1.12918
 Alpha  occ. eigenvalues --   -1.12894  -1.12836  -1.12561  -1.12552  -1.12499
 Alpha  occ. eigenvalues --   -0.18932  -0.13366  -0.11999  -0.11630
 Alpha virt. eigenvalues --   -0.05513  -0.05011  -0.04233  -0.03616  -0.03112
 Alpha virt. eigenvalues --   -0.03047  -0.01344  -0.00756  -0.00336   0.00113
 Alpha virt. eigenvalues --    0.00281   0.00381   0.00674   0.00846   0.00919

  Beta  occ. eigenvalues --  -38.44056 -38.43874 -38.43767 -38.43687 -38.43668
  Beta  occ. eigenvalues --  -38.43279 -38.43033  -2.19873  -2.19712  -2.19662
  Beta  occ. eigenvalues --   -2.19643  -2.19514  -2.19240  -2.18869  -1.13587
  Beta  occ. eigenvalues --   -1.13573  -1.13564  -1.13524  -1.13390  -1.13378
  Beta  occ. eigenvalues --   -1.13365  -1.13359  -1.13312  -1.13305  -1.13281
  Beta  occ. eigenvalues --   -1.13254  -1.13187  -1.13164  -1.13142  -1.12893
  Beta  occ. eigenvalues --   -1.12860  -1.12811  -1.12556  -1.12531  -1.12497
  Beta  occ. eigenvalues --   -0.18164  -0.13170  -0.11789
  Beta virt. eigenvalues --   -0.07592  -0.05415  -0.04901  -0.03953  -0.03216
  Beta virt. eigenvalues --   -0.02347  -0.02004  -0.01285  -0.00665  -0.00110
  Beta virt. eigenvalues --    0.00151   0.00273   0.00427   0.00853   0.00923

 Mulliken charges and spin densities:
               1          2
     1  Na  -0.356144   0.572095
     2  Na   0.311420  -0.061696
     3  Na  -0.155219   0.094601
     4  Na   0.310466  -0.000856
     5  Na  -0.369772   0.025573
     6  Na   0.549480   0.019540
     7  Na  -0.290230   0.350742
 Sum of Mulliken charges =  -0.00000   1.00000

 Dipole moment (field-independent basis, Debye):
    X=             -0.1088    Y=              0.0264    Z=              0.2445  Tot=              0.2689
 Quadrupole moment (field-independent basis, Debye-Ang):
   XX=            -57.4165   YY=            -70.8817   ZZ=            -67.5031
   XY=              0.3151   XZ=             -0.7788   YZ=             -2.3958

 Normal termination of Gaussian 16 at Tue Dec  5 12:31:05 2023.
