 Gaussian 16, Revision B.01,
 Gaussian 16:  ES64L-G16RevB.01 20-Dec-2017

 -------------------------
 #P B3LYP/6-311+g(d) force
 -------------------------

 -----
 DPGEN
 -----
 Symbolic Z-matrix:
 Charge =  0 Multiplicity = 2

                         Standard orientation:
 ---------------------------------------------------------------------
 Center     Atomic      Atomic             Coordinates (Angstroms)
 Number     Number       Type             X           Y           Z
 ---------------------------------------------------------------------
      1         11           0       -2.662341   -0.793569    1.330712
      2         11           0       -0.195608    0.893322   -0.602290
      3         11           0        3.144166   -0.714364   -0.788907
      4         11           0        0.573381   -2.823922   -0.787103
      5         11           0       -3.791464    0.998177   -1.164314
      6         11           0        0.808300   -0.402615    1.771582
      7         11           0        2.123566    2.842970    0.240320
 ---------------------------------------------------------------------

 SCF Done:  E(UB3LYP) =  -1136.12544568     A.U. after   21 cycles

 The electronic state is 2-A.
 Alpha  occ. eigenvalues --  -38.44374 -38.44040 -38.43926 -38.43893 -38.43699
 Alpha  occ. eigenvalues --  -38.43281 -38.43142  -2.20227  -2.19886  -2.19863
 Alpha  occ. eigenvalues --   -2.19748  -2.19678  -2.19111  -2.18972  -1.13916
 Alpha  occ. eigenvalues --   -1.13889  -1.13828  -1.13744  -1.13568  -1.13555
 Alpha  occ. eigenvalues --   -1.13539  -1.13473  -1.13437  -1.13400  -1.13390
 Alpha  occ. eigenvalues --   -1.13360  -1.13352  -1.13323  -1.13260  -1.12790
 Alpha  occ. eigenvalues --   -1.12760  -1.12752  -1.12653  -1.12624  -1.12602
 Alpha  occ. eigenvalues --   -0.18274  -0.13738  -0.11801  -0.10760
 Alpha virt. eigenvalues --   -0.06176  -0.05152  -0.04567  -0.03471  -0.02614
 Alpha virt. eigenvalues --   -0.02196  -0.01918  -0.01176  -0.00715  -0.00394
 Alpha virt. eigenvalues --    0.00043   0.00190   0.00432   0.00675   0.00766

  Beta  occ. eigenvalues --  -38.44341 -38.44018 -38.43875 -38.43821 -38.43688
  Beta  occ. eigenvalues --  -38.43273 -38.43145  -2.20167  -2.19851  -2.19737
  Beta  occ. eigenvalues --   -2.19660  -2.19651  -2.19098  -2.18977  -1.13869
  Beta  occ. eigenvalues --   -1.13852  -1.13781  -1.13670  -1.13541  -1.13527
  Beta  occ. eigenvalues --   -1.13488  -1.13375  -1.13350  -1.13331  -1.13323
  Beta  occ. eigenvalues --   -1.13313  -1.13302  -1.13291  -1.13246  -1.12780
  Beta  occ. eigenvalues --   -1.12756  -1.12725  -1.12658  -1.12620  -1.12606
  Beta  occ. eigenvalues --   -0.17663  -0.13312  -0.11573
  Beta virt. eigenvalues --   -0.07097  -0.05973  -0.04983  -0.04151  -0.03132
  Beta virt. eigenvalues --   -0.02086  -0.01991  -0.01405  -0.01024  -0.00462
  Beta virt. eigenvalues --   -0.00171   0.00163   0.00288   0.00522   0.00770

 Mulliken charges and spin densities:
               1          2
     1  Na   0.110311   0.023728
     2  Na  -2.233237   0.164010
     3  Na   0.474158   0.141952
     4  Na  -0.223458   0.089571
     5  Na   0.400648   0.296608
     6  Na   0.613743   0.398295
     7  Na   0.857835  -0.114164
 Sum of Mulliken charges =  -0.00000   1.00000

 Dipole moment (field-independent basis, Debye):
    X=              0.2417    Y=             -0.2883    Z=              0.2211  Tot=              0.4364
 Quadrupole moment (field-independent basis, Debye-Ang):
   XX=            -55.7973   YY=            -69.1669   ZZ=            -69.0272
   XY=              3.2971   XZ=              0.2176   YZ=             -0.8522

 Normal termination of Gaussian 16 at Tue Dec  5 11:20:40 2023.
