 Gaussian 16, Revision B.01,
 Gaussian 16:  ES64L-G16RevB.01 20-Dec-2017

 -------------------------
 #P B3LYP/6-311+g(d) force
 -------------------------

 -----
 DPGEN
 -----
 Symbolic Z-matrix:
 Charge =  0 Multiplicity = 2

                         Standard orientation:
 ---------------------------------------------------------------------
 Center     Atomic      Atomic             Coordinates (Angstroms)
 Number     Number       Type             X           Y           Z
 ---------------------------------------------------------------------
      1         11           0        3.296012   -2.339030   -0.134994
      2         11           0       -3.823421   -2.264730   -0.104165
      3         11           0       -0.439390   -2.882628    0.589101
      4         11           0        4.659490    1.405178    0.062965
      5         11           0       -3.335340    1.459441   -0.515209
      6         11           0        1.104551    1.114669   -0.606560
      7         11           0       -1.461902    3.507100    0.708862
 ---------------------------------------------------------------------

 SCF Done:  E(UB3LYP) =  -1136.11536650     A.U. after   21 cycles

 The electronic state is 2-A.
 Alpha  occ. eigenvalues --  -38.45623 -38.45176 -38.44950 -38.44156 -38.43998
 Alpha  occ. eigenvalues --  -38.43989 -38.43176  -2.21359  -2.20932  -2.20756
 Alpha  occ. eigenvalues --   -2.19951  -2.19822  -2.19758  -2.18972  -1.15080
 Alpha  occ. eigenvalues --   -1.15051  -1.14947  -1.14617  -1.14580  -1.14550
 Alpha  occ. eigenvalues --   -1.14458  -1.14421  -1.14396  -1.13602  -1.13600
 Alpha  occ. eigenvalues --   -1.13556  -1.13496  -1.13467  -1.13454  -1.13447
 Alpha  occ. eigenvalues --   -1.13447  -1.13372  -1.12632  -1.12618  -1.12605
 Alpha  occ. eigenvalues --   -0.16028  -0.13951  -0.12740  -0.10513
 Alpha virt. eigenvalues --   -0.06974  -0.05660  -0.04280  -0.03729  -0.02841
 Alpha virt. eigenvalues --   -0.02812  -0.02112  -0.02057  -0.00979  -0.00708
 Alpha virt. eigenvalues --   -0.00345  -0.00235   0.00310   0.00415   0.00589

  Beta  occ. eigenvalues --  -38.45624 -38.45138 -38.44943 -38.44075 -38.43992
  Beta  occ. eigenvalues --  -38.43973 -38.43132  -2.21364  -2.20865  -2.20746
  Beta  occ. eigenvalues --   -2.19799  -2.19792  -2.19749  -2.18889  -1.15085
  Beta  occ. eigenvalues --   -1.15043  -1.14948  -1.14575  -1.14534  -1.14483
  Beta  occ. eigenvalues --   -1.14450  -1.14414  -1.14371  -1.13498  -1.13494
  Beta  occ. eigenvalues --   -1.13478  -1.13459  -1.13452  -1.13446  -1.13445
  Beta  occ. eigenvalues --   -1.13426  -1.13340  -1.12576  -1.12559  -1.12556
  Beta  occ. eigenvalues --   -0.15681  -0.13324  -0.12237
  Beta virt. eigenvalues --   -0.07150  -0.06902  -0.05428  -0.03762  -0.03511
  Beta virt. eigenvalues --   -0.02689  -0.02451  -0.01879  -0.01686  -0.00882
  Beta virt. eigenvalues --   -0.00360  -0.00115   0.00121   0.00371   0.00412

 Mulliken charges and spin densities:
               1          2
     1  Na   0.016851   0.089574
     2  Na   0.234741   0.311875
     3  Na  -0.148519   0.055066
     4  Na   0.628500   0.369069
     5  Na  -0.361680   0.076744
     6  Na  -1.066744   0.021464
     7  Na   0.696851   0.076209
 Sum of Mulliken charges =  -0.00000   1.00000

 Dipole moment (field-independent basis, Debye):
    X=              0.8962    Y=              0.8284    Z=              0.1070  Tot=              1.2251
 Quadrupole moment (field-independent basis, Debye-Ang):
   XX=            -60.6161   YY=            -67.3395   ZZ=            -71.6376
   XY=             -7.4542   XZ=              1.5175   YZ=              1.8938

 Normal termination of Gaussian 16 at Sun Dec  3 12:51:36 2023.
