 Gaussian 16, Revision B.01,
 Gaussian 16:  ES64L-G16RevB.01 20-Dec-2017

 -------------------------
 #P B3LYP/6-311+g(d) force
 -------------------------

 -----
 DPGEN
 -----
 Symbolic Z-matrix:
 Charge =  0 Multiplicity = 2

                         Standard orientation:
 ---------------------------------------------------------------------
 Center     Atomic      Atomic             Coordinates (Angstroms)
 Number     Number       Type             X           Y           Z
 ---------------------------------------------------------------------
      1         11           0       -2.281765    1.881475   -0.438742
      2         11           0        3.226056   -0.851250   -0.402632
      3         11           0       -2.848463   -1.216161    0.146263
      4         11           0        0.101666    0.080449   -1.734683
      5         11           0        0.126078   -2.743017    0.153103
      6         11           0        1.463464    2.643822    0.309184
      7         11           0        0.212964    0.204681    1.967507
 ---------------------------------------------------------------------

 SCF Done:  E(UB3LYP) =  -1136.13737836     A.U. after   19 cycles

 The electronic state is 2-A.
 Alpha  occ. eigenvalues --  -38.44343 -38.43689 -38.43599 -38.43586 -38.43561
 Alpha  occ. eigenvalues --  -38.43436 -38.43104  -2.20136  -2.19550  -2.19500
 Alpha  occ. eigenvalues --   -2.19463  -2.19398  -2.19386  -2.18976  -1.13814
 Alpha  occ. eigenvalues --   -1.13782  -1.13776  -1.13264  -1.13216  -1.13208
 Alpha  occ. eigenvalues --   -1.13204  -1.13169  -1.13155  -1.13121  -1.13104
 Alpha  occ. eigenvalues --   -1.13077  -1.13065  -1.13059  -1.13043  -1.13017
 Alpha  occ. eigenvalues --   -1.13008  -1.12992  -1.12660  -1.12648  -1.12595
 Alpha  occ. eigenvalues --   -0.18644  -0.13035  -0.12382  -0.10891
 Alpha virt. eigenvalues --   -0.05798  -0.05138  -0.04440  -0.03239  -0.02941
 Alpha virt. eigenvalues --   -0.02609  -0.01717  -0.01106  -0.00346  -0.00181
 Alpha virt. eigenvalues --   -0.00019   0.00336   0.00783   0.00856   0.00923

  Beta  occ. eigenvalues --  -38.44333 -38.43687 -38.43587 -38.43552 -38.43497
  Beta  occ. eigenvalues --  -38.43369 -38.43098  -2.20120  -2.19550  -2.19446
  Beta  occ. eigenvalues --   -2.19384  -2.19336  -2.19265  -2.18967  -1.13787
  Beta  occ. eigenvalues --   -1.13773  -1.13766  -1.13263  -1.13216  -1.13184
  Beta  occ. eigenvalues --   -1.13145  -1.13127  -1.13089  -1.13063  -1.13051
  Beta  occ. eigenvalues --   -1.13035  -1.13017  -1.13001  -1.12981  -1.12969
  Beta  occ. eigenvalues --   -1.12935  -1.12904  -1.12656  -1.12623  -1.12584
  Beta  occ. eigenvalues --   -0.17930  -0.12774  -0.12103
  Beta virt. eigenvalues --   -0.07026  -0.05733  -0.05092  -0.04413  -0.02499
  Beta virt. eigenvalues --   -0.02172  -0.01595  -0.01584  -0.01023  -0.00366
  Beta virt. eigenvalues --   -0.00227   0.00104   0.00368   0.00840   0.00859

 Mulliken charges and spin densities:
               1          2
     1  Na   0.326282   0.013116
     2  Na   0.083287  -0.050568
     3  Na  -0.010375  -0.031554
     4  Na  -0.286775   0.544119
     5  Na   0.110011  -0.026111
     6  Na   0.084935  -0.079796
     7  Na  -0.307366   0.630795
 Sum of Mulliken charges =  -0.00000   1.00000

 Dipole moment (field-independent basis, Debye):
    X=              0.3559    Y=              0.0911    Z=              0.0314  Tot=              0.3687
 Quadrupole moment (field-independent basis, Debye-Ang):
   XX=            -55.5024   YY=            -64.4124   ZZ=            -73.6948
   XY=              0.0555   XZ=             -0.6459   YZ=             -0.4846

 Normal termination of Gaussian 16 at Thu Dec  7 16:56:11 2023.
