 Gaussian 16, Revision B.01,
 Gaussian 16:  ES64L-G16RevB.01 20-Dec-2017

 -------------------------
 #P B3LYP/6-311+g(d) force
 -------------------------

 -----
 DPGEN
 -----
 Symbolic Z-matrix:
 Charge =  0 Multiplicity = 2

                         Standard orientation:
 ---------------------------------------------------------------------
 Center     Atomic      Atomic             Coordinates (Angstroms)
 Number     Number       Type             X           Y           Z
 ---------------------------------------------------------------------
      1         11           0        2.348482    0.337625    0.060147
      2         11           0       -0.999645    1.346851    0.154766
      3         11           0        1.954030    3.537674    0.094380
      4         11           0        2.828013   -2.949292    0.013951
      5         11           0       -0.338749   -1.803009   -0.424309
      6         11           0       -2.880539    0.084068   -1.928807
      7         11           0       -2.911592   -0.553915    2.029871
 ---------------------------------------------------------------------

 SCF Done:  E(UB3LYP) =  -1136.12776866     A.U. after   19 cycles

 The electronic state is 2-A.
 Alpha  occ. eigenvalues --  -38.44290 -38.44231 -38.43982 -38.43731 -38.43662
 Alpha  occ. eigenvalues --  -38.43361 -38.43319  -2.20165  -2.20078  -2.19875
 Alpha  occ. eigenvalues --   -2.19622  -2.19548  -2.19218  -2.19170  -1.13862
 Alpha  occ. eigenvalues --   -1.13806  -1.13763  -1.13741  -1.13717  -1.13674
 Alpha  occ. eigenvalues --   -1.13627  -1.13560  -1.13460  -1.13342  -1.13318
 Alpha  occ. eigenvalues --   -1.13225  -1.13205  -1.13189  -1.13179  -1.12939
 Alpha  occ. eigenvalues --   -1.12906  -1.12888  -1.12828  -1.12815  -1.12744
 Alpha  occ. eigenvalues --   -0.18016  -0.13770  -0.12246  -0.10905
 Alpha virt. eigenvalues --   -0.06106  -0.05495  -0.04665  -0.03292  -0.02737
 Alpha virt. eigenvalues --   -0.02011  -0.01814  -0.01549  -0.00792  -0.00589
 Alpha virt. eigenvalues --   -0.00057   0.00131   0.00154   0.00619   0.00703

  Beta  occ. eigenvalues --  -38.44214 -38.44130 -38.43972 -38.43734 -38.43649
  Beta  occ. eigenvalues --  -38.43364 -38.43319  -2.20023  -2.19890  -2.19860
  Beta  occ. eigenvalues --   -2.19604  -2.19555  -2.19219  -2.19176  -1.13768
  Beta  occ. eigenvalues --   -1.13704  -1.13666  -1.13622  -1.13610  -1.13587
  Beta  occ. eigenvalues --   -1.13552  -1.13516  -1.13455  -1.13336  -1.13247
  Beta  occ. eigenvalues --   -1.13230  -1.13209  -1.13187  -1.13181  -1.12940
  Beta  occ. eigenvalues --   -1.12904  -1.12892  -1.12831  -1.12819  -1.12747
  Beta  occ. eigenvalues --   -0.17458  -0.13463  -0.12232
  Beta virt. eigenvalues --   -0.06740  -0.05845  -0.05265  -0.04630  -0.02882
  Beta virt. eigenvalues --   -0.02259  -0.01635  -0.01595  -0.01097  -0.00658
  Beta virt. eigenvalues --   -0.00158  -0.00006   0.00233   0.00505   0.00671

 Mulliken charges and spin densities:
               1          2
     1  Na  -1.757543  -0.022172
     2  Na  -0.710850   0.415686
     3  Na   0.859931  -0.175922
     4  Na   1.197523  -0.099606
     5  Na  -0.438778   0.292034
     6  Na   0.672363   0.255276
     7  Na   0.177355   0.334705
 Sum of Mulliken charges =  -0.00000   1.00000

 Dipole moment (field-independent basis, Debye):
    X=             -0.3427    Y=             -0.4085    Z=             -0.2119  Tot=              0.5738
 Quadrupole moment (field-independent basis, Debye-Ang):
   XX=            -57.3737   YY=            -61.5386   ZZ=            -73.4297
   XY=             -1.1226   XZ=              1.7400   YZ=             -0.6686

 Normal termination of Gaussian 16 at Wed Nov 29 17:03:03 2023.
