 Gaussian 16, Revision B.01,
 Gaussian 16:  ES64L-G16RevB.01 20-Dec-2017

 -------------------------
 #P B3LYP/6-311+g(d) force
 -------------------------

 -----
 DPGEN
 -----
 Symbolic Z-matrix:
 Charge =  0 Multiplicity = 2

                         Standard orientation:
 ---------------------------------------------------------------------
 Center     Atomic      Atomic             Coordinates (Angstroms)
 Number     Number       Type             X           Y           Z
 ---------------------------------------------------------------------
      1         11           0       -2.264818    0.743975    1.281101
      2         11           0       -0.767619    3.313732   -0.646909
      3         11           0       -4.724967   -1.258774   -0.210246
      4         11           0       -1.337643   -1.847132   -0.455197
      5         11           0        3.464587   -2.458010   -0.015432
      6         11           0        1.207070    0.726415   -0.201956
      7         11           0        4.423390    0.779795    0.248639
 ---------------------------------------------------------------------

 SCF Done:  E(UB3LYP) =  -1136.12087098     A.U. after   21 cycles

 The electronic state is 2-A.
 Alpha  occ. eigenvalues --  -38.45196 -38.44627 -38.43962 -38.43578 -38.43513
 Alpha  occ. eigenvalues --  -38.43430 -38.43268  -2.20948  -2.20476  -2.19804
 Alpha  occ. eigenvalues --   -2.19438  -2.19320  -2.19252  -2.19172  -1.14634
 Alpha  occ. eigenvalues --   -1.14602  -1.14590  -1.14195  -1.14164  -1.14062
 Alpha  occ. eigenvalues --   -1.13482  -1.13447  -1.13408  -1.13135  -1.13110
 Alpha  occ. eigenvalues --   -1.13041  -1.13003  -1.12978  -1.12962  -1.12908
 Alpha  occ. eigenvalues --   -1.12906  -1.12883  -1.12874  -1.12862  -1.12749
 Alpha  occ. eigenvalues --   -0.16988  -0.14218  -0.11912  -0.10162
 Alpha virt. eigenvalues --   -0.06493  -0.05817  -0.04139  -0.03649  -0.02823
 Alpha virt. eigenvalues --   -0.02224  -0.01901  -0.01466  -0.01147  -0.00407
 Alpha virt. eigenvalues --   -0.00240  -0.00115   0.00407   0.00468   0.00576

  Beta  occ. eigenvalues --  -38.45201 -38.44619 -38.43905 -38.43533 -38.43515
  Beta  occ. eigenvalues --  -38.43380 -38.43246  -2.20961  -2.20464  -2.19695
  Beta  occ. eigenvalues --   -2.19358  -2.19323  -2.19158  -2.19137  -1.14646
  Beta  occ. eigenvalues --   -1.14604  -1.14584  -1.14170  -1.14160  -1.14047
  Beta  occ. eigenvalues --   -1.13408  -1.13372  -1.13339  -1.13082  -1.13058
  Beta  occ. eigenvalues --   -1.13004  -1.12980  -1.12964  -1.12959  -1.12865
  Beta  occ. eigenvalues --   -1.12842  -1.12837  -1.12806  -1.12798  -1.12734
  Beta  occ. eigenvalues --   -0.16374  -0.13830  -0.11744
  Beta virt. eigenvalues --   -0.06636  -0.06231  -0.05628  -0.03510  -0.03423
  Beta virt. eigenvalues --   -0.02622  -0.01972  -0.01816  -0.01134  -0.00731
  Beta virt. eigenvalues --   -0.00212  -0.00132   0.00181   0.00464   0.00578

 Mulliken charges and spin densities:
               1          2
     1  Na  -0.137819   0.026911
     2  Na   1.092371   0.077443
     3  Na   0.565358   0.397394
     4  Na  -0.017198   0.249350
     5  Na   0.397486  -0.188522
     6  Na  -1.971858   0.206936
     7  Na   0.071658   0.230487
 Sum of Mulliken charges =  -0.00000   1.00000

 Dipole moment (field-independent basis, Debye):
    X=              0.4863    Y=             -0.3636    Z=             -0.0489  Tot=              0.6092
 Quadrupole moment (field-independent basis, Debye-Ang):
   XX=            -64.5942   YY=            -62.9285   ZZ=            -68.4397
   XY=             -5.8932   XZ=              1.2447   YZ=              0.2344

 Normal termination of Gaussian 16 at Wed Nov 29 16:42:13 2023.
