 Gaussian 16, Revision B.01,
 Gaussian 16:  ES64L-G16RevB.01 20-Dec-2017

 -------------------------
 #P B3LYP/6-311+g(d) force
 -------------------------

 -----
 DPGEN
 -----
 Symbolic Z-matrix:
 Charge =  0 Multiplicity = 2

                         Standard orientation:
 ---------------------------------------------------------------------
 Center     Atomic      Atomic             Coordinates (Angstroms)
 Number     Number       Type             X           Y           Z
 ---------------------------------------------------------------------
      1         11           0        0.506426   -2.504664    0.330768
      2         11           0       -1.929618    2.315900   -0.294024
      3         11           0       -2.944315   -1.526371   -0.191793
      4         11           0       -0.329472    0.312494    2.044931
      5         11           0        1.545560    2.234610    0.048128
      6         11           0       -0.094428   -0.177469   -1.673600
      7         11           0        3.245848   -0.654501   -0.264411
 ---------------------------------------------------------------------

 SCF Done:  E(UB3LYP) =  -1136.13782715     A.U. after   19 cycles

 The electronic state is 2-A.
 Alpha  occ. eigenvalues --  -38.44108 -38.43864 -38.43606 -38.43536 -38.43314
 Alpha  occ. eigenvalues --  -38.43285 -38.43193  -2.19908  -2.19698  -2.19453
 Alpha  occ. eigenvalues --   -2.19451  -2.19296  -2.19175  -2.19096  -1.13585
 Alpha  occ. eigenvalues --   -1.13558  -1.13554  -1.13367  -1.13357  -1.13353
 Alpha  occ. eigenvalues --   -1.13152  -1.13137  -1.13121  -1.13086  -1.13074
 Alpha  occ. eigenvalues --   -1.13058  -1.13019  -1.12960  -1.12905  -1.12849
 Alpha  occ. eigenvalues --   -1.12837  -1.12789  -1.12774  -1.12760  -1.12694
 Alpha  occ. eigenvalues --   -0.18803  -0.12949  -0.12467  -0.10879
 Alpha virt. eigenvalues --   -0.05696  -0.05268  -0.04286  -0.03106  -0.02998
 Alpha virt. eigenvalues --   -0.02621  -0.01703  -0.01169  -0.00226  -0.00083
 Alpha virt. eigenvalues --   -0.00006   0.00334   0.00768   0.00872   0.00928

  Beta  occ. eigenvalues --  -38.44106 -38.43863 -38.43599 -38.43440 -38.43278
  Beta  occ. eigenvalues --  -38.43251 -38.43181  -2.19907  -2.19698  -2.19443
  Beta  occ. eigenvalues --   -2.19274  -2.19181  -2.19165  -2.19078  -1.13570
  Beta  occ. eigenvalues --   -1.13560  -1.13551  -1.13369  -1.13354  -1.13342
  Beta  occ. eigenvalues --   -1.13134  -1.13102  -1.13076  -1.13015  -1.12958
  Beta  occ. eigenvalues --   -1.12943  -1.12942  -1.12896  -1.12839  -1.12815
  Beta  occ. eigenvalues --   -1.12795  -1.12783  -1.12752  -1.12711  -1.12687
  Beta  occ. eigenvalues --   -0.18058  -0.12726  -0.12224
  Beta virt. eigenvalues --   -0.06927  -0.05651  -0.05255  -0.04252  -0.02384
  Beta virt. eigenvalues --   -0.02182  -0.01628  -0.01539  -0.01125  -0.00240
  Beta virt. eigenvalues --   -0.00099   0.00107   0.00353   0.00826   0.00859

 Mulliken charges and spin densities:
               1          2
     1  Na   0.301152   0.052048
     2  Na   0.133763  -0.103797
     3  Na   0.111780  -0.102660
     4  Na  -0.428541   0.613029
     5  Na   0.316551   0.010894
     6  Na  -0.464554   0.568146
     7  Na   0.029849  -0.037660
 Sum of Mulliken charges =  -0.00000   1.00000

 Dipole moment (field-independent basis, Debye):
    X=             -0.3003    Y=              0.0035    Z=              0.0451  Tot=              0.3037
 Quadrupole moment (field-independent basis, Debye-Ang):
   XX=            -54.1333   YY=            -65.3180   ZZ=            -73.5539
   XY=             -0.0726   XZ=              0.2078   YZ=             -0.8286

 Normal termination of Gaussian 16 at Fri Dec  8 01:36:13 2023.
