 Gaussian 16, Revision B.01,
 Gaussian 16:  ES64L-G16RevB.01 20-Dec-2017

 -------------------------
 #P B3LYP/6-311+g(d) force
 -------------------------

 -----
 DPGEN
 -----
 Symbolic Z-matrix:
 Charge =  0 Multiplicity = 2

                         Standard orientation:
 ---------------------------------------------------------------------
 Center     Atomic      Atomic             Coordinates (Angstroms)
 Number     Number       Type             X           Y           Z
 ---------------------------------------------------------------------
      1         11           0        0.859973    1.823550    0.685472
      2         11           0        3.768275    1.070329   -0.929620
      3         11           0       -0.396858   -0.882073    1.752228
      4         11           0       -3.900452   -1.199772   -0.857432
      5         11           0       -2.694269    1.927192    0.320400
      6         11           0        2.400764   -2.272733    0.447661
      7         11           0       -0.037432   -0.466493   -1.418709
 ---------------------------------------------------------------------

 SCF Done:  E(UB3LYP) =  -1136.11890825     A.U. after   25 cycles

 The electronic state is 2-A.
 Alpha  occ. eigenvalues --  -38.45385 -38.44535 -38.44286 -38.44144 -38.43837
 Alpha  occ. eigenvalues --  -38.43612 -38.42667  -2.21247  -2.20320  -2.20087
 Alpha  occ. eigenvalues --   -2.19948  -2.19769  -2.19426  -2.18592  -1.14996
 Alpha  occ. eigenvalues --   -1.14892  -1.14846  -1.13981  -1.13967  -1.13939
 Alpha  occ. eigenvalues --   -1.13775  -1.13741  -1.13724  -1.13611  -1.13588
 Alpha  occ. eigenvalues --   -1.13572  -1.13483  -1.13412  -1.13354  -1.13106
 Alpha  occ. eigenvalues --   -1.13075  -1.13067  -1.12310  -1.12270  -1.12187
 Alpha  occ. eigenvalues --   -0.18259  -0.13869  -0.11189  -0.11029
 Alpha virt. eigenvalues --   -0.06845  -0.05752  -0.04269  -0.03063  -0.02806
 Alpha virt. eigenvalues --   -0.02568  -0.02119  -0.01517  -0.00886  -0.00426
 Alpha virt. eigenvalues --   -0.00055   0.00153   0.00461   0.00516   0.00633

  Beta  occ. eigenvalues --  -38.45383 -38.44476 -38.44281 -38.44092 -38.43766
  Beta  occ. eigenvalues --  -38.43610 -38.42648  -2.21243  -2.20211  -2.20083
  Beta  occ. eigenvalues --   -2.19849  -2.19642  -2.19425  -2.18564  -1.14976
  Beta  occ. eigenvalues --   -1.14895  -1.14846  -1.13905  -1.13891  -1.13870
  Beta  occ. eigenvalues --   -1.13774  -1.13739  -1.13697  -1.13544  -1.13523
  Beta  occ. eigenvalues --   -1.13506  -1.13396  -1.13323  -1.13260  -1.13102
  Beta  occ. eigenvalues --   -1.13075  -1.13052  -1.12296  -1.12235  -1.12148
  Beta  occ. eigenvalues --   -0.17675  -0.13278  -0.10872
  Beta virt. eigenvalues --   -0.07622  -0.06532  -0.05556  -0.03726  -0.02896
  Beta virt. eigenvalues --   -0.02524  -0.02025  -0.01560  -0.01450  -0.00630
  Beta virt. eigenvalues --   -0.00236   0.00055   0.00198   0.00535   0.00630

 Mulliken charges and spin densities:
               1          2
     1  Na  -0.379420  -0.035097
     2  Na   0.293054   0.295488
     3  Na   0.365790   0.231807
     4  Na   0.074781   0.354729
     5  Na   0.159901   0.015384
     6  Na  -0.084467  -0.013323
     7  Na  -0.429639   0.151012
 Sum of Mulliken charges =  -0.00000   1.00000

 Dipole moment (field-independent basis, Debye):
    X=             -0.4489    Y=             -0.3792    Z=              0.0844  Tot=              0.5937
 Quadrupole moment (field-independent basis, Debye-Ang):
   XX=            -54.3012   YY=            -74.7620   ZZ=            -67.8538
   XY=             -3.4652   XZ=             -1.2267   YZ=              0.9156

 Normal termination of Gaussian 16 at Thu Dec  7 20:00:12 2023.
