 Gaussian 16, Revision B.01,
 Gaussian 16:  ES64L-G16RevB.01 20-Dec-2017

 -------------------------
 #P B3LYP/6-311+g(d) force
 -------------------------

 -----
 DPGEN
 -----
 Symbolic Z-matrix:
 Charge =  0 Multiplicity = 2

                         Standard orientation:
 ---------------------------------------------------------------------
 Center     Atomic      Atomic             Coordinates (Angstroms)
 Number     Number       Type             X           Y           Z
 ---------------------------------------------------------------------
      1         11           0       -3.288550   -0.321966   -0.184824
      2         11           0        2.951813   -1.542178    0.151208
      3         11           0       -0.313299    0.074971   -2.033218
      4         11           0       -0.611135    0.047572    2.204635
      5         11           0       -0.905662    2.551479    0.075871
      6         11           0       -0.495881   -2.536960   -0.093030
      7         11           0        2.662714    1.727082   -0.120642
 ---------------------------------------------------------------------

 SCF Done:  E(UB3LYP) =  -1136.13373773     A.U. after   19 cycles

 The electronic state is 2-A.
 Alpha  occ. eigenvalues --  -38.44670 -38.44238 -38.44083 -38.43874 -38.43839
 Alpha  occ. eigenvalues --  -38.42956 -38.42938  -2.20491  -2.20112  -2.19988
 Alpha  occ. eigenvalues --   -2.19670  -2.19640  -2.18826  -2.18810  -1.14166
 Alpha  occ. eigenvalues --   -1.14145  -1.14134  -1.13770  -1.13747  -1.13725
 Alpha  occ. eigenvalues --   -1.13662  -1.13636  -1.13594  -1.13382  -1.13340
 Alpha  occ. eigenvalues --   -1.13316  -1.13312  -1.13285  -1.13261  -1.12517
 Alpha  occ. eigenvalues --   -1.12511  -1.12508  -1.12488  -1.12438  -1.12418
 Alpha  occ. eigenvalues --   -0.18413  -0.13069  -0.11993  -0.11307
 Alpha virt. eigenvalues --   -0.06135  -0.05100  -0.04111  -0.03369  -0.03174
 Alpha virt. eigenvalues --   -0.03002  -0.01832  -0.00869  -0.00245  -0.00155
 Alpha virt. eigenvalues --   -0.00136   0.00347   0.00587   0.00773   0.00889

  Beta  occ. eigenvalues --  -38.44666 -38.44142 -38.44000 -38.43877 -38.43841
  Beta  occ. eigenvalues --  -38.42948 -38.42930  -2.20486  -2.19934  -2.19836
  Beta  occ. eigenvalues --   -2.19677  -2.19645  -2.18815  -2.18799  -1.14147
  Beta  occ. eigenvalues --   -1.14138  -1.14128  -1.13654  -1.13618  -1.13601
  Beta  occ. eigenvalues --   -1.13564  -1.13526  -1.13482  -1.13388  -1.13335
  Beta  occ. eigenvalues --   -1.13321  -1.13304  -1.13290  -1.13267  -1.12513
  Beta  occ. eigenvalues --   -1.12504  -1.12465  -1.12450  -1.12435  -1.12415
  Beta  occ. eigenvalues --   -0.17625  -0.12918  -0.11751
  Beta virt. eigenvalues --   -0.07337  -0.06030  -0.05111  -0.04017  -0.02666
  Beta virt. eigenvalues --   -0.02182  -0.02129  -0.01750  -0.00839  -0.00285
  Beta virt. eigenvalues --   -0.00189   0.00032   0.00382   0.00856   0.00863

 Mulliken charges and spin densities:
               1          2
     1  Na   0.539896  -0.040038
     2  Na  -0.067389  -0.092182
     3  Na  -0.144286   0.656605
     4  Na  -0.323785   0.706508
     5  Na   0.045672  -0.101543
     6  Na  -0.040909  -0.039690
     7  Na  -0.009199  -0.089660
 Sum of Mulliken charges =  -0.00000   1.00000

 Dipole moment (field-independent basis, Debye):
    X=             -0.4614    Y=             -0.0040    Z=              0.0533  Tot=              0.4645
 Quadrupole moment (field-independent basis, Debye-Ang):
   XX=            -54.7868   YY=            -69.9631   ZZ=            -70.6709
   XY=              0.2788   XZ=              0.6911   YZ=             -0.3048

 Normal termination of Gaussian 16 at Tue Dec  5 09:58:08 2023.
