 Gaussian 16, Revision B.01,
 Gaussian 16:  ES64L-G16RevB.01 20-Dec-2017

 -------------------------
 #P B3LYP/6-311+g(d) force
 -------------------------

 -----
 DPGEN
 -----
 Symbolic Z-matrix:
 Charge =  0 Multiplicity = 2

                         Standard orientation:
 ---------------------------------------------------------------------
 Center     Atomic      Atomic             Coordinates (Angstroms)
 Number     Number       Type             X           Y           Z
 ---------------------------------------------------------------------
      1         11           0        0.049314    0.229347    2.016689
      2         11           0       -1.274699    2.499673   -0.485800
      3         11           0        0.219453    0.065938   -1.800010
      4         11           0        2.518380    1.474452    0.131378
      5         11           0       -3.571769   -0.506622    0.421604
      6         11           0        2.587398   -1.396019    0.225144
      7         11           0       -0.528077   -2.366769   -0.509005
 ---------------------------------------------------------------------

 SCF Done:  E(UB3LYP) =  -1136.12430729     A.U. after   20 cycles

 The electronic state is 2-A.
 Alpha  occ. eigenvalues --  -38.45025 -38.44205 -38.43872 -38.43729 -38.43609
 Alpha  occ. eigenvalues --  -38.43254 -38.42823  -2.20778  -2.20097  -2.19802
 Alpha  occ. eigenvalues --   -2.19673  -2.19646  -2.19094  -2.18745  -1.14453
 Alpha  occ. eigenvalues --   -1.14433  -1.14409  -1.13784  -1.13733  -1.13720
 Alpha  occ. eigenvalues --   -1.13650  -1.13459  -1.13434  -1.13398  -1.13314
 Alpha  occ. eigenvalues --   -1.13306  -1.13284  -1.13248  -1.13239  -1.12795
 Alpha  occ. eigenvalues --   -1.12748  -1.12702  -1.12468  -1.12388  -1.12326
 Alpha  occ. eigenvalues --   -0.19069  -0.13349  -0.11929  -0.11324
 Alpha virt. eigenvalues --   -0.06404  -0.04823  -0.03865  -0.03495  -0.02945
 Alpha virt. eigenvalues --   -0.02785  -0.02085  -0.00860  -0.00203  -0.00053
 Alpha virt. eigenvalues --    0.00131   0.00304   0.00597   0.00783   0.00877

  Beta  occ. eigenvalues --  -38.45019 -38.44129 -38.43864 -38.43721 -38.43521
  Beta  occ. eigenvalues --  -38.43242 -38.42809  -2.20768  -2.19956  -2.19793
  Beta  occ. eigenvalues --   -2.19663  -2.19486  -2.19075  -2.18725  -1.14437
  Beta  occ. eigenvalues --   -1.14429  -1.14404  -1.13699  -1.13651  -1.13636
  Beta  occ. eigenvalues --   -1.13604  -1.13429  -1.13411  -1.13320  -1.13283
  Beta  occ. eigenvalues --   -1.13262  -1.13234  -1.13176  -1.13138  -1.12768
  Beta  occ. eigenvalues --   -1.12727  -1.12691  -1.12439  -1.12360  -1.12311
  Beta  occ. eigenvalues --   -0.18306  -0.13088  -0.11631
  Beta virt. eigenvalues --   -0.07428  -0.06251  -0.04823  -0.03778  -0.02846
  Beta virt. eigenvalues --   -0.02112  -0.01901  -0.01808  -0.00816  -0.00180
  Beta virt. eigenvalues --    0.00038   0.00113   0.00334   0.00787   0.00847

 Mulliken charges and spin densities:
               1          2
     1  Na  -0.630515   0.572356
     2  Na   0.020019  -0.068329
     3  Na  -0.145003   0.361749
     4  Na   0.378441  -0.011369
     5  Na  -0.157461   0.016567
     6  Na   0.214181   0.077497
     7  Na   0.320339   0.051528
 Sum of Mulliken charges =  -0.00000   1.00000

 Dipole moment (field-independent basis, Debye):
    X=             -0.5380    Y=              0.1462    Z=              0.4722  Tot=              0.7306
 Quadrupole moment (field-independent basis, Debye-Ang):
   XX=            -52.2808   YY=            -70.2792   ZZ=            -71.5168
   XY=             -0.0147   XZ=             -0.5549   YZ=             -0.9697

 Normal termination of Gaussian 16 at Thu Dec  7 09:54:11 2023.
