 Gaussian 16, Revision B.01,
 Gaussian 16:  ES64L-G16RevB.01 20-Dec-2017

 -------------------------
 #P B3LYP/6-311+g(d) force
 -------------------------

 -----
 DPGEN
 -----
 Symbolic Z-matrix:
 Charge =  0 Multiplicity = 2

                         Standard orientation:
 ---------------------------------------------------------------------
 Center     Atomic      Atomic             Coordinates (Angstroms)
 Number     Number       Type             X           Y           Z
 ---------------------------------------------------------------------
      1         11           0       -2.536711    1.678486    0.378444
      2         11           0       -1.995167   -1.968018    0.864566
      3         11           0       -2.081966   -0.302727   -1.661964
      4         11           0        1.280012    2.486536   -0.277137
      5         11           0        4.009342   -0.550366    0.153961
      6         11           0        1.059872   -1.156270   -1.485312
      7         11           0        0.264619   -0.187640    2.027441
 ---------------------------------------------------------------------

 SCF Done:  E(UB3LYP) =  -1136.11802219     A.U. after   24 cycles

 The electronic state is 2-A.
 Alpha  occ. eigenvalues --  -38.45372 -38.44439 -38.43997 -38.43816 -38.43634
 Alpha  occ. eigenvalues --  -38.43630 -38.43602  -2.21124  -2.20328  -2.19980
 Alpha  occ. eigenvalues --   -2.19687  -2.19522  -2.19495  -2.19402  -1.14802
 Alpha  occ. eigenvalues --   -1.14788  -1.14754  -1.14026  -1.13960  -1.13935
 Alpha  occ. eigenvalues --   -1.13774  -1.13643  -1.13626  -1.13340  -1.13314
 Alpha  occ. eigenvalues --   -1.13279  -1.13208  -1.13186  -1.13161  -1.13158
 Alpha  occ. eigenvalues --   -1.13126  -1.13104  -1.13093  -1.13082  -1.13014
 Alpha  occ. eigenvalues --   -0.18575  -0.13637  -0.11744  -0.11133
 Alpha virt. eigenvalues --   -0.06885  -0.04933  -0.04362  -0.03341  -0.02872
 Alpha virt. eigenvalues --   -0.02686  -0.02431  -0.00830  -0.00670  -0.00199
 Alpha virt. eigenvalues --    0.00138   0.00206   0.00349   0.00711   0.00779

  Beta  occ. eigenvalues --  -38.45384 -38.44348 -38.43941 -38.43800 -38.43640
  Beta  occ. eigenvalues --  -38.43592 -38.43570  -2.21145  -2.20163  -2.19880
  Beta  occ. eigenvalues --   -2.19660  -2.19468  -2.19426  -2.19414  -1.14812
  Beta  occ. eigenvalues --   -1.14804  -1.14768  -1.13914  -1.13829  -1.13823
  Beta  occ. eigenvalues --   -1.13709  -1.13575  -1.13555  -1.13293  -1.13287
  Beta  occ. eigenvalues --   -1.13269  -1.13153  -1.13142  -1.13119  -1.13101
  Beta  occ. eigenvalues --   -1.13096  -1.13089  -1.13078  -1.13048  -1.13024
  Beta  occ. eigenvalues --   -0.17760  -0.13560  -0.10920
  Beta virt. eigenvalues --   -0.07598  -0.06713  -0.04914  -0.03767  -0.03031
  Beta virt. eigenvalues --   -0.02372  -0.02078  -0.01881  -0.00774  -0.00445
  Beta virt. eigenvalues --   -0.00124   0.00188   0.00279   0.00446   0.00789

 Mulliken charges and spin densities:
               1          2
     1  Na  -0.079072   0.005181
     2  Na   0.108365   0.043448
     3  Na   0.509550   0.467157
     4  Na  -0.383510  -0.113106
     5  Na   0.510246  -0.078554
     6  Na  -0.432223   0.110160
     7  Na  -0.233355   0.565714
 Sum of Mulliken charges =  -0.00000   1.00000

 Dipole moment (field-independent basis, Debye):
    X=              1.2246    Y=             -0.1230    Z=              0.3552  Tot=              1.2810
 Quadrupole moment (field-independent basis, Debye-Ang):
   XX=            -49.8667   YY=            -75.7422   ZZ=            -69.0432
   XY=              0.2865   XZ=              0.9614   YZ=             -2.5353

 Normal termination of Gaussian 16 at Thu Dec  7 06:54:14 2023.
