 Gaussian 16, Revision B.01,
 Gaussian 16:  ES64L-G16RevB.01 20-Dec-2017

 -------------------------
 #P B3LYP/6-311+g(d) force
 -------------------------

 -----
 DPGEN
 -----
 Symbolic Z-matrix:
 Charge =  0 Multiplicity = 2

                         Standard orientation:
 ---------------------------------------------------------------------
 Center     Atomic      Atomic             Coordinates (Angstroms)
 Number     Number       Type             X           Y           Z
 ---------------------------------------------------------------------
      1         11           0        2.476466    1.866467   -0.162762
      2         11           0       -0.829411    2.900054    0.159286
      3         11           0        2.650085   -1.808987    0.075703
      4         11           0       -3.431141    0.082817   -0.226929
      5         11           0        0.280087   -0.021662   -1.640239
      6         11           0       -1.044489   -2.715690   -0.209693
      7         11           0       -0.101597   -0.302998    2.004634
 ---------------------------------------------------------------------

 SCF Done:  E(UB3LYP) =  -1136.13765097     A.U. after   19 cycles

 The electronic state is 2-A.
 Alpha  occ. eigenvalues --  -38.44346 -38.43960 -38.43750 -38.43624 -38.43530
 Alpha  occ. eigenvalues --  -38.43443 -38.43205  -2.20114  -2.19778  -2.19591
 Alpha  occ. eigenvalues --   -2.19472  -2.19344  -2.19324  -2.19160  -1.13790
 Alpha  occ. eigenvalues --   -1.13766  -1.13758  -1.13453  -1.13443  -1.13417
 Alpha  occ. eigenvalues --   -1.13292  -1.13249  -1.13222  -1.13173  -1.13156
 Alpha  occ. eigenvalues --   -1.13081  -1.13019  -1.13019  -1.12990  -1.12975
 Alpha  occ. eigenvalues --   -1.12949  -1.12934  -1.12842  -1.12796  -1.12775
 Alpha  occ. eigenvalues --   -0.18342  -0.12807  -0.12489  -0.10473
 Alpha virt. eigenvalues --   -0.05834  -0.05296  -0.04854  -0.03012  -0.02868
 Alpha virt. eigenvalues --   -0.02399  -0.01701  -0.01247  -0.00576  -0.00504
 Alpha virt. eigenvalues --   -0.00016   0.00334   0.00763   0.00826   0.00852

  Beta  occ. eigenvalues --  -38.44345 -38.43956 -38.43746 -38.43615 -38.43527
  Beta  occ. eigenvalues --  -38.43349 -38.43143  -2.20113  -2.19774  -2.19586
  Beta  occ. eigenvalues --   -2.19460  -2.19340  -2.19151  -2.19047  -1.13778
  Beta  occ. eigenvalues --   -1.13765  -1.13760  -1.13445  -1.13428  -1.13412
  Beta  occ. eigenvalues --   -1.13281  -1.13230  -1.13223  -1.13164  -1.13118
  Beta  occ. eigenvalues --   -1.13076  -1.13015  -1.12996  -1.12976  -1.12879
  Beta  occ. eigenvalues --   -1.12830  -1.12810  -1.12762  -1.12713  -1.12694
  Beta  occ. eigenvalues --   -0.17624  -0.12585  -0.12273
  Beta virt. eigenvalues --   -0.06592  -0.05801  -0.05297  -0.04776  -0.02275
  Beta virt. eigenvalues --   -0.02110  -0.01618  -0.01355  -0.01176  -0.00625
  Beta virt. eigenvalues --   -0.00546   0.00129   0.00365   0.00811   0.00832

 Mulliken charges and spin densities:
               1          2
     1  Na   0.163834  -0.062465
     2  Na  -0.027825  -0.081186
     3  Na   0.214635  -0.079346
     4  Na  -0.051501  -0.070916
     5  Na  -0.096385   0.566041
     6  Na   0.174890  -0.087314
     7  Na  -0.377648   0.815186
 Sum of Mulliken charges =  -0.00000   1.00000

 Dipole moment (field-independent basis, Debye):
    X=             -0.0341    Y=             -0.1075    Z=              0.0666  Tot=              0.1310
 Quadrupole moment (field-independent basis, Debye-Ang):
   XX=            -54.7433   YY=            -61.7723   ZZ=            -75.9067
   XY=             -0.7570   XZ=              0.8686   YZ=              0.5666

 Normal termination of Gaussian 16 at Thu Dec  7 05:59:06 2023.
