 Gaussian 16, Revision B.01,
 Gaussian 16:  ES64L-G16RevB.01 20-Dec-2017

 -------------------------
 #P B3LYP/6-311+g(d) force
 -------------------------

 -----
 DPGEN
 -----
 Symbolic Z-matrix:
 Charge =  0 Multiplicity = 2

                         Standard orientation:
 ---------------------------------------------------------------------
 Center     Atomic      Atomic             Coordinates (Angstroms)
 Number     Number       Type             X           Y           Z
 ---------------------------------------------------------------------
      1         11           0       -3.179190    0.643485    0.268113
      2         11           0        2.711505   -1.936487    0.083812
      3         11           0        0.093728    0.273723    2.007639
      4         11           0        0.148061   -0.691516   -1.658453
      5         11           0       -0.473735    2.944275   -0.690044
      6         11           0        2.629246    1.401216    0.073319
      7         11           0       -1.929614   -2.634697   -0.084387
 ---------------------------------------------------------------------

 SCF Done:  E(UB3LYP) =  -1136.13461430     A.U. after   19 cycles

 The electronic state is 2-A.
 Alpha  occ. eigenvalues --  -38.44405 -38.44162 -38.43874 -38.43870 -38.43775
 Alpha  occ. eigenvalues --  -38.43310 -38.43168  -2.20198  -2.19982  -2.19737
 Alpha  occ. eigenvalues --   -2.19678  -2.19638  -2.19222  -2.18985  -1.13876
 Alpha  occ. eigenvalues --   -1.13855  -1.13838  -1.13663  -1.13638  -1.13634
 Alpha  occ. eigenvalues --   -1.13433  -1.13403  -1.13374  -1.13364  -1.13334
 Alpha  occ. eigenvalues --   -1.13312  -1.13305  -1.13266  -1.13251  -1.12903
 Alpha  occ. eigenvalues --   -1.12855  -1.12851  -1.12653  -1.12636  -1.12631
 Alpha  occ. eigenvalues --   -0.18177  -0.13203  -0.12171  -0.10553
 Alpha virt. eigenvalues --   -0.05976  -0.05490  -0.04617  -0.03305  -0.02896
 Alpha virt. eigenvalues --   -0.02379  -0.01703  -0.01241  -0.00693  -0.00404
 Alpha virt. eigenvalues --   -0.00016   0.00355   0.00706   0.00784   0.00857

  Beta  occ. eigenvalues --  -38.44401 -38.44161 -38.43870 -38.43867 -38.43690
  Beta  occ. eigenvalues --  -38.43250 -38.43149  -2.20193  -2.19982  -2.19729
  Beta  occ. eigenvalues --   -2.19680  -2.19481  -2.19113  -2.18951  -1.13857
  Beta  occ. eigenvalues --   -1.13851  -1.13840  -1.13662  -1.13637  -1.13619
  Beta  occ. eigenvalues --   -1.13418  -1.13378  -1.13367  -1.13355  -1.13330
  Beta  occ. eigenvalues --   -1.13312  -1.13201  -1.13160  -1.13137  -1.12827
  Beta  occ. eigenvalues --   -1.12777  -1.12770  -1.12624  -1.12615  -1.12602
  Beta  occ. eigenvalues --   -0.17474  -0.13001  -0.11931
  Beta virt. eigenvalues --   -0.06750  -0.05932  -0.05406  -0.04503  -0.02554
  Beta virt. eigenvalues --   -0.02212  -0.01602  -0.01426  -0.01148  -0.00727
  Beta virt. eigenvalues --   -0.00408   0.00133   0.00388   0.00763   0.00819

 Mulliken charges and spin densities:
               1          2
     1  Na   0.009023   0.025274
     2  Na   0.043133  -0.096980
     3  Na  -0.193641   0.567594
     4  Na   0.095828   0.452544
     5  Na  -0.175011   0.066307
     6  Na   0.241026   0.108193
     7  Na  -0.020358  -0.122932
 Sum of Mulliken charges =  -0.00000   1.00000

 Dipole moment (field-independent basis, Debye):
    X=             -0.0183    Y=             -0.3440    Z=              0.2025  Tot=              0.3995
 Quadrupole moment (field-independent basis, Debye-Ang):
   XX=            -55.0765   YY=            -63.2995   ZZ=            -75.1981
   XY=             -0.9366   XZ=             -0.0847   YZ=             -1.9958

 Normal termination of Gaussian 16 at Thu Dec  7 03:26:10 2023.
