 Gaussian 16, Revision B.01,
 Gaussian 16:  ES64L-G16RevB.01 20-Dec-2017

 -------------------------
 #P B3LYP/6-311+g(d) force
 -------------------------

 -----
 DPGEN
 -----
 Symbolic Z-matrix:
 Charge =  0 Multiplicity = 2

                         Standard orientation:
 ---------------------------------------------------------------------
 Center     Atomic      Atomic             Coordinates (Angstroms)
 Number     Number       Type             X           Y           Z
 ---------------------------------------------------------------------
      1         11           0       -2.709197   -2.260052   -0.682656
      2         11           0       -2.393269    0.870561   -1.477953
      3         11           0        0.262097   -1.025600    0.089881
      4         11           0        2.604911    1.312780   -1.270461
      5         11           0       -2.065269    0.252092    2.119414
      6         11           0        3.970049   -1.909894    0.514495
      7         11           0        0.330676    2.760112    0.707280
 ---------------------------------------------------------------------

 SCF Done:  E(UB3LYP) =  -1136.12335539     A.U. after   23 cycles

 The electronic state is 2-A.
 Alpha  occ. eigenvalues --  -38.44703 -38.44400 -38.44254 -38.44130 -38.44030
 Alpha  occ. eigenvalues --  -38.43617 -38.42978  -2.20553  -2.20201  -2.19995
 Alpha  occ. eigenvalues --   -2.19993  -2.19881  -2.19515  -2.18795  -1.14232
 Alpha  occ. eigenvalues --   -1.14205  -1.14169  -1.13888  -1.13876  -1.13802
 Alpha  occ. eigenvalues --   -1.13678  -1.13669  -1.13661  -1.13625  -1.13616
 Alpha  occ. eigenvalues --   -1.13594  -1.13560  -1.13538  -1.13511  -1.13239
 Alpha  occ. eigenvalues --   -1.13185  -1.13119  -1.12473  -1.12456  -1.12446
 Alpha  occ. eigenvalues --   -0.17918  -0.13544  -0.11561  -0.10792
 Alpha virt. eigenvalues --   -0.06542  -0.05633  -0.04658  -0.03036  -0.02838
 Alpha virt. eigenvalues --   -0.02506  -0.02008  -0.01379  -0.00859  -0.00459
 Alpha virt. eigenvalues --   -0.00085   0.00183   0.00197   0.00411   0.00640

  Beta  occ. eigenvalues --  -38.44651 -38.44382 -38.44252 -38.44041 -38.44018
  Beta  occ. eigenvalues --  -38.43602 -38.42977  -2.20458  -2.20168  -2.19990
  Beta  occ. eigenvalues --   -2.19862  -2.19829  -2.19492  -2.18797  -1.14164
  Beta  occ. eigenvalues --   -1.14140  -1.14092  -1.13865  -1.13856  -1.13776
  Beta  occ. eigenvalues --   -1.13666  -1.13657  -1.13615  -1.13561  -1.13550
  Beta  occ. eigenvalues --   -1.13520  -1.13509  -1.13493  -1.13472  -1.13182
  Beta  occ. eigenvalues --   -1.13175  -1.13112  -1.12477  -1.12453  -1.12429
  Beta  occ. eigenvalues --   -0.17255  -0.13298  -0.11324
  Beta virt. eigenvalues --   -0.07135  -0.06223  -0.05376  -0.04443  -0.02771
  Beta virt. eigenvalues --   -0.02348  -0.01998  -0.01516  -0.01249  -0.00594
  Beta virt. eigenvalues --   -0.00217   0.00061   0.00240   0.00302   0.00528

 Mulliken charges and spin densities:
               1          2
     1  Na   0.955201  -0.031916
     2  Na   0.066416   0.317760
     3  Na  -1.517910   0.485529
     4  Na   0.345826  -0.024596
     5  Na   0.161507   0.235670
     6  Na  -0.047070  -0.054463
     7  Na   0.036030   0.072017
 Sum of Mulliken charges =  -0.00000   1.00000

 Dipole moment (field-independent basis, Debye):
    X=             -0.4815    Y=              0.0145    Z=             -0.1303  Tot=              0.4991
 Quadrupole moment (field-independent basis, Debye-Ang):
   XX=            -55.4560   YY=            -67.9061   ZZ=            -70.2045
   XY=              1.7576   XZ=             -0.5109   YZ=             -1.8215

 Normal termination of Gaussian 16 at Tue Dec  5 18:22:36 2023.
