 Gaussian 16, Revision B.01,
 Gaussian 16:  ES64L-G16RevB.01 20-Dec-2017

 -------------------------
 #P B3LYP/6-311+g(d) force
 -------------------------

 -----
 DPGEN
 -----
 Symbolic Z-matrix:
 Charge =  0 Multiplicity = 2

                         Standard orientation:
 ---------------------------------------------------------------------
 Center     Atomic      Atomic             Coordinates (Angstroms)
 Number     Number       Type             X           Y           Z
 ---------------------------------------------------------------------
      1         11           0       -3.870412    0.916805    0.226091
      2         11           0       -2.327411   -2.470481   -0.410603
      3         11           0        2.219519    1.645334   -0.705804
      4         11           0       -0.092793   -0.570171    2.043259
      5         11           0        4.384047   -0.681673    0.579192
      6         11           0       -0.943795    2.317726   -0.145478
      7         11           0        0.630845   -1.157540   -1.586656
 ---------------------------------------------------------------------

 SCF Done:  E(UB3LYP) =  -1136.11394339     A.U. after   27 cycles

 The electronic state is 2-A.
 Alpha  occ. eigenvalues --  -38.46938 -38.44860 -38.44840 -38.43701 -38.43539
 Alpha  occ. eigenvalues --  -38.43469 -38.42629  -2.22669  -2.20649  -2.20619
 Alpha  occ. eigenvalues --   -2.19559  -2.19418  -2.19269  -2.18492  -1.16360
 Alpha  occ. eigenvalues --   -1.16323  -1.16293  -1.14302  -1.14299  -1.14295
 Alpha  occ. eigenvalues --   -1.14278  -1.14261  -1.14253  -1.13239  -1.13209
 Alpha  occ. eigenvalues --   -1.13198  -1.13094  -1.13083  -1.13050  -1.12945
 Alpha  occ. eigenvalues --   -1.12920  -1.12912  -1.12176  -1.12159  -1.12135
 Alpha  occ. eigenvalues --   -0.17686  -0.13737  -0.11528  -0.10670
 Alpha virt. eigenvalues --   -0.07893  -0.05284  -0.04441  -0.03233  -0.03180
 Alpha virt. eigenvalues --   -0.02537  -0.02351  -0.01647  -0.00963  -0.00462
 Alpha virt. eigenvalues --   -0.00293   0.00037   0.00261   0.00473   0.00655

  Beta  occ. eigenvalues --  -38.46928 -38.44842 -38.44782 -38.43636 -38.43517
  Beta  occ. eigenvalues --  -38.43461 -38.42617  -2.22650  -2.20621  -2.20502
  Beta  occ. eigenvalues --   -2.19441  -2.19385  -2.19257  -2.18473  -1.16342
  Beta  occ. eigenvalues --   -1.16309  -1.16278  -1.14303  -1.14279  -1.14255
  Beta  occ. eigenvalues --   -1.14203  -1.14191  -1.14164  -1.13161  -1.13128
  Beta  occ. eigenvalues --   -1.13119  -1.13068  -1.13035  -1.13003  -1.12936
  Beta  occ. eigenvalues --   -1.12909  -1.12897  -1.12167  -1.12151  -1.12094
  Beta  occ. eigenvalues --   -0.17127  -0.13300  -0.11286
  Beta virt. eigenvalues --   -0.07543  -0.07220  -0.05153  -0.03855  -0.03060
  Beta virt. eigenvalues --   -0.02891  -0.02093  -0.01853  -0.01446  -0.00738
  Beta virt. eigenvalues --   -0.00256  -0.00094   0.00063   0.00468   0.00626

 Mulliken charges and spin densities:
               1          2
     1  Na  -0.039636   0.076758
     2  Na   0.145756  -0.031094
     3  Na   0.322434   0.159480
     4  Na  -0.210487   0.210746
     5  Na   0.088744   0.417647
     6  Na  -0.141078  -0.087524
     7  Na  -0.165733   0.253987
 Sum of Mulliken charges =  -0.00000   1.00000

 Dipole moment (field-independent basis, Debye):
    X=             -0.2134    Y=             -0.5567    Z=              0.5509  Tot=              0.8117
 Quadrupole moment (field-independent basis, Debye-Ang):
   XX=            -55.4330   YY=            -76.7169   ZZ=            -67.9266
   XY=              1.9202   XZ=              0.0580   YZ=             -1.1180

 Normal termination of Gaussian 16 at Thu Dec  7 05:12:19 2023.
