 Gaussian 16, Revision B.01,
 Gaussian 16:  ES64L-G16RevB.01 20-Dec-2017

 -------------------------
 #P B3LYP/6-311+g(d) force
 -------------------------

 -----
 DPGEN
 -----
 Symbolic Z-matrix:
 Charge =  0 Multiplicity = 2

                         Standard orientation:
 ---------------------------------------------------------------------
 Center     Atomic      Atomic             Coordinates (Angstroms)
 Number     Number       Type             X           Y           Z
 ---------------------------------------------------------------------
      1         11           0       -0.004497    0.146974   -1.983111
      2         11           0        0.001152   -1.754646    0.000469
      3         11           0       -2.458622   -0.826588    0.001269
      4         11           0       -1.342032    1.555240    0.001269
      5         11           0        0.001603    0.147574    1.983969
      6         11           0        1.341468    1.556708   -0.001931
      7         11           0        2.460928   -0.825263   -0.001931
 ---------------------------------------------------------------------

 SCF Done:  E(UB3LYP) =  -1136.04675963     A.U. after   21 cycles

 The electronic state is 2-A.
 Alpha  occ. eigenvalues --  -38.45175 -38.45175 -38.44360 -38.44360 -38.43778
 Alpha  occ. eigenvalues --  -38.43772 -38.43603  -2.21411  -2.21410  -2.20495
 Alpha  occ. eigenvalues --   -2.20491  -2.20103  -2.20024  -2.19935  -1.15291
 Alpha  occ. eigenvalues --   -1.15211  -1.15095  -1.15079  -1.15017  -1.15008
 Alpha  occ. eigenvalues --   -1.14523  -1.14463  -1.14390  -1.14265  -1.14053
 Alpha  occ. eigenvalues --   -1.14040  -1.14008  -1.13687  -1.13635  -1.13565
 Alpha  occ. eigenvalues --   -1.13562  -1.13539  -1.13493  -1.13384  -1.13346
 Alpha  occ. eigenvalues --   -0.22380  -0.14190  -0.13228  -0.12463
 Alpha virt. eigenvalues --   -0.05356  -0.04200  -0.03965  -0.03861  -0.03280
 Alpha virt. eigenvalues --   -0.02995  -0.01100  -0.00319  -0.00216   0.00295
 Alpha virt. eigenvalues --    0.00819   0.00988   0.01143   0.01159   0.01234

  Beta  occ. eigenvalues --  -38.45067 -38.45067 -38.44352 -38.44352 -38.43758
  Beta  occ. eigenvalues --  -38.43752 -38.43580  -2.21217  -2.21216  -2.20486
  Beta  occ. eigenvalues --   -2.20482  -2.20077  -2.19998  -2.19903  -1.15180
  Beta  occ. eigenvalues --   -1.15089  -1.14949  -1.14939  -1.14882  -1.14863
  Beta  occ. eigenvalues --   -1.14517  -1.14461  -1.14388  -1.14262  -1.13999
  Beta  occ. eigenvalues --   -1.13997  -1.13987  -1.13589  -1.13558  -1.13555
  Beta  occ. eigenvalues --   -1.13536  -1.13483  -1.13429  -1.13376  -1.13338
  Beta  occ. eigenvalues --   -0.21439  -0.13775  -0.12067
  Beta virt. eigenvalues --   -0.08938  -0.05376  -0.03858  -0.03565  -0.03166
  Beta virt. eigenvalues --   -0.02334  -0.02317  -0.01015  -0.00194  -0.00104
  Beta virt. eigenvalues --    0.00321   0.00871   0.00992   0.01153   0.01219

 Mulliken charges and spin densities:
               1          2
     1  Na   0.278190   0.516933
     2  Na  -0.135009   0.023400
     3  Na  -0.064984   0.002821
     4  Na  -0.142701  -0.031236
     5  Na   0.276964   0.516776
     6  Na  -0.142959  -0.030955
     7  Na  -0.069501   0.002261
 Sum of Mulliken charges =  -0.00000   1.00000

 Dipole moment (field-independent basis, Debye):
    X=              0.0027    Y=             -0.1204    Z=              0.0016  Tot=              0.1204
 Quadrupole moment (field-independent basis, Debye-Ang):
   XX=            -60.3296   YY=            -75.6482   ZZ=            -63.5303
   XY=              0.0034   XZ=             -0.0096   YZ=             -0.0016

 Normal termination of Gaussian 16 at Sat Dec  9 05:32:44 2023.
