 Gaussian 16, Revision B.01,
 Gaussian 16:  ES64L-G16RevB.01 20-Dec-2017

 -------------------------
 #P B3LYP/6-311+g(d) force
 -------------------------

 -----
 DPGEN
 -----
 Symbolic Z-matrix:
 Charge =  0 Multiplicity = 2

                         Standard orientation:
 ---------------------------------------------------------------------
 Center     Atomic      Atomic             Coordinates (Angstroms)
 Number     Number       Type             X           Y           Z
 ---------------------------------------------------------------------
      1         11           0        1.304951    1.880780   -0.729780
      2         11           0        1.987980   -1.530609   -0.663150
      3         11           0       -4.147216   -0.470496    0.564913
      4         11           0       -2.021066    1.918326   -0.602283
      5         11           0       -0.193180   -0.056407    2.071945
      6         11           0       -1.507873   -1.721429   -1.106607
      7         11           0        4.576404   -0.020165    0.464962
 ---------------------------------------------------------------------

 SCF Done:  E(UB3LYP) =  -1136.11439070     A.U. after   27 cycles

 The electronic state is 2-A.
 Alpha  occ. eigenvalues --  -38.47282 -38.44093 -38.43881 -38.43682 -38.43246
 Alpha  occ. eigenvalues --  -38.43220 -38.43192  -2.23047  -2.19925  -2.19728
 Alpha  occ. eigenvalues --   -2.19521  -2.19120  -2.19083  -2.19038  -1.16705
 Alpha  occ. eigenvalues --   -1.16694  -1.16669  -1.13576  -1.13566  -1.13540
 Alpha  occ. eigenvalues --   -1.13387  -1.13371  -1.13362  -1.13214  -1.13180
 Alpha  occ. eigenvalues --   -1.13152  -1.12829  -1.12799  -1.12789  -1.12760
 Alpha  occ. eigenvalues --   -1.12749  -1.12736  -1.12717  -1.12693  -1.12625
 Alpha  occ. eigenvalues --   -0.17989  -0.14359  -0.10992  -0.10701
 Alpha virt. eigenvalues --   -0.08015  -0.04906  -0.04580  -0.03364  -0.03131
 Alpha virt. eigenvalues --   -0.02249  -0.02035  -0.01573  -0.01447  -0.00496
 Alpha virt. eigenvalues --   -0.00265   0.00144   0.00216   0.00615   0.00694

  Beta  occ. eigenvalues --  -38.47252 -38.44007 -38.43821 -38.43672 -38.43238
  Beta  occ. eigenvalues --  -38.43209 -38.43188  -2.22993  -2.19764  -2.19616
  Beta  occ. eigenvalues --   -2.19508  -2.19114  -2.19065  -2.19033  -1.16674
  Beta  occ. eigenvalues --   -1.16651  -1.16628  -1.13471  -1.13455  -1.13432
  Beta  occ. eigenvalues --   -1.13310  -1.13298  -1.13286  -1.13207  -1.13168
  Beta  occ. eigenvalues --   -1.13113  -1.12827  -1.12792  -1.12782  -1.12738
  Beta  occ. eigenvalues --   -1.12732  -1.12703  -1.12698  -1.12686  -1.12610
  Beta  occ. eigenvalues --   -0.17456  -0.13593  -0.10773
  Beta virt. eigenvalues --   -0.07825  -0.07233  -0.04683  -0.04030  -0.03037
  Beta virt. eigenvalues --   -0.02971  -0.02117  -0.01890  -0.00986  -0.00957
  Beta virt. eigenvalues --   -0.00157  -0.00125   0.00222   0.00324   0.00699

 Mulliken charges and spin densities:
               1          2
     1  Na  -0.277277   0.007469
     2  Na  -0.517816   0.105292
     3  Na   0.728992   0.435810
     4  Na  -0.234284   0.135086
     5  Na  -0.182999  -0.070483
     6  Na  -0.395136  -0.105862
     7  Na   0.878520   0.492687
 Sum of Mulliken charges =  -0.00000   1.00000

 Dipole moment (field-independent basis, Debye):
    X=             -0.2420    Y=              0.0039    Z=              1.8424  Tot=              1.8582
 Quadrupole moment (field-independent basis, Debye-Ang):
   XX=            -68.9692   YY=            -81.7352   ZZ=            -56.1286
   XY=              1.2499   XZ=             -0.1419   YZ=             -1.2376

 Normal termination of Gaussian 16 at Thu Dec  7 16:56:57 2023.
