 Gaussian 16, Revision B.01,
 Gaussian 16:  ES64L-G16RevB.01 20-Dec-2017

 -------------------------
 #P B3LYP/6-311+g(d) force
 -------------------------

 -----
 DPGEN
 -----
 Symbolic Z-matrix:
 Charge =  0 Multiplicity = 2

                         Standard orientation:
 ---------------------------------------------------------------------
 Center     Atomic      Atomic             Coordinates (Angstroms)
 Number     Number       Type             X           Y           Z
 ---------------------------------------------------------------------
      1         11           0        1.622944   -1.428344    0.431051
      2         11           0        4.866143   -1.512833   -0.085963
      3         11           0        2.337203    0.861788   -1.360502
      4         11           0       -1.016353    2.158555   -0.988377
      5         11           0       -2.446359   -0.842123    0.818180
      6         11           0        0.258617    2.055638    1.795885
      7         11           0       -5.622194   -1.292681   -0.610275
 ---------------------------------------------------------------------

 SCF Done:  E(UB3LYP) =  -1136.11291093     A.U. after   22 cycles

 The electronic state is 2-A.
 Alpha  occ. eigenvalues --  -38.45144 -38.44794 -38.44681 -38.44572 -38.44527
 Alpha  occ. eigenvalues --  -38.43396 -38.43140  -2.20933  -2.20626  -2.20563
 Alpha  occ. eigenvalues --   -2.20448  -2.20377  -2.19156  -2.18925  -1.14607
 Alpha  occ. eigenvalues --   -1.14599  -1.14563  -1.14379  -1.14352  -1.14276
 Alpha  occ. eigenvalues --   -1.14257  -1.14227  -1.14143  -1.14127  -1.14091
 Alpha  occ. eigenvalues --   -1.14048  -1.14016  -1.14003  -1.13971  -1.12817
 Alpha  occ. eigenvalues --   -1.12815  -1.12781  -1.12629  -1.12617  -1.12529
 Alpha  occ. eigenvalues --   -0.17691  -0.13819  -0.11753  -0.10420
 Alpha virt. eigenvalues --   -0.07028  -0.06120  -0.04601  -0.03252  -0.02990
 Alpha virt. eigenvalues --   -0.02414  -0.02005  -0.01769  -0.01200  -0.00599
 Alpha virt. eigenvalues --   -0.00363  -0.00050   0.00266   0.00349   0.00502

  Beta  occ. eigenvalues --  -38.45144 -38.44777 -38.44647 -38.44522 -38.44500
  Beta  occ. eigenvalues --  -38.43364 -38.43137  -2.20934  -2.20596  -2.20500
  Beta  occ. eigenvalues --   -2.20357  -2.20326  -2.19096  -2.18923  -1.14603
  Beta  occ. eigenvalues --   -1.14600  -1.14562  -1.14332  -1.14327  -1.14258
  Beta  occ. eigenvalues --   -1.14216  -1.14185  -1.14091  -1.14064  -1.14030
  Beta  occ. eigenvalues --   -1.14011  -1.13978  -1.13950  -1.13911  -1.12776
  Beta  occ. eigenvalues --   -1.12774  -1.12743  -1.12632  -1.12619  -1.12499
  Beta  occ. eigenvalues --   -0.17071  -0.13699  -0.11366
  Beta virt. eigenvalues --   -0.06927  -0.06780  -0.05833  -0.04084  -0.03125
  Beta virt. eigenvalues --   -0.02645  -0.02266  -0.01682  -0.01386  -0.00818
  Beta virt. eigenvalues --   -0.00396  -0.00232   0.00163   0.00382   0.00454

 Mulliken charges and spin densities:
               1          2
     1  Na  -0.665686   0.278374
     2  Na   1.113875   0.108068
     3  Na  -0.102010   0.233012
     4  Na   0.082267   0.224235
     5  Na  -0.760648  -0.229217
     6  Na   0.307356   0.195142
     7  Na   0.024846   0.190387
 Sum of Mulliken charges =  -0.00000   1.00000

 Dipole moment (field-independent basis, Debye):
    X=              3.2517    Y=              0.8164    Z=              0.4210  Tot=              3.3789
 Quadrupole moment (field-independent basis, Debye-Ang):
   XX=            -56.9407   YY=            -69.1292   ZZ=            -70.6071
   XY=             -7.1838   XZ=              4.3685   YZ=              3.3544

 Normal termination of Gaussian 16 at Tue Nov 28 18:56:02 2023.
