 Gaussian 16, Revision B.01,
 Gaussian 16:  ES64L-G16RevB.01 20-Dec-2017

 -------------------------
 #P B3LYP/6-311+g(d) force
 -------------------------

 -----
 DPGEN
 -----
 Symbolic Z-matrix:
 Charge =  0 Multiplicity = 2

                         Standard orientation:
 ---------------------------------------------------------------------
 Center     Atomic      Atomic             Coordinates (Angstroms)
 Number     Number       Type             X           Y           Z
 ---------------------------------------------------------------------
      1         11           0       -1.010379   -2.539492    0.277241
      2         11           0        2.289959   -1.809433   -0.173693
      3         11           0        2.771486    1.369373   -0.087569
      4         11           0       -0.040705    0.177014    1.991725
      5         11           0       -0.164510   -0.026027   -1.793159
      6         11           0       -2.993277   -0.092010   -0.244653
      7         11           0       -0.852575    2.920575    0.030108
 ---------------------------------------------------------------------

 SCF Done:  E(UB3LYP) =  -1136.13919727     A.U. after   19 cycles

 The electronic state is 2-A.
 Alpha  occ. eigenvalues --  -38.43928 -38.43873 -38.43567 -38.43459 -38.43405
 Alpha  occ. eigenvalues --  -38.43400 -38.43048  -2.19759  -2.19754  -2.19483
 Alpha  occ. eigenvalues --   -2.19366  -2.19284  -2.19280  -2.18969  -1.13461
 Alpha  occ. eigenvalues --   -1.13443  -1.13428  -1.13419  -1.13395  -1.13382
 Alpha  occ. eigenvalues --   -1.13159  -1.13118  -1.13104  -1.13051  -1.13015
 Alpha  occ. eigenvalues --   -1.12997  -1.12953  -1.12942  -1.12938  -1.12932
 Alpha  occ. eigenvalues --   -1.12930  -1.12912  -1.12644  -1.12621  -1.12605
 Alpha  occ. eigenvalues --   -0.18921  -0.13114  -0.12438  -0.10993
 Alpha virt. eigenvalues --   -0.05580  -0.04962  -0.04618  -0.03274  -0.02987
 Alpha virt. eigenvalues --   -0.02710  -0.01400  -0.01049  -0.00285  -0.00137
 Alpha virt. eigenvalues --    0.00001   0.00378   0.00850   0.00900   0.00944

  Beta  occ. eigenvalues --  -38.43926 -38.43864 -38.43476 -38.43456 -38.43400
  Beta  occ. eigenvalues --  -38.43326 -38.43038  -2.19758  -2.19743  -2.19316
  Beta  occ. eigenvalues --   -2.19279  -2.19278  -2.19232  -2.18954  -1.13449
  Beta  occ. eigenvalues --   -1.13445  -1.13410  -1.13395  -1.13392  -1.13373
  Beta  occ. eigenvalues --   -1.13052  -1.13005  -1.12989  -1.12977  -1.12957
  Beta  occ. eigenvalues --   -1.12938  -1.12933  -1.12928  -1.12913  -1.12912
  Beta  occ. eigenvalues --   -1.12888  -1.12875  -1.12636  -1.12601  -1.12575
  Beta  occ. eigenvalues --   -0.18162  -0.12865  -0.12192
  Beta virt. eigenvalues --   -0.07049  -0.05568  -0.04938  -0.04593  -0.02463
  Beta virt. eigenvalues --   -0.02184  -0.01648  -0.01310  -0.00979  -0.00341
  Beta virt. eigenvalues --   -0.00169   0.00115   0.00395   0.00875   0.00915

 Mulliken charges and spin densities:
               1          2
     1  Na   0.280848   0.047252
     2  Na   0.124838  -0.031100
     3  Na   0.025065  -0.117819
     4  Na  -0.434970   0.715509
     5  Na  -0.286524   0.581039
     6  Na   0.298029  -0.040297
     7  Na  -0.007286  -0.154585
 Sum of Mulliken charges =  -0.00000   1.00000

 Dipole moment (field-independent basis, Debye):
    X=              0.0174    Y=              0.2805    Z=              0.0400  Tot=              0.2839
 Quadrupole moment (field-independent basis, Debye-Ang):
   XX=            -58.1152   YY=            -63.0832   ZZ=            -73.0568
   XY=              0.1986   XZ=             -0.1138   YZ=             -0.4294

 Normal termination of Gaussian 16 at Thu Dec  7 08:18:16 2023.
