 Gaussian 16, Revision B.01,
 Gaussian 16:  ES64L-G16RevB.01 20-Dec-2017

 -------------------------
 #P B3LYP/6-311+g(d) force
 -------------------------

 -----
 DPGEN
 -----
 Symbolic Z-matrix:
 Charge =  0 Multiplicity = 2

                         Standard orientation:
 ---------------------------------------------------------------------
 Center     Atomic      Atomic             Coordinates (Angstroms)
 Number     Number       Type             X           Y           Z
 ---------------------------------------------------------------------
      1         11           0        0.234920    0.140599   -1.776247
      2         11           0        0.127861    3.118636    0.333231
      3         11           0       -2.890170    1.074596    0.005109
      4         11           0       -2.556313   -2.168845   -0.338378
      5         11           0        2.923267    1.022866   -0.251616
      6         11           0        2.170985   -2.701770    0.128978
      7         11           0       -0.010549   -0.486082    1.898923
 ---------------------------------------------------------------------

 SCF Done:  E(UB3LYP) =  -1136.13450670     A.U. after   21 cycles

 The electronic state is 2-A.
 Alpha  occ. eigenvalues --  -38.44176 -38.44142 -38.44055 -38.43910 -38.43601
 Alpha  occ. eigenvalues --  -38.43561 -38.43313  -2.20010  -2.19943  -2.19825
 Alpha  occ. eigenvalues --   -2.19743  -2.19496  -2.19419  -2.19130  -1.13719
 Alpha  occ. eigenvalues --   -1.13671  -1.13623  -1.13619  -1.13606  -1.13587
 Alpha  occ. eigenvalues --   -1.13499  -1.13484  -1.13468  -1.13415  -1.13406
 Alpha  occ. eigenvalues --   -1.13375  -1.13180  -1.13129  -1.13114  -1.13095
 Alpha  occ. eigenvalues --   -1.13052  -1.13034  -1.12799  -1.12789  -1.12777
 Alpha  occ. eigenvalues --   -0.18041  -0.13096  -0.12175  -0.10423
 Alpha virt. eigenvalues --   -0.05882  -0.05472  -0.04907  -0.03190  -0.02833
 Alpha virt. eigenvalues --   -0.02344  -0.01631  -0.01444  -0.00759  -0.00537
 Alpha virt. eigenvalues --   -0.00024   0.00342   0.00746   0.00763   0.00811

  Beta  occ. eigenvalues --  -38.44166 -38.44135 -38.44055 -38.43906 -38.43533
  Beta  occ. eigenvalues --  -38.43482 -38.43306  -2.19995  -2.19931  -2.19827
  Beta  occ. eigenvalues --   -2.19739  -2.19371  -2.19273  -2.19120  -1.13699
  Beta  occ. eigenvalues --   -1.13647  -1.13619  -1.13615  -1.13585  -1.13577
  Beta  occ. eigenvalues --   -1.13489  -1.13482  -1.13470  -1.13408  -1.13396
  Beta  occ. eigenvalues --   -1.13365  -1.13094  -1.13035  -1.13028  -1.12996
  Beta  occ. eigenvalues --   -1.12950  -1.12925  -1.12788  -1.12783  -1.12759
  Beta  occ. eigenvalues --   -0.17346  -0.12860  -0.11959
  Beta virt. eigenvalues --   -0.06658  -0.05841  -0.05337  -0.04852  -0.02458
  Beta virt. eigenvalues --   -0.02139  -0.01539  -0.01445  -0.01260  -0.00794
  Beta virt. eigenvalues --   -0.00574   0.00123   0.00381   0.00757   0.00832

 Mulliken charges and spin densities:
               1          2
     1  Na   0.001657   0.487179
     2  Na  -0.099854   0.004245
     3  Na   0.065854   0.013284
     4  Na   0.052932  -0.068964
     5  Na   0.241635   0.004860
     6  Na  -0.038621  -0.148783
     7  Na  -0.223603   0.708179
 Sum of Mulliken charges =  -0.00000   1.00000

 Dipole moment (field-independent basis, Debye):
    X=              0.0759    Y=             -0.3139    Z=             -0.0397  Tot=              0.3254
 Quadrupole moment (field-independent basis, Debye-Ang):
   XX=            -57.2382   YY=            -60.2374   ZZ=            -75.8530
   XY=              0.1352   XZ=              0.3202   YZ=              1.6986

 Normal termination of Gaussian 16 at Thu Dec  7 04:06:32 2023.
