 Gaussian 16, Revision B.01,
 Gaussian 16:  ES64L-G16RevB.01 20-Dec-2017

 -------------------------
 #P B3LYP/6-311+g(d) force
 -------------------------

 -----
 DPGEN
 -----
 Symbolic Z-matrix:
 Charge =  0 Multiplicity = 2

                         Standard orientation:
 ---------------------------------------------------------------------
 Center     Atomic      Atomic             Coordinates (Angstroms)
 Number     Number       Type             X           Y           Z
 ---------------------------------------------------------------------
      1         11           0        3.496352   -0.205799    0.017783
      2         11           0       -0.227346   -0.493685   -1.600381
      3         11           0       -3.027202   -1.505610   -0.251310
      4         11           0       -0.413858    0.198765    2.104230
      5         11           0       -2.046551    2.183495   -0.030645
      6         11           0        1.280267    2.242155   -0.449641
      7         11           0        0.938339   -2.419320    0.209963
 ---------------------------------------------------------------------

 SCF Done:  E(UB3LYP) =  -1136.13119751     A.U. after   21 cycles

 The electronic state is 2-A.
 Alpha  occ. eigenvalues --  -38.44531 -38.44415 -38.43676 -38.43502 -38.43471
 Alpha  occ. eigenvalues --  -38.43437 -38.42997  -2.20338  -2.20217  -2.19568
 Alpha  occ. eigenvalues --   -2.19441  -2.19368  -2.19361  -2.18884  -1.14011
 Alpha  occ. eigenvalues --   -1.14000  -1.13982  -1.13905  -1.13865  -1.13855
 Alpha  occ. eigenvalues --   -1.13321  -1.13235  -1.13211  -1.13183  -1.13099
 Alpha  occ. eigenvalues --   -1.13047  -1.13029  -1.13026  -1.13014  -1.12994
 Alpha  occ. eigenvalues --   -1.12961  -1.12940  -1.12575  -1.12544  -1.12508
 Alpha  occ. eigenvalues --   -0.18722  -0.13216  -0.12206  -0.10842
 Alpha virt. eigenvalues --   -0.06249  -0.05204  -0.04024  -0.03261  -0.02848
 Alpha virt. eigenvalues --   -0.02590  -0.02058  -0.01146  -0.00253  -0.00102
 Alpha virt. eigenvalues --    0.00002   0.00277   0.00743   0.00851   0.00868

  Beta  occ. eigenvalues --  -38.44534 -38.44408 -38.43576 -38.43497 -38.43460
  Beta  occ. eigenvalues --  -38.43378 -38.42985  -2.20346  -2.20208  -2.19385
  Beta  occ. eigenvalues --   -2.19362  -2.19356  -2.19325  -2.18865  -1.14018
  Beta  occ. eigenvalues --   -1.13992  -1.13988  -1.13885  -1.13854  -1.13850
  Beta  occ. eigenvalues --   -1.13273  -1.13123  -1.13091  -1.13058  -1.13038
  Beta  occ. eigenvalues --   -1.13007  -1.12995  -1.12990  -1.12978  -1.12974
  Beta  occ. eigenvalues --   -1.12932  -1.12900  -1.12559  -1.12516  -1.12494
  Beta  occ. eigenvalues --   -0.17993  -0.13014  -0.11952
  Beta virt. eigenvalues --   -0.06896  -0.06186  -0.05175  -0.03995  -0.02526
  Beta virt. eigenvalues --   -0.02069  -0.01981  -0.01511  -0.01101  -0.00278
  Beta virt. eigenvalues --   -0.00047   0.00090   0.00307   0.00803   0.00857

 Mulliken charges and spin densities:
               1          2
     1  Na  -0.104182  -0.052323
     2  Na  -0.500865   0.401864
     3  Na   0.256630  -0.060899
     4  Na  -0.559633   0.638164
     5  Na   0.215077  -0.012729
     6  Na   0.230682   0.042069
     7  Na   0.462291   0.043854
 Sum of Mulliken charges =  -0.00000   1.00000

 Dipole moment (field-independent basis, Debye):
    X=             -0.1413    Y=             -0.1830    Z=              0.2218  Tot=              0.3204
 Quadrupole moment (field-independent basis, Debye-Ang):
   XX=            -50.7121   YY=            -68.2069   ZZ=            -73.9650
   XY=              0.1099   XZ=              0.4461   YZ=             -1.2049

 Normal termination of Gaussian 16 at Thu Dec  7 05:15:41 2023.
