 Gaussian 16, Revision B.01,
 Gaussian 16:  ES64L-G16RevB.01 20-Dec-2017

 -------------------------
 #P B3LYP/6-311+g(d) force
 -------------------------

 -----
 DPGEN
 -----
 Symbolic Z-matrix:
 Charge =  0 Multiplicity = 2

                         Standard orientation:
 ---------------------------------------------------------------------
 Center     Atomic      Atomic             Coordinates (Angstroms)
 Number     Number       Type             X           Y           Z
 ---------------------------------------------------------------------
      1         11           0       -1.250088    3.074207   -0.044387
      2         11           0        2.926595   -1.811643   -0.541387
      3         11           0        5.416099   -0.236593   -0.520263
      4         11           0       -4.563470    1.291899   -0.685925
      5         11           0        2.313306    2.562918    0.914017
      6         11           0       -0.658141   -2.844334    0.787177
      7         11           0       -4.184300   -2.036454    0.090767
 ---------------------------------------------------------------------

 SCF Done:  E(UB3LYP) =  -1136.10387038     A.U. after   22 cycles

 The electronic state is 2-A.
 Alpha  occ. eigenvalues --  -38.45461 -38.44825 -38.44747 -38.44692 -38.44587
 Alpha  occ. eigenvalues --  -38.44224 -38.44198  -2.21202  -2.20635  -2.20495
 Alpha  occ. eigenvalues --   -2.20474  -2.20425  -2.19996  -2.19921  -1.14875
 Alpha  occ. eigenvalues --   -1.14857  -1.14804  -1.14402  -1.14301  -1.14286
 Alpha  occ. eigenvalues --   -1.14184  -1.14182  -1.14155  -1.14137  -1.14112
 Alpha  occ. eigenvalues --   -1.14084  -1.14054  -1.14047  -1.14022  -1.13654
 Alpha  occ. eigenvalues --   -1.13648  -1.13618  -1.13611  -1.13606  -1.13553
 Alpha  occ. eigenvalues --   -0.15472  -0.14142  -0.12589  -0.11300
 Alpha virt. eigenvalues --   -0.07407  -0.05423  -0.04466  -0.03541  -0.03363
 Alpha virt. eigenvalues --   -0.02554  -0.02273  -0.01702  -0.01324  -0.01172
 Alpha virt. eigenvalues --   -0.00619  -0.00394  -0.00233   0.00489   0.00510

  Beta  occ. eigenvalues --  -38.45404 -38.44813 -38.44768 -38.44638 -38.44533
  Beta  occ. eigenvalues --  -38.44219 -38.44148  -2.21096  -2.20618  -2.20539
  Beta  occ. eigenvalues --   -2.20372  -2.20324  -2.19963  -2.19854  -1.14804
  Beta  occ. eigenvalues --   -1.14787  -1.14723  -1.14345  -1.14294  -1.14275
  Beta  occ. eigenvalues --   -1.14217  -1.14203  -1.14158  -1.14067  -1.14049
  Beta  occ. eigenvalues --   -1.14027  -1.13985  -1.13974  -1.13962  -1.13650
  Beta  occ. eigenvalues --   -1.13641  -1.13561  -1.13557  -1.13551  -1.13515
  Beta  occ. eigenvalues --   -0.14842  -0.13662  -0.11930
  Beta virt. eigenvalues --   -0.08107  -0.07369  -0.04892  -0.04051  -0.03341
  Beta virt. eigenvalues --   -0.03039  -0.02386  -0.02203  -0.01350  -0.00958
  Beta virt. eigenvalues --   -0.00853  -0.00547  -0.00201   0.00015   0.00527

 Mulliken charges and spin densities:
               1          2
     1  Na  -0.196443  -0.141241
     2  Na  -0.830816   0.169782
     3  Na   0.992392   0.180767
     4  Na   0.062958   0.294394
     5  Na   0.161723   0.240444
     6  Na  -0.370243   0.300289
     7  Na   0.180428  -0.044434
 Sum of Mulliken charges =  -0.00000   1.00000

 Dipole moment (field-independent basis, Debye):
    X=              0.7633    Y=              0.2659    Z=             -0.0226  Tot=              0.8086
 Quadrupole moment (field-independent basis, Debye-Ang):
   XX=            -52.0013   YY=            -71.8361   ZZ=            -73.1243
   XY=              4.6696   XZ=              2.1604   YZ=              0.1300

 Normal termination of Gaussian 16 at Sun Dec  3 23:45:07 2023.
