 Gaussian 16, Revision B.01,
 Gaussian 16:  ES64L-G16RevB.01 20-Dec-2017

 -------------------------
 #P B3LYP/6-311+g(d) force
 -------------------------

 -----
 DPGEN
 -----
 Symbolic Z-matrix:
 Charge =  0 Multiplicity = 2

                         Standard orientation:
 ---------------------------------------------------------------------
 Center     Atomic      Atomic             Coordinates (Angstroms)
 Number     Number       Type             X           Y           Z
 ---------------------------------------------------------------------
      1         11           0        0.127201    0.594097   -1.398279
      2         11           0       -2.335072   -0.921647    0.290221
      3         11           0        0.059314   -0.172405    1.604071
      4         11           0        2.323940   -1.038865    0.027621
      5         11           0       -1.871017    1.590761   -0.106879
      6         11           0       -0.087358   -1.746067   -0.662579
      7         11           0        1.782992    1.694126    0.245821
 ---------------------------------------------------------------------

 SCF Done:  E(UB3LYP) =  -1136.03319875     A.U. after   19 cycles

 The electronic state is 2-A.
 Alpha  occ. eigenvalues --  -38.44954 -38.44899 -38.44638 -38.44446 -38.44401
 Alpha  occ. eigenvalues --  -38.44161 -38.44041  -2.21470  -2.21132  -2.20985
 Alpha  occ. eigenvalues --   -2.20580  -2.20579  -2.20404  -2.20288  -1.15704
 Alpha  occ. eigenvalues --   -1.15402  -1.15296  -1.15207  -1.15044  -1.14891
 Alpha  occ. eigenvalues --   -1.14696  -1.14461  -1.14402  -1.14306  -1.14193
 Alpha  occ. eigenvalues --   -1.14163  -1.14122  -1.14080  -1.14056  -1.14016
 Alpha  occ. eigenvalues --   -1.14008  -1.13901  -1.13881  -1.13792  -1.13765
 Alpha  occ. eigenvalues --   -0.22227  -0.14697  -0.12686  -0.12234
 Alpha virt. eigenvalues --   -0.05637  -0.04555  -0.04031  -0.03772  -0.02753
 Alpha virt. eigenvalues --   -0.02439  -0.01347  -0.00519  -0.00012   0.00300
 Alpha virt. eigenvalues --    0.00737   0.00840   0.00954   0.01115   0.01130

  Beta  occ. eigenvalues --  -38.44883 -38.44870 -38.44599 -38.44433 -38.44388
  Beta  occ. eigenvalues --  -38.44148 -38.43953  -2.21329  -2.21103  -2.20927
  Beta  occ. eigenvalues --   -2.20563  -2.20561  -2.20278  -2.20238  -1.15616
  Beta  occ. eigenvalues --   -1.15347  -1.15202  -1.15158  -1.15016  -1.14836
  Beta  occ. eigenvalues --   -1.14625  -1.14418  -1.14363  -1.14241  -1.14136
  Beta  occ. eigenvalues --   -1.14117  -1.14069  -1.14035  -1.14013  -1.13990
  Beta  occ. eigenvalues --   -1.13926  -1.13842  -1.13798  -1.13760  -1.13713
  Beta  occ. eigenvalues --   -0.21414  -0.14270  -0.12371
  Beta virt. eigenvalues --   -0.07920  -0.05672  -0.04525  -0.03694  -0.02986
  Beta virt. eigenvalues --   -0.01939  -0.01336  -0.01242  -0.00501   0.00132
  Beta virt. eigenvalues --    0.00334   0.00733   0.00824   0.00971   0.01121

 Mulliken charges and spin densities:
               1          2
     1  Na  -0.636046   0.204954
     2  Na   0.255620   0.163604
     3  Na  -0.566585   0.378568
     4  Na   0.127396   0.053932
     5  Na   0.042281   0.014143
     6  Na   0.670338   0.166865
     7  Na   0.106995   0.017935
 Sum of Mulliken charges =  -0.00000   1.00000

 Dipole moment (field-independent basis, Debye):
    X=              0.0502    Y=              0.3280    Z=              0.4382  Tot=              0.5497
 Quadrupole moment (field-independent basis, Debye-Ang):
   XX=            -56.5920   YY=            -70.7653   ZZ=            -70.6137
   XY=             -0.1903   XZ=              0.0300   YZ=              0.6905

 Normal termination of Gaussian 16 at Sat Dec  9 07:00:46 2023.
