 Gaussian 16, Revision B.01,
 Gaussian 16:  ES64L-G16RevB.01 20-Dec-2017

 -------------------------
 #P B3LYP/6-311+g(d) force
 -------------------------

 -----
 DPGEN
 -----
 Symbolic Z-matrix:
 Charge =  0 Multiplicity = 2

                         Standard orientation:
 ---------------------------------------------------------------------
 Center     Atomic      Atomic             Coordinates (Angstroms)
 Number     Number       Type             X           Y           Z
 ---------------------------------------------------------------------
      1         11           0        0.147243    0.001060   -1.452543
      2         11           0        1.178010    1.478283    0.957157
      3         11           0        3.062843    0.001425   -0.819743
      4         11           0        1.177076   -1.480517    0.955957
      5         11           0       -2.105998    1.831210   -0.635143
      6         11           0       -1.354157   -0.002673    1.634357
      7         11           0       -2.105017   -1.828790   -0.640043
 ---------------------------------------------------------------------

 SCF Done:  E(UB3LYP) =  -1136.10540564     A.U. after   22 cycles

 The electronic state is 2-A.
 Alpha  occ. eigenvalues --  -38.44462 -38.43728 -38.43562 -38.43285 -38.43278
 Alpha  occ. eigenvalues --  -38.43227 -38.43222  -2.20453  -2.19863  -2.19790
 Alpha  occ. eigenvalues --   -2.19343  -2.19318  -2.19227  -2.19218  -1.14207
 Alpha  occ. eigenvalues --   -1.14112  -1.14076  -1.13670  -1.13571  -1.13520
 Alpha  occ. eigenvalues --   -1.13493  -1.13455  -1.13425  -1.13156  -1.12979
 Alpha  occ. eigenvalues --   -1.12974  -1.12961  -1.12923  -1.12903  -1.12895
 Alpha  occ. eigenvalues --   -1.12884  -1.12876  -1.12823  -1.12813  -1.12792
 Alpha  occ. eigenvalues --   -0.20615  -0.14275  -0.12242  -0.11501
 Alpha virt. eigenvalues --   -0.05706  -0.04446  -0.04359  -0.03307  -0.02617
 Alpha virt. eigenvalues --   -0.02591  -0.01554  -0.00559  -0.00463   0.00313
 Alpha virt. eigenvalues --    0.00585   0.00705   0.00807   0.00947   0.01016

  Beta  occ. eigenvalues --  -38.44443 -38.43662 -38.43498 -38.43273 -38.43266
  Beta  occ. eigenvalues --  -38.43190 -38.43185  -2.20419  -2.19749  -2.19675
  Beta  occ. eigenvalues --   -2.19283  -2.19258  -2.19207  -2.19198  -1.14184
  Beta  occ. eigenvalues --   -1.14072  -1.14055  -1.13586  -1.13472  -1.13442
  Beta  occ. eigenvalues --   -1.13417  -1.13370  -1.13346  -1.13102  -1.12940
  Beta  occ. eigenvalues --   -1.12898  -1.12890  -1.12884  -1.12872  -1.12866
  Beta  occ. eigenvalues --   -1.12861  -1.12854  -1.12796  -1.12785  -1.12767
  Beta  occ. eigenvalues --   -0.19778  -0.14022  -0.11283
  Beta virt. eigenvalues --   -0.07919  -0.05612  -0.04424  -0.03638  -0.02946
  Beta virt. eigenvalues --   -0.01955  -0.01701  -0.01460  -0.00538  -0.00145
  Beta virt. eigenvalues --    0.00342   0.00664   0.00693   0.00944   0.00959

 Mulliken charges and spin densities:
               1          2
     1  Na  -0.288100   0.566140
     2  Na  -0.332483   0.158364
     3  Na   0.992898   0.021026
     4  Na  -0.332102   0.158258
     5  Na  -0.230359  -0.053887
     6  Na   0.418882   0.203751
     7  Na  -0.228735  -0.053651
 Sum of Mulliken charges =  -0.00000   1.00000

 Dipole moment (field-independent basis, Debye):
    X=              0.2477    Y=             -0.0006    Z=             -0.2531  Tot=              0.3542
 Quadrupole moment (field-independent basis, Debye-Ang):
   XX=            -53.4949   YY=            -74.0456   ZZ=            -66.4888
   XY=              0.0014   XZ=             -0.3485   YZ=              0.0112

 Normal termination of Gaussian 16 at Fri Dec  8 19:31:22 2023.
