 Gaussian 16, Revision B.01,
 Gaussian 16:  ES64L-G16RevB.01 20-Dec-2017

 -------------------------
 #P B3LYP/6-311+g(d) force
 -------------------------

 -----
 DPGEN
 -----
 Symbolic Z-matrix:
 Charge =  0 Multiplicity = 2

                         Standard orientation:
 ---------------------------------------------------------------------
 Center     Atomic      Atomic             Coordinates (Angstroms)
 Number     Number       Type             X           Y           Z
 ---------------------------------------------------------------------
      1         11           0        0.164095   -0.106239    1.948755
      2         11           0       -0.202469    0.063661   -1.812774
      3         11           0       -2.658856   -0.188805    0.055016
      4         11           0       -0.440763   -2.147596   -0.009515
      5         11           0       -0.908453    2.062207    0.056351
      6         11           0        2.093244   -1.167975   -0.207071
      7         11           0        1.953200    1.484748   -0.030761
 ---------------------------------------------------------------------

 SCF Done:  E(UB3LYP) =  -1136.08900134     A.U. after   19 cycles

 The electronic state is 2-A.
 Alpha  occ. eigenvalues --  -38.44243 -38.44174 -38.43906 -38.43759 -38.43614
 Alpha  occ. eigenvalues --  -38.43276 -38.43242  -2.20393  -2.20383  -2.20065
 Alpha  occ. eigenvalues --   -2.19799  -2.19716  -2.19436  -2.19365  -1.14213
 Alpha  occ. eigenvalues --   -1.14123  -1.14107  -1.14073  -1.14036  -1.14007
 Alpha  occ. eigenvalues --   -1.13978  -1.13795  -1.13628  -1.13566  -1.13505
 Alpha  occ. eigenvalues --   -1.13419  -1.13416  -1.13309  -1.13241  -1.13072
 Alpha  occ. eigenvalues --   -1.13054  -1.13017  -1.12987  -1.12976  -1.12912
 Alpha  occ. eigenvalues --   -0.21543  -0.13789  -0.12887  -0.12455
 Alpha virt. eigenvalues --   -0.05136  -0.04235  -0.04043  -0.03784  -0.03301
 Alpha virt. eigenvalues --   -0.03108  -0.01001  -0.00439  -0.00144   0.00357
 Alpha virt. eigenvalues --    0.00753   0.00877   0.01053   0.01176   0.01240

  Beta  occ. eigenvalues --  -38.44143 -38.44081 -38.43891 -38.43752 -38.43602
  Beta  occ. eigenvalues --  -38.43260 -38.43228  -2.20225  -2.20203  -2.20045
  Beta  occ. eigenvalues --   -2.19791  -2.19701  -2.19415  -2.19347  -1.14133
  Beta  occ. eigenvalues --   -1.14027  -1.14013  -1.13989  -1.13915  -1.13903
  Beta  occ. eigenvalues --   -1.13876  -1.13752  -1.13562  -1.13551  -1.13500
  Beta  occ. eigenvalues --   -1.13412  -1.13370  -1.13246  -1.13237  -1.13063
  Beta  occ. eigenvalues --   -1.13006  -1.12975  -1.12970  -1.12921  -1.12908
  Beta  occ. eigenvalues --   -0.20677  -0.13425  -0.12516
  Beta virt. eigenvalues --   -0.08259  -0.05157  -0.04226  -0.04014  -0.02823
  Beta virt. eigenvalues --   -0.02364  -0.02022  -0.00928  -0.00398   0.00017
  Beta virt. eigenvalues --    0.00378   0.00741   0.00839   0.01091   0.01161

 Mulliken charges and spin densities:
               1          2
     1  Na  -0.323459   0.492049
     2  Na  -0.156435   0.402828
     3  Na  -0.017324  -0.042942
     4  Na   0.153368   0.043533
     5  Na   0.120475   0.063490
     6  Na   0.154390   0.031176
     7  Na   0.068985   0.009866
 Sum of Mulliken charges =  -0.00000   1.00000

 Dipole moment (field-independent basis, Debye):
    X=             -0.2097    Y=              0.0828    Z=              0.2078  Tot=              0.3066
 Quadrupole moment (field-independent basis, Debye-Ang):
   XX=            -61.3911   YY=            -70.0737   ZZ=            -67.0200
   XY=              0.4021   XZ=             -0.6605   YZ=              0.3194

 Normal termination of Gaussian 16 at Fri Dec  8 19:34:55 2023.
