 Gaussian 16, Revision B.01,
 Gaussian 16:  ES64L-G16RevB.01 20-Dec-2017

 -------------------------
 #P B3LYP/6-311+g(d) force
 -------------------------

 -----
 DPGEN
 -----
 Symbolic Z-matrix:
 Charge =  0 Multiplicity = 2

                         Standard orientation:
 ---------------------------------------------------------------------
 Center     Atomic      Atomic             Coordinates (Angstroms)
 Number     Number       Type             X           Y           Z
 ---------------------------------------------------------------------
      1         11           0       -0.202480    0.142550   -1.308124
      2         11           0       -0.605682   -2.262272    1.501428
      3         11           0        2.782452   -2.023877   -1.319726
      4         11           0        2.279339    0.490570    1.451512
      5         11           0       -1.328131    1.339440    1.173709
      6         11           0       -3.540025   -0.849430   -0.839560
      7         11           0        0.614527    3.163019   -0.659238
 ---------------------------------------------------------------------

 SCF Done:  E(UB3LYP) =  -1136.12844354     A.U. after   20 cycles

 The electronic state is 2-A.
 Alpha  occ. eigenvalues --  -38.44284 -38.44180 -38.44044 -38.43716 -38.43589
 Alpha  occ. eigenvalues --  -38.43263 -38.43202  -2.20070  -2.19987  -2.19830
 Alpha  occ. eigenvalues --   -2.19533  -2.19492  -2.19193  -2.19126  -1.13753
 Alpha  occ. eigenvalues --   -1.13732  -1.13679  -1.13669  -1.13650  -1.13603
 Alpha  occ. eigenvalues --   -1.13507  -1.13488  -1.13453  -1.13336  -1.13185
 Alpha  occ. eigenvalues --   -1.13158  -1.13146  -1.13124  -1.13111  -1.12901
 Alpha  occ. eigenvalues --   -1.12882  -1.12795  -1.12774  -1.12758  -1.12741
 Alpha  occ. eigenvalues --   -0.18121  -0.12554  -0.12131  -0.10924
 Alpha virt. eigenvalues --   -0.05710  -0.05034  -0.04902  -0.03185  -0.02865
 Alpha virt. eigenvalues --   -0.02365  -0.01678  -0.01190  -0.00872   0.00066
 Alpha virt. eigenvalues --    0.00189   0.00271   0.00350   0.00668   0.00744

  Beta  occ. eigenvalues --  -38.44247 -38.44156 -38.44033 -38.43678 -38.43566
  Beta  occ. eigenvalues --  -38.43259 -38.43158  -2.20003  -2.19945  -2.19810
  Beta  occ. eigenvalues --   -2.19493  -2.19421  -2.19121  -2.19113  -1.13702
  Beta  occ. eigenvalues --   -1.13674  -1.13640  -1.13633  -1.13605  -1.13577
  Beta  occ. eigenvalues --   -1.13487  -1.13473  -1.13442  -1.13309  -1.13128
  Beta  occ. eigenvalues --   -1.13103  -1.13098  -1.13097  -1.13069  -1.12859
  Beta  occ. eigenvalues --   -1.12825  -1.12770  -1.12746  -1.12732  -1.12715
  Beta  occ. eigenvalues --   -0.17427  -0.12344  -0.11859
  Beta virt. eigenvalues --   -0.07203  -0.05480  -0.04801  -0.04655  -0.02775
  Beta virt. eigenvalues --   -0.02441  -0.01615  -0.01522  -0.01086  -0.00450
  Beta virt. eigenvalues --    0.00080   0.00271   0.00350   0.00435   0.00737

 Mulliken charges and spin densities:
               1          2
     1  Na  -0.593525   0.449813
     2  Na  -0.205375   0.128714
     3  Na   0.025378   0.029140
     4  Na  -0.067255   0.155152
     5  Na   0.293787   0.444679
     6  Na   0.241744  -0.081102
     7  Na   0.305245  -0.126397
 Sum of Mulliken charges =  -0.00000   1.00000

 Dipole moment (field-independent basis, Debye):
    X=             -0.2433    Y=             -0.0453    Z=              0.3603  Tot=              0.4371
 Quadrupole moment (field-independent basis, Debye-Ang):
   XX=            -59.3722   YY=            -63.7779   ZZ=            -68.6453
   XY=              2.7004   XZ=              0.9645   YZ=             -0.0535

 Normal termination of Gaussian 16 at Thu Dec  7 18:31:09 2023.
