 Gaussian 16, Revision B.01,
 Gaussian 16:  ES64L-G16RevB.01 20-Dec-2017

 -------------------------
 #P B3LYP/6-311+g(d) force
 -------------------------

 -----
 DPGEN
 -----
 Symbolic Z-matrix:
 Charge =  0 Multiplicity = 2

                         Standard orientation:
 ---------------------------------------------------------------------
 Center     Atomic      Atomic             Coordinates (Angstroms)
 Number     Number       Type             X           Y           Z
 ---------------------------------------------------------------------
      1         11           0        0.081298   -0.004669   -1.727863
      2         11           0        0.287006   -0.217814    2.150857
      3         11           0        1.953779    2.475521   -0.085026
      4         11           0       -1.588839    2.142424   -0.243211
      5         11           0        2.717742   -1.374009    0.067787
      6         11           0       -2.987282   -0.381751    0.379120
      7         11           0       -0.463704   -2.639701   -0.541665
 ---------------------------------------------------------------------

 SCF Done:  E(UB3LYP) =  -1136.13358613     A.U. after   19 cycles

 The electronic state is 2-A.
 Alpha  occ. eigenvalues --  -38.44053 -38.43919 -38.43636 -38.43548 -38.43469
 Alpha  occ. eigenvalues --  -38.43366 -38.43328  -2.19929  -2.19762  -2.19524
 Alpha  occ. eigenvalues --   -2.19491  -2.19357  -2.19292  -2.19238  -1.13593
 Alpha  occ. eigenvalues --   -1.13567  -1.13550  -1.13438  -1.13427  -1.13390
 Alpha  occ. eigenvalues --   -1.13306  -1.13265  -1.13199  -1.13166  -1.13149
 Alpha  occ. eigenvalues --   -1.13102  -1.13031  -1.13015  -1.12998  -1.12951
 Alpha  occ. eigenvalues --   -1.12925  -1.12892  -1.12879  -1.12872  -1.12835
 Alpha  occ. eigenvalues --   -0.18953  -0.13025  -0.12448  -0.11275
 Alpha virt. eigenvalues --   -0.05441  -0.05065  -0.04348  -0.03439  -0.03034
 Alpha virt. eigenvalues --   -0.02959  -0.01347  -0.01081  -0.00158  -0.00014
 Alpha virt. eigenvalues --    0.00069   0.00370   0.00823   0.00907   0.00963

  Beta  occ. eigenvalues --  -38.43959 -38.43915 -38.43629 -38.43548 -38.43396
  Beta  occ. eigenvalues --  -38.43359 -38.43311  -2.19758  -2.19754  -2.19514
  Beta  occ. eigenvalues --   -2.19361  -2.19358  -2.19283  -2.19210  -1.13489
  Beta  occ. eigenvalues --   -1.13453  -1.13429  -1.13420  -1.13397  -1.13383
  Beta  occ. eigenvalues --   -1.13303  -1.13185  -1.13160  -1.13136  -1.13106
  Beta  occ. eigenvalues --   -1.13036  -1.13023  -1.12998  -1.12991  -1.12921
  Beta  occ. eigenvalues --   -1.12900  -1.12880  -1.12853  -1.12826  -1.12820
  Beta  occ. eigenvalues --   -0.18199  -0.12781  -0.12197
  Beta virt. eigenvalues --   -0.07307  -0.05409  -0.05010  -0.04338  -0.02606
  Beta virt. eigenvalues --   -0.02260  -0.01888  -0.01246  -0.01024  -0.00130
  Beta virt. eigenvalues --   -0.00033   0.00125   0.00390   0.00870   0.00918

 Mulliken charges and spin densities:
               1          2
     1  Na  -0.174278   0.315912
     2  Na  -0.589589   0.717790
     3  Na  -0.020519  -0.093505
     4  Na   0.203216  -0.001524
     5  Na   0.131361  -0.061239
     6  Na   0.068102   0.071128
     7  Na   0.381707   0.051438
 Sum of Mulliken charges =  -0.00000   1.00000

 Dipole moment (field-independent basis, Debye):
    X=              0.3881    Y=             -0.1226    Z=              0.3468  Tot=              0.5347
 Quadrupole moment (field-independent basis, Debye-Ang):
   XX=            -58.6015   YY=            -64.6259   ZZ=            -71.7095
   XY=              0.6081   XZ=             -0.5460   YZ=              0.2475

 Normal termination of Gaussian 16 at Fri Dec  8 07:30:57 2023.
