 Gaussian 16, Revision B.01,
 Gaussian 16:  ES64L-G16RevB.01 20-Dec-2017

 -------------------------
 #P B3LYP/6-311+g(d) force
 -------------------------

 -----
 DPGEN
 -----
 Symbolic Z-matrix:
 Charge =  0 Multiplicity = 2

                         Standard orientation:
 ---------------------------------------------------------------------
 Center     Atomic      Atomic             Coordinates (Angstroms)
 Number     Number       Type             X           Y           Z
 ---------------------------------------------------------------------
      1         11           0        0.825727   -1.556693    1.245056
      2         11           0        4.029947   -3.119968   -0.562785
      3         11           0        2.424281    0.158152   -0.563835
      4         11           0        1.746140    4.199202   -0.331945
      5         11           0       -0.205105    1.864506    0.715991
      6         11           0       -2.737354   -0.859191    0.082590
      7         11           0       -6.083636   -0.686007   -0.585072
 ---------------------------------------------------------------------

 SCF Done:  E(UB3LYP) =  -1136.11915058     A.U. after   20 cycles

 The electronic state is 2-A.
 Alpha  occ. eigenvalues --  -38.44871 -38.44606 -38.44590 -38.44283 -38.43894
 Alpha  occ. eigenvalues --  -38.43877 -38.43311  -2.20735  -2.20464  -2.20378
 Alpha  occ. eigenvalues --   -2.20074  -2.19755  -2.19700  -2.19096  -1.14554
 Alpha  occ. eigenvalues --   -1.14426  -1.14302  -1.14148  -1.14125  -1.14041
 Alpha  occ. eigenvalues --   -1.14040  -1.14022  -1.13978  -1.13713  -1.13712
 Alpha  occ. eigenvalues --   -1.13690  -1.13449  -1.13447  -1.13425  -1.13352
 Alpha  occ. eigenvalues --   -1.13343  -1.13282  -1.12795  -1.12789  -1.12728
 Alpha  occ. eigenvalues --   -0.17186  -0.13262  -0.12852  -0.11083
 Alpha virt. eigenvalues --   -0.06254  -0.05339  -0.04935  -0.03485  -0.02526
 Alpha virt. eigenvalues --   -0.02339  -0.02110  -0.01814  -0.01326  -0.01062
 Alpha virt. eigenvalues --   -0.00426  -0.00082  -0.00014   0.00440   0.00607

  Beta  occ. eigenvalues --  -38.44872 -38.44561 -38.44553 -38.44194 -38.43867
  Beta  occ. eigenvalues --  -38.43863 -38.43321  -2.20740  -2.20398  -2.20293
  Beta  occ. eigenvalues --   -2.19908  -2.19741  -2.19641  -2.19121  -1.14538
  Beta  occ. eigenvalues --   -1.14430  -1.14304  -1.14112  -1.14085  -1.13983
  Beta  occ. eigenvalues --   -1.13980  -1.13955  -1.13924  -1.13600  -1.13599
  Beta  occ. eigenvalues --   -1.13582  -1.13444  -1.13439  -1.13388  -1.13312
  Beta  occ. eigenvalues --   -1.13301  -1.13245  -1.12821  -1.12813  -1.12689
  Beta  occ. eigenvalues --   -0.16671  -0.12646  -0.12289
  Beta virt. eigenvalues --   -0.07915  -0.05862  -0.05046  -0.04621  -0.03270
  Beta virt. eigenvalues --   -0.02324  -0.02032  -0.01911  -0.01433  -0.01006
  Beta virt. eigenvalues --   -0.00737  -0.00130   0.00045   0.00170   0.00514

 Mulliken charges and spin densities:
               1          2
     1  Na   0.414329  -0.140228
     2  Na   0.577457   0.213534
     3  Na  -0.458568   0.043492
     4  Na   0.539804   0.162779
     5  Na  -0.330179   0.039813
     6  Na  -0.689039   0.450246
     7  Na  -0.053805   0.230363
 Sum of Mulliken charges =  -0.00000   1.00000

 Dipole moment (field-independent basis, Debye):
    X=              1.3196    Y=             -0.2759    Z=              0.0573  Tot=              1.3494
 Quadrupole moment (field-independent basis, Debye-Ang):
   XX=            -63.0582   YY=            -60.7912   ZZ=            -70.2619
   XY=             -4.2827   XZ=             -0.9408   YZ=             -0.9968

 Normal termination of Gaussian 16 at Wed Nov 29 01:06:08 2023.
