 Gaussian 16, Revision B.01,
 Gaussian 16:  ES64L-G16RevB.01 20-Dec-2017

 -------------------------
 #P B3LYP/6-311+g(d) force
 -------------------------

 -----
 DPGEN
 -----
 Symbolic Z-matrix:
 Charge =  0 Multiplicity = 2

                         Standard orientation:
 ---------------------------------------------------------------------
 Center     Atomic      Atomic             Coordinates (Angstroms)
 Number     Number       Type             X           Y           Z
 ---------------------------------------------------------------------
      1         11           0       -0.740869   -1.272604   -0.558786
      2         11           0        0.779282    0.737333   -1.763386
      3         11           0       -3.346096   -0.166667   -0.105286
      4         11           0       -1.004434    1.414590    0.379314
      5         11           0        1.849868    1.332659    0.595014
      6         11           0        0.345017   -0.683277    1.799114
      7         11           0        2.117233   -1.362035   -0.345986
 ---------------------------------------------------------------------

 SCF Done:  E(UB3LYP) =  -1136.05601383     A.U. after   24 cycles

 The electronic state is 2-A.
 Alpha  occ. eigenvalues --  -38.45209 -38.44493 -38.44381 -38.44096 -38.43796
 Alpha  occ. eigenvalues --  -38.43729 -38.43267  -2.21132  -2.20737  -2.20628
 Alpha  occ. eigenvalues --   -2.20328  -2.20069  -2.19964  -2.19542  -1.14897
 Alpha  occ. eigenvalues --   -1.14819  -1.14739  -1.14723  -1.14579  -1.14520
 Alpha  occ. eigenvalues --   -1.14415  -1.14374  -1.14275  -1.13993  -1.13917
 Alpha  occ. eigenvalues --   -1.13795  -1.13784  -1.13726  -1.13608  -1.13558
 Alpha  occ. eigenvalues --   -1.13546  -1.13460  -1.13226  -1.13151  -1.13083
 Alpha  occ. eigenvalues --   -0.21908  -0.14477  -0.12937  -0.11658
 Alpha virt. eigenvalues --   -0.06385  -0.04132  -0.03708  -0.03653  -0.02651
 Alpha virt. eigenvalues --   -0.02557  -0.01826  -0.00454  -0.00178   0.00238
 Alpha virt. eigenvalues --    0.00578   0.00762   0.00905   0.00977   0.01090

  Beta  occ. eigenvalues --  -38.45214 -38.44411 -38.44307 -38.44060 -38.43772
  Beta  occ. eigenvalues --  -38.43690 -38.43236  -2.21142  -2.20591  -2.20497
  Beta  occ. eigenvalues --   -2.20270  -2.20006  -2.19925  -2.19493  -1.14901
  Beta  occ. eigenvalues --   -1.14823  -1.14724  -1.14674  -1.14506  -1.14399
  Beta  occ. eigenvalues --   -1.14313  -1.14269  -1.14173  -1.13938  -1.13858
  Beta  occ. eigenvalues --   -1.13740  -1.13714  -1.13686  -1.13530  -1.13505
  Beta  occ. eigenvalues --   -1.13475  -1.13432  -1.13198  -1.13062  -1.13049
  Beta  occ. eigenvalues --   -0.20987  -0.14230  -0.11480
  Beta virt. eigenvalues --   -0.08326  -0.06260  -0.03805  -0.03267  -0.03170
  Beta virt. eigenvalues --   -0.01979  -0.01803  -0.01614  -0.00300  -0.00054
  Beta virt. eigenvalues --    0.00280   0.00607   0.00810   0.01003   0.01045

 Mulliken charges and spin densities:
               1          2
     1  Na  -0.270957   0.239465
     2  Na   0.197517   0.354839
     3  Na  -0.165380  -0.123983
     4  Na  -0.411618   0.086809
     5  Na   0.248605   0.075013
     6  Na   0.192222   0.426903
     7  Na   0.209611  -0.059047
 Sum of Mulliken charges =  -0.00000   1.00000

 Dipole moment (field-independent basis, Debye):
    X=             -0.7405    Y=             -0.0254    Z=             -0.0375  Tot=              0.7419
 Quadrupole moment (field-independent basis, Debye-Ang):
   XX=            -51.5951   YY=            -77.7499   ZZ=            -66.0985
   XY=             -0.0976   XZ=              0.1110   YZ=              3.1050

 Normal termination of Gaussian 16 at Fri Dec  8 02:39:44 2023.
