 Gaussian 16, Revision B.01,
 Gaussian 16:  ES64L-G16RevB.01 20-Dec-2017

 -------------------------
 #P B3LYP/6-311+g(d) force
 -------------------------

 -----
 DPGEN
 -----
 Symbolic Z-matrix:
 Charge =  0 Multiplicity = 2

                         Standard orientation:
 ---------------------------------------------------------------------
 Center     Atomic      Atomic             Coordinates (Angstroms)
 Number     Number       Type             X           Y           Z
 ---------------------------------------------------------------------
      1         11           0       -4.566453   -0.603236   -0.169935
      2         11           0        1.545592    1.592826   -1.560481
      3         11           0       -2.100675    1.937060    0.347753
      4         11           0        1.081308    0.114863    1.839448
      5         11           0        4.239203   -0.072363    0.305174
      6         11           0        1.168115   -1.981659   -0.772320
      7         11           0       -1.367090   -0.987492    0.010361
 ---------------------------------------------------------------------

 SCF Done:  E(UB3LYP) =  -1136.10436958     A.U. after   29 cycles

 The electronic state is 2-A.
 Alpha  occ. eigenvalues --  -38.46013 -38.45006 -38.44400 -38.44240 -38.43514
 Alpha  occ. eigenvalues --  -38.43094 -38.42490  -2.21897  -2.20782  -2.20229
 Alpha  occ. eigenvalues --   -2.20081  -2.19362  -2.19029  -2.18553  -1.15592
 Alpha  occ. eigenvalues --   -1.15550  -1.15504  -1.14488  -1.14434  -1.14409
 Alpha  occ. eigenvalues --   -1.13903  -1.13856  -1.13838  -1.13735  -1.13717
 Alpha  occ. eigenvalues --   -1.13687  -1.13104  -1.13039  -1.12961  -1.12840
 Alpha  occ. eigenvalues --   -1.12678  -1.12634  -1.12232  -1.12217  -1.12143
 Alpha  occ. eigenvalues --   -0.18522  -0.14555  -0.10962  -0.10725
 Alpha virt. eigenvalues --   -0.08042  -0.05097  -0.04140  -0.03530  -0.03029
 Alpha virt. eigenvalues --   -0.02198  -0.01733  -0.01636  -0.01117  -0.00988
 Alpha virt. eigenvalues --   -0.00153   0.00181   0.00221   0.00627   0.00780

  Beta  occ. eigenvalues --  -38.45981 -38.45009 -38.44327 -38.44149 -38.43508
  Beta  occ. eigenvalues --  -38.43096 -38.42476  -2.21844  -2.20790  -2.20093
  Beta  occ. eigenvalues --   -2.19912  -2.19355  -2.19034  -2.18535  -1.15530
  Beta  occ. eigenvalues --   -1.15515  -1.15465  -1.14497  -1.14442  -1.14394
  Beta  occ. eigenvalues --   -1.13810  -1.13761  -1.13751  -1.13621  -1.13602
  Beta  occ. eigenvalues --   -1.13576  -1.13104  -1.13037  -1.12923  -1.12824
  Beta  occ. eigenvalues --   -1.12683  -1.12644  -1.12221  -1.12171  -1.12122
  Beta  occ. eigenvalues --   -0.17940  -0.13767  -0.10561
  Beta virt. eigenvalues --   -0.07887  -0.07429  -0.04668  -0.03503  -0.03270
  Beta virt. eigenvalues --   -0.02970  -0.02071  -0.01664  -0.01019  -0.00650
  Beta virt. eigenvalues --   -0.00533   0.00008   0.00276   0.00310   0.00716

 Mulliken charges and spin densities:
               1          2
     1  Na   0.193772   0.163426
     2  Na  -0.281008   0.003078
     3  Na   0.240468   0.070580
     4  Na   0.448590   0.188021
     5  Na   0.116196   0.338829
     6  Na   0.387224   0.208835
     7  Na  -1.105242   0.027232
 Sum of Mulliken charges =  -0.00000   1.00000

 Dipole moment (field-independent basis, Debye):
    X=              0.6394    Y=              0.1794    Z=              0.6449  Tot=              0.9256
 Quadrupole moment (field-independent basis, Debye-Ang):
   XX=            -63.1099   YY=            -81.1933   ZZ=            -58.2985
   XY=             -2.6422   XZ=              1.7309   YZ=              1.6449

 Normal termination of Gaussian 16 at Thu Dec  7 02:32:19 2023.
