 Gaussian 16, Revision B.01,
 Gaussian 16:  ES64L-G16RevB.01 20-Dec-2017

 -------------------------
 #P B3LYP/6-311+g(d) force
 -------------------------

 -----
 DPGEN
 -----
 Symbolic Z-matrix:
 Charge =  0 Multiplicity = 2

                         Standard orientation:
 ---------------------------------------------------------------------
 Center     Atomic      Atomic             Coordinates (Angstroms)
 Number     Number       Type             X           Y           Z
 ---------------------------------------------------------------------
      1         11           0       -0.509174    2.660012    0.405511
      2         11           0       -1.578902   -2.179837    0.540851
      3         11           0       -0.096718    0.079253   -1.419227
      4         11           0        0.841515   -0.276814    2.180009
      5         11           0        2.758233    1.325260   -0.402863
      6         11           0       -3.528451    0.372898   -0.524009
      7         11           0        2.113497   -1.980771   -0.780271
 ---------------------------------------------------------------------

 SCF Done:  E(UB3LYP) =  -1136.13445277     A.U. after   19 cycles

 The electronic state is 2-A.
 Alpha  occ. eigenvalues --  -38.44278 -38.43963 -38.43853 -38.43455 -38.43326
 Alpha  occ. eigenvalues --  -38.43225 -38.43091  -2.20079  -2.19835  -2.19740
 Alpha  occ. eigenvalues --   -2.19340  -2.19262  -2.19183  -2.18935  -1.13753
 Alpha  occ. eigenvalues --   -1.13736  -1.13714  -1.13530  -1.13502  -1.13459
 Alpha  occ. eigenvalues --   -1.13407  -1.13368  -1.13346  -1.13107  -1.12987
 Alpha  occ. eigenvalues --   -1.12966  -1.12952  -1.12923  -1.12864  -1.12859
 Alpha  occ. eigenvalues --   -1.12833  -1.12799  -1.12623  -1.12603  -1.12541
 Alpha  occ. eigenvalues --   -0.18715  -0.13294  -0.11954  -0.11181
 Alpha virt. eigenvalues --   -0.05939  -0.04994  -0.04176  -0.03254  -0.02931
 Alpha virt. eigenvalues --   -0.02743  -0.01817  -0.00961  -0.00412  -0.00030
 Alpha virt. eigenvalues --    0.00066   0.00328   0.00714   0.00834   0.00887

  Beta  occ. eigenvalues --  -38.44273 -38.43953 -38.43751 -38.43433 -38.43315
  Beta  occ. eigenvalues --  -38.43181 -38.43085  -2.20070  -2.19820  -2.19554
  Beta  occ. eigenvalues --   -2.19304  -2.19184  -2.19166  -2.18926  -1.13740
  Beta  occ. eigenvalues --   -1.13731  -1.13709  -1.13514  -1.13485  -1.13437
  Beta  occ. eigenvalues --   -1.13280  -1.13245  -1.13209  -1.13068  -1.12960
  Beta  occ. eigenvalues --   -1.12922  -1.12902  -1.12890  -1.12831  -1.12816
  Beta  occ. eigenvalues --   -1.12796  -1.12784  -1.12616  -1.12580  -1.12535
  Beta  occ. eigenvalues --   -0.17993  -0.13039  -0.11727
  Beta virt. eigenvalues --   -0.07197  -0.05824  -0.04958  -0.04072  -0.02682
  Beta virt. eigenvalues --   -0.02143  -0.01770  -0.01639  -0.00923  -0.00284
  Beta virt. eigenvalues --    0.00045   0.00091   0.00374   0.00846   0.00882

 Mulliken charges and spin densities:
               1          2
     1  Na  -0.172578   0.064241
     2  Na   0.010200   0.082324
     3  Na  -0.151680   0.114582
     4  Na  -0.287415   0.615514
     5  Na   0.198738   0.039197
     6  Na   0.148491  -0.004364
     7  Na   0.254244   0.088507
 Sum of Mulliken charges =  -0.00000   1.00000

 Dipole moment (field-independent basis, Debye):
    X=             -0.0302    Y=              0.0710    Z=              0.1844  Tot=              0.1999
 Quadrupole moment (field-independent basis, Debye-Ang):
   XX=            -53.3490   YY=            -68.0229   ZZ=            -71.6603
   XY=             -0.2971   XZ=             -0.4057   YZ=              0.4287

 Normal termination of Gaussian 16 at Tue Dec  5 23:47:20 2023.
