 Gaussian 16, Revision B.01,
 Gaussian 16:  ES64L-G16RevB.01 20-Dec-2017

 -------------------------
 #P B3LYP/6-311+g(d) force
 -------------------------

 -----
 DPGEN
 -----
 Symbolic Z-matrix:
 Charge =  0 Multiplicity = 2

                         Standard orientation:
 ---------------------------------------------------------------------
 Center     Atomic      Atomic             Coordinates (Angstroms)
 Number     Number       Type             X           Y           Z
 ---------------------------------------------------------------------
      1         11           0        2.566936   -2.110720    0.063797
      2         11           0       -0.964996    2.707254    0.267807
      3         11           0       -3.380218    0.199678    0.013440
      4         11           0        0.391814    0.149782   -1.759433
      5         11           0        0.207183   -0.616820    1.892349
      6         11           0       -1.471694   -2.340054   -0.413439
      7         11           0        2.650976    2.010880   -0.064522
 ---------------------------------------------------------------------

 SCF Done:  E(UB3LYP) =  -1136.13451067     A.U. after   19 cycles

 The electronic state is 2-A.
 Alpha  occ. eigenvalues --  -38.44259 -38.44201 -38.44134 -38.43541 -38.43477
 Alpha  occ. eigenvalues --  -38.43467 -38.43318  -2.20050  -2.20002  -2.19952
 Alpha  occ. eigenvalues --   -2.19421  -2.19371  -2.19286  -2.19238  -1.13733
 Alpha  occ. eigenvalues --   -1.13706  -1.13687  -1.13684  -1.13658  -1.13640
 Alpha  occ. eigenvalues --   -1.13637  -1.13611  -1.13601  -1.13131  -1.13101
 Alpha  occ. eigenvalues --   -1.13046  -1.13030  -1.12993  -1.12987  -1.12974
 Alpha  occ. eigenvalues --   -1.12957  -1.12915  -1.12908  -1.12865  -1.12857
 Alpha  occ. eigenvalues --   -0.18296  -0.13028  -0.12359  -0.10492
 Alpha virt. eigenvalues --   -0.05814  -0.05799  -0.04433  -0.03135  -0.02890
 Alpha virt. eigenvalues --   -0.02376  -0.01741  -0.01475  -0.00540  -0.00317
 Alpha virt. eigenvalues --   -0.00031   0.00320   0.00729   0.00784   0.00880

  Beta  occ. eigenvalues --  -38.44257 -38.44198 -38.44135 -38.43526 -38.43459
  Beta  occ. eigenvalues --  -38.43398 -38.43246  -2.20049  -2.19999  -2.19956
  Beta  occ. eigenvalues --   -2.19397  -2.19274  -2.19226  -2.19106  -1.13719
  Beta  occ. eigenvalues --   -1.13701  -1.13689  -1.13669  -1.13646  -1.13642
  Beta  occ. eigenvalues --   -1.13640  -1.13607  -1.13596  -1.13107  -1.13049
  Beta  occ. eigenvalues --   -1.13029  -1.12965  -1.12941  -1.12934  -1.12905
  Beta  occ. eigenvalues --   -1.12897  -1.12878  -1.12824  -1.12771  -1.12763
  Beta  occ. eigenvalues --   -0.17589  -0.12820  -0.12125
  Beta virt. eigenvalues --   -0.06652  -0.05782  -0.05726  -0.04365  -0.02414
  Beta virt. eigenvalues --   -0.02147  -0.01670  -0.01422  -0.01354  -0.00574
  Beta virt. eigenvalues --   -0.00332   0.00120   0.00351   0.00787   0.00791

 Mulliken charges and spin densities:
               1          2
     1  Na   0.206711  -0.149473
     2  Na  -0.004987  -0.025612
     3  Na  -0.131942  -0.048800
     4  Na  -0.130710   0.578347
     5  Na  -0.395847   0.758860
     6  Na   0.413521   0.012621
     7  Na   0.043254  -0.125942
 Sum of Mulliken charges =  -0.00000   1.00000

 Dipole moment (field-independent basis, Debye):
    X=              0.4210    Y=             -0.0267    Z=              0.0505  Tot=              0.4249
 Quadrupole moment (field-independent basis, Debye-Ang):
   XX=            -53.3003   YY=            -64.0265   ZZ=            -75.6050
   XY=             -0.4795   XZ=              0.0857   YZ=              1.6620

 Normal termination of Gaussian 16 at Thu Dec  7 05:21:41 2023.
