 Gaussian 16, Revision B.01,
 Gaussian 16:  ES64L-G16RevB.01 20-Dec-2017

 -------------------------
 #P B3LYP/6-311+g(d) force
 -------------------------

 -----
 DPGEN
 -----
 Symbolic Z-matrix:
 Charge =  0 Multiplicity = 2

                         Standard orientation:
 ---------------------------------------------------------------------
 Center     Atomic      Atomic             Coordinates (Angstroms)
 Number     Number       Type             X           Y           Z
 ---------------------------------------------------------------------
      1         11           0        3.274145    1.594005   -0.191589
      2         11           0       -2.270408   -2.357737   -0.100607
      3         11           0        2.453428   -1.888563   -1.233355
      4         11           0        0.255211    0.341682   -0.481220
      5         11           0        0.489064   -1.479797    2.298189
      6         11           0       -0.961415    3.062818    0.649286
      7         11           0       -3.240026    0.727593   -0.940703
 ---------------------------------------------------------------------

 SCF Done:  E(UB3LYP) =  -1136.12357752     A.U. after   22 cycles

 The electronic state is 2-A.
 Alpha  occ. eigenvalues --  -38.44985 -38.44475 -38.43853 -38.43833 -38.43785
 Alpha  occ. eigenvalues --  -38.43535 -38.42722  -2.20756  -2.20284  -2.19684
 Alpha  occ. eigenvalues --   -2.19634  -2.19614  -2.19343  -2.18749  -1.14436
 Alpha  occ. eigenvalues --   -1.14425  -1.14381  -1.13981  -1.13924  -1.13892
 Alpha  occ. eigenvalues --   -1.13350  -1.13337  -1.13311  -1.13304  -1.13295
 Alpha  occ. eigenvalues --   -1.13286  -1.13269  -1.13253  -1.13221  -1.13039
 Alpha  occ. eigenvalues --   -1.12998  -1.12962  -1.12479  -1.12404  -1.12379
 Alpha  occ. eigenvalues --   -0.17534  -0.13325  -0.11985  -0.10452
 Alpha virt. eigenvalues --   -0.06342  -0.05261  -0.04674  -0.03100  -0.02915
 Alpha virt. eigenvalues --   -0.02184  -0.01931  -0.01304  -0.00834  -0.00382
 Alpha virt. eigenvalues --   -0.00193   0.00277   0.00479   0.00650   0.00730

  Beta  occ. eigenvalues --  -38.44988 -38.44440 -38.43826 -38.43759 -38.43753
  Beta  occ. eigenvalues --  -38.43523 -38.42711  -2.20764  -2.20220  -2.19625
  Beta  occ. eigenvalues --   -2.19566  -2.19498  -2.19321  -2.18733  -1.14441
  Beta  occ. eigenvalues --   -1.14428  -1.14376  -1.13938  -1.13879  -1.13844
  Beta  occ. eigenvalues --   -1.13322  -1.13298  -1.13260  -1.13254  -1.13225
  Beta  occ. eigenvalues --   -1.13220  -1.13185  -1.13179  -1.13161  -1.13022
  Beta  occ. eigenvalues --   -1.12980  -1.12948  -1.12418  -1.12401  -1.12379
  Beta  occ. eigenvalues --   -0.16980  -0.12901  -0.11744
  Beta virt. eigenvalues --   -0.06887  -0.06240  -0.04954  -0.04406  -0.02651
  Beta virt. eigenvalues --   -0.02359  -0.01899  -0.01509  -0.01178  -0.00655
  Beta virt. eigenvalues --   -0.00295   0.00065   0.00345   0.00574   0.00672

 Mulliken charges and spin densities:
               1          2
     1  Na   0.355276  -0.122529
     2  Na   0.349833   0.059526
     3  Na   0.600760   0.167072
     4  Na  -2.336399   0.831576
     5  Na  -0.381525   0.228795
     6  Na   0.428524  -0.216144
     7  Na   0.983531   0.051704
 Sum of Mulliken charges =  -0.00000   1.00000

 Dipole moment (field-independent basis, Debye):
    X=              0.8514    Y=             -0.0046    Z=              0.1741  Tot=              0.8690
 Quadrupole moment (field-independent basis, Debye-Ang):
   XX=            -56.5250   YY=            -62.9509   ZZ=            -72.2449
   XY=              1.1066   XZ=              1.0387   YZ=              3.0056

 Normal termination of Gaussian 16 at Tue Dec  5 12:10:46 2023.
