 Gaussian 16, Revision B.01,
 Gaussian 16:  ES64L-G16RevB.01 20-Dec-2017

 -------------------------
 #P B3LYP/6-311+g(d) force
 -------------------------

 -----
 DPGEN
 -----
 Symbolic Z-matrix:
 Charge =  0 Multiplicity = 2

                         Standard orientation:
 ---------------------------------------------------------------------
 Center     Atomic      Atomic             Coordinates (Angstroms)
 Number     Number       Type             X           Y           Z
 ---------------------------------------------------------------------
      1         11           0        1.891951   -2.725957   -0.149432
      2         11           0        0.158301    3.091487   -0.294127
      3         11           0        3.021544    0.798313   -0.044030
      4         11           0        0.128162   -0.171982    2.105747
      5         11           0       -2.256013   -2.198461   -0.440132
      6         11           0       -2.808763    0.942089    0.358977
      7         11           0       -0.135184    0.264511   -1.537003
 ---------------------------------------------------------------------

 SCF Done:  E(UB3LYP) =  -1136.13621011     A.U. after   20 cycles

 The electronic state is 2-A.
 Alpha  occ. eigenvalues --  -38.44144 -38.43980 -38.43804 -38.43725 -38.43676
 Alpha  occ. eigenvalues --  -38.43424 -38.43132  -2.19953  -2.19750  -2.19629
 Alpha  occ. eigenvalues --   -2.19593  -2.19536  -2.19271  -2.19111  -1.13637
 Alpha  occ. eigenvalues --   -1.13623  -1.13578  -1.13428  -1.13404  -1.13393
 Alpha  occ. eigenvalues --   -1.13337  -1.13302  -1.13273  -1.13263  -1.13257
 Alpha  occ. eigenvalues --   -1.13200  -1.13200  -1.13162  -1.13147  -1.13015
 Alpha  occ. eigenvalues --   -1.12918  -1.12897  -1.12792  -1.12735  -1.12725
 Alpha  occ. eigenvalues --   -0.18340  -0.12962  -0.12328  -0.10609
 Alpha virt. eigenvalues --   -0.05656  -0.05286  -0.04924  -0.03185  -0.02810
 Alpha virt. eigenvalues --   -0.02470  -0.01469  -0.01324  -0.00604  -0.00501
 Alpha virt. eigenvalues --   -0.00008   0.00347   0.00793   0.00816   0.00861

  Beta  occ. eigenvalues --  -38.44142 -38.43981 -38.43795 -38.43715 -38.43578
  Beta  occ. eigenvalues --  -38.43418 -38.43078  -2.19950  -2.19753  -2.19614
  Beta  occ. eigenvalues --   -2.19579  -2.19354  -2.19263  -2.19013  -1.13625
  Beta  occ. eigenvalues --   -1.13615  -1.13578  -1.13419  -1.13407  -1.13395
  Beta  occ. eigenvalues --   -1.13330  -1.13276  -1.13260  -1.13254  -1.13217
  Beta  occ. eigenvalues --   -1.13194  -1.13081  -1.13037  -1.13014  -1.12996
  Beta  occ. eigenvalues --   -1.12902  -1.12891  -1.12722  -1.12667  -1.12655
  Beta  occ. eigenvalues --   -0.17628  -0.12755  -0.12104
  Beta virt. eigenvalues --   -0.06702  -0.05668  -0.05191  -0.04867  -0.02414
  Beta virt. eigenvalues --   -0.02103  -0.01460  -0.01369  -0.01238  -0.00635
  Beta virt. eigenvalues --   -0.00528   0.00137   0.00382   0.00800   0.00855

 Mulliken charges and spin densities:
               1          2
     1  Na  -0.082095  -0.091135
     2  Na   0.241199  -0.006992
     3  Na   0.083009  -0.064711
     4  Na  -0.366734   0.701514
     5  Na   0.005433  -0.045212
     6  Na   0.272009   0.121078
     7  Na  -0.152821   0.385458
 Sum of Mulliken charges =  -0.00000   1.00000

 Dipole moment (field-independent basis, Debye):
    X=              0.1894    Y=             -0.1051    Z=              0.1431  Tot=              0.2596
 Quadrupole moment (field-independent basis, Debye-Ang):
   XX=            -57.7924   YY=            -59.8513   ZZ=            -75.3685
   XY=              0.1879   XZ=             -0.5341   YZ=              1.2636

 Normal termination of Gaussian 16 at Thu Dec  7 23:57:01 2023.
