 Gaussian 16, Revision B.01,
 Gaussian 16:  ES64L-G16RevB.01 20-Dec-2017

 -------------------------
 #P B3LYP/6-311+g(d) force
 -------------------------

 -----
 DPGEN
 -----
 Symbolic Z-matrix:
 Charge =  0 Multiplicity = 2

                         Standard orientation:
 ---------------------------------------------------------------------
 Center     Atomic      Atomic             Coordinates (Angstroms)
 Number     Number       Type             X           Y           Z
 ---------------------------------------------------------------------
      1         11           0       -0.597054    2.599722   -0.587606
      2         11           0        0.538181    1.520165    1.745555
      3         11           0       -4.729927   -1.096232   -1.108937
      4         11           0       -2.264348   -0.340515    0.979547
      5         11           0        0.962079   -0.136497   -0.581373
      6         11           0        1.949250   -2.488846    0.869263
      7         11           0        4.141819   -0.057797   -1.316449
 ---------------------------------------------------------------------

 SCF Done:  E(UB3LYP) =  -1136.10553534     A.U. after   22 cycles

 The electronic state is 2-A.
 Alpha  occ. eigenvalues --  -38.44777 -38.44704 -38.44453 -38.44351 -38.43832
 Alpha  occ. eigenvalues --  -38.43262 -38.43124  -2.20699  -2.20581  -2.20290
 Alpha  occ. eigenvalues --   -2.20282  -2.19929  -2.19045  -2.18977  -1.14522
 Alpha  occ. eigenvalues --   -1.14391  -1.14309  -1.14246  -1.14229  -1.14184
 Alpha  occ. eigenvalues --   -1.14070  -1.13959  -1.13932  -1.13884  -1.13880
 Alpha  occ. eigenvalues --   -1.13868  -1.13620  -1.13567  -1.13519  -1.12713
 Alpha  occ. eigenvalues --   -1.12697  -1.12696  -1.12671  -1.12639  -1.12592
 Alpha  occ. eigenvalues --   -0.18494  -0.13611  -0.11788  -0.10902
 Alpha virt. eigenvalues --   -0.06453  -0.05446  -0.05031  -0.02971  -0.02725
 Alpha virt. eigenvalues --   -0.02180  -0.01835  -0.01279  -0.01157  -0.00535
 Alpha virt. eigenvalues --   -0.00096  -0.00030   0.00352   0.00595   0.00716

  Beta  occ. eigenvalues --  -38.44712 -38.44687 -38.44420 -38.44336 -38.43812
  Beta  occ. eigenvalues --  -38.43224 -38.43124  -2.20670  -2.20459  -2.20254
  Beta  occ. eigenvalues --   -2.20229  -2.19902  -2.18984  -2.18973  -1.14504
  Beta  occ. eigenvalues --   -1.14366  -1.14275  -1.14159  -1.14147  -1.14105
  Beta  occ. eigenvalues --   -1.14028  -1.13935  -1.13891  -1.13864  -1.13848
  Beta  occ. eigenvalues --   -1.13828  -1.13596  -1.13515  -1.13486  -1.12691
  Beta  occ. eigenvalues --   -1.12666  -1.12652  -1.12644  -1.12639  -1.12558
  Beta  occ. eigenvalues --   -0.17902  -0.13243  -0.11363
  Beta virt. eigenvalues --   -0.07526  -0.06033  -0.04957  -0.04778  -0.02648
  Beta virt. eigenvalues --   -0.02497  -0.01956  -0.01425  -0.01178  -0.00780
  Beta virt. eigenvalues --   -0.00271   0.00036   0.00139   0.00458   0.00670

 Mulliken charges and spin densities:
               1          2
     1  Na  -0.032106   0.071201
     2  Na   0.578414   0.191950
     3  Na   0.065581   0.217317
     4  Na  -0.156299   0.126682
     5  Na  -0.874804  -0.217769
     6  Na   0.156245   0.409795
     7  Na   0.262968   0.200824
 Sum of Mulliken charges =  -0.00000   1.00000

 Dipole moment (field-independent basis, Debye):
    X=              2.0782    Y=              0.8417    Z=              0.5067  Tot=              2.2988
 Quadrupole moment (field-independent basis, Debye-Ang):
   XX=            -65.7979   YY=            -67.2558   ZZ=            -64.8291
   XY=             -3.6734   XZ=              3.5084   YZ=             -0.8543

 Normal termination of Gaussian 16 at Tue Dec  5 10:58:41 2023.
