 Gaussian 16, Revision B.01,
 Gaussian 16:  ES64L-G16RevB.01 20-Dec-2017

 -------------------------
 #P B3LYP/6-311+g(d) force
 -------------------------

 -----
 DPGEN
 -----
 Symbolic Z-matrix:
 Charge =  0 Multiplicity = 2

                         Standard orientation:
 ---------------------------------------------------------------------
 Center     Atomic      Atomic             Coordinates (Angstroms)
 Number     Number       Type             X           Y           Z
 ---------------------------------------------------------------------
      1         11           0       -0.566023   -0.095539   -1.427202
      2         11           0        2.763495    1.279883   -0.186392
      3         11           0       -1.552694   -2.236423    0.208421
      4         11           0       -3.274535    0.502627   -0.075538
      5         11           0       -0.403049    2.535043    0.137895
      6         11           0        0.538152   -0.284930    1.794405
      7         11           0        2.494654   -1.700660   -0.451589
 ---------------------------------------------------------------------

 SCF Done:  E(UB3LYP) =  -1136.12537825     A.U. after   19 cycles

 The electronic state is 2-A.
 Alpha  occ. eigenvalues --  -38.44736 -38.44097 -38.43877 -38.43419 -38.43403
 Alpha  occ. eigenvalues --  -38.43023 -38.42693  -2.20612  -2.20002  -2.19770
 Alpha  occ. eigenvalues --   -2.19512  -2.19343  -2.19021  -2.18606  -1.14315
 Alpha  occ. eigenvalues --   -1.14263  -1.14242  -1.13752  -1.13658  -1.13641
 Alpha  occ. eigenvalues --   -1.13424  -1.13416  -1.13390  -1.13352  -1.13201
 Alpha  occ. eigenvalues --   -1.13111  -1.13001  -1.12949  -1.12937  -1.12701
 Alpha  occ. eigenvalues --   -1.12644  -1.12631  -1.12315  -1.12261  -1.12217
 Alpha  occ. eigenvalues --   -0.19402  -0.14068  -0.12107  -0.10566
 Alpha virt. eigenvalues --   -0.06316  -0.05220  -0.03987  -0.03511  -0.02477
 Alpha virt. eigenvalues --   -0.02095  -0.02019  -0.01006  -0.00236  -0.00047
 Alpha virt. eigenvalues --    0.00007   0.00322   0.00752   0.00881   0.00922

  Beta  occ. eigenvalues --  -38.44732 -38.44087 -38.43861 -38.43392 -38.43370
  Beta  occ. eigenvalues --  -38.42934 -38.42684  -2.20608  -2.19989  -2.19743
  Beta  occ. eigenvalues --   -2.19426  -2.19326  -2.18858  -2.18595  -1.14308
  Beta  occ. eigenvalues --   -1.14252  -1.14236  -1.13744  -1.13636  -1.13619
  Beta  occ. eigenvalues --   -1.13407  -1.13384  -1.13364  -1.13309  -1.13134
  Beta  occ. eigenvalues --   -1.13048  -1.12962  -1.12934  -1.12906  -1.12594
  Beta  occ. eigenvalues --   -1.12530  -1.12510  -1.12308  -1.12229  -1.12207
  Beta  occ. eigenvalues --   -0.18699  -0.13777  -0.11846
  Beta virt. eigenvalues --   -0.06686  -0.06180  -0.05219  -0.03954  -0.02729
  Beta virt. eigenvalues --   -0.01965  -0.01727  -0.01057  -0.00962  -0.00232
  Beta virt. eigenvalues --   -0.00065   0.00156   0.00373   0.00812   0.00887

 Mulliken charges and spin densities:
               1          2
     1  Na  -0.772004   0.382833
     2  Na   0.061617   0.060647
     3  Na   0.402351  -0.065422
     4  Na   0.336764  -0.014690
     5  Na   0.147686  -0.046901
     6  Na  -0.485137   0.582382
     7  Na   0.308722   0.101151
 Sum of Mulliken charges =  -0.00000   1.00000

 Dipole moment (field-independent basis, Debye):
    X=             -0.2738    Y=             -0.0121    Z=              0.1976  Tot=              0.3379
 Quadrupole moment (field-independent basis, Debye-Ang):
   XX=            -50.4257   YY=            -67.4348   ZZ=            -74.9435
   XY=             -0.2640   XZ=             -1.8290   YZ=              0.4832

 Normal termination of Gaussian 16 at Fri Dec  8 04:34:36 2023.
