 Gaussian 16, Revision B.01,
 Gaussian 16:  ES64L-G16RevB.01 20-Dec-2017

 -------------------------
 #P B3LYP/6-311+g(d) force
 -------------------------

 -----
 DPGEN
 -----
 Symbolic Z-matrix:
 Charge =  0 Multiplicity = 2

                         Standard orientation:
 ---------------------------------------------------------------------
 Center     Atomic      Atomic             Coordinates (Angstroms)
 Number     Number       Type             X           Y           Z
 ---------------------------------------------------------------------
      1         11           0        2.356500   -1.623170    0.905357
      2         11           0       -3.978127   -0.187860   -0.047195
      3         11           0        1.793430    2.104380    0.617035
      4         11           0        2.112184   -0.249677   -1.481924
      5         11           0       -0.740824    1.661479   -1.240480
      6         11           0       -0.666370   -2.058833   -0.585331
      7         11           0       -0.876794    0.353681    1.832538
 ---------------------------------------------------------------------

 SCF Done:  E(UB3LYP) =  -1136.12674884     A.U. after   20 cycles

 The electronic state is 2-A.
 Alpha  occ. eigenvalues --  -38.45145 -38.43853 -38.43791 -38.43679 -38.43352
 Alpha  occ. eigenvalues --  -38.43217 -38.42880  -2.20904  -2.19802  -2.19759
 Alpha  occ. eigenvalues --   -2.19598  -2.19222  -2.19133  -2.18801  -1.14582
 Alpha  occ. eigenvalues --   -1.14568  -1.14526  -1.13713  -1.13463  -1.13453
 Alpha  occ. eigenvalues --   -1.13411  -1.13400  -1.13365  -1.13225  -1.13193
 Alpha  occ. eigenvalues --   -1.13161  -1.12933  -1.12909  -1.12839  -1.12805
 Alpha  occ. eigenvalues --   -1.12794  -1.12744  -1.12469  -1.12459  -1.12430
 Alpha  occ. eigenvalues --   -0.18994  -0.13534  -0.11739  -0.11218
 Alpha virt. eigenvalues --   -0.06649  -0.04470  -0.04173  -0.03411  -0.02847
 Alpha virt. eigenvalues --   -0.02555  -0.02311  -0.00728  -0.00494   0.00047
 Alpha virt. eigenvalues --    0.00245   0.00264   0.00466   0.00871   0.00895

  Beta  occ. eigenvalues --  -38.45147 -38.43786 -38.43750 -38.43663 -38.43336
  Beta  occ. eigenvalues --  -38.43181 -38.42868  -2.20910  -2.19730  -2.19637
  Beta  occ. eigenvalues --   -2.19570  -2.19197  -2.19070  -2.18783  -1.14578
  Beta  occ. eigenvalues --   -1.14574  -1.14531  -1.13671  -1.13399  -1.13382
  Beta  occ. eigenvalues --   -1.13363  -1.13314  -1.13266  -1.13201  -1.13166
  Beta  occ. eigenvalues --   -1.13123  -1.12919  -1.12861  -1.12803  -1.12791
  Beta  occ. eigenvalues --   -1.12731  -1.12698  -1.12461  -1.12437  -1.12393
  Beta  occ. eigenvalues --   -0.18193  -0.13419  -0.11522
  Beta virt. eigenvalues --   -0.07179  -0.06524  -0.04449  -0.03681  -0.03175
  Beta virt. eigenvalues --   -0.02260  -0.02124  -0.01537  -0.00703  -0.00150
  Beta virt. eigenvalues --    0.00091   0.00223   0.00297   0.00627   0.00903

 Mulliken charges and spin densities:
               1          2
     1  Na   0.096263   0.155632
     2  Na   0.309073  -0.017121
     3  Na   0.169036   0.103252
     4  Na   0.426941   0.154422
     5  Na  -0.332421   0.177088
     6  Na  -0.384133   0.045397
     7  Na  -0.284760   0.381330
 Sum of Mulliken charges =  -0.00000   1.00000

 Dipole moment (field-independent basis, Debye):
    X=             -1.2340    Y=             -0.0008    Z=              0.1341  Tot=              1.2413
 Quadrupole moment (field-independent basis, Debye-Ang):
   XX=            -49.5778   YY=            -74.4176   ZZ=            -68.9913
   XY=              0.6991   XZ=              1.9508   YZ=             -0.4048

 Normal termination of Gaussian 16 at Tue Dec  5 13:14:14 2023.
