 Gaussian 16, Revision B.01,
 Gaussian 16:  ES64L-G16RevB.01 20-Dec-2017

 -------------------------
 #P B3LYP/6-311+g(d) force
 -------------------------

 -----
 DPGEN
 -----
 Symbolic Z-matrix:
 Charge =  0 Multiplicity = 2

                         Standard orientation:
 ---------------------------------------------------------------------
 Center     Atomic      Atomic             Coordinates (Angstroms)
 Number     Number       Type             X           Y           Z
 ---------------------------------------------------------------------
      1         11           0       -3.284185    0.310744   -1.244174
      2         11           0       -2.442453   -1.820529    0.890147
      3         11           0        2.440897    1.637049   -0.133746
      4         11           0        0.235474   -0.732449   -1.466101
      5         11           0        0.319568    0.009934    2.359460
      6         11           0       -0.790801    2.167929    0.131254
      7         11           0        3.521500   -1.572678   -0.536839
 ---------------------------------------------------------------------

 SCF Done:  E(UB3LYP) =  -1136.12681589     A.U. after   24 cycles

 The electronic state is 2-A.
 Alpha  occ. eigenvalues --  -38.44448 -38.44262 -38.44195 -38.44169 -38.43997
 Alpha  occ. eigenvalues --  -38.43414 -38.42421  -2.20313  -2.20112  -2.20061
 Alpha  occ. eigenvalues --   -2.20035  -2.19875  -2.19213  -2.18349  -1.14007
 Alpha  occ. eigenvalues --   -1.13963  -1.13956  -1.13781  -1.13760  -1.13743
 Alpha  occ. eigenvalues --   -1.13733  -1.13726  -1.13720  -1.13701  -1.13664
 Alpha  occ. eigenvalues --   -1.13633  -1.13574  -1.13537  -1.13478  -1.12884
 Alpha  occ. eigenvalues --   -1.12877  -1.12854  -1.12040  -1.12013  -1.11975
 Alpha  occ. eigenvalues --   -0.18494  -0.13873  -0.11739  -0.11105
 Alpha virt. eigenvalues --   -0.06330  -0.05463  -0.04379  -0.03265  -0.02902
 Alpha virt. eigenvalues --   -0.02582  -0.02244  -0.01101  -0.00599  -0.00141
 Alpha virt. eigenvalues --    0.00176   0.00236   0.00485   0.00616   0.00736

  Beta  occ. eigenvalues --  -38.44419 -38.44223 -38.44147 -38.44110 -38.43992
  Beta  occ. eigenvalues --  -38.43423 -38.42402  -2.20261  -2.20042  -2.19996
  Beta  occ. eigenvalues --   -2.19903  -2.19866  -2.19229  -2.18317  -1.13972
  Beta  occ. eigenvalues --   -1.13920  -1.13916  -1.13729  -1.13715  -1.13706
  Beta  occ. eigenvalues --   -1.13684  -1.13669  -1.13625  -1.13607  -1.13595
  Beta  occ. eigenvalues --   -1.13559  -1.13552  -1.13521  -1.13475  -1.12895
  Beta  occ. eigenvalues --   -1.12885  -1.12864  -1.12021  -1.11980  -1.11937
  Beta  occ. eigenvalues --   -0.17752  -0.13704  -0.11012
  Beta virt. eigenvalues --   -0.07635  -0.06180  -0.05160  -0.03865  -0.02947
  Beta virt. eigenvalues --   -0.02366  -0.02046  -0.01921  -0.00885  -0.00316
  Beta virt. eigenvalues --   -0.00088   0.00215   0.00290   0.00620   0.00724

 Mulliken charges and spin densities:
               1          2
     1  Na   1.151255   0.183362
     2  Na  -0.198884  -0.056844
     3  Na   0.338918  -0.023346
     4  Na  -1.030446   0.422987
     5  Na  -0.048094   0.559385
     6  Na  -0.414843   0.076261
     7  Na   0.202094  -0.161805
 Sum of Mulliken charges =  -0.00000   1.00000

 Dipole moment (field-independent basis, Debye):
    X=             -0.3210    Y=              0.1329    Z=              0.2886  Tot=              0.4516
 Quadrupole moment (field-independent basis, Debye-Ang):
   XX=            -55.0875   YY=            -71.8993   ZZ=            -69.7486
   XY=              1.0980   XZ=              3.3000   YZ=             -5.0920

 Normal termination of Gaussian 16 at Tue Dec  5 16:56:00 2023.
