 Gaussian 16, Revision B.01,
 Gaussian 16:  ES64L-G16RevB.01 20-Dec-2017

 -------------------------
 #P B3LYP/6-311+g(d) force
 -------------------------

 -----
 DPGEN
 -----
 Symbolic Z-matrix:
 Charge =  0 Multiplicity = 2

                         Standard orientation:
 ---------------------------------------------------------------------
 Center     Atomic      Atomic             Coordinates (Angstroms)
 Number     Number       Type             X           Y           Z
 ---------------------------------------------------------------------
      1         11           0       -4.521520   -1.706268   -0.997530
      2         11           0       -0.170482    1.968843   -0.561992
      3         11           0       -3.723649    2.001584    0.587957
      4         11           0       -1.624362   -1.720772    0.626527
      5         11           0        2.310256   -0.922519    1.498324
      6         11           0        3.188716    1.709380   -0.278402
      7         11           0        4.541041   -1.330247   -0.874883
 ---------------------------------------------------------------------

 SCF Done:  E(UB3LYP) =  -1136.10885560     A.U. after   28 cycles

 The electronic state is 2-A.
 Alpha  occ. eigenvalues --  -38.45498 -38.44855 -38.44708 -38.44337 -38.44144
 Alpha  occ. eigenvalues --  -38.43931 -38.42696  -2.21242  -2.20708  -2.20545
 Alpha  occ. eigenvalues --   -2.20105  -2.19982  -2.19727  -2.18484  -1.14921
 Alpha  occ. eigenvalues --   -1.14882  -1.14858  -1.14414  -1.14389  -1.14321
 Alpha  occ. eigenvalues --   -1.14233  -1.14201  -1.14168  -1.13780  -1.13773
 Alpha  occ. eigenvalues --   -1.13742  -1.13637  -1.13630  -1.13606  -1.13419
 Alpha  occ. eigenvalues --   -1.13384  -1.13338  -1.12166  -1.12150  -1.12137
 Alpha  occ. eigenvalues --   -0.16713  -0.14460  -0.11078  -0.10663
 Alpha virt. eigenvalues --   -0.07513  -0.05749  -0.04498  -0.03311  -0.03043
 Alpha virt. eigenvalues --   -0.02550  -0.02022  -0.01741  -0.01062  -0.00516
 Alpha virt. eigenvalues --   -0.00241  -0.00172   0.00035   0.00249   0.00370

  Beta  occ. eigenvalues --  -38.45451 -38.44844 -38.44680 -38.44336 -38.44102
  Beta  occ. eigenvalues --  -38.43885 -38.42698  -2.21153  -2.20688  -2.20498
  Beta  occ. eigenvalues --   -2.20103  -2.19904  -2.19644  -2.18490  -1.14859
  Beta  occ. eigenvalues --   -1.14824  -1.14795  -1.14400  -1.14378  -1.14290
  Beta  occ. eigenvalues --   -1.14205  -1.14173  -1.14101  -1.13778  -1.13771
  Beta  occ. eigenvalues --   -1.13736  -1.13582  -1.13578  -1.13554  -1.13366
  Beta  occ. eigenvalues --   -1.13330  -1.13260  -1.12172  -1.12151  -1.12134
  Beta  occ. eigenvalues --   -0.16146  -0.14077  -0.10981
  Beta virt. eigenvalues --   -0.07317  -0.06956  -0.05324  -0.04213  -0.03058
  Beta virt. eigenvalues --   -0.02792  -0.02165  -0.01742  -0.01313  -0.00865
  Beta virt. eigenvalues --   -0.00249  -0.00150  -0.00010   0.00127   0.00374

 Mulliken charges and spin densities:
               1          2
     1  Na   0.600173   0.196097
     2  Na  -0.616386  -0.112613
     3  Na   0.342323   0.301406
     4  Na  -0.612501   0.184735
     5  Na  -0.336045  -0.017392
     6  Na   0.267535   0.180318
     7  Na   0.354902   0.267449
 Sum of Mulliken charges =  -0.00000   1.00000

 Dipole moment (field-independent basis, Debye):
    X=              0.1497    Y=              0.0275    Z=             -0.0758  Tot=              0.1700
 Quadrupole moment (field-independent basis, Debye-Ang):
   XX=            -57.0410   YY=            -72.6712   ZZ=            -66.8223
   XY=             -1.3773   XZ=             -0.1281   YZ=              3.8135

 Normal termination of Gaussian 16 at Sun Dec  3 17:57:22 2023.
