 Gaussian 16, Revision B.01,
 Gaussian 16:  ES64L-G16RevB.01 20-Dec-2017

 -------------------------
 #P B3LYP/6-311+g(d) force
 -------------------------

 -----
 DPGEN
 -----
 Symbolic Z-matrix:
 Charge =  0 Multiplicity = 2

                         Standard orientation:
 ---------------------------------------------------------------------
 Center     Atomic      Atomic             Coordinates (Angstroms)
 Number     Number       Type             X           Y           Z
 ---------------------------------------------------------------------
      1         11           0       -2.251272    1.809426    1.438800
      2         11           0        0.322883   -1.221159   -1.065618
      3         11           0       -2.687598   -1.770206   -0.398396
      4         11           0       -1.224206    1.155004   -1.847720
      5         11           0        2.210537    1.935901   -0.191448
      6         11           0        3.692385   -0.872135    0.213891
      7         11           0       -0.062729   -1.036831    1.850490
 ---------------------------------------------------------------------

 SCF Done:  E(UB3LYP) =  -1136.12062416     A.U. after   21 cycles

 The electronic state is 2-A.
 Alpha  occ. eigenvalues --  -38.44546 -38.44115 -38.44050 -38.44044 -38.43930
 Alpha  occ. eigenvalues --  -38.43424 -38.43299  -2.20354  -2.19975  -2.19937
 Alpha  occ. eigenvalues --   -2.19860  -2.19737  -2.19467  -2.19207  -1.14033
 Alpha  occ. eigenvalues --   -1.14022  -1.13985  -1.13722  -1.13674  -1.13622
 Alpha  occ. eigenvalues --   -1.13610  -1.13571  -1.13527  -1.13517  -1.13497
 Alpha  occ. eigenvalues --   -1.13483  -1.13413  -1.13405  -1.13370  -1.13241
 Alpha  occ. eigenvalues --   -1.13147  -1.13033  -1.12869  -1.12823  -1.12798
 Alpha  occ. eigenvalues --   -0.18551  -0.13638  -0.11705  -0.11110
 Alpha virt. eigenvalues --   -0.06298  -0.05308  -0.03965  -0.03212  -0.03017
 Alpha virt. eigenvalues --   -0.02800  -0.02051  -0.01192  -0.00462   0.00017
 Alpha virt. eigenvalues --    0.00188   0.00284   0.00440   0.00679   0.00785

  Beta  occ. eigenvalues --  -38.44548 -38.44105 -38.43991 -38.43991 -38.43932
  Beta  occ. eigenvalues --  -38.43381 -38.43250  -2.20359  -2.19959  -2.19839
  Beta  occ. eigenvalues --   -2.19751  -2.19740  -2.19394  -2.19121  -1.14038
  Beta  occ. eigenvalues --   -1.14022  -1.13988  -1.13676  -1.13635  -1.13606
  Beta  occ. eigenvalues --   -1.13590  -1.13489  -1.13459  -1.13440  -1.13426
  Beta  occ. eigenvalues --   -1.13409  -1.13405  -1.13404  -1.13375  -1.13177
  Beta  occ. eigenvalues --   -1.13077  -1.12982  -1.12806  -1.12767  -1.12725
  Beta  occ. eigenvalues --   -0.17789  -0.13438  -0.10955
  Beta virt. eigenvalues --   -0.07561  -0.06133  -0.05287  -0.03422  -0.03002
  Beta virt. eigenvalues --   -0.02410  -0.01975  -0.01817  -0.01054  -0.00166
  Beta virt. eigenvalues --    0.00004   0.00189   0.00312   0.00617   0.00748

 Mulliken charges and spin densities:
               1          2
     1  Na  -0.221901   0.222227
     2  Na   0.174207   0.266835
     3  Na   0.387911  -0.115428
     4  Na  -0.024375   0.148076
     5  Na  -0.206587  -0.055398
     6  Na   0.324116  -0.063814
     7  Na  -0.433372   0.597501
 Sum of Mulliken charges =  -0.00000   1.00000

 Dipole moment (field-independent basis, Debye):
    X=              0.3254    Y=             -0.2753    Z=              0.3832  Tot=              0.5732
 Quadrupole moment (field-independent basis, Debye-Ang):
   XX=            -50.5694   YY=            -73.9942   ZZ=            -69.0302
   XY=              0.6703   XZ=              0.8423   YZ=              2.2256

 Normal termination of Gaussian 16 at Thu Dec  7 21:39:58 2023.
