 Gaussian 16, Revision B.01,
 Gaussian 16:  ES64L-G16RevB.01 20-Dec-2017

 -------------------------
 #P B3LYP/6-311+g(d) force
 -------------------------

 -----
 DPGEN
 -----
 Symbolic Z-matrix:
 Charge =  0 Multiplicity = 2

                         Standard orientation:
 ---------------------------------------------------------------------
 Center     Atomic      Atomic             Coordinates (Angstroms)
 Number     Number       Type             X           Y           Z
 ---------------------------------------------------------------------
      1         11           0       -3.100580   -0.587751   -0.332659
      2         11           0       -0.060511   -0.152726    1.868590
      3         11           0       -0.434543   -2.821542   -0.021655
      4         11           0        3.064673   -1.067995    0.106906
      5         11           0        1.778950    2.184145   -0.239942
      6         11           0        0.252978    0.000597   -1.654416
      7         11           0       -1.500967    2.445272    0.273177
 ---------------------------------------------------------------------

 SCF Done:  E(UB3LYP) =  -1136.13840847     A.U. after   19 cycles

 The electronic state is 2-A.
 Alpha  occ. eigenvalues --  -38.44111 -38.44007 -38.43408 -38.43407 -38.43246
 Alpha  occ. eigenvalues --  -38.43185 -38.43147  -2.19927  -2.19836  -2.19318
 Alpha  occ. eigenvalues --   -2.19274  -2.19194  -2.19152  -2.19065  -1.13601
 Alpha  occ. eigenvalues --   -1.13588  -1.13568  -1.13506  -1.13493  -1.13484
 Alpha  occ. eigenvalues --   -1.13104  -1.12994  -1.12974  -1.12960  -1.12940
 Alpha  occ. eigenvalues --   -1.12885  -1.12876  -1.12823  -1.12811  -1.12804
 Alpha  occ. eigenvalues --   -1.12768  -1.12753  -1.12723  -1.12713  -1.12699
 Alpha  occ. eigenvalues --   -0.18942  -0.13053  -0.12582  -0.10665
 Alpha virt. eigenvalues --   -0.05751  -0.04967  -0.04664  -0.03120  -0.02891
 Alpha virt. eigenvalues --   -0.02370  -0.01661  -0.01064  -0.00310  -0.00198
 Alpha virt. eigenvalues --    0.00025   0.00351   0.00832   0.00883   0.00923

  Beta  occ. eigenvalues --  -38.44108 -38.44001 -38.43401 -38.43398 -38.43177
  Beta  occ. eigenvalues --  -38.43159 -38.43078  -2.19926  -2.19827  -2.19305
  Beta  occ. eigenvalues --   -2.19266  -2.19055  -2.19034  -2.19027  -1.13590
  Beta  occ. eigenvalues --   -1.13585  -1.13564  -1.13493  -1.13481  -1.13474
  Beta  occ. eigenvalues --   -1.13076  -1.12979  -1.12939  -1.12936  -1.12926
  Beta  occ. eigenvalues --   -1.12881  -1.12789  -1.12741  -1.12724  -1.12705
  Beta  occ. eigenvalues --   -1.12699  -1.12693  -1.12680  -1.12665  -1.12653
  Beta  occ. eigenvalues --   -0.18214  -0.12802  -0.12315
  Beta virt. eigenvalues --   -0.06759  -0.05727  -0.04950  -0.04644  -0.02346
  Beta virt. eigenvalues --   -0.02086  -0.01580  -0.01321  -0.00989  -0.00365
  Beta virt. eigenvalues --   -0.00229   0.00141   0.00373   0.00867   0.00884

 Mulliken charges and spin densities:
               1          2
     1  Na   0.027567  -0.024898
     2  Na  -0.347220   0.744773
     3  Na   0.074802  -0.122494
     4  Na   0.074365  -0.108059
     5  Na   0.284582  -0.028024
     6  Na  -0.266424   0.549367
     7  Na   0.152328  -0.010666
 Sum of Mulliken charges =  -0.00000   1.00000

 Dipole moment (field-independent basis, Debye):
    X=              0.0945    Y=             -0.2572    Z=              0.0739  Tot=              0.2838
 Quadrupole moment (field-independent basis, Debye-Ang):
   XX=            -54.8038   YY=            -62.8714   ZZ=            -74.8732
   XY=             -0.6974   XZ=              0.9542   YZ=              0.3476

 Normal termination of Gaussian 16 at Sat Dec  9 06:03:38 2023.
