 Gaussian 16, Revision B.01,
 Gaussian 16:  ES64L-G16RevB.01 20-Dec-2017

 -------------------------
 #P B3LYP/6-311+g(d) force
 -------------------------

 -----
 DPGEN
 -----
 Symbolic Z-matrix:
 Charge =  0 Multiplicity = 2

                         Standard orientation:
 ---------------------------------------------------------------------
 Center     Atomic      Atomic             Coordinates (Angstroms)
 Number     Number       Type             X           Y           Z
 ---------------------------------------------------------------------
      1         11           0        1.355218    2.385528   -0.137294
      2         11           0       -2.367414   -1.530041   -0.278115
      3         11           0       -2.110643    2.042017    0.033481
      4         11           0       -0.213671    0.050484   -1.626741
      5         11           0       -0.024019    0.064833    2.125994
      6         11           0        0.419716   -2.509741    0.140090
      7         11           0        2.940813   -0.503079   -0.257414
 ---------------------------------------------------------------------

 SCF Done:  E(UB3LYP) =  -1136.13419175     A.U. after   18 cycles

 The electronic state is 2-A.
 Alpha  occ. eigenvalues --  -38.43840 -38.43505 -38.43490 -38.43465 -38.43382
 Alpha  occ. eigenvalues --  -38.43218 -38.43065  -2.19763  -2.19452  -2.19368
 Alpha  occ. eigenvalues --   -2.19340  -2.19305  -2.19283  -2.19050  -1.13435
 Alpha  occ. eigenvalues --   -1.13395  -1.13377  -1.13265  -1.13139  -1.13094
 Alpha  occ. eigenvalues --   -1.13071  -1.13061  -1.13047  -1.13020  -1.13006
 Alpha  occ. eigenvalues --   -1.12993  -1.12968  -1.12959  -1.12937  -1.12889
 Alpha  occ. eigenvalues --   -1.12881  -1.12874  -1.12714  -1.12691  -1.12662
 Alpha  occ. eigenvalues --   -0.19512  -0.13027  -0.12816  -0.11303
 Alpha virt. eigenvalues --   -0.05111  -0.04944  -0.04517  -0.03221  -0.03141
 Alpha virt. eigenvalues --   -0.02876  -0.01206  -0.00969  -0.00057   0.00073
 Alpha virt. eigenvalues --    0.00180   0.00365   0.00900   0.00979   0.00993

  Beta  occ. eigenvalues --  -38.43737 -38.43496 -38.43486 -38.43460 -38.43375
  Beta  occ. eigenvalues --  -38.43151 -38.43055  -2.19575  -2.19440  -2.19364
  Beta  occ. eigenvalues --   -2.19335  -2.19276  -2.19184  -2.19036  -1.13314
  Beta  occ. eigenvalues --   -1.13260  -1.13249  -1.13235  -1.13121  -1.13070
  Beta  occ. eigenvalues --   -1.13056  -1.13049  -1.13039  -1.12997  -1.12984
  Beta  occ. eigenvalues --   -1.12976  -1.12962  -1.12916  -1.12890  -1.12879
  Beta  occ. eigenvalues --   -1.12822  -1.12801  -1.12702  -1.12659  -1.12637
  Beta  occ. eigenvalues --   -0.18742  -0.12752  -0.12551
  Beta virt. eigenvalues --   -0.07285  -0.05115  -0.04916  -0.04513  -0.02370
  Beta virt. eigenvalues --   -0.02305  -0.01757  -0.01142  -0.00907   0.00015
  Beta virt. eigenvalues --    0.00065   0.00153   0.00380   0.00936   0.00979

 Mulliken charges and spin densities:
               1          2
     1  Na   0.244711  -0.022958
     2  Na   0.422129  -0.000283
     3  Na   0.239553  -0.035191
     4  Na  -0.691387   0.312244
     5  Na  -0.766135   0.651413
     6  Na   0.479511   0.126767
     7  Na   0.071618  -0.031992
 Sum of Mulliken charges =  -0.00000   1.00000

 Dipole moment (field-independent basis, Debye):
    X=             -0.0366    Y=              0.2730    Z=              0.2923  Tot=              0.4016
 Quadrupole moment (field-independent basis, Debye-Ang):
   XX=            -59.3168   YY=            -63.9032   ZZ=            -71.6412
   XY=             -0.3555   XZ=             -0.4473   YZ=              0.1392

 Normal termination of Gaussian 16 at Tue Dec  5 20:28:04 2023.
