 Gaussian 16, Revision B.01,
 Gaussian 16:  ES64L-G16RevB.01 20-Dec-2017

 -------------------------
 #P B3LYP/6-311+g(d) force
 -------------------------

 -----
 DPGEN
 -----
 Symbolic Z-matrix:
 Charge =  0 Multiplicity = 2

                         Standard orientation:
 ---------------------------------------------------------------------
 Center     Atomic      Atomic             Coordinates (Angstroms)
 Number     Number       Type             X           Y           Z
 ---------------------------------------------------------------------
      1         11           0       -0.199876   -0.379521    1.937364
      2         11           0        2.778900   -0.987579   -0.072430
      3         11           0        1.773660    1.906750    0.261316
      4         11           0       -1.301578    2.187517   -0.098014
      5         11           0       -2.916822   -0.438848   -0.100477
      6         11           0       -0.349237   -2.385127   -0.210485
      7         11           0        0.214954    0.096808   -1.717274
 ---------------------------------------------------------------------

 SCF Done:  E(UB3LYP) =  -1136.12674453     A.U. after   19 cycles

 The electronic state is 2-A.
 Alpha  occ. eigenvalues --  -38.43894 -38.43791 -38.43675 -38.43434 -38.43196
 Alpha  occ. eigenvalues --  -38.43010 -38.42952  -2.19818  -2.19708  -2.19684
 Alpha  occ. eigenvalues --   -2.19544  -2.19176  -2.19017  -2.18937  -1.13519
 Alpha  occ. eigenvalues --   -1.13486  -1.13471  -1.13438  -1.13402  -1.13378
 Alpha  occ. eigenvalues --   -1.13342  -1.13324  -1.13270  -1.13257  -1.13239
 Alpha  occ. eigenvalues --   -1.13145  -1.12869  -1.12823  -1.12812  -1.12697
 Alpha  occ. eigenvalues --   -1.12679  -1.12614  -1.12592  -1.12571  -1.12557
 Alpha  occ. eigenvalues --   -0.20082  -0.13550  -0.12593  -0.11430
 Alpha virt. eigenvalues --   -0.05553  -0.04636  -0.04137  -0.03466  -0.03006
 Alpha virt. eigenvalues --   -0.02732  -0.01484  -0.00681  -0.00047   0.00246
 Alpha virt. eigenvalues --    0.00325   0.00386   0.00920   0.01013   0.01046

  Beta  occ. eigenvalues --  -38.43890 -38.43786 -38.43585 -38.43354 -38.43186
  Beta  occ. eigenvalues --  -38.42995 -38.42943  -2.19813  -2.19703  -2.19519
  Beta  occ. eigenvalues --   -2.19400  -2.19163  -2.18997  -2.18926  -1.13516
  Beta  occ. eigenvalues --   -1.13484  -1.13435  -1.13428  -1.13361  -1.13331
  Beta  occ. eigenvalues --   -1.13299  -1.13210  -1.13158  -1.13155  -1.13151
  Beta  occ. eigenvalues --   -1.13046  -1.12858  -1.12816  -1.12766  -1.12682
  Beta  occ. eigenvalues --   -1.12615  -1.12602  -1.12585  -1.12556  -1.12527
  Beta  occ. eigenvalues --   -0.19293  -0.13270  -0.12289
  Beta virt. eigenvalues --   -0.07383  -0.05534  -0.04637  -0.04142  -0.02601
  Beta virt. eigenvalues --   -0.02148  -0.01619  -0.01406  -0.00632   0.00096
  Beta virt. eigenvalues --    0.00206   0.00286   0.00396   0.00960   0.01010

 Mulliken charges and spin densities:
               1          2
     1  Na  -0.995841   0.619878
     2  Na   0.304186  -0.057403
     3  Na   0.307933   0.062368
     4  Na   0.421742   0.018987
     5  Na   0.228953  -0.041472
     6  Na   0.716028  -0.054310
     7  Na  -0.983001   0.451950
 Sum of Mulliken charges =  -0.00000   1.00000

 Dipole moment (field-independent basis, Debye):
    X=              0.0091    Y=             -0.1734    Z=              0.2089  Tot=              0.2716
 Quadrupole moment (field-independent basis, Debye-Ang):
   XX=            -55.9883   YY=            -68.0419   ZZ=            -71.0446
   XY=             -0.3180   XZ=              0.7579   YZ=              0.9214

 Normal termination of Gaussian 16 at Sat Dec  9 05:36:01 2023.
