 Gaussian 16, Revision B.01,
 Gaussian 16:  ES64L-G16RevB.01 20-Dec-2017

 -------------------------
 #P B3LYP/6-311+g(d) force
 -------------------------

 -----
 DPGEN
 -----
 Symbolic Z-matrix:
 Charge =  0 Multiplicity = 2

                         Standard orientation:
 ---------------------------------------------------------------------
 Center     Atomic      Atomic             Coordinates (Angstroms)
 Number     Number       Type             X           Y           Z
 ---------------------------------------------------------------------
      1         11           0       -1.095047    3.500553    0.302792
      2         11           0       -3.581989    1.418995   -1.095941
      3         11           0       -1.990370   -2.775253    2.220148
      4         11           0       -1.943825   -2.088651   -1.058845
      5         11           0        0.819655    0.149695   -0.061795
      6         11           0        3.892367   -1.505828   -1.729233
      7         11           0        3.899209    1.300489    1.422875
 ---------------------------------------------------------------------

 SCF Done:  E(UB3LYP) =  -1136.10598100     A.U. after   22 cycles

 The electronic state is 2-A.
 Alpha  occ. eigenvalues --  -38.44897 -38.44623 -38.44561 -38.44521 -38.44400
 Alpha  occ. eigenvalues --  -38.44306 -38.44206  -2.20640  -2.20397  -2.20336
 Alpha  occ. eigenvalues --   -2.20284  -2.20169  -2.20052  -2.19998  -1.14315
 Alpha  occ. eigenvalues --   -1.14297  -1.14264  -1.14054  -1.14053  -1.14050
 Alpha  occ. eigenvalues --   -1.14023  -1.14010  -1.13961  -1.13950  -1.13933
 Alpha  occ. eigenvalues --   -1.13913  -1.13824  -1.13817  -1.13767  -1.13736
 Alpha  occ. eigenvalues --   -1.13722  -1.13683  -1.13681  -1.13655  -1.13637
 Alpha  occ. eigenvalues --   -0.15952  -0.13299  -0.12105  -0.10181
 Alpha virt. eigenvalues --   -0.07004  -0.06556  -0.04516  -0.03170  -0.03098
 Alpha virt. eigenvalues --   -0.02397  -0.02265  -0.01617  -0.01151  -0.00975
 Alpha virt. eigenvalues --   -0.00478  -0.00227  -0.00027   0.00238   0.00463

  Beta  occ. eigenvalues --  -38.44873 -38.44578 -38.44556 -38.44497 -38.44317
  Beta  occ. eigenvalues --  -38.44310 -38.44213  -2.20597  -2.20331  -2.20311
  Beta  occ. eigenvalues --   -2.20239  -2.20074  -2.20012  -2.20000  -1.14285
  Beta  occ. eigenvalues --   -1.14259  -1.14235  -1.14036  -1.13994  -1.13991
  Beta  occ. eigenvalues --   -1.13990  -1.13968  -1.13955  -1.13928  -1.13902
  Beta  occ. eigenvalues --   -1.13888  -1.13752  -1.13735  -1.13709  -1.13700
  Beta  occ. eigenvalues --   -1.13695  -1.13691  -1.13665  -1.13656  -1.13629
  Beta  occ. eigenvalues --   -0.15651  -0.12781  -0.11957
  Beta virt. eigenvalues --   -0.07161  -0.06368  -0.05908  -0.04401  -0.03025
  Beta virt. eigenvalues --   -0.02828  -0.02247  -0.01791  -0.01334  -0.00864
  Beta virt. eigenvalues --   -0.00837  -0.00217  -0.00026   0.00073   0.00490

 Mulliken charges and spin densities:
               1          2
     1  Na   0.439162  -0.078350
     2  Na  -0.054810   0.111847
     3  Na   0.287661   0.225431
     4  Na   0.474630   0.006263
     5  Na  -2.035217   0.117696
     6  Na   0.316935   0.447439
     7  Na   0.571639   0.169674
 Sum of Mulliken charges =  -0.00000   1.00000

 Dipole moment (field-independent basis, Debye):
    X=             -0.3052    Y=              0.0950    Z=              0.8072  Tot=              0.8681
 Quadrupole moment (field-independent basis, Debye-Ang):
   XX=            -58.9296   YY=            -70.3283   ZZ=            -66.8033
   XY=              3.2934   XZ=              3.5871   YZ=              1.9041

 Normal termination of Gaussian 16 at Fri Dec  8 17:21:02 2023.
