 Gaussian 16, Revision B.01,
 Gaussian 16:  ES64L-G16RevB.01 20-Dec-2017

 -------------------------
 #P B3LYP/6-311+g(d) force
 -------------------------

 -----
 DPGEN
 -----
 Symbolic Z-matrix:
 Charge =  0 Multiplicity = 2

                         Standard orientation:
 ---------------------------------------------------------------------
 Center     Atomic      Atomic             Coordinates (Angstroms)
 Number     Number       Type             X           Y           Z
 ---------------------------------------------------------------------
      1         11           0        1.636416    2.367689   -0.387299
      2         11           0       -3.263235   -0.890596   -0.148799
      3         11           0        0.207557    0.247857    1.950838
      4         11           0       -0.142250   -0.240525   -1.773037
      5         11           0        3.126173   -0.950108   -0.066052
      6         11           0        0.140383   -2.604947    0.228193
      7         11           0       -1.705043    2.070631    0.196157
 ---------------------------------------------------------------------

 SCF Done:  E(UB3LYP) =  -1136.13714163     A.U. after   19 cycles

 The electronic state is 2-A.
 Alpha  occ. eigenvalues --  -38.44253 -38.44181 -38.43494 -38.43436 -38.43195
 Alpha  occ. eigenvalues --  -38.43175 -38.43146  -2.20069  -2.19989  -2.19439
 Alpha  occ. eigenvalues --   -2.19400  -2.19110  -2.19043  -2.19041  -1.13739
 Alpha  occ. eigenvalues --   -1.13721  -1.13720  -1.13661  -1.13655  -1.13628
 Alpha  occ. eigenvalues --   -1.13138  -1.13107  -1.13085  -1.13064  -1.13053
 Alpha  occ. eigenvalues --   -1.13001  -1.12794  -1.12777  -1.12742  -1.12730
 Alpha  occ. eigenvalues --   -1.12714  -1.12710  -1.12700  -1.12662  -1.12635
 Alpha  occ. eigenvalues --   -0.18897  -0.13088  -0.12354  -0.10911
 Alpha virt. eigenvalues --   -0.05964  -0.04942  -0.04272  -0.03210  -0.02954
 Alpha virt. eigenvalues --   -0.02597  -0.01843  -0.01014  -0.00163  -0.00083
 Alpha virt. eigenvalues --   -0.00010   0.00334   0.00794   0.00902   0.00920

  Beta  occ. eigenvalues --  -38.44252 -38.44181 -38.43404 -38.43365 -38.43185
  Beta  occ. eigenvalues --  -38.43166 -38.43135  -2.20070  -2.19992  -2.19274
  Beta  occ. eigenvalues --   -2.19269  -2.19097  -2.19029  -2.19026  -1.13728
  Beta  occ. eigenvalues --   -1.13724  -1.13715  -1.13664  -1.13641  -1.13631
  Beta  occ. eigenvalues --   -1.13044  -1.13012  -1.12974  -1.12967  -1.12939
  Beta  occ. eigenvalues --   -1.12905  -1.12779  -1.12743  -1.12726  -1.12717
  Beta  occ. eigenvalues --   -1.12696  -1.12676  -1.12667  -1.12652  -1.12629
  Beta  occ. eigenvalues --   -0.18142  -0.12869  -0.12092
  Beta virt. eigenvalues --   -0.06966  -0.05920  -0.04941  -0.04245  -0.02451
  Beta virt. eigenvalues --   -0.02140  -0.01763  -0.01529  -0.00962  -0.00171
  Beta virt. eigenvalues --   -0.00115   0.00098   0.00351   0.00849   0.00901

 Mulliken charges and spin densities:
               1          2
     1  Na   0.096705  -0.047891
     2  Na   0.082127  -0.090812
     3  Na  -0.349503   0.628104
     4  Na  -0.443001   0.695883
     5  Na   0.092056  -0.091440
     6  Na   0.179354  -0.094543
     7  Na   0.342262   0.000699
 Sum of Mulliken charges =  -0.00000   1.00000

 Dipole moment (field-independent basis, Debye):
    X=              0.0941    Y=             -0.1891    Z=              0.0070  Tot=              0.2113
 Quadrupole moment (field-independent basis, Debye-Ang):
   XX=            -52.9455   YY=            -66.6900   ZZ=            -73.3745
   XY=              0.6559   XZ=             -0.6340   YZ=             -0.9352

 Normal termination of Gaussian 16 at Thu Dec  7 19:13:28 2023.
