 Gaussian 16, Revision B.01,
 Gaussian 16:  ES64L-G16RevB.01 20-Dec-2017

 -------------------------
 #P B3LYP/6-311+g(d) force
 -------------------------

 -----
 DPGEN
 -----
 Symbolic Z-matrix:
 Charge =  0 Multiplicity = 2

                         Standard orientation:
 ---------------------------------------------------------------------
 Center     Atomic      Atomic             Coordinates (Angstroms)
 Number     Number       Type             X           Y           Z
 ---------------------------------------------------------------------
      1         11           0       -1.815109   -1.076579    1.908223
      2         11           0        0.987527    2.197989   -0.351021
      3         11           0        1.897472   -1.030119    1.804780
      4         11           0       -0.035055   -2.291446   -1.294626
      5         11           0       -3.101500   -0.734166   -1.465001
      6         11           0       -1.944201    2.736590    0.300141
      7         11           0        4.010867    0.197732   -0.902497
 ---------------------------------------------------------------------

 SCF Done:  E(UB3LYP) =  -1136.12305400     A.U. after   20 cycles

 The electronic state is 2-A.
 Alpha  occ. eigenvalues --  -38.44714 -38.44598 -38.44536 -38.44502 -38.44381
 Alpha  occ. eigenvalues --  -38.43410 -38.42927  -2.20486  -2.20397  -2.20335
 Alpha  occ. eigenvalues --   -2.20281  -2.20181  -2.19227  -2.18744  -1.14154
 Alpha  occ. eigenvalues --   -1.14140  -1.14112  -1.14068  -1.14041  -1.14037
 Alpha  occ. eigenvalues --   -1.14017  -1.13980  -1.13963  -1.13957  -1.13936
 Alpha  occ. eigenvalues --   -1.13892  -1.13860  -1.13843  -1.13791  -1.12928
 Alpha  occ. eigenvalues --   -1.12910  -1.12872  -1.12418  -1.12398  -1.12371
 Alpha  occ. eigenvalues --   -0.17090  -0.13341  -0.11836  -0.11147
 Alpha virt. eigenvalues --   -0.06527  -0.05262  -0.04830  -0.03599  -0.02864
 Alpha virt. eigenvalues --   -0.02661  -0.02087  -0.01067  -0.00911  -0.00423
 Alpha virt. eigenvalues --   -0.00116   0.00104   0.00238   0.00381   0.00737

  Beta  occ. eigenvalues --  -38.44692 -38.44547 -38.44495 -38.44476 -38.44337
  Beta  occ. eigenvalues --  -38.43411 -38.42927  -2.20445  -2.20304  -2.20260
  Beta  occ. eigenvalues --   -2.20235  -2.20102  -2.19230  -2.18744  -1.14123
  Beta  occ. eigenvalues --   -1.14111  -1.14087  -1.14001  -1.13976  -1.13968
  Beta  occ. eigenvalues --   -1.13962  -1.13934  -1.13920  -1.13906  -1.13895
  Beta  occ. eigenvalues --   -1.13853  -1.13805  -1.13795  -1.13714  -1.12925
  Beta  occ. eigenvalues --   -1.12908  -1.12878  -1.12420  -1.12391  -1.12373
  Beta  occ. eigenvalues --   -0.16477  -0.13067  -0.11660
  Beta virt. eigenvalues --   -0.07413  -0.06327  -0.04985  -0.04438  -0.03413
  Beta virt. eigenvalues --   -0.02342  -0.01965  -0.01862  -0.00913  -0.00607
  Beta virt. eigenvalues --   -0.00286  -0.00030   0.00249   0.00279   0.00496

 Mulliken charges and spin densities:
               1          2
     1  Na  -0.049877   0.316925
     2  Na  -0.544976   0.057641
     3  Na   0.048514   0.179745
     4  Na  -0.309447   0.217773
     5  Na   0.245923   0.186866
     6  Na   0.097060  -0.013586
     7  Na   0.512803   0.054636
 Sum of Mulliken charges =  -0.00000   1.00000

 Dipole moment (field-independent basis, Debye):
    X=              0.3427    Y=             -0.9244    Z=             -0.2195  Tot=              1.0101
 Quadrupole moment (field-independent basis, Debye-Ang):
   XX=            -52.3037   YY=            -76.6339   ZZ=            -67.7435
   XY=             -1.3340   XZ=             -2.4751   YZ=             -0.0258

 Normal termination of Gaussian 16 at Sun Dec  3 23:01:34 2023.
