 Gaussian 16, Revision B.01,
 Gaussian 16:  ES64L-G16RevB.01 20-Dec-2017

 -------------------------
 #P B3LYP/6-311+g(d) force
 -------------------------

 -----
 DPGEN
 -----
 Symbolic Z-matrix:
 Charge =  0 Multiplicity = 2

                         Standard orientation:
 ---------------------------------------------------------------------
 Center     Atomic      Atomic             Coordinates (Angstroms)
 Number     Number       Type             X           Y           Z
 ---------------------------------------------------------------------
      1         11           0        0.195337    0.609423   -1.511511
      2         11           0        2.148358   -1.825854   -0.401086
      3         11           0        3.483966    1.046279    0.206117
      4         11           0       -3.212785   -0.130397   -0.576738
      5         11           0       -1.011154    3.176898    0.085190
      6         11           0       -1.026095   -2.877093    0.130067
      7         11           0       -0.577627    0.000745    2.067961
 ---------------------------------------------------------------------

 SCF Done:  E(UB3LYP) =  -1136.13071237     A.U. after   21 cycles

 The electronic state is 2-A.
 Alpha  occ. eigenvalues --  -38.44734 -38.44722 -38.43890 -38.43527 -38.43475
 Alpha  occ. eigenvalues --  -38.43370 -38.43212  -2.20531  -2.20504  -2.19686
 Alpha  occ. eigenvalues --   -2.19402  -2.19337  -2.19289  -2.19049  -1.14209
 Alpha  occ. eigenvalues --   -1.14187  -1.14180  -1.14164  -1.14156  -1.14144
 Alpha  occ. eigenvalues --   -1.13381  -1.13343  -1.13320  -1.13115  -1.13061
 Alpha  occ. eigenvalues --   -1.13037  -1.13009  -1.12972  -1.12969  -1.12950
 Alpha  occ. eigenvalues --   -1.12938  -1.12897  -1.12717  -1.12709  -1.12697
 Alpha  occ. eigenvalues --   -0.18062  -0.13124  -0.12223  -0.10351
 Alpha virt. eigenvalues --   -0.06475  -0.05140  -0.04714  -0.03165  -0.02789
 Alpha virt. eigenvalues --   -0.02366  -0.02024  -0.01267  -0.00757  -0.00391
 Alpha virt. eigenvalues --   -0.00035   0.00302   0.00687   0.00689   0.00845

  Beta  occ. eigenvalues --  -38.44726 -38.44713 -38.43888 -38.43520 -38.43379
  Beta  occ. eigenvalues --  -38.43325 -38.43208  -2.20513  -2.20495  -2.19686
  Beta  occ. eigenvalues --   -2.19391  -2.19207  -2.19158  -2.19046  -1.14188
  Beta  occ. eigenvalues --   -1.14171  -1.14160  -1.14157  -1.14150  -1.14134
  Beta  occ. eigenvalues --   -1.13378  -1.13328  -1.13320  -1.13100  -1.13044
  Beta  occ. eigenvalues --   -1.13028  -1.12924  -1.12881  -1.12876  -1.12847
  Beta  occ. eigenvalues --   -1.12834  -1.12822  -1.12715  -1.12698  -1.12680
  Beta  occ. eigenvalues --   -0.17376  -0.12922  -0.12042
  Beta virt. eigenvalues --   -0.06500  -0.06398  -0.05033  -0.04701  -0.02519
  Beta virt. eigenvalues --   -0.02082  -0.01914  -0.01357  -0.01168  -0.00766
  Beta virt. eigenvalues --   -0.00398   0.00129   0.00359   0.00702   0.00779

 Mulliken charges and spin densities:
               1          2
     1  Na   0.157030   0.317670
     2  Na   0.080498  -0.018980
     3  Na   0.031581  -0.038995
     4  Na   0.091557   0.029432
     5  Na  -0.083172  -0.079350
     6  Na   0.085937   0.036728
     7  Na  -0.363431   0.753494
 Sum of Mulliken charges =  -0.00000   1.00000

 Dipole moment (field-independent basis, Debye):
    X=              0.0547    Y=              0.5377    Z=              0.0763  Tot=              0.5458
 Quadrupole moment (field-independent basis, Debye-Ang):
   XX=            -54.2851   YY=            -62.0439   ZZ=            -76.2802
   XY=              1.6503   XZ=              2.0093   YZ=              1.5625

 Normal termination of Gaussian 16 at Fri Dec  8 04:02:39 2023.
