 Gaussian 16, Revision B.01,
 Gaussian 16:  ES64L-G16RevB.01 20-Dec-2017

 -------------------------
 #P B3LYP/6-311+g(d) force
 -------------------------

 -----
 DPGEN
 -----
 Symbolic Z-matrix:
 Charge =  0 Multiplicity = 2

                         Standard orientation:
 ---------------------------------------------------------------------
 Center     Atomic      Atomic             Coordinates (Angstroms)
 Number     Number       Type             X           Y           Z
 ---------------------------------------------------------------------
      1         11           0       -0.023278   -0.063369   -1.697696
      2         11           0       -2.547665    1.457002   -0.312442
      3         11           0        0.548796    2.847727    0.471879
      4         11           0        0.447655   -0.347169    1.928079
      5         11           0        2.963730    0.546498   -0.477685
      6         11           0        1.417744   -2.788710   -0.069882
      7         11           0       -2.806981   -1.651979    0.157746
 ---------------------------------------------------------------------

 SCF Done:  E(UB3LYP) =  -1136.13675488     A.U. after   19 cycles

 The electronic state is 2-A.
 Alpha  occ. eigenvalues --  -38.44134 -38.44125 -38.43653 -38.43578 -38.43446
 Alpha  occ. eigenvalues --  -38.43337 -38.43075  -2.19984  -2.19947  -2.19482
 Alpha  occ. eigenvalues --   -2.19458  -2.19354  -2.19298  -2.18931  -1.13679
 Alpha  occ. eigenvalues --   -1.13642  -1.13640  -1.13611  -1.13604  -1.13583
 Alpha  occ. eigenvalues --   -1.13180  -1.13166  -1.13154  -1.13112  -1.13111
 Alpha  occ. eigenvalues --   -1.13090  -1.13025  -1.12978  -1.12971  -1.12969
 Alpha  occ. eigenvalues --   -1.12925  -1.12916  -1.12603  -1.12583  -1.12578
 Alpha  occ. eigenvalues --   -0.18617  -0.13212  -0.12298  -0.10759
 Alpha virt. eigenvalues --   -0.05800  -0.05106  -0.04620  -0.03277  -0.02913
 Alpha virt. eigenvalues --   -0.02517  -0.01564  -0.01162  -0.00411  -0.00270
 Alpha virt. eigenvalues --    0.00024   0.00366   0.00825   0.00841   0.00900

  Beta  occ. eigenvalues --  -38.44134 -38.44110 -38.43650 -38.43573 -38.43361
  Beta  occ. eigenvalues --  -38.43269 -38.43065  -2.19959  -2.19950  -2.19479
  Beta  occ. eigenvalues --   -2.19451  -2.19198  -2.19174  -2.18915  -1.13654
  Beta  occ. eigenvalues --   -1.13644  -1.13608  -1.13600  -1.13590  -1.13584
  Beta  occ. eigenvalues --   -1.13168  -1.13150  -1.13138  -1.13107  -1.13101
  Beta  occ. eigenvalues --   -1.13081  -1.12927  -1.12882  -1.12872  -1.12857
  Beta  occ. eigenvalues --   -1.12835  -1.12829  -1.12588  -1.12572  -1.12553
  Beta  occ. eigenvalues --   -0.17895  -0.12976  -0.12064
  Beta virt. eigenvalues --   -0.06857  -0.05775  -0.05040  -0.04586  -0.02527
  Beta virt. eigenvalues --   -0.02160  -0.01537  -0.01413  -0.01082  -0.00453
  Beta virt. eigenvalues --   -0.00269   0.00138   0.00397   0.00822   0.00893

 Mulliken charges and spin densities:
               1          2
     1  Na  -0.002854   0.437877
     2  Na   0.129791   0.007844
     3  Na  -0.008858   0.023628
     4  Na  -0.305751   0.730675
     5  Na   0.248278   0.023549
     6  Na  -0.018718  -0.126525
     7  Na  -0.041889  -0.097047
 Sum of Mulliken charges =  -0.00000   1.00000

 Dipole moment (field-independent basis, Debye):
    X=              0.0846    Y=             -0.3477    Z=              0.0278  Tot=              0.3590
 Quadrupole moment (field-independent basis, Debye-Ang):
   XX=            -57.2855   YY=            -62.0197   ZZ=            -74.3041
   XY=              0.6409   XZ=             -1.2475   YZ=              0.4160

 Normal termination of Gaussian 16 at Fri Dec  8 01:30:10 2023.
