 Gaussian 16, Revision B.01,
 Gaussian 16:  ES64L-G16RevB.01 20-Dec-2017

 -------------------------
 #P B3LYP/6-311+g(d) force
 -------------------------

 -----
 DPGEN
 -----
 Symbolic Z-matrix:
 Charge =  0 Multiplicity = 2

                         Standard orientation:
 ---------------------------------------------------------------------
 Center     Atomic      Atomic             Coordinates (Angstroms)
 Number     Number       Type             X           Y           Z
 ---------------------------------------------------------------------
      1         11           0        0.041896   -1.163074   -1.527460
      2         11           0       -3.752838    0.120564   -1.004134
      3         11           0        1.870367    2.448558   -0.568362
      4         11           0       -1.895545   -1.777448    1.159504
      5         11           0       -1.477100    1.727915    0.772991
      6         11           0        1.478895   -0.075471    1.623332
      7         11           0        3.734326   -1.281043   -0.455871
 ---------------------------------------------------------------------

 SCF Done:  E(UB3LYP) =  -1136.12407544     A.U. after   24 cycles

 The electronic state is 2-A.
 Alpha  occ. eigenvalues --  -38.44840 -38.44642 -38.44481 -38.43833 -38.43587
 Alpha  occ. eigenvalues --  -38.43502 -38.42948  -2.20647  -2.20477  -2.20266
 Alpha  occ. eigenvalues --   -2.19707  -2.19504  -2.19304  -2.18818  -1.14355
 Alpha  occ. eigenvalues --   -1.14324  -1.14243  -1.14140  -1.14131  -1.14094
 Alpha  occ. eigenvalues --   -1.13959  -1.13913  -1.13900  -1.13384  -1.13358
 Alpha  occ. eigenvalues --   -1.13329  -1.13199  -1.13161  -1.13124  -1.12987
 Alpha  occ. eigenvalues --   -1.12959  -1.12927  -1.12507  -1.12503  -1.12435
 Alpha  occ. eigenvalues --   -0.18196  -0.14046  -0.11060  -0.10763
 Alpha virt. eigenvalues --   -0.07021  -0.05351  -0.04697  -0.03074  -0.02787
 Alpha virt. eigenvalues --   -0.02410  -0.02112  -0.01171  -0.00979  -0.00354
 Alpha virt. eigenvalues --    0.00082   0.00109   0.00260   0.00583   0.00712

  Beta  occ. eigenvalues --  -38.44819 -38.44597 -38.44479 -38.43788 -38.43543
  Beta  occ. eigenvalues --  -38.43499 -38.42934  -2.20609  -2.20392  -2.20263
  Beta  occ. eigenvalues --   -2.19628  -2.19426  -2.19298  -2.18797  -1.14318
  Beta  occ. eigenvalues --   -1.14292  -1.14217  -1.14083  -1.14068  -1.14039
  Beta  occ. eigenvalues --   -1.13957  -1.13909  -1.13896  -1.13332  -1.13302
  Beta  occ. eigenvalues --   -1.13251  -1.13150  -1.13080  -1.13076  -1.12979
  Beta  occ. eigenvalues --   -1.12951  -1.12920  -1.12498  -1.12449  -1.12428
  Beta  occ. eigenvalues --   -0.17490  -0.13806  -0.10921
  Beta virt. eigenvalues --   -0.07027  -0.06781  -0.05185  -0.04147  -0.02939
  Beta virt. eigenvalues --   -0.02522  -0.01937  -0.01397  -0.01061  -0.00600
  Beta virt. eigenvalues --   -0.00221   0.00145   0.00172   0.00386   0.00663

 Mulliken charges and spin densities:
               1          2
     1  Na  -0.457877   0.225048
     2  Na   0.405876   0.172933
     3  Na  -0.119006   0.047244
     4  Na   0.260545   0.204018
     5  Na  -0.493989   0.148263
     6  Na   0.226421   0.100103
     7  Na   0.178030   0.102391
 Sum of Mulliken charges =  -0.00000   1.00000

 Dipole moment (field-independent basis, Debye):
    X=             -0.0158    Y=             -0.4157    Z=             -0.3264  Tot=              0.5288
 Quadrupole moment (field-independent basis, Debye-Ang):
   XX=            -50.4017   YY=            -75.9462   ZZ=            -68.4364
   XY=              0.9420   XZ=             -0.1732   YZ=             -2.9768

 Normal termination of Gaussian 16 at Tue Dec  5 23:49:58 2023.
