 Gaussian 16, Revision B.01,
 Gaussian 16:  ES64L-G16RevB.01 20-Dec-2017

 -------------------------
 #P B3LYP/6-311+g(d) force
 -------------------------

 -----
 DPGEN
 -----
 Symbolic Z-matrix:
 Charge =  0 Multiplicity = 2

                         Standard orientation:
 ---------------------------------------------------------------------
 Center     Atomic      Atomic             Coordinates (Angstroms)
 Number     Number       Type             X           Y           Z
 ---------------------------------------------------------------------
      1         11           0        3.443887   -0.869771   -0.023582
      2         11           0        0.127281   -0.368928    2.264600
      3         11           0       -0.467694    0.039674   -1.834462
      4         11           0       -1.602068    2.147543   -0.154095
      5         11           0       -0.357687   -2.333212   -0.664684
      6         11           0        2.049275    1.924391   -0.044521
      7         11           0       -3.192994   -0.539698    0.456743
 ---------------------------------------------------------------------

 SCF Done:  E(UB3LYP) =  -1136.11842846     A.U. after   23 cycles

 The electronic state is 2-A.
 Alpha  occ. eigenvalues --  -38.44871 -38.44816 -38.44724 -38.44220 -38.43310
 Alpha  occ. eigenvalues --  -38.43076 -38.42774  -2.20668  -2.20660  -2.20556
 Alpha  occ. eigenvalues --   -2.20272  -2.19167  -2.19014  -2.18697  -1.14355
 Alpha  occ. eigenvalues --   -1.14348  -1.14327  -1.14321  -1.14301  -1.14286
 Alpha  occ. eigenvalues --   -1.14218  -1.14191  -1.14167  -1.14135  -1.13924
 Alpha  occ. eigenvalues --   -1.13827  -1.12846  -1.12835  -1.12804  -1.12740
 Alpha  occ. eigenvalues --   -1.12621  -1.12567  -1.12416  -1.12339  -1.12312
 Alpha  occ. eigenvalues --   -0.18851  -0.13542  -0.11631  -0.11533
 Alpha virt. eigenvalues --   -0.06590  -0.04796  -0.03793  -0.03505  -0.03256
 Alpha virt. eigenvalues --   -0.02803  -0.02177  -0.00868  -0.00192   0.00026
 Alpha virt. eigenvalues --    0.00034   0.00345   0.00450   0.00823   0.00907

  Beta  occ. eigenvalues --  -38.44877 -38.44805 -38.44634 -38.44137 -38.43308
  Beta  occ. eigenvalues --  -38.43050 -38.42767  -2.20673  -2.20650  -2.20389
  Beta  occ. eigenvalues --   -2.20122  -2.19165  -2.18973  -2.18688  -1.14367
  Beta  occ. eigenvalues --   -1.14339  -1.14320  -1.14296  -1.14293  -1.14288
  Beta  occ. eigenvalues --   -1.14109  -1.14076  -1.14043  -1.14024  -1.13822
  Beta  occ. eigenvalues --   -1.13722  -1.12844  -1.12825  -1.12800  -1.12693
  Beta  occ. eigenvalues --   -1.12573  -1.12545  -1.12402  -1.12313  -1.12308
  Beta  occ. eigenvalues --   -0.18085  -0.13390  -0.11333
  Beta virt. eigenvalues --   -0.07553  -0.06429  -0.04823  -0.03485  -0.03042
  Beta virt. eigenvalues --   -0.02246  -0.02055  -0.01910  -0.00844  -0.00065
  Beta virt. eigenvalues --    0.00023   0.00054   0.00357   0.00692   0.00866

 Mulliken charges and spin densities:
               1          2
     1  Na   0.045093  -0.102149
     2  Na  -0.637004   0.640259
     3  Na  -0.071405   0.314925
     4  Na   0.198078   0.036814
     5  Na   0.235314  -0.021158
     6  Na   0.024935  -0.027167
     7  Na   0.204989   0.158477
 Sum of Mulliken charges =  -0.00000   1.00000

 Dipole moment (field-independent basis, Debye):
    X=              0.1848    Y=             -0.3763    Z=              0.7036  Tot=              0.8191
 Quadrupole moment (field-independent basis, Debye-Ang):
   XX=            -51.1735   YY=            -73.6672   ZZ=            -70.1731
   XY=             -0.7282   XZ=             -1.7523   YZ=              0.0100

 Normal termination of Gaussian 16 at Tue Dec  5 18:50:14 2023.
