 Gaussian 16, Revision B.01,
 Gaussian 16:  ES64L-G16RevB.01 20-Dec-2017

 -------------------------
 #P B3LYP/6-311+g(d) force
 -------------------------

 -----
 DPGEN
 -----
 Symbolic Z-matrix:
 Charge =  0 Multiplicity = 2

                         Standard orientation:
 ---------------------------------------------------------------------
 Center     Atomic      Atomic             Coordinates (Angstroms)
 Number     Number       Type             X           Y           Z
 ---------------------------------------------------------------------
      1         11           0       -1.187455   -2.889784    0.351531
      2         11           0        1.716483    2.375840    0.141681
      3         11           0        0.337199    0.428522    1.871881
      4         11           0        3.270787   -1.263752   -0.216044
      5         11           0        0.216880   -0.757435   -1.701063
      6         11           0       -1.751694    2.499072   -0.643324
      7         11           0       -2.602200   -0.392465    0.195338
 ---------------------------------------------------------------------

 SCF Done:  E(UB3LYP) =  -1136.12736675     A.U. after   20 cycles

 The electronic state is 2-A.
 Alpha  occ. eigenvalues --  -38.44302 -38.44178 -38.43964 -38.43688 -38.43453
 Alpha  occ. eigenvalues --  -38.43451 -38.43447  -2.20073  -2.20035  -2.19853
 Alpha  occ. eigenvalues --   -2.19616  -2.19428  -2.19367  -2.19300  -1.13822
 Alpha  occ. eigenvalues --   -1.13751  -1.13732  -1.13710  -1.13685  -1.13643
 Alpha  occ. eigenvalues --   -1.13628  -1.13501  -1.13474  -1.13277  -1.13255
 Alpha  occ. eigenvalues --   -1.13212  -1.13138  -1.13082  -1.13063  -1.13037
 Alpha  occ. eigenvalues --   -1.13007  -1.12979  -1.12950  -1.12937  -1.12922
 Alpha  occ. eigenvalues --   -0.18640  -0.13177  -0.12526  -0.10729
 Alpha virt. eigenvalues --   -0.05932  -0.05272  -0.04484  -0.03364  -0.03025
 Alpha virt. eigenvalues --   -0.02355  -0.01606  -0.01297  -0.00332  -0.00211
 Alpha virt. eigenvalues --    0.00002   0.00331   0.00763   0.00816   0.00895

  Beta  occ. eigenvalues --  -38.44299 -38.44168 -38.43955 -38.43609 -38.43441
  Beta  occ. eigenvalues --  -38.43427 -38.43393  -2.20070  -2.20022  -2.19840
  Beta  occ. eigenvalues --   -2.19470  -2.19411  -2.19267  -2.19259  -1.13793
  Beta  occ. eigenvalues --   -1.13737  -1.13731  -1.13708  -1.13661  -1.13636
  Beta  occ. eigenvalues --   -1.13626  -1.13483  -1.13455  -1.13184  -1.13153
  Beta  occ. eigenvalues --   -1.13122  -1.13107  -1.13068  -1.13017  -1.12971
  Beta  occ. eigenvalues --   -1.12934  -1.12924  -1.12910  -1.12899  -1.12892
  Beta  occ. eigenvalues --   -0.17945  -0.12905  -0.12261
  Beta virt. eigenvalues --   -0.06955  -0.05853  -0.05124  -0.04433  -0.02572
  Beta virt. eigenvalues --   -0.02366  -0.01620  -0.01303  -0.01195  -0.00324
  Beta virt. eigenvalues --   -0.00232   0.00134   0.00380   0.00778   0.00923

 Mulliken charges and spin densities:
               1          2
     1  Na   0.173617  -0.068698
     2  Na   0.104652   0.027415
     3  Na  -0.047232   0.344283
     4  Na  -0.112180  -0.119435
     5  Na  -0.168935   0.480339
     6  Na  -0.097524   0.109603
     7  Na   0.147602   0.226492
 Sum of Mulliken charges =  -0.00000   1.00000

 Dipole moment (field-independent basis, Debye):
    X=              0.6486    Y=             -0.1812    Z=              0.0391  Tot=              0.6746
 Quadrupole moment (field-independent basis, Debye-Ang):
   XX=            -60.0932   YY=            -60.4736   ZZ=            -73.9260
   XY=             -0.2204   XZ=              0.0401   YZ=             -2.7620

 Normal termination of Gaussian 16 at Thu Dec  7 09:45:27 2023.
