 Gaussian 16, Revision B.01,
 Gaussian 16:  ES64L-G16RevB.01 20-Dec-2017

 -------------------------
 #P B3LYP/6-311+g(d) force
 -------------------------

 -----
 DPGEN
 -----
 Symbolic Z-matrix:
 Charge =  0 Multiplicity = 2

                         Standard orientation:
 ---------------------------------------------------------------------
 Center     Atomic      Atomic             Coordinates (Angstroms)
 Number     Number       Type             X           Y           Z
 ---------------------------------------------------------------------
      1         11           0       -0.955793   -2.046083    0.719632
      2         11           0        2.187740   -2.170159   -0.489842
      3         11           0       -3.535548   -0.203804   -0.525519
      4         11           0        1.177759    0.201484    1.879122
      5         11           0        0.229020   -0.216828   -1.399807
      6         11           0       -1.467239    2.245092    0.406414
      7         11           0        2.364060    2.190298   -0.590001
 ---------------------------------------------------------------------

 SCF Done:  E(UB3LYP) =  -1136.13103684     A.U. after   19 cycles

 The electronic state is 2-A.
 Alpha  occ. eigenvalues --  -38.43974 -38.43834 -38.43811 -38.43738 -38.43242
 Alpha  occ. eigenvalues --  -38.43219 -38.43183  -2.19797  -2.19715  -2.19665
 Alpha  occ. eigenvalues --   -2.19567  -2.19254  -2.19191  -2.19162  -1.13499
 Alpha  occ. eigenvalues --   -1.13469  -1.13460  -1.13446  -1.13352  -1.13350
 Alpha  occ. eigenvalues --   -1.13345  -1.13328  -1.13269  -1.13251  -1.13235
 Alpha  occ. eigenvalues --   -1.13191  -1.13035  -1.12909  -1.12879  -1.12868
 Alpha  occ. eigenvalues --   -1.12822  -1.12820  -1.12785  -1.12774  -1.12745
 Alpha  occ. eigenvalues --   -0.18916  -0.13236  -0.12312  -0.10800
 Alpha virt. eigenvalues --   -0.05676  -0.05422  -0.04193  -0.03133  -0.02905
 Alpha virt. eigenvalues --   -0.02361  -0.01659  -0.01245  -0.00451   0.00051
 Alpha virt. eigenvalues --    0.00127   0.00310   0.00798   0.00809   0.00900

  Beta  occ. eigenvalues --  -38.43971 -38.43828 -38.43796 -38.43727 -38.43198
  Beta  occ. eigenvalues --  -38.43160 -38.43128  -2.19792  -2.19691  -2.19656
  Beta  occ. eigenvalues --   -2.19549  -2.19159  -2.19128  -2.19042  -1.13472
  Beta  occ. eigenvalues --   -1.13467  -1.13454  -1.13440  -1.13348  -1.13326
  Beta  occ. eigenvalues --   -1.13318  -1.13303  -1.13267  -1.13230  -1.13219
  Beta  occ. eigenvalues --   -1.13175  -1.12985  -1.12831  -1.12807  -1.12798
  Beta  occ. eigenvalues --   -1.12746  -1.12733  -1.12727  -1.12714  -1.12667
  Beta  occ. eigenvalues --   -0.18189  -0.13025  -0.12088
  Beta virt. eigenvalues --   -0.06811  -0.05568  -0.05360  -0.04138  -0.02577
  Beta virt. eigenvalues --   -0.02167  -0.01597  -0.01311  -0.01193  -0.00237
  Beta virt. eigenvalues --    0.00050   0.00178   0.00356   0.00815   0.00887

 Mulliken charges and spin densities:
               1          2
     1  Na   0.224372   0.201954
     2  Na   0.505182   0.029581
     3  Na   0.213703  -0.037669
     4  Na  -0.056010   0.414804
     5  Na  -0.855119   0.376909
     6  Na  -0.092991   0.033572
     7  Na   0.060862  -0.019152
 Sum of Mulliken charges =  -0.00000   1.00000

 Dipole moment (field-independent basis, Debye):
    X=              0.0138    Y=              0.1346    Z=              0.0705  Tot=              0.1526
 Quadrupole moment (field-independent basis, Debye-Ang):
   XX=            -53.9675   YY=            -65.0270   ZZ=            -73.1305
   XY=             -0.3360   XZ=             -0.2218   YZ=             -0.3820

 Normal termination of Gaussian 16 at Thu Dec  7 12:29:39 2023.
