 Gaussian 16, Revision B.01,
 Gaussian 16:  ES64L-G16RevB.01 20-Dec-2017

 -------------------------
 #P B3LYP/6-311+g(d) force
 -------------------------

 -----
 DPGEN
 -----
 Symbolic Z-matrix:
 Charge =  0 Multiplicity = 2

                         Standard orientation:
 ---------------------------------------------------------------------
 Center     Atomic      Atomic             Coordinates (Angstroms)
 Number     Number       Type             X           Y           Z
 ---------------------------------------------------------------------
      1         11           0        0.172098   -0.075566   -1.606368
      2         11           0        0.738034   -0.765146    2.080576
      3         11           0       -2.243521    2.292820    0.159928
      4         11           0        1.251901    2.805693   -0.263217
      5         11           0        3.271021   -0.405638    0.115326
      6         11           0       -0.059040   -2.774932   -0.804240
      7         11           0       -3.130495   -1.077231    0.317994
 ---------------------------------------------------------------------

 SCF Done:  E(UB3LYP) =  -1136.12971878     A.U. after   19 cycles

 The electronic state is 2-A.
 Alpha  occ. eigenvalues --  -38.44386 -38.44138 -38.44115 -38.43672 -38.43652
 Alpha  occ. eigenvalues --  -38.43598 -38.43442  -2.20210  -2.19972  -2.19924
 Alpha  occ. eigenvalues --   -2.19572  -2.19446  -2.19426  -2.19413  -1.13913
 Alpha  occ. eigenvalues --   -1.13865  -1.13844  -1.13621  -1.13605  -1.13598
 Alpha  occ. eigenvalues --   -1.13590  -1.13587  -1.13564  -1.13479  -1.13196
 Alpha  occ. eigenvalues --   -1.13159  -1.13129  -1.13125  -1.13108  -1.13095
 Alpha  occ. eigenvalues --   -1.13075  -1.13054  -1.13028  -1.13014  -1.12991
 Alpha  occ. eigenvalues --   -0.18174  -0.12950  -0.12480  -0.10844
 Alpha virt. eigenvalues --   -0.05919  -0.05276  -0.04695  -0.03281  -0.02930
 Alpha virt. eigenvalues --   -0.02621  -0.01684  -0.01082  -0.00590  -0.00475
 Alpha virt. eigenvalues --   -0.00030   0.00322   0.00747   0.00787   0.00804

  Beta  occ. eigenvalues --  -38.44379 -38.44132 -38.44034 -38.43652 -38.43640
  Beta  occ. eigenvalues --  -38.43593 -38.43371  -2.20202  -2.19915  -2.19820
  Beta  occ. eigenvalues --   -2.19517  -2.19447  -2.19404  -2.19301  -1.13891
  Beta  occ. eigenvalues --   -1.13845  -1.13842  -1.13585  -1.13579  -1.13557
  Beta  occ. eigenvalues --   -1.13522  -1.13503  -1.13479  -1.13410  -1.13142
  Beta  occ. eigenvalues --   -1.13126  -1.13123  -1.13118  -1.13098  -1.13085
  Beta  occ. eigenvalues --   -1.13062  -1.13026  -1.12979  -1.12935  -1.12907
  Beta  occ. eigenvalues --   -0.17511  -0.12673  -0.12247
  Beta virt. eigenvalues --   -0.07014  -0.05759  -0.05244  -0.04585  -0.02577
  Beta virt. eigenvalues --   -0.02297  -0.01661  -0.01534  -0.01029  -0.00579
  Beta virt. eigenvalues --   -0.00462   0.00135   0.00382   0.00810   0.00836

 Mulliken charges and spin densities:
               1          2
     1  Na   0.228254   0.350791
     2  Na  -0.416460   0.679080
     3  Na  -0.158344  -0.001317
     4  Na  -0.064557  -0.058952
     5  Na   0.243472  -0.024655
     6  Na   0.307279  -0.005668
     7  Na  -0.139642   0.060721
 Sum of Mulliken charges =  -0.00000   1.00000

 Dipole moment (field-independent basis, Debye):
    X=              0.3186    Y=             -0.1684    Z=              0.3246  Tot=              0.4850
 Quadrupole moment (field-independent basis, Debye-Ang):
   XX=            -56.8213   YY=            -64.0946   ZZ=            -73.9933
   XY=              1.1414   XZ=             -1.8288   YZ=              0.8073

 Normal termination of Gaussian 16 at Tue Dec  5 12:50:55 2023.
