 Gaussian 16, Revision B.01,
 Gaussian 16:  ES64L-G16RevB.01 20-Dec-2017

 -------------------------
 #P B3LYP/6-311+g(d) force
 -------------------------

 -----
 DPGEN
 -----
 Symbolic Z-matrix:
 Charge =  0 Multiplicity = 2

                         Standard orientation:
 ---------------------------------------------------------------------
 Center     Atomic      Atomic             Coordinates (Angstroms)
 Number     Number       Type             X           Y           Z
 ---------------------------------------------------------------------
      1         11           0        2.116870   -1.264686    1.235513
      2         11           0        4.519670   -0.195737   -1.114796
      3         11           0        0.616378    1.256171   -1.557564
      4         11           0       -3.791855   -1.497854   -0.550121
      5         11           0       -2.920388    1.587945   -0.415815
      6         11           0       -0.735961   -1.850250    0.414944
      7         11           0        0.195287    1.964412    1.987839
 ---------------------------------------------------------------------

 SCF Done:  E(UB3LYP) =  -1136.11553313     A.U. after   25 cycles

 The electronic state is 2-A.
 Alpha  occ. eigenvalues --  -38.45285 -38.44910 -38.44387 -38.44262 -38.43631
 Alpha  occ. eigenvalues --  -38.43594 -38.43393  -2.21056  -2.20695  -2.20171
 Alpha  occ. eigenvalues --   -2.20080  -2.19502  -2.19474  -2.19237  -1.14757
 Alpha  occ. eigenvalues --   -1.14716  -1.14659  -1.14345  -1.14334  -1.14307
 Alpha  occ. eigenvalues --   -1.13846  -1.13823  -1.13790  -1.13769  -1.13747
 Alpha  occ. eigenvalues --   -1.13701  -1.13322  -1.13158  -1.13144  -1.13120
 Alpha  occ. eigenvalues --   -1.13104  -1.13072  -1.12899  -1.12884  -1.12875
 Alpha  occ. eigenvalues --   -0.17536  -0.13865  -0.11472  -0.11344
 Alpha virt. eigenvalues --   -0.07118  -0.05422  -0.04440  -0.03260  -0.02945
 Alpha virt. eigenvalues --   -0.02651  -0.02399  -0.01390  -0.01151  -0.00273
 Alpha virt. eigenvalues --   -0.00118   0.00130   0.00313   0.00351   0.00698

  Beta  occ. eigenvalues --  -38.45271 -38.44826 -38.44353 -38.44248 -38.43604
  Beta  occ. eigenvalues --  -38.43561 -38.43391  -2.21030  -2.20538  -2.20108
  Beta  occ. eigenvalues --   -2.20055  -2.19459  -2.19417  -2.19232  -1.14740
  Beta  occ. eigenvalues --   -1.14696  -1.14638  -1.14238  -1.14226  -1.14205
  Beta  occ. eigenvalues --   -1.13804  -1.13773  -1.13751  -1.13745  -1.13733
  Beta  occ. eigenvalues --   -1.13680  -1.13272  -1.13115  -1.13110  -1.13089
  Beta  occ. eigenvalues --   -1.13070  -1.13015  -1.12893  -1.12877  -1.12868
  Beta  occ. eigenvalues --   -0.16980  -0.13304  -0.11216
  Beta virt. eigenvalues --   -0.07873  -0.06714  -0.05145  -0.03986  -0.03096
  Beta virt. eigenvalues --   -0.02557  -0.02303  -0.01920  -0.01147  -0.00859
  Beta virt. eigenvalues --   -0.00137  -0.00007   0.00220   0.00426   0.00494

 Mulliken charges and spin densities:
               1          2
     1  Na   0.490366  -0.355239
     2  Na   0.162048   0.456209
     3  Na  -0.291641   0.118074
     4  Na   0.294804   0.236982
     5  Na   0.192889   0.058359
     6  Na  -0.818070   0.234011
     7  Na  -0.030397   0.251604
 Sum of Mulliken charges =  -0.00000   1.00000

 Dipole moment (field-independent basis, Debye):
    X=              0.2983    Y=              1.0609    Z=              0.0420  Tot=              1.1029
 Quadrupole moment (field-independent basis, Debye-Ang):
   XX=            -58.2485   YY=            -76.5345   ZZ=            -64.6697
   XY=             -1.2366   XZ=              0.7667   YZ=              1.8105

 Normal termination of Gaussian 16 at Sun Dec  3 14:11:07 2023.
