 Gaussian 16, Revision B.01,
 Gaussian 16:  ES64L-G16RevB.01 20-Dec-2017

 -------------------------
 #P B3LYP/6-311+g(d) force
 -------------------------

 -----
 DPGEN
 -----
 Symbolic Z-matrix:
 Charge =  0 Multiplicity = 2

                         Standard orientation:
 ---------------------------------------------------------------------
 Center     Atomic      Atomic             Coordinates (Angstroms)
 Number     Number       Type             X           Y           Z
 ---------------------------------------------------------------------
      1         11           0        0.018303   -0.754744    1.832854
      2         11           0       -1.443472    1.277825   -1.510148
      3         11           0        3.151995    0.008122    0.828495
      4         11           0       -1.921017   -2.227507   -0.934468
      5         11           0        1.842867    2.402483   -0.604160
      6         11           0        1.797544   -1.774960   -0.795497
      7         11           0       -3.446218    1.068780    1.182925
 ---------------------------------------------------------------------

 SCF Done:  E(UB3LYP) =  -1136.11895550     A.U. after   22 cycles

 The electronic state is 2-A.
 Alpha  occ. eigenvalues --  -38.44781 -38.44399 -38.44311 -38.44287 -38.44039
 Alpha  occ. eigenvalues --  -38.43592 -38.43330  -2.20570  -2.20365  -2.20190
 Alpha  occ. eigenvalues --   -2.20168  -2.19846  -2.19423  -2.19158  -1.14291
 Alpha  occ. eigenvalues --   -1.14225  -1.14224  -1.14197  -1.14018  -1.13983
 Alpha  occ. eigenvalues --   -1.13870  -1.13830  -1.13812  -1.13798  -1.13767
 Alpha  occ. eigenvalues --   -1.13739  -1.13522  -1.13495  -1.13471  -1.13100
 Alpha  occ. eigenvalues --   -1.13087  -1.13056  -1.12831  -1.12814  -1.12803
 Alpha  occ. eigenvalues --   -0.18124  -0.14019  -0.11622  -0.10959
 Alpha virt. eigenvalues --   -0.06431  -0.05540  -0.04850  -0.03490  -0.02772
 Alpha virt. eigenvalues --   -0.02435  -0.02044  -0.01116  -0.00542  -0.00225
 Alpha virt. eigenvalues --    0.00004   0.00212   0.00288   0.00482   0.00719

  Beta  occ. eigenvalues --  -38.44738 -38.44390 -38.44280 -38.44263 -38.44005
  Beta  occ. eigenvalues --  -38.43565 -38.43323  -2.20489  -2.20349  -2.20179
  Beta  occ. eigenvalues --   -2.20080  -2.19784  -2.19376  -2.19146  -1.14281
  Beta  occ. eigenvalues --   -1.14171  -1.14162  -1.14144  -1.14005  -1.13961
  Beta  occ. eigenvalues --   -1.13841  -1.13789  -1.13782  -1.13743  -1.13724
  Beta  occ. eigenvalues --   -1.13709  -1.13468  -1.13454  -1.13427  -1.13071
  Beta  occ. eigenvalues --   -1.13036  -1.13024  -1.12823  -1.12799  -1.12794
  Beta  occ. eigenvalues --   -0.17556  -0.13732  -0.11350
  Beta virt. eigenvalues --   -0.07356  -0.06175  -0.05462  -0.04141  -0.03316
  Beta virt. eigenvalues --   -0.02297  -0.01815  -0.01634  -0.00958  -0.00323
  Beta virt. eigenvalues --   -0.00138   0.00059   0.00308   0.00367   0.00630

 Mulliken charges and spin densities:
               1          2
     1  Na  -0.546555   0.306247
     2  Na  -0.217832   0.289456
     3  Na   1.229363   0.178303
     4  Na   0.045559   0.099586
     5  Na  -0.430517  -0.053098
     6  Na  -0.308593   0.073935
     7  Na   0.228575   0.105571
 Sum of Mulliken charges =  -0.00000   1.00000

 Dipole moment (field-independent basis, Debye):
    X=             -0.3992    Y=             -0.4549    Z=              0.3154  Tot=              0.6825
 Quadrupole moment (field-independent basis, Debye-Ang):
   XX=            -54.1381   YY=            -73.2227   ZZ=            -69.7519
   XY=             -0.2502   XZ=             -0.3249   YZ=              3.0089

 Normal termination of Gaussian 16 at Tue Dec  5 19:08:40 2023.
