 Gaussian 16, Revision B.01,
 Gaussian 16:  ES64L-G16RevB.01 20-Dec-2017

 -------------------------
 #P B3LYP/6-311+g(d) force
 -------------------------

 -----
 DPGEN
 -----
 Symbolic Z-matrix:
 Charge =  0 Multiplicity = 2

                         Standard orientation:
 ---------------------------------------------------------------------
 Center     Atomic      Atomic             Coordinates (Angstroms)
 Number     Number       Type             X           Y           Z
 ---------------------------------------------------------------------
      1         11           0        2.743864   -1.099441   -0.007334
      2         11           0       -1.145765    2.537031   -0.182147
      3         11           0        0.058061   -0.236022   -1.947460
      4         11           0       -0.301976   -2.618310   -0.089218
      5         11           0        1.682327    2.119959    0.106728
      6         11           0        0.121558   -0.195351    1.954891
      7         11           0       -3.158068   -0.507866    0.164540
 ---------------------------------------------------------------------

 SCF Done:  E(UB3LYP) =  -1136.13504357     A.U. after   19 cycles

 The electronic state is 2-A.
 Alpha  occ. eigenvalues --  -38.43838 -38.43706 -38.43697 -38.43503 -38.43375
 Alpha  occ. eigenvalues --  -38.43358 -38.43235  -2.19671  -2.19653  -2.19642
 Alpha  occ. eigenvalues --   -2.19393  -2.19293  -2.19281  -2.19181  -1.13395
 Alpha  occ. eigenvalues --   -1.13342  -1.13319  -1.13315  -1.13306  -1.13301
 Alpha  occ. eigenvalues --   -1.13295  -1.13273  -1.13258  -1.13140  -1.13061
 Alpha  occ. eigenvalues --   -1.13054  -1.13044  -1.12971  -1.12960  -1.12929
 Alpha  occ. eigenvalues --   -1.12908  -1.12873  -1.12823  -1.12811  -1.12742
 Alpha  occ. eigenvalues --   -0.19247  -0.12890  -0.12763  -0.11295
 Alpha virt. eigenvalues --   -0.05394  -0.04730  -0.04643  -0.03293  -0.03147
 Alpha virt. eigenvalues --   -0.02923  -0.01375  -0.00872  -0.00081   0.00013
 Alpha virt. eigenvalues --    0.00092   0.00369   0.00888   0.00952   0.00985

  Beta  occ. eigenvalues --  -38.43838 -38.43618 -38.43610 -38.43497 -38.43371
  Beta  occ. eigenvalues --  -38.43346 -38.43229  -2.19645  -2.19511  -2.19494
  Beta  occ. eigenvalues --   -2.19387  -2.19278  -2.19276  -2.19173  -1.13309
  Beta  occ. eigenvalues --   -1.13303  -1.13299  -1.13287  -1.13238  -1.13212
  Beta  occ. eigenvalues --   -1.13195  -1.13168  -1.13150  -1.13134  -1.13053
  Beta  occ. eigenvalues --   -1.13044  -1.13011  -1.12953  -1.12913  -1.12908
  Beta  occ. eigenvalues --   -1.12894  -1.12869  -1.12815  -1.12778  -1.12741
  Beta  occ. eigenvalues --   -0.18458  -0.12608  -0.12531
  Beta virt. eigenvalues --   -0.07316  -0.05373  -0.04693  -0.04643  -0.02412
  Beta virt. eigenvalues --   -0.02361  -0.01845  -0.01303  -0.00806  -0.00059
  Beta virt. eigenvalues --    0.00023   0.00088   0.00382   0.00913   0.00956

 Mulliken charges and spin densities:
               1          2
     1  Na   0.412658  -0.046757
     2  Na   0.030034  -0.066435
     3  Na  -0.499142   0.624254
     4  Na   0.414917  -0.082172
     5  Na   0.211582  -0.006822
     6  Na  -0.552547   0.684357
     7  Na  -0.017502  -0.106424
 Sum of Mulliken charges =  -0.00000   1.00000

 Dipole moment (field-independent basis, Debye):
    X=             -0.1508    Y=             -0.2292    Z=              0.0380  Tot=              0.2770
 Quadrupole moment (field-independent basis, Debye-Ang):
   XX=            -58.6626   YY=            -65.3047   ZZ=            -71.3230
   XY=             -0.5962   XZ=             -0.2041   YZ=             -0.1554

 Normal termination of Gaussian 16 at Tue Dec  5 22:29:56 2023.
