 Gaussian 16, Revision B.01,
 Gaussian 16:  ES64L-G16RevB.01 20-Dec-2017

 -------------------------
 #P B3LYP/6-311+g(d) force
 -------------------------

 -----
 DPGEN
 -----
 Symbolic Z-matrix:
 Charge =  0 Multiplicity = 2

                         Standard orientation:
 ---------------------------------------------------------------------
 Center     Atomic      Atomic             Coordinates (Angstroms)
 Number     Number       Type             X           Y           Z
 ---------------------------------------------------------------------
      1         11           0       -1.756996   -1.535084   -0.896754
      2         11           0       -1.025694    1.657683   -1.103323
      3         11           0       -0.284849   -0.549964    1.954839
      4         11           0        1.200130   -1.017548   -1.433677
      5         11           0       -4.014231    0.161546    0.736578
      6         11           0        3.939947   -0.888651    0.543259
      7         11           0        1.941692    2.172018    0.199078
 ---------------------------------------------------------------------

 SCF Done:  E(UB3LYP) =  -1136.11620650     A.U. after   34 cycles

 The electronic state is 2-A.
 Alpha  occ. eigenvalues --  -38.46051 -38.45405 -38.44511 -38.43700 -38.43640
 Alpha  occ. eigenvalues --  -38.42946 -38.42046  -2.21835  -2.21210  -2.20297
 Alpha  occ. eigenvalues --   -2.19677  -2.19593  -2.18795  -2.17957  -1.15547
 Alpha  occ. eigenvalues --   -1.15494  -1.15437  -1.14884  -1.14851  -1.14832
 Alpha  occ. eigenvalues --   -1.13977  -1.13952  -1.13928  -1.13476  -1.13316
 Alpha  occ. eigenvalues --   -1.13307  -1.13246  -1.13204  -1.13191  -1.12478
 Alpha  occ. eigenvalues --   -1.12460  -1.12422  -1.11656  -1.11621  -1.11582
 Alpha  occ. eigenvalues --   -0.18661  -0.14067  -0.11574  -0.10642
 Alpha virt. eigenvalues --   -0.07613  -0.04805  -0.04566  -0.03161  -0.03089
 Alpha virt. eigenvalues --   -0.02391  -0.02259  -0.01290  -0.00973  -0.00159
 Alpha virt. eigenvalues --   -0.00120   0.00192   0.00307   0.00702   0.00741

  Beta  occ. eigenvalues --  -38.46031 -38.45370 -38.44498 -38.43649 -38.43569
  Beta  occ. eigenvalues --  -38.42934 -38.42034  -2.21797  -2.21143  -2.20274
  Beta  occ. eigenvalues --   -2.19591  -2.19470  -2.18774  -2.17940  -1.15516
  Beta  occ. eigenvalues --   -1.15465  -1.15407  -1.14838  -1.14804  -1.14785
  Beta  occ. eigenvalues --   -1.13961  -1.13933  -1.13912  -1.13379  -1.13258
  Beta  occ. eigenvalues --   -1.13239  -1.13165  -1.13112  -1.13083  -1.12461
  Beta  occ. eigenvalues --   -1.12446  -1.12404  -1.11639  -1.11586  -1.11576
  Beta  occ. eigenvalues --   -0.17893  -0.13771  -0.10527
  Beta virt. eigenvalues --   -0.07655  -0.07319  -0.04618  -0.04086  -0.02881
  Beta virt. eigenvalues --   -0.02807  -0.01852  -0.01673  -0.00972  -0.00805
  Beta virt. eigenvalues --   -0.00077  -0.00037   0.00324   0.00360   0.00764

 Mulliken charges and spin densities:
               1          2
     1  Na   0.414640   0.151911
     2  Na  -0.564001   0.116061
     3  Na  -0.505776   0.259176
     4  Na  -0.174925   0.066999
     5  Na   0.493515   0.207985
     6  Na   0.313262   0.138077
     7  Na   0.023284   0.059792
 Sum of Mulliken charges =  -0.00000   1.00000

 Dipole moment (field-independent basis, Debye):
    X=             -0.7350    Y=              0.0083    Z=              0.8884  Tot=              1.1531
 Quadrupole moment (field-independent basis, Debye-Ang):
   XX=            -47.4767   YY=            -79.6810   ZZ=            -67.7263
   XY=             -0.4904   XZ=              0.6762   YZ=              3.6101

 Normal termination of Gaussian 16 at Thu Dec  7 09:17:14 2023.
