 Gaussian 16, Revision B.01,
 Gaussian 16:  ES64L-G16RevB.01 20-Dec-2017

 -------------------------
 #P B3LYP/6-311+g(d) force
 -------------------------

 -----
 DPGEN
 -----
 Symbolic Z-matrix:
 Charge =  0 Multiplicity = 2

                         Standard orientation:
 ---------------------------------------------------------------------
 Center     Atomic      Atomic             Coordinates (Angstroms)
 Number     Number       Type             X           Y           Z
 ---------------------------------------------------------------------
      1         11           0       -1.594118    3.263512   -0.165399
      2         11           0       -2.860853   -2.121338    0.629012
      3         11           0        1.579231    3.109866    0.438894
      4         11           0        4.185625    0.912684   -0.226906
      5         11           0        3.242584   -2.091212   -0.025179
      6         11           0        0.121640   -3.582915   -0.243137
      7         11           0       -4.674110    0.509403   -0.407285
 ---------------------------------------------------------------------

 SCF Done:  E(UB3LYP) =  -1136.11081072     A.U. after   22 cycles

 The electronic state is 2-A.
 Alpha  occ. eigenvalues --  -38.44977 -38.44919 -38.44888 -38.44394 -38.44326
 Alpha  occ. eigenvalues --  -38.44326 -38.43771  -2.20752  -2.20696  -2.20683
 Alpha  occ. eigenvalues --   -2.20189  -2.20156  -2.20126  -2.19580  -1.14436
 Alpha  occ. eigenvalues --   -1.14426  -1.14402  -1.14370  -1.14369  -1.14361
 Alpha  occ. eigenvalues --   -1.14356  -1.14340  -1.14323  -1.13838  -1.13829
 Alpha  occ. eigenvalues --   -1.13818  -1.13816  -1.13807  -1.13802  -1.13793
 Alpha  occ. eigenvalues --   -1.13791  -1.13743  -1.13229  -1.13227  -1.13218
 Alpha  occ. eigenvalues --   -0.15707  -0.14109  -0.13574  -0.11054
 Alpha virt. eigenvalues --   -0.07608  -0.04711  -0.04298  -0.03648  -0.03543
 Alpha virt. eigenvalues --   -0.02523  -0.02226  -0.01856  -0.01368  -0.00770
 Alpha virt. eigenvalues --   -0.00322  -0.00082   0.00030   0.00458   0.00546

  Beta  occ. eigenvalues --  -38.44969 -38.44882 -38.44881 -38.44328 -38.44308
  Beta  occ. eigenvalues --  -38.44279 -38.43716  -2.20744  -2.20678  -2.20630
  Beta  occ. eigenvalues --   -2.20098  -2.20071  -2.20068  -2.19477  -1.14436
  Beta  occ. eigenvalues --   -1.14426  -1.14361  -1.14356  -1.14350  -1.14321
  Beta  occ. eigenvalues --   -1.14320  -1.14307  -1.14261  -1.13782  -1.13776
  Beta  occ. eigenvalues --   -1.13760  -1.13756  -1.13747  -1.13745  -1.13742
  Beta  occ. eigenvalues --   -1.13738  -1.13695  -1.13159  -1.13158  -1.13152
  Beta  occ. eigenvalues --   -0.15179  -0.13330  -0.12746
  Beta virt. eigenvalues --   -0.07961  -0.07776  -0.04168  -0.03888  -0.03425
  Beta virt. eigenvalues --   -0.03190  -0.02283  -0.02024  -0.01710  -0.01195
  Beta virt. eigenvalues --   -0.00388  -0.00074   0.00064   0.00270   0.00446

 Mulliken charges and spin densities:
               1          2
     1  Na   0.003689   0.169980
     2  Na  -0.410565   0.049698
     3  Na  -0.041603  -0.019951
     4  Na   0.276677   0.196373
     5  Na  -0.049034   0.051294
     6  Na  -0.142009   0.240976
     7  Na   0.362845   0.311630
 Sum of Mulliken charges =  -0.00000   1.00000

 Dipole moment (field-independent basis, Debye):
    X=             -0.0560    Y=              0.3505    Z=             -0.0730  Tot=              0.3624
 Quadrupole moment (field-independent basis, Debye-Ang):
   XX=            -60.2160   YY=            -67.0030   ZZ=            -72.6252
   XY=             -1.9278   XZ=              0.8338   YZ=             -1.1460

 Normal termination of Gaussian 16 at Sun Dec  3 13:10:29 2023.
