 Gaussian 16, Revision B.01,
 Gaussian 16:  ES64L-G16RevB.01 20-Dec-2017

 -------------------------
 #P B3LYP/6-311+g(d) force
 -------------------------

 -----
 DPGEN
 -----
 Symbolic Z-matrix:
 Charge =  0 Multiplicity = 2

                         Standard orientation:
 ---------------------------------------------------------------------
 Center     Atomic      Atomic             Coordinates (Angstroms)
 Number     Number       Type             X           Y           Z
 ---------------------------------------------------------------------
      1         11           0        1.628522    3.052749    0.458383
      2         11           0       -2.267063   -2.193627   -0.179812
      3         11           0        0.186333    0.054829   -0.319578
      4         11           0       -1.460648    1.000147    1.923167
      5         11           0       -2.404132    1.126282   -1.829010
      6         11           0        2.919714   -1.010179   -1.713320
      7         11           0        1.397274   -2.030202    1.660169
 ---------------------------------------------------------------------

 SCF Done:  E(UB3LYP) =  -1136.11795641     A.U. after   23 cycles

 The electronic state is 2-A.
 Alpha  occ. eigenvalues --  -38.44499 -38.44390 -38.44221 -38.44021 -38.43902
 Alpha  occ. eigenvalues --  -38.43669 -38.41990  -2.20357  -2.20216  -2.20015
 Alpha  occ. eigenvalues --   -2.19832  -2.19701  -2.19423  -2.18144  -1.14111
 Alpha  occ. eigenvalues --   -1.13979  -1.13936  -1.13911  -1.13841  -1.13818
 Alpha  occ. eigenvalues --   -1.13697  -1.13648  -1.13627  -1.13543  -1.13472
 Alpha  occ. eigenvalues --   -1.13443  -1.13391  -1.13363  -1.13325  -1.13094
 Alpha  occ. eigenvalues --   -1.13089  -1.13062  -1.11920  -1.11801  -1.11739
 Alpha  occ. eigenvalues --   -0.17911  -0.12553  -0.11435  -0.11251
 Alpha virt. eigenvalues --   -0.05571  -0.05337  -0.04666  -0.02945  -0.02713
 Alpha virt. eigenvalues --   -0.02554  -0.01523  -0.01239  -0.01001   0.00129
 Alpha virt. eigenvalues --    0.00247   0.00322   0.00365   0.00542   0.00795

  Beta  occ. eigenvalues --  -38.44446 -38.44336 -38.44174 -38.44001 -38.43901
  Beta  occ. eigenvalues --  -38.43675 -38.41965  -2.20260  -2.20114  -2.19928
  Beta  occ. eigenvalues --   -2.19797  -2.19701  -2.19436  -2.18109  -1.14045
  Beta  occ. eigenvalues --   -1.13900  -1.13867  -1.13837  -1.13773  -1.13749
  Beta  occ. eigenvalues --   -1.13632  -1.13590  -1.13572  -1.13518  -1.13449
  Beta  occ. eigenvalues --   -1.13406  -1.13391  -1.13359  -1.13315  -1.13099
  Beta  occ. eigenvalues --   -1.13098  -1.13066  -1.11819  -1.11787  -1.11726
  Beta  occ. eigenvalues --   -0.17155  -0.12192  -0.11298
  Beta virt. eigenvalues --   -0.07576  -0.05520  -0.04675  -0.04403  -0.02792
  Beta virt. eigenvalues --   -0.02158  -0.01874  -0.01450  -0.01133  -0.00508
  Beta virt. eigenvalues --    0.00211   0.00323   0.00386   0.00448   0.00648

 Mulliken charges and spin densities:
               1          2
     1  Na  -0.046585   0.018867
     2  Na   0.530367  -0.073888
     3  Na  -1.897249   0.404791
     4  Na   0.594148   0.465052
     5  Na   0.347765   0.158114
     6  Na   0.404926  -0.070848
     7  Na   0.066626   0.097912
 Sum of Mulliken charges =  -0.00000   1.00000

 Dipole moment (field-independent basis, Debye):
    X=             -0.3650    Y=             -0.1739    Z=              0.0610  Tot=              0.4089
 Quadrupole moment (field-independent basis, Debye-Ang):
   XX=            -60.3528   YY=            -66.3112   ZZ=            -63.0076
   XY=             -0.0747   XZ=             -0.7464   YZ=             -1.5893

 Normal termination of Gaussian 16 at Thu Dec  7 11:44:06 2023.
