 Gaussian 16, Revision B.01,
 Gaussian 16:  ES64L-G16RevB.01 20-Dec-2017

 -------------------------
 #P B3LYP/6-311+g(d) force
 -------------------------

 -----
 DPGEN
 -----
 Symbolic Z-matrix:
 Charge =  0 Multiplicity = 2

                         Standard orientation:
 ---------------------------------------------------------------------
 Center     Atomic      Atomic             Coordinates (Angstroms)
 Number     Number       Type             X           Y           Z
 ---------------------------------------------------------------------
      1         11           0       -4.241940    0.580476    0.931870
      2         11           0       -0.585505    1.843284   -0.850778
      3         11           0        0.955399   -1.892898   -0.462213
      4         11           0       -0.536748   -0.301410    1.832185
      5         11           0       -2.077974   -1.714606   -1.542861
      6         11           0        4.288875   -0.783763    0.703993
      7         11           0        2.197895    2.268917   -0.612195
 ---------------------------------------------------------------------

 SCF Done:  E(UB3LYP) =  -1136.10937413     A.U. after   24 cycles

 The electronic state is 2-A.
 Alpha  occ. eigenvalues --  -38.46617 -38.44887 -38.44713 -38.44650 -38.43290
 Alpha  occ. eigenvalues --  -38.43083 -38.42915  -2.22413  -2.20656  -2.20485
 Alpha  occ. eigenvalues --   -2.20481  -2.19142  -2.18963  -2.18826  -1.16125
 Alpha  occ. eigenvalues --   -1.16074  -1.16019  -1.14316  -1.14308  -1.14267
 Alpha  occ. eigenvalues --   -1.14158  -1.14144  -1.14129  -1.14126  -1.14098
 Alpha  occ. eigenvalues --   -1.14093  -1.12986  -1.12790  -1.12753  -1.12692
 Alpha  occ. eigenvalues --   -1.12626  -1.12577  -1.12491  -1.12460  -1.12409
 Alpha  occ. eigenvalues --   -0.17789  -0.13553  -0.11718  -0.10989
 Alpha virt. eigenvalues --   -0.07683  -0.04820  -0.04680  -0.03289  -0.03120
 Alpha virt. eigenvalues --   -0.02664  -0.02082  -0.01567  -0.01261  -0.00416
 Alpha virt. eigenvalues --   -0.00138   0.00134   0.00237   0.00519   0.00669

  Beta  occ. eigenvalues --  -38.46617 -38.44823 -38.44647 -38.44598 -38.43290
  Beta  occ. eigenvalues --  -38.43080 -38.42893  -2.22412  -2.20538  -2.20388
  Beta  occ. eigenvalues --   -2.20361  -2.19146  -2.18960  -2.18787  -1.16113
  Beta  occ. eigenvalues --   -1.16081  -1.16021  -1.14231  -1.14227  -1.14190
  Beta  occ. eigenvalues --   -1.14077  -1.14072  -1.14060  -1.14044  -1.14029
  Beta  occ. eigenvalues --   -1.14018  -1.12967  -1.12794  -1.12755  -1.12702
  Beta  occ. eigenvalues --   -1.12616  -1.12547  -1.12467  -1.12421  -1.12386
  Beta  occ. eigenvalues --   -0.17389  -0.12909  -0.11269
  Beta virt. eigenvalues --   -0.07659  -0.07387  -0.04726  -0.04097  -0.03110
  Beta virt. eigenvalues --   -0.02815  -0.02208  -0.01738  -0.01202  -0.00961
  Beta virt. eigenvalues --   -0.00228  -0.00017   0.00219   0.00368   0.00641

 Mulliken charges and spin densities:
               1          2
     1  Na   0.230553   0.349348
     2  Na  -0.107907   0.172961
     3  Na  -0.328662   0.133355
     4  Na   0.000202   0.081242
     5  Na   0.274458   0.010167
     6  Na   0.214740   0.397897
     7  Na  -0.283383  -0.144969
 Sum of Mulliken charges =  -0.00000   1.00000

 Dipole moment (field-independent basis, Debye):
    X=             -0.8070    Y=             -0.4829    Z=              0.2887  Tot=              0.9838
 Quadrupole moment (field-independent basis, Debye-Ang):
   XX=            -53.2510   YY=            -79.5206   ZZ=            -66.1727
   XY=              2.2105   XZ=              3.6440   YZ=              1.9441

 Normal termination of Gaussian 16 at Sun Dec  3 19:54:17 2023.
