 Gaussian 16, Revision B.01,
 Gaussian 16:  ES64L-G16RevB.01 20-Dec-2017

 -------------------------
 #P B3LYP/6-311+g(d) force
 -------------------------

 -----
 DPGEN
 -----
 Symbolic Z-matrix:
 Charge =  0 Multiplicity = 2

                         Standard orientation:
 ---------------------------------------------------------------------
 Center     Atomic      Atomic             Coordinates (Angstroms)
 Number     Number       Type             X           Y           Z
 ---------------------------------------------------------------------
      1         11           0        1.698729    0.553313    1.640671
      2         11           0       -2.018228    2.385070    0.957696
      3         11           0       -3.269737   -1.272936   -1.075195
      4         11           0       -0.781694    0.015798   -0.458726
      5         11           0        1.829047    1.877912   -1.392947
      6         11           0        2.154226   -1.319614   -1.306472
      7         11           0        0.387656   -2.239543    1.634972
 ---------------------------------------------------------------------

 SCF Done:  E(UB3LYP) =  -1136.11803409     A.U. after   21 cycles

 The electronic state is 2-A.
 Alpha  occ. eigenvalues --  -38.44516 -38.44396 -38.44166 -38.44061 -38.43291
 Alpha  occ. eigenvalues --  -38.43081 -38.42253  -2.20337  -2.20194  -2.20068
 Alpha  occ. eigenvalues --   -2.20016  -2.19178  -2.18970  -2.18401  -1.14076
 Alpha  occ. eigenvalues --   -1.13959  -1.13934  -1.13902  -1.13843  -1.13798
 Alpha  occ. eigenvalues --   -1.13769  -1.13733  -1.13713  -1.13681  -1.13655
 Alpha  occ. eigenvalues --   -1.13617  -1.12866  -1.12835  -1.12798  -1.12675
 Alpha  occ. eigenvalues --   -1.12605  -1.12585  -1.12128  -1.12066  -1.12013
 Alpha  occ. eigenvalues --   -0.18706  -0.13034  -0.11812  -0.11518
 Alpha virt. eigenvalues --   -0.05776  -0.05051  -0.04007  -0.03123  -0.02997
 Alpha virt. eigenvalues --   -0.02674  -0.01466  -0.01121  -0.00605   0.00143
 Alpha virt. eigenvalues --    0.00330   0.00416   0.00540   0.00629   0.00791

  Beta  occ. eigenvalues --  -38.44481 -38.44372 -38.44126 -38.44006 -38.43274
  Beta  occ. eigenvalues --  -38.43054 -38.42234  -2.20273  -2.20151  -2.19995
  Beta  occ. eigenvalues --   -2.19917  -2.19151  -2.18925  -2.18372  -1.14030
  Beta  occ. eigenvalues --   -1.13916  -1.13892  -1.13874  -1.13810  -1.13766
  Beta  occ. eigenvalues --   -1.13715  -1.13674  -1.13652  -1.13618  -1.13579
  Beta  occ. eigenvalues --   -1.13545  -1.12842  -1.12820  -1.12762  -1.12637
  Beta  occ. eigenvalues --   -1.12562  -1.12559  -1.12070  -1.12029  -1.12005
  Beta  occ. eigenvalues --   -0.17990  -0.12686  -0.11462
  Beta virt. eigenvalues --   -0.07795  -0.05372  -0.04817  -0.03899  -0.02767
  Beta virt. eigenvalues --   -0.02533  -0.01803  -0.01320  -0.00911  -0.00344
  Beta virt. eigenvalues --    0.00252   0.00384   0.00452   0.00641   0.00759

 Mulliken charges and spin densities:
               1          2
     1  Na   1.103992   0.554262
     2  Na   0.069820   0.047948
     3  Na   0.050126  -0.188441
     4  Na  -1.902358   0.482063
     5  Na   0.944649   0.127962
     6  Na   0.106228  -0.006072
     7  Na  -0.372458  -0.017723
 Sum of Mulliken charges =  -0.00000   1.00000

 Dipole moment (field-independent basis, Debye):
    X=             -0.0037    Y=              0.0231    Z=              0.0860  Tot=              0.0891
 Quadrupole moment (field-independent basis, Debye-Ang):
   XX=            -59.5298   YY=            -65.7671   ZZ=            -65.9289
   XY=              0.0361   XZ=             -1.1112   YZ=              3.4012

 Normal termination of Gaussian 16 at Thu Dec  7 18:29:26 2023.
