 Gaussian 16, Revision B.01,
 Gaussian 16:  ES64L-G16RevB.01 20-Dec-2017

 -------------------------
 #P B3LYP/6-311+g(d) force
 -------------------------

 -----
 DPGEN
 -----
 Symbolic Z-matrix:
 Charge =  0 Multiplicity = 2

                         Standard orientation:
 ---------------------------------------------------------------------
 Center     Atomic      Atomic             Coordinates (Angstroms)
 Number     Number       Type             X           Y           Z
 ---------------------------------------------------------------------
      1         11           0        0.894200   -1.851482   -0.395084
      2         11           0        3.598617   -1.103539   -0.693139
      3         11           0       -3.934923   -1.203877    0.393683
      4         11           0       -2.153714    0.652860   -1.672641
      5         11           0       -1.252406    0.547896    1.608380
      6         11           0        2.165657    0.649163    1.544586
      7         11           0        0.682570    2.308980   -0.785785
 ---------------------------------------------------------------------

 SCF Done:  E(UB3LYP) =  -1136.12014713     A.U. after   24 cycles

 The electronic state is 2-A.
 Alpha  occ. eigenvalues --  -38.44634 -38.44267 -38.44046 -38.44004 -38.43910
 Alpha  occ. eigenvalues --  -38.43567 -38.42775  -2.20520  -2.20084  -2.19931
 Alpha  occ. eigenvalues --   -2.19908  -2.19855  -2.19486  -2.18654  -1.14287
 Alpha  occ. eigenvalues --   -1.14186  -1.14155  -1.13760  -1.13749  -1.13725
 Alpha  occ. eigenvalues --   -1.13606  -1.13604  -1.13592  -1.13558  -1.13540
 Alpha  occ. eigenvalues --   -1.13533  -1.13521  -1.13503  -1.13428  -1.13188
 Alpha  occ. eigenvalues --   -1.13149  -1.13074  -1.12325  -1.12319  -1.12288
 Alpha  occ. eigenvalues --   -0.18495  -0.14430  -0.11457  -0.11084
 Alpha virt. eigenvalues --   -0.06826  -0.04969  -0.04733  -0.03280  -0.02687
 Alpha virt. eigenvalues --   -0.02582  -0.02254  -0.01180  -0.00793  -0.00012
 Alpha virt. eigenvalues --    0.00073   0.00250   0.00411   0.00675   0.00737

  Beta  occ. eigenvalues --  -38.44625 -38.44255 -38.43996 -38.43990 -38.43878
  Beta  occ. eigenvalues --  -38.43515 -38.42754  -2.20507  -2.20063  -2.19895
  Beta  occ. eigenvalues --   -2.19831  -2.19797  -2.19393  -2.18619  -1.14276
  Beta  occ. eigenvalues --   -1.14163  -1.14143  -1.13742  -1.13727  -1.13710
  Beta  occ. eigenvalues --   -1.13584  -1.13546  -1.13538  -1.13526  -1.13509
  Beta  occ. eigenvalues --   -1.13492  -1.13474  -1.13449  -1.13392  -1.13127
  Beta  occ. eigenvalues --   -1.13070  -1.13004  -1.12300  -1.12292  -1.12247
  Beta  occ. eigenvalues --   -0.17862  -0.14209  -0.11193
  Beta virt. eigenvalues --   -0.07239  -0.06684  -0.04648  -0.04279  -0.03124
  Beta virt. eigenvalues --   -0.02483  -0.02040  -0.01571  -0.01050  -0.00353
  Beta virt. eigenvalues --    0.00083   0.00130   0.00266   0.00535   0.00802

 Mulliken charges and spin densities:
               1          2
     1  Na  -1.163423   0.257535
     2  Na   0.933447  -0.174458
     3  Na   0.648362   0.054428
     4  Na   0.069023   0.175657
     5  Na  -0.330899   0.323335
     6  Na   0.197699   0.154602
     7  Na  -0.354210   0.208901
 Sum of Mulliken charges =  -0.00000   1.00000

 Dipole moment (field-independent basis, Debye):
    X=             -0.0371    Y=             -0.0316    Z=             -0.0378  Tot=              0.0617
 Quadrupole moment (field-independent basis, Debye-Ang):
   XX=            -52.6513   YY=            -74.6831   ZZ=            -69.9549
   XY=              5.2814   XZ=              0.3745   YZ=             -1.2858

 Normal termination of Gaussian 16 at Tue Dec  5 10:17:54 2023.
