 Gaussian 16, Revision B.01,
 Gaussian 16:  ES64L-G16RevB.01 20-Dec-2017

 -------------------------
 #P B3LYP/6-311+g(d) force
 -------------------------

 -----
 DPGEN
 -----
 Symbolic Z-matrix:
 Charge =  0 Multiplicity = 2

                         Standard orientation:
 ---------------------------------------------------------------------
 Center     Atomic      Atomic             Coordinates (Angstroms)
 Number     Number       Type             X           Y           Z
 ---------------------------------------------------------------------
      1         11           0        3.050608    0.676177    0.978648
      2         11           0        2.730978   -2.762793    0.680553
      3         11           0       -2.834810   -0.482708   -0.756923
      4         11           0        2.241691    3.220663   -0.254614
      5         11           0       -5.128111    0.494088    1.263751
      6         11           0        0.131463   -2.449017   -0.943461
      7         11           0       -0.191818    1.303590   -0.967955
 ---------------------------------------------------------------------

 SCF Done:  E(UB3LYP) =  -1136.12116114     A.U. after   20 cycles

 The electronic state is 2-A.
 Alpha  occ. eigenvalues --  -38.44677 -38.44506 -38.44280 -38.44027 -38.43915
 Alpha  occ. eigenvalues --  -38.43388 -38.43347  -2.20497  -2.20372  -2.20156
 Alpha  occ. eigenvalues --   -2.19867  -2.19799  -2.19228  -2.19218  -1.14134
 Alpha  occ. eigenvalues --   -1.14121  -1.14117  -1.14080  -1.14036  -1.14016
 Alpha  occ. eigenvalues --   -1.13838  -1.13817  -1.13806  -1.13546  -1.13543
 Alpha  occ. eigenvalues --   -1.13510  -1.13456  -1.13432  -1.13426  -1.12911
 Alpha  occ. eigenvalues --   -1.12887  -1.12885  -1.12876  -1.12874  -1.12871
 Alpha  occ. eigenvalues --   -0.17115  -0.14222  -0.12794  -0.11340
 Alpha virt. eigenvalues --   -0.05786  -0.05592  -0.04387  -0.04123  -0.02607
 Alpha virt. eigenvalues --   -0.02129  -0.02077  -0.01470  -0.00954  -0.00724
 Alpha virt. eigenvalues --   -0.00220   0.00092   0.00217   0.00317   0.00715

  Beta  occ. eigenvalues --  -38.44564 -38.44476 -38.44243 -38.44011 -38.43913
  Beta  occ. eigenvalues --  -38.43375 -38.43341  -2.20317  -2.20287  -2.20088
  Beta  occ. eigenvalues --   -2.19839  -2.19797  -2.19219  -2.19203  -1.14038
  Beta  occ. eigenvalues --   -1.13998  -1.13994  -1.13980  -1.13978  -1.13975
  Beta  occ. eigenvalues --   -1.13797  -1.13776  -1.13748  -1.13532  -1.13526
  Beta  occ. eigenvalues --   -1.13478  -1.13447  -1.13427  -1.13424  -1.12917
  Beta  occ. eigenvalues --   -1.12894  -1.12873  -1.12859  -1.12850  -1.12802
  Beta  occ. eigenvalues --   -0.16607  -0.13433  -0.12603
  Beta virt. eigenvalues --   -0.07808  -0.05439  -0.05217  -0.04030  -0.03923
  Beta virt. eigenvalues --   -0.02317  -0.01858  -0.01575  -0.01302  -0.00860
  Beta virt. eigenvalues --   -0.00358   0.00072   0.00286   0.00399   0.00410

 Mulliken charges and spin densities:
               1          2
     1  Na  -0.460180   0.209694
     2  Na   0.283493   0.137296
     3  Na  -0.305773  -0.006308
     4  Na   1.297220   0.013791
     5  Na   0.464224   0.501643
     6  Na  -0.106298   0.011028
     7  Na  -1.172687   0.132856
 Sum of Mulliken charges =  -0.00000   1.00000

 Dipole moment (field-independent basis, Debye):
    X=              0.3733    Y=              0.7032    Z=              0.2077  Tot=              0.8228
 Quadrupole moment (field-independent basis, Debye-Ang):
   XX=            -65.6029   YY=            -63.3181   ZZ=            -68.8876
   XY=              2.0310   XZ=             -0.5142   YZ=              0.6307

 Normal termination of Gaussian 16 at Tue Nov 28 22:26:55 2023.
