 Gaussian 16, Revision B.01,
 Gaussian 16:  ES64L-G16RevB.01 20-Dec-2017

 -------------------------
 #P B3LYP/6-311+g(d) force
 -------------------------

 -----
 DPGEN
 -----
 Symbolic Z-matrix:
 Charge =  0 Multiplicity = 2

                         Standard orientation:
 ---------------------------------------------------------------------
 Center     Atomic      Atomic             Coordinates (Angstroms)
 Number     Number       Type             X           Y           Z
 ---------------------------------------------------------------------
      1         11           0       -0.936325    1.045891    0.620189
      2         11           0       -3.273673    2.655784   -0.218242
      3         11           0       -3.017194   -0.965466   -1.003225
      4         11           0        1.032217   -1.696844   -1.181309
      5         11           0        2.369905    0.533974    0.785019
      6         11           0       -1.394820   -2.337089    1.361953
      7         11           0        5.219891    0.763749   -0.364385
 ---------------------------------------------------------------------

 SCF Done:  E(UB3LYP) =  -1136.11476316     A.U. after   23 cycles

 The electronic state is 2-A.
 Alpha  occ. eigenvalues --  -38.45767 -38.44681 -38.44116 -38.43749 -38.43388
 Alpha  occ. eigenvalues --  -38.43112 -38.42981  -2.21568  -2.20521  -2.20000
 Alpha  occ. eigenvalues --   -2.19583  -2.19224  -2.19026  -2.18977  -1.15267
 Alpha  occ. eigenvalues --   -1.15242  -1.15164  -1.14219  -1.14190  -1.14145
 Alpha  occ. eigenvalues --   -1.13683  -1.13677  -1.13575  -1.13257  -1.13209
 Alpha  occ. eigenvalues --   -1.13200  -1.12990  -1.12874  -1.12852  -1.12719
 Alpha  occ. eigenvalues --   -1.12693  -1.12675  -1.12653  -1.12625  -1.12554
 Alpha  occ. eigenvalues --   -0.18033  -0.14043  -0.11994  -0.10485
 Alpha virt. eigenvalues --   -0.07159  -0.05400  -0.04134  -0.03436  -0.02906
 Alpha virt. eigenvalues --   -0.02382  -0.01723  -0.01483  -0.01116  -0.00607
 Alpha virt. eigenvalues --   -0.00259   0.00080   0.00226   0.00497   0.00653

  Beta  occ. eigenvalues --  -38.45765 -38.44682 -38.44062 -38.43659 -38.43391
  Beta  occ. eigenvalues --  -38.43091 -38.42934  -2.21567  -2.20528  -2.19900
  Beta  occ. eigenvalues --   -2.19416  -2.19230  -2.18999  -2.18896  -1.15267
  Beta  occ. eigenvalues --   -1.15225  -1.15174  -1.14226  -1.14172  -1.14143
  Beta  occ. eigenvalues --   -1.13619  -1.13608  -1.13501  -1.13149  -1.13095
  Beta  occ. eigenvalues --   -1.13088  -1.12983  -1.12879  -1.12847  -1.12692
  Beta  occ. eigenvalues --   -1.12674  -1.12612  -1.12601  -1.12568  -1.12479
  Beta  occ. eigenvalues --   -0.17440  -0.13442  -0.11724
  Beta virt. eigenvalues --   -0.07009  -0.06911  -0.05222  -0.03538  -0.03207
  Beta virt. eigenvalues --   -0.02633  -0.02227  -0.01520  -0.01144  -0.00648
  Beta virt. eigenvalues --   -0.00431  -0.00034   0.00270   0.00340   0.00588

 Mulliken charges and spin densities:
               1          2
     1  Na  -1.659693  -0.088441
     2  Na   0.302605   0.035686
     3  Na   0.015158   0.420955
     4  Na  -0.013094  -0.110771
     5  Na  -0.102728   0.166508
     6  Na   0.543923   0.116726
     7  Na   0.913829   0.459337
 Sum of Mulliken charges =  -0.00000   1.00000

 Dipole moment (field-independent basis, Debye):
    X=             -0.7688    Y=             -1.4225    Z=             -0.3837  Tot=              1.6619
 Quadrupole moment (field-independent basis, Debye-Ang):
   XX=            -71.7416   YY=            -70.2912   ZZ=            -61.4582
   XY=             -3.3845   XZ=             -1.9692   YZ=             -0.5666

 Normal termination of Gaussian 16 at Tue Nov 28 21:12:03 2023.
