 Gaussian 16, Revision B.01,
 Gaussian 16:  ES64L-G16RevB.01 20-Dec-2017

 -------------------------
 #P B3LYP/6-311+g(d) force
 -------------------------

 -----
 DPGEN
 -----
 Symbolic Z-matrix:
 Charge =  0 Multiplicity = 2

                         Standard orientation:
 ---------------------------------------------------------------------
 Center     Atomic      Atomic             Coordinates (Angstroms)
 Number     Number       Type             X           Y           Z
 ---------------------------------------------------------------------
      1         11           0        2.879104   -1.670939   -0.464604
      2         11           0       -3.707614   -0.861573    0.551100
      3         11           0        3.195191    1.327631    0.682916
      4         11           0        0.020907   -0.260155    2.159760
      5         11           0       -2.424071    1.960345   -0.528488
      6         11           0        0.679205    1.371861   -1.263578
      7         11           0       -0.642723   -1.867169   -1.137106
 ---------------------------------------------------------------------

 SCF Done:  E(UB3LYP) =  -1136.11915156     A.U. after   27 cycles

 The electronic state is 2-A.
 Alpha  occ. eigenvalues --  -38.45301 -38.45291 -38.44513 -38.44371 -38.43590
 Alpha  occ. eigenvalues --  -38.43162 -38.43034  -2.21094  -2.21079  -2.20368
 Alpha  occ. eigenvalues --   -2.20195  -2.19424  -2.19005  -2.18951  -1.14763
 Alpha  occ. eigenvalues --   -1.14760  -1.14757  -1.14724  -1.14721  -1.14687
 Alpha  occ. eigenvalues --   -1.14059  -1.14035  -1.14007  -1.13860  -1.13840
 Alpha  occ. eigenvalues --   -1.13835  -1.13115  -1.13079  -1.13070  -1.12716
 Alpha  occ. eigenvalues --   -1.12665  -1.12629  -1.12617  -1.12610  -1.12567
 Alpha  occ. eigenvalues --   -0.18224  -0.14156  -0.11073  -0.11018
 Alpha virt. eigenvalues --   -0.07333  -0.05624  -0.04344  -0.03206  -0.02809
 Alpha virt. eigenvalues --   -0.02588  -0.02381  -0.01419  -0.00730  -0.00365
 Alpha virt. eigenvalues --    0.00095   0.00170   0.00255   0.00590   0.00645

  Beta  occ. eigenvalues --  -38.45293 -38.45217 -38.44500 -38.44363 -38.43583
  Beta  occ. eigenvalues --  -38.43128 -38.42993  -2.21079  -2.20942  -2.20344
  Beta  occ. eigenvalues --   -2.20184  -2.19414  -2.18945  -2.18878  -1.14755
  Beta  occ. eigenvalues --   -1.14741  -1.14714  -1.14665  -1.14629  -1.14583
  Beta  occ. eigenvalues --   -1.14047  -1.14020  -1.13976  -1.13844  -1.13830
  Beta  occ. eigenvalues --   -1.13821  -1.13099  -1.13069  -1.13061  -1.12672
  Beta  occ. eigenvalues --   -1.12613  -1.12584  -1.12571  -1.12544  -1.12511
  Beta  occ. eigenvalues --   -0.17519  -0.14005  -0.10745
  Beta virt. eigenvalues --   -0.07347  -0.06980  -0.05649  -0.03689  -0.02971
  Beta virt. eigenvalues --   -0.02580  -0.02012  -0.01575  -0.01317  -0.00452
  Beta virt. eigenvalues --   -0.00333   0.00109   0.00195   0.00438   0.00669

 Mulliken charges and spin densities:
               1          2
     1  Na   0.050592   0.009717
     2  Na   0.551937   0.175704
     3  Na   0.818937   0.120897
     4  Na  -0.499649   0.446241
     5  Na  -0.169304  -0.096087
     6  Na  -0.486090   0.297178
     7  Na  -0.266423   0.046351
 Sum of Mulliken charges =  -0.00000   1.00000

 Dipole moment (field-independent basis, Debye):
    X=             -0.1328    Y=             -0.3865    Z=              0.7296  Tot=              0.8363
 Quadrupole moment (field-independent basis, Debye-Ang):
   XX=            -44.8306   YY=            -77.6508   ZZ=            -71.7722
   XY=              0.9125   XZ=             -0.4855   YZ=              1.4687

 Normal termination of Gaussian 16 at Thu Dec  7 08:45:09 2023.
