 Gaussian 16, Revision B.01,
 Gaussian 16:  ES64L-G16RevB.01 20-Dec-2017

 -------------------------
 #P B3LYP/6-311+g(d) force
 -------------------------

 -----
 DPGEN
 -----
 Symbolic Z-matrix:
 Charge =  0 Multiplicity = 2

                         Standard orientation:
 ---------------------------------------------------------------------
 Center     Atomic      Atomic             Coordinates (Angstroms)
 Number     Number       Type             X           Y           Z
 ---------------------------------------------------------------------
      1         11           0        0.009223   -2.872341   -0.122600
      2         11           0        0.466113    0.071596    2.168038
      3         11           0        1.697197    2.647883   -0.407169
      4         11           0       -3.399126   -1.084982   -0.121115
      5         11           0        3.276493   -1.004742   -0.039232
      6         11           0        0.131129   -0.002453   -1.654259
      7         11           0       -2.181028    2.245040    0.176336
 ---------------------------------------------------------------------

 SCF Done:  E(UB3LYP) =  -1136.13299042     A.U. after   19 cycles

 The electronic state is 2-A.
 Alpha  occ. eigenvalues --  -38.44740 -38.44318 -38.43941 -38.43808 -38.43639
 Alpha  occ. eigenvalues --  -38.43433 -38.43399  -2.20519  -2.20081  -2.19726
 Alpha  occ. eigenvalues --   -2.19646  -2.19447  -2.19320  -2.19258  -1.14195
 Alpha  occ. eigenvalues --   -1.14169  -1.14162  -1.13759  -1.13739  -1.13724
 Alpha  occ. eigenvalues --   -1.13406  -1.13395  -1.13356  -1.13306  -1.13276
 Alpha  occ. eigenvalues --   -1.13261  -1.13150  -1.13103  -1.13076  -1.13041
 Alpha  occ. eigenvalues --   -1.12983  -1.12934  -1.12927  -1.12907  -1.12866
 Alpha  occ. eigenvalues --   -0.17913  -0.12815  -0.12157  -0.10558
 Alpha virt. eigenvalues --   -0.06169  -0.05505  -0.04618  -0.03069  -0.02793
 Alpha virt. eigenvalues --   -0.02595  -0.01923  -0.01340  -0.00708  -0.00521
 Alpha virt. eigenvalues --   -0.00076   0.00304   0.00699   0.00773   0.00799

  Beta  occ. eigenvalues --  -38.44738 -38.44322 -38.43938 -38.43708 -38.43629
  Beta  occ. eigenvalues --  -38.43427 -38.43338  -2.20518  -2.20088  -2.19724
  Beta  occ. eigenvalues --   -2.19461  -2.19431  -2.19250  -2.19210  -1.14174
  Beta  occ. eigenvalues --   -1.14171  -1.14163  -1.13757  -1.13745  -1.13729
  Beta  occ. eigenvalues --   -1.13395  -1.13387  -1.13358  -1.13182  -1.13150
  Beta  occ. eigenvalues --   -1.13128  -1.13125  -1.13081  -1.13067  -1.12996
  Beta  occ. eigenvalues --   -1.12916  -1.12905  -1.12867  -1.12853  -1.12848
  Beta  occ. eigenvalues --   -0.17203  -0.12664  -0.11928
  Beta virt. eigenvalues --   -0.06653  -0.06091  -0.05503  -0.04540  -0.02396
  Beta virt. eigenvalues --   -0.02052  -0.01839  -0.01526  -0.01283  -0.00737
  Beta virt. eigenvalues --   -0.00555   0.00095   0.00340   0.00773   0.00783

 Mulliken charges and spin densities:
               1          2
     1  Na   0.034948  -0.091907
     2  Na  -0.394813   0.814192
     3  Na   0.064364  -0.069130
     4  Na  -0.053900  -0.067243
     5  Na   0.230851  -0.057731
     6  Na   0.101332   0.517438
     7  Na   0.017218  -0.045619
 Sum of Mulliken charges =  -0.00000   1.00000

 Dipole moment (field-independent basis, Debye):
    X=              0.2794    Y=             -0.0774    Z=              0.0771  Tot=              0.3000
 Quadrupole moment (field-independent basis, Debye-Ang):
   XX=            -52.7811   YY=            -64.0466   ZZ=            -75.9027
   XY=             -0.1870   XZ=             -0.6863   YZ=             -0.0147

 Normal termination of Gaussian 16 at Thu Dec  7 06:57:23 2023.
