 Gaussian 16, Revision B.01,
 Gaussian 16:  ES64L-G16RevB.01 20-Dec-2017

 -------------------------
 #P B3LYP/6-311+g(d) force
 -------------------------

 -----
 DPGEN
 -----
 Symbolic Z-matrix:
 Charge =  0 Multiplicity = 2

                         Standard orientation:
 ---------------------------------------------------------------------
 Center     Atomic      Atomic             Coordinates (Angstroms)
 Number     Number       Type             X           Y           Z
 ---------------------------------------------------------------------
      1         11           0       -1.403198    2.264199    0.179819
      2         11           0        0.046673   -1.077388   -1.312231
      3         11           0       -1.794869   -0.977159    1.324865
      4         11           0        3.852485   -1.053746   -0.533969
      5         11           0        1.211425   -0.485959    1.749055
      6         11           0       -3.565657   -0.751708   -0.949768
      7         11           0        1.653140    2.081760   -0.457771
 ---------------------------------------------------------------------

 SCF Done:  E(UB3LYP) =  -1136.12166489     A.U. after   24 cycles

 The electronic state is 2-A.
 Alpha  occ. eigenvalues --  -38.44867 -38.44542 -38.44481 -38.43800 -38.43694
 Alpha  occ. eigenvalues --  -38.43026 -38.42633  -2.20740  -2.20354  -2.20327
 Alpha  occ. eigenvalues --   -2.19758  -2.19715  -2.18911  -2.18502  -1.14489
 Alpha  occ. eigenvalues --   -1.14400  -1.14333  -1.14108  -1.14002  -1.13988
 Alpha  occ. eigenvalues --   -1.13980  -1.13969  -1.13950  -1.13554  -1.13400
 Alpha  occ. eigenvalues --   -1.13365  -1.13352  -1.13322  -1.13298  -1.12607
 Alpha  occ. eigenvalues --   -1.12586  -1.12535  -1.12173  -1.12166  -1.12132
 Alpha  occ. eigenvalues --   -0.18900  -0.14122  -0.11389  -0.11195
 Alpha virt. eigenvalues --   -0.06877  -0.05033  -0.04403  -0.03321  -0.02709
 Alpha virt. eigenvalues --   -0.02433  -0.02171  -0.01151  -0.00734  -0.00112
 Alpha virt. eigenvalues --    0.00080   0.00320   0.00486   0.00600   0.00817

  Beta  occ. eigenvalues --  -38.44848 -38.44529 -38.44453 -38.43719 -38.43642
  Beta  occ. eigenvalues --  -38.43017 -38.42629  -2.20706  -2.20306  -2.20301
  Beta  occ. eigenvalues --   -2.19631  -2.19614  -2.18894  -2.18498  -1.14449
  Beta  occ. eigenvalues --   -1.14373  -1.14308  -1.14075  -1.13984  -1.13970
  Beta  occ. eigenvalues --   -1.13938  -1.13936  -1.13932  -1.13444  -1.13310
  Beta  occ. eigenvalues --   -1.13288  -1.13267  -1.13253  -1.13187  -1.12597
  Beta  occ. eigenvalues --   -1.12567  -1.12523  -1.12167  -1.12157  -1.12126
  Beta  occ. eigenvalues --   -0.18153  -0.13892  -0.11111
  Beta virt. eigenvalues --   -0.07299  -0.06653  -0.04906  -0.03880  -0.03143
  Beta virt. eigenvalues --   -0.02531  -0.01701  -0.01536  -0.00994  -0.00394
  Beta virt. eigenvalues --   -0.00061   0.00137   0.00403   0.00597   0.00664

 Mulliken charges and spin densities:
               1          2
     1  Na  -0.638909   0.078783
     2  Na  -1.086064   0.321529
     3  Na   0.047675   0.035108
     4  Na   0.753028   0.130721
     5  Na  -0.223052   0.108226
     6  Na   1.177915   0.256076
     7  Na  -0.030594   0.069556
 Sum of Mulliken charges =  -0.00000   1.00000

 Dipole moment (field-independent basis, Debye):
    X=              0.2361    Y=             -0.2768    Z=             -0.4097  Tot=              0.5479
 Quadrupole moment (field-independent basis, Debye-Ang):
   XX=            -48.6763   YY=            -77.6035   ZZ=            -68.5680
   XY=             -0.8514   XZ=              0.3209   YZ=              0.7227

 Normal termination of Gaussian 16 at Thu Dec  7 20:08:01 2023.
