 Gaussian 16, Revision B.01,
 Gaussian 16:  ES64L-G16RevB.01 20-Dec-2017

 -------------------------
 #P B3LYP/6-311+g(d) force
 -------------------------

 -----
 DPGEN
 -----
 Symbolic Z-matrix:
 Charge =  0 Multiplicity = 2

                         Standard orientation:
 ---------------------------------------------------------------------
 Center     Atomic      Atomic             Coordinates (Angstroms)
 Number     Number       Type             X           Y           Z
 ---------------------------------------------------------------------
      1         11           0       -3.321798    0.778771   -0.939326
      2         11           0        0.795798    2.668847   -1.178967
      3         11           0       -3.221875   -1.870516    0.701058
      4         11           0       -0.550201    0.915687    2.045025
      5         11           0        3.334151   -1.778495   -1.045795
      6         11           0       -0.081116   -0.974079   -1.092671
      7         11           0        3.045041    0.259786    1.510676
 ---------------------------------------------------------------------

 SCF Done:  E(UB3LYP) =  -1136.11879623     A.U. after   24 cycles

 The electronic state is 2-A.
 Alpha  occ. eigenvalues --  -38.45521 -38.44686 -38.44399 -38.44192 -38.43865
 Alpha  occ. eigenvalues --  -38.43540 -38.43055  -2.21333  -2.20487  -2.20236
 Alpha  occ. eigenvalues --   -2.20023  -2.19676  -2.19311  -2.18868  -1.15012
 Alpha  occ. eigenvalues --   -1.14998  -1.14959  -1.14170  -1.14139  -1.14112
 Alpha  occ. eigenvalues --   -1.13950  -1.13893  -1.13848  -1.13695  -1.13666
 Alpha  occ. eigenvalues --   -1.13664  -1.13372  -1.13313  -1.13288  -1.12984
 Alpha  occ. eigenvalues --   -1.12963  -1.12937  -1.12535  -1.12524  -1.12520
 Alpha  occ. eigenvalues --   -0.17516  -0.13893  -0.11060  -0.10923
 Alpha virt. eigenvalues --   -0.06720  -0.05508  -0.05113  -0.03173  -0.02932
 Alpha virt. eigenvalues --   -0.02377  -0.02197  -0.01228  -0.01000  -0.00519
 Alpha virt. eigenvalues --   -0.00148   0.00146   0.00216   0.00392   0.00705

  Beta  occ. eigenvalues --  -38.45512 -38.44659 -38.44361 -38.44180 -38.43811
  Beta  occ. eigenvalues --  -38.43510 -38.43052  -2.21318  -2.20437  -2.20170
  Beta  occ. eigenvalues --   -2.20000  -2.19577  -2.19256  -2.18863  -1.14991
  Beta  occ. eigenvalues --   -1.14988  -1.14949  -1.14129  -1.14105  -1.14077
  Beta  occ. eigenvalues --   -1.13889  -1.13844  -1.13803  -1.13682  -1.13650
  Beta  occ. eigenvalues --   -1.13643  -1.13306  -1.13234  -1.13219  -1.12941
  Beta  occ. eigenvalues --   -1.12920  -1.12903  -1.12531  -1.12519  -1.12513
  Beta  occ. eigenvalues --   -0.16889  -0.13729  -0.10773
  Beta virt. eigenvalues --   -0.07327  -0.06518  -0.05285  -0.04537  -0.02799
  Beta virt. eigenvalues --   -0.02610  -0.02183  -0.01589  -0.01028  -0.00655
  Beta virt. eigenvalues --   -0.00381  -0.00066   0.00193   0.00331   0.00474

 Mulliken charges and spin densities:
               1          2
     1  Na   0.684879  -0.005737
     2  Na  -0.090925   0.127305
     3  Na   0.497934   0.032541
     4  Na  -0.177875   0.348917
     5  Na   0.194928  -0.012124
     6  Na  -1.123647   0.457115
     7  Na   0.014707   0.051982
 Sum of Mulliken charges =  -0.00000   1.00000

 Dipole moment (field-independent basis, Debye):
    X=             -1.2156    Y=              0.4810    Z=              0.0790  Tot=              1.3097
 Quadrupole moment (field-independent basis, Debye-Ang):
   XX=            -54.3473   YY=            -72.4373   ZZ=            -69.8226
   XY=              1.6143   XZ=              1.6121   YZ=             -3.1355

 Normal termination of Gaussian 16 at Thu Dec  7 04:24:25 2023.
