 Gaussian 16, Revision B.01,
 Gaussian 16:  ES64L-G16RevB.01 20-Dec-2017

 -------------------------
 #P B3LYP/6-311+g(d) force
 -------------------------

 -----
 DPGEN
 -----
 Symbolic Z-matrix:
 Charge =  0 Multiplicity = 2

                         Standard orientation:
 ---------------------------------------------------------------------
 Center     Atomic      Atomic             Coordinates (Angstroms)
 Number     Number       Type             X           Y           Z
 ---------------------------------------------------------------------
      1         11           0        0.681510    0.363703   -1.587162
      2         11           0        0.926910    2.892629    0.198981
      3         11           0       -5.059528   -0.745991   -0.091270
      4         11           0       -2.310674    0.715203   -0.081247
      5         11           0        1.069463    0.290355    1.768628
      6         11           0        0.974770   -2.810713    0.317480
      7         11           0        3.717548   -0.705186   -0.525411
 ---------------------------------------------------------------------

 SCF Done:  E(UB3LYP) =  -1136.11589716     A.U. after   25 cycles

 The electronic state is 2-A.
 Alpha  occ. eigenvalues --  -38.44848 -38.44402 -38.44273 -38.44122 -38.43708
 Alpha  occ. eigenvalues --  -38.43398 -38.43187  -2.20676  -2.20362  -2.20050
 Alpha  occ. eigenvalues --   -2.19940  -2.19674  -2.19298  -2.19043  -1.14346
 Alpha  occ. eigenvalues --   -1.14340  -1.14287  -1.14044  -1.14037  -1.13976
 Alpha  occ. eigenvalues --   -1.13730  -1.13703  -1.13699  -1.13620  -1.13607
 Alpha  occ. eigenvalues --   -1.13554  -1.13363  -1.13340  -1.13287  -1.12960
 Alpha  occ. eigenvalues --   -1.12957  -1.12912  -1.12755  -1.12714  -1.12647
 Alpha  occ. eigenvalues --   -0.18547  -0.13241  -0.12014  -0.10716
 Alpha virt. eigenvalues --   -0.07594  -0.04736  -0.04454  -0.03070  -0.02692
 Alpha virt. eigenvalues --   -0.02455  -0.02299  -0.01597  -0.00878  -0.00622
 Alpha virt. eigenvalues --   -0.00297   0.00054   0.00324   0.00578   0.00839

  Beta  occ. eigenvalues --  -38.44811 -38.44355 -38.44278 -38.44099 -38.43632
  Beta  occ. eigenvalues --  -38.43391 -38.43183  -2.20610  -2.20278  -2.20061
  Beta  occ. eigenvalues --   -2.19901  -2.19536  -2.19289  -2.19036  -1.14301
  Beta  occ. eigenvalues --   -1.14283  -1.14238  -1.13984  -1.13961  -1.13917
  Beta  occ. eigenvalues --   -1.13738  -1.13710  -1.13706  -1.13594  -1.13561
  Beta  occ. eigenvalues --   -1.13528  -1.13270  -1.13244  -1.13191  -1.12949
  Beta  occ. eigenvalues --   -1.12932  -1.12895  -1.12752  -1.12699  -1.12644
  Beta  occ. eigenvalues --   -0.17833  -0.13084  -0.11806
  Beta virt. eigenvalues --   -0.07363  -0.06785  -0.04625  -0.04311  -0.02565
  Beta virt. eigenvalues --   -0.02494  -0.01959  -0.01545  -0.01398  -0.00762
  Beta virt. eigenvalues --   -0.00347  -0.00188   0.00109   0.00466   0.00629

 Mulliken charges and spin densities:
               1          2
     1  Na  -0.358787   0.368314
     2  Na   0.986049   0.133823
     3  Na   0.113233  -0.089184
     4  Na  -0.919070  -0.037272
     5  Na  -0.133178   0.379713
     6  Na  -0.002505   0.073217
     7  Na   0.314258   0.171390
 Sum of Mulliken charges =  -0.00000   1.00000

 Dipole moment (field-independent basis, Debye):
    X=              1.0959    Y=             -0.3196    Z=              0.2508  Tot=              1.1687
 Quadrupole moment (field-independent basis, Debye-Ang):
   XX=            -55.7161   YY=            -65.0472   ZZ=            -73.9958
   XY=              4.5722   XZ=              1.5702   YZ=              1.3658

 Normal termination of Gaussian 16 at Tue Dec  5 19:52:28 2023.
