 Gaussian 16, Revision B.01,
 Gaussian 16:  ES64L-G16RevB.01 20-Dec-2017

 -------------------------
 #P B3LYP/6-311+g(d) force
 -------------------------

 -----
 DPGEN
 -----
 Symbolic Z-matrix:
 Charge =  0 Multiplicity = 2

                         Standard orientation:
 ---------------------------------------------------------------------
 Center     Atomic      Atomic             Coordinates (Angstroms)
 Number     Number       Type             X           Y           Z
 ---------------------------------------------------------------------
      1         11           0       -0.326912    3.295741   -0.354134
      2         11           0       -3.209045    0.318861    0.360936
      3         11           0        1.760204   -2.308502   -0.239823
      4         11           0        0.044644    0.402976   -1.486137
      5         11           0        0.035282    0.093759    1.703287
      6         11           0        3.271292    0.681381    0.308636
      7         11           0       -1.575465   -2.484216   -0.292765
 ---------------------------------------------------------------------

 SCF Done:  E(UB3LYP) =  -1136.13439581     A.U. after   20 cycles

 The electronic state is 2-A.
 Alpha  occ. eigenvalues --  -38.44363 -38.44234 -38.43753 -38.43407 -38.43376
 Alpha  occ. eigenvalues --  -38.43255 -38.42895  -2.20174  -2.20059  -2.19566
 Alpha  occ. eigenvalues --   -2.19345  -2.19261  -2.19135  -2.18890  -1.13844
 Alpha  occ. eigenvalues --   -1.13828  -1.13813  -1.13730  -1.13725  -1.13690
 Alpha  occ. eigenvalues --   -1.13271  -1.13211  -1.13194  -1.13077  -1.12982
 Alpha  occ. eigenvalues --   -1.12951  -1.12941  -1.12927  -1.12899  -1.12806
 Alpha  occ. eigenvalues --   -1.12791  -1.12771  -1.12591  -1.12511  -1.12502
 Alpha  occ. eigenvalues --   -0.18627  -0.13092  -0.12543  -0.10244
 Alpha virt. eigenvalues --   -0.06065  -0.05169  -0.04778  -0.02971  -0.02708
 Alpha virt. eigenvalues --   -0.01961  -0.01903  -0.01372  -0.00639  -0.00327
 Alpha virt. eigenvalues --    0.00015   0.00309   0.00745   0.00815   0.00859

  Beta  occ. eigenvalues --  -38.44352 -38.44221 -38.43740 -38.43367 -38.43340
  Beta  occ. eigenvalues --  -38.43247 -38.42834  -2.20155  -2.20037  -2.19544
  Beta  occ. eigenvalues --   -2.19247  -2.19222  -2.19124  -2.18781  -1.13824
  Beta  occ. eigenvalues --   -1.13811  -1.13800  -1.13715  -1.13696  -1.13674
  Beta  occ. eigenvalues --   -1.13246  -1.13189  -1.13182  -1.12996  -1.12943
  Beta  occ. eigenvalues --   -1.12917  -1.12890  -1.12872  -1.12846  -1.12797
  Beta  occ. eigenvalues --   -1.12783  -1.12739  -1.12510  -1.12432  -1.12424
  Beta  occ. eigenvalues --   -0.17979  -0.12821  -0.12208
  Beta virt. eigenvalues --   -0.06560  -0.05914  -0.05066  -0.04762  -0.02308
  Beta virt. eigenvalues --   -0.02032  -0.01729  -0.01268  -0.01034  -0.00640
  Beta virt. eigenvalues --   -0.00362   0.00152   0.00367   0.00770   0.00851

 Mulliken charges and spin densities:
               1          2
     1  Na  -0.032658  -0.065884
     2  Na   0.242150   0.071876
     3  Na   0.143140   0.042778
     4  Na  -0.289677   0.361815
     5  Na  -0.335616   0.531028
     6  Na   0.214380   0.028132
     7  Na   0.058281   0.030255
 Sum of Mulliken charges =  -0.00000   1.00000

 Dipole moment (field-independent basis, Debye):
    X=              0.1077    Y=              0.3548    Z=              0.1572  Tot=              0.4028
 Quadrupole moment (field-independent basis, Debye-Ang):
   XX=            -54.1678   YY=            -60.8669   ZZ=            -76.5045
   XY=              0.2480   XZ=             -0.0534   YZ=              1.1690

 Normal termination of Gaussian 16 at Fri Dec  8 02:02:36 2023.
