 Gaussian 16, Revision B.01,
 Gaussian 16:  ES64L-G16RevB.01 20-Dec-2017

 -------------------------
 #P B3LYP/6-311+g(d) force
 -------------------------

 -----
 DPGEN
 -----
 Symbolic Z-matrix:
 Charge =  0 Multiplicity = 2

                         Standard orientation:
 ---------------------------------------------------------------------
 Center     Atomic      Atomic             Coordinates (Angstroms)
 Number     Number       Type             X           Y           Z
 ---------------------------------------------------------------------
      1         11           0       -2.634465    0.399090    0.152562
      2         11           0        0.085702    0.455025   -1.608503
      3         11           0       -1.667695   -2.164719   -0.645792
      4         11           0       -0.417657    3.061171    0.102506
      5         11           0        1.853092   -2.170844    0.033172
      6         11           0        2.978753    0.877289   -0.052612
      7         11           0       -0.197731   -0.457013    2.018667
 ---------------------------------------------------------------------

 SCF Done:  E(UB3LYP) =  -1136.13258477     A.U. after   19 cycles

 The electronic state is 2-A.
 Alpha  occ. eigenvalues --  -38.44036 -38.43662 -38.43575 -38.43496 -38.43449
 Alpha  occ. eigenvalues --  -38.43405 -38.43083  -2.19871  -2.19597  -2.19564
 Alpha  occ. eigenvalues --   -2.19356  -2.19335  -2.19332  -2.19109  -1.13562
 Alpha  occ. eigenvalues --   -1.13531  -1.13507  -1.13416  -1.13311  -1.13254
 Alpha  occ. eigenvalues --   -1.13214  -1.13198  -1.13166  -1.13050  -1.13020
 Alpha  occ. eigenvalues --   -1.13001  -1.12992  -1.12988  -1.12975  -1.12969
 Alpha  occ. eigenvalues --   -1.12952  -1.12936  -1.12781  -1.12737  -1.12722
 Alpha  occ. eigenvalues --   -0.19228  -0.13216  -0.12566  -0.11069
 Alpha virt. eigenvalues --   -0.05501  -0.04913  -0.04623  -0.03323  -0.03000
 Alpha virt. eigenvalues --   -0.02611  -0.01268  -0.01087  -0.00153  -0.00079
 Alpha virt. eigenvalues --    0.00066   0.00373   0.00886   0.00933   0.00955

  Beta  occ. eigenvalues --  -38.44035 -38.43569 -38.43562 -38.43495 -38.43443
  Beta  occ. eigenvalues --  -38.43383 -38.43022  -2.19872  -2.19547  -2.19426
  Beta  occ. eigenvalues --   -2.19336  -2.19325  -2.19320  -2.18998  -1.13560
  Beta  occ. eigenvalues --   -1.13520  -1.13512  -1.13400  -1.13240  -1.13182
  Beta  occ. eigenvalues --   -1.13146  -1.13091  -1.13079  -1.13041  -1.12999
  Beta  occ. eigenvalues --   -1.12983  -1.12977  -1.12971  -1.12961  -1.12956
  Beta  occ. eigenvalues --   -1.12921  -1.12914  -1.12710  -1.12654  -1.12640
  Beta  occ. eigenvalues --   -0.18462  -0.12955  -0.12347
  Beta virt. eigenvalues --   -0.07064  -0.05478  -0.04855  -0.04601  -0.02497
  Beta virt. eigenvalues --   -0.02264  -0.01549  -0.01181  -0.01015  -0.00173
  Beta virt. eigenvalues --   -0.00053   0.00144   0.00397   0.00888   0.00955

 Mulliken charges and spin densities:
               1          2
     1  Na   0.439468   0.136625
     2  Na  -0.246702   0.335482
     3  Na   0.188841   0.090482
     4  Na  -0.014955  -0.069703
     5  Na   0.168310   0.001244
     6  Na  -0.037930  -0.105871
     7  Na  -0.497032   0.611741
 Sum of Mulliken charges =  -0.00000   1.00000

 Dipole moment (field-independent basis, Debye):
    X=              0.4257    Y=              0.1533    Z=              0.2335  Tot=              0.5091
 Quadrupole moment (field-independent basis, Debye-Ang):
   XX=            -60.1535   YY=            -61.7016   ZZ=            -72.7056
   XY=              0.5837   XZ=              0.4775   YZ=              2.1362

 Normal termination of Gaussian 16 at Tue Dec  5 14:59:11 2023.
