 Gaussian 16, Revision B.01,
 Gaussian 16:  ES64L-G16RevB.01 20-Dec-2017

 -------------------------
 #P B3LYP/6-311+g(d) force
 -------------------------

 -----
 DPGEN
 -----
 Symbolic Z-matrix:
 Charge =  0 Multiplicity = 2

                         Standard orientation:
 ---------------------------------------------------------------------
 Center     Atomic      Atomic             Coordinates (Angstroms)
 Number     Number       Type             X           Y           Z
 ---------------------------------------------------------------------
      1         11           0       -2.980809    0.949497   -0.338939
      2         11           0       -1.957327   -2.016100    0.593156
      3         11           0       -0.360105   -0.499377   -1.708714
      4         11           0        1.845493   -2.544929   -0.084201
      5         11           0        0.393156    2.953374   -0.026152
      6         11           0        2.821711    0.760279   -0.259771
      7         11           0        0.237881    0.397255    1.824620
 ---------------------------------------------------------------------

 SCF Done:  E(UB3LYP) =  -1136.13771561     A.U. after   18 cycles

 The electronic state is 2-A.
 Alpha  occ. eigenvalues --  -38.43911 -38.43794 -38.43702 -38.43469 -38.43364
 Alpha  occ. eigenvalues --  -38.43286 -38.43263  -2.19761  -2.19671  -2.19591
 Alpha  occ. eigenvalues --   -2.19297  -2.19238  -2.19227  -2.19221  -1.13454
 Alpha  occ. eigenvalues --   -1.13432  -1.13395  -1.13361  -1.13345  -1.13305
 Alpha  occ. eigenvalues --   -1.13286  -1.13256  -1.13201  -1.12990  -1.12980
 Alpha  occ. eigenvalues --   -1.12957  -1.12942  -1.12909  -1.12889  -1.12880
 Alpha  occ. eigenvalues --   -1.12864  -1.12856  -1.12846  -1.12828  -1.12816
 Alpha  occ. eigenvalues --   -0.18795  -0.13263  -0.12450  -0.10676
 Alpha virt. eigenvalues --   -0.05429  -0.05214  -0.04798  -0.03366  -0.02836
 Alpha virt. eigenvalues --   -0.02372  -0.01443  -0.01131  -0.00359  -0.00239
 Alpha virt. eigenvalues --    0.00013   0.00367   0.00832   0.00883   0.00896

  Beta  occ. eigenvalues --  -38.43902 -38.43787 -38.43684 -38.43467 -38.43361
  Beta  occ. eigenvalues --  -38.43208 -38.43199  -2.19747  -2.19662  -2.19561
  Beta  occ. eigenvalues --   -2.19296  -2.19225  -2.19106  -2.19092  -1.13445
  Beta  occ. eigenvalues --   -1.13405  -1.13383  -1.13354  -1.13326  -1.13293
  Beta  occ. eigenvalues --   -1.13268  -1.13208  -1.13183  -1.12969  -1.12954
  Beta  occ. eigenvalues --   -1.12952  -1.12932  -1.12876  -1.12849  -1.12827
  Beta  occ. eigenvalues --   -1.12796  -1.12775  -1.12757  -1.12742  -1.12731
  Beta  occ. eigenvalues --   -0.18076  -0.13023  -0.12219
  Beta virt. eigenvalues --   -0.06785  -0.05382  -0.05187  -0.04734  -0.02571
  Beta virt. eigenvalues --   -0.02127  -0.01383  -0.01327  -0.01054  -0.00381
  Beta virt. eigenvalues --   -0.00253   0.00139   0.00396   0.00873   0.00881

 Mulliken charges and spin densities:
               1          2
     1  Na   0.134679  -0.033097
     2  Na   0.123023   0.046830
     3  Na  -0.280509   0.586231
     4  Na   0.081566  -0.061402
     5  Na   0.106433  -0.073108
     6  Na   0.045651  -0.046020
     7  Na  -0.210843   0.580566
 Sum of Mulliken charges =  -0.00000   1.00000

 Dipole moment (field-independent basis, Debye):
    X=             -0.1117    Y=              0.0126    Z=             -0.0064  Tot=              0.1126
 Quadrupole moment (field-independent basis, Debye-Ang):
   XX=            -57.6737   YY=            -61.5856   ZZ=            -74.3416
   XY=             -0.9329   XZ=             -0.9819   YZ=             -2.1333

 Normal termination of Gaussian 16 at Thu Dec  7 13:59:21 2023.
