 Gaussian 16, Revision B.01,
 Gaussian 16:  ES64L-G16RevB.01 20-Dec-2017

 -------------------------
 #P B3LYP/6-311+g(d) force
 -------------------------

 -----
 DPGEN
 -----
 Symbolic Z-matrix:
 Charge =  0 Multiplicity = 2

                         Standard orientation:
 ---------------------------------------------------------------------
 Center     Atomic      Atomic             Coordinates (Angstroms)
 Number     Number       Type             X           Y           Z
 ---------------------------------------------------------------------
      1         11           0        0.426514    2.958525    0.487592
      2         11           0        5.170325   -0.464828   -1.432763
      3         11           0        2.980043    0.671369    0.550993
      4         11           0        1.165105   -2.177665    1.622623
      5         11           0       -0.313487   -0.320041   -0.092562
      6         11           0       -3.271191   -0.877132   -1.162679
      7         11           0       -6.157308    0.209773    0.026795
 ---------------------------------------------------------------------

 SCF Done:  E(UB3LYP) =  -1136.10114913     A.U. after   29 cycles

 The electronic state is 2-A.
 Alpha  occ. eigenvalues --  -38.46063 -38.45673 -38.44452 -38.43961 -38.43961
 Alpha  occ. eigenvalues --  -38.43084 -38.42984  -2.21923  -2.21506  -2.20201
 Alpha  occ. eigenvalues --   -2.19903  -2.19777  -2.18986  -2.18772  -1.15617
 Alpha  occ. eigenvalues --   -1.15542  -1.15513  -1.15139  -1.15137  -1.15115
 Alpha  occ. eigenvalues --   -1.13872  -1.13870  -1.13855  -1.13638  -1.13578
 Alpha  occ. eigenvalues --   -1.13547  -1.13435  -1.13429  -1.13393  -1.12684
 Alpha  occ. eigenvalues --   -1.12676  -1.12632  -1.12430  -1.12424  -1.12401
 Alpha  occ. eigenvalues --   -0.17623  -0.13444  -0.12647  -0.11049
 Alpha virt. eigenvalues --   -0.07328  -0.05039  -0.04346  -0.03818  -0.03395
 Alpha virt. eigenvalues --   -0.02265  -0.01963  -0.01610  -0.01156  -0.00775
 Alpha virt. eigenvalues --   -0.00656  -0.00309   0.00332   0.00418   0.00503

  Beta  occ. eigenvalues --  -38.45961 -38.45557 -38.44471 -38.43956 -38.43954
  Beta  occ. eigenvalues --  -38.43072 -38.42977  -2.21737  -2.21292  -2.20236
  Beta  occ. eigenvalues --   -2.19902  -2.19766  -2.18969  -2.18760  -1.15490
  Beta  occ. eigenvalues --   -1.15416  -1.15383  -1.14992  -1.14987  -1.14976
  Beta  occ. eigenvalues --   -1.13896  -1.13894  -1.13877  -1.13625  -1.13561
  Beta  occ. eigenvalues --   -1.13520  -1.13426  -1.13422  -1.13393  -1.12675
  Beta  occ. eigenvalues --   -1.12638  -1.12616  -1.12421  -1.12415  -1.12392
  Beta  occ. eigenvalues --   -0.16729  -0.13378  -0.10861
  Beta virt. eigenvalues --   -0.08500  -0.07212  -0.04336  -0.04161  -0.03324
  Beta virt. eigenvalues --   -0.02906  -0.01957  -0.01688  -0.01475  -0.01015
  Beta virt. eigenvalues --   -0.00598  -0.00328  -0.00103   0.00360   0.00560

 Mulliken charges and spin densities:
               1          2
     1  Na   0.636991   0.480326
     2  Na   0.308816   0.033935
     3  Na   0.395268   0.170471
     4  Na   1.244279   0.343911
     5  Na  -1.536260   0.201635
     6  Na  -1.169844  -0.134497
     7  Na   0.120749  -0.095780
 Sum of Mulliken charges =  -0.00000   1.00000

 Dipole moment (field-independent basis, Debye):
    X=             -1.2401    Y=              0.3005    Z=              1.3110  Tot=              1.8294
 Quadrupole moment (field-independent basis, Debye-Ang):
   XX=            -77.7127   YY=            -60.7364   ZZ=            -66.6697
   XY=             -6.1320   XZ=             -2.2249   YZ=             -0.0247

 Normal termination of Gaussian 16 at Tue Nov 28 22:00:19 2023.
