 Gaussian 16, Revision B.01,
 Gaussian 16:  ES64L-G16RevB.01 20-Dec-2017

 -------------------------
 #P B3LYP/6-311+g(d) force
 -------------------------

 -----
 DPGEN
 -----
 Symbolic Z-matrix:
 Charge =  0 Multiplicity = 2

                         Standard orientation:
 ---------------------------------------------------------------------
 Center     Atomic      Atomic             Coordinates (Angstroms)
 Number     Number       Type             X           Y           Z
 ---------------------------------------------------------------------
      1         11           0        2.977242    1.614879    0.260495
      2         11           0       -0.658749    3.285634    0.727131
      3         11           0        0.788700    0.398672   -1.081761
      4         11           0       -2.916830   -2.326693   -0.331105
      5         11           0        3.027645   -2.134480   -0.632977
      6         11           0       -0.255482   -2.129505    1.714887
      7         11           0       -2.962525    1.291493   -0.656669
 ---------------------------------------------------------------------

 SCF Done:  E(UB3LYP) =  -1136.11711144     A.U. after   22 cycles

 The electronic state is 2-A.
 Alpha  occ. eigenvalues --  -38.45058 -38.44451 -38.44299 -38.44251 -38.43985
 Alpha  occ. eigenvalues --  -38.43743 -38.43381  -2.20899  -2.20225  -2.20217
 Alpha  occ. eigenvalues --   -2.20057  -2.19778  -2.19552  -2.19205  -1.14712
 Alpha  occ. eigenvalues --   -1.14549  -1.14473  -1.13916  -1.13902  -1.13889
 Alpha  occ. eigenvalues --   -1.13886  -1.13878  -1.13811  -1.13719  -1.13700
 Alpha  occ. eigenvalues --   -1.13670  -1.13460  -1.13444  -1.13416  -1.13208
 Alpha  occ. eigenvalues --   -1.13193  -1.13175  -1.12874  -1.12856  -1.12831
 Alpha  occ. eigenvalues --   -0.17218  -0.13466  -0.12771  -0.09634
 Alpha virt. eigenvalues --   -0.06800  -0.05695  -0.04730  -0.03346  -0.03020
 Alpha virt. eigenvalues --   -0.02132  -0.01815  -0.01526  -0.01093  -0.00655
 Alpha virt. eigenvalues --   -0.00021   0.00213   0.00247   0.00477   0.00781

  Beta  occ. eigenvalues --  -38.45041 -38.44457 -38.44289 -38.44206 -38.43984
  Beta  occ. eigenvalues --  -38.43679 -38.43339  -2.20870  -2.20241  -2.20201
  Beta  occ. eigenvalues --   -2.19972  -2.19778  -2.19432  -2.19127  -1.14696
  Beta  occ. eigenvalues --   -1.14529  -1.14428  -1.13916  -1.13897  -1.13892
  Beta  occ. eigenvalues --   -1.13881  -1.13863  -1.13789  -1.13660  -1.13638
  Beta  occ. eigenvalues --   -1.13618  -1.13462  -1.13442  -1.13400  -1.13127
  Beta  occ. eigenvalues --   -1.13114  -1.13090  -1.12816  -1.12804  -1.12785
  Beta  occ. eigenvalues --   -0.16792  -0.13043  -0.12291
  Beta virt. eigenvalues --   -0.06736  -0.06417  -0.05475  -0.04370  -0.02793
  Beta virt. eigenvalues --   -0.02567  -0.01938  -0.01756  -0.01168  -0.00780
  Beta virt. eigenvalues --   -0.00573   0.00189   0.00310   0.00436   0.00516

 Mulliken charges and spin densities:
               1          2
     1  Na  -0.288915   0.116136
     2  Na  -0.110100   0.045960
     3  Na   0.416514   0.224659
     4  Na   0.156608  -0.057600
     5  Na   0.080056   0.131825
     6  Na  -0.338915   0.297060
     7  Na   0.084752   0.241960
 Sum of Mulliken charges =  -0.00000   1.00000

 Dipole moment (field-independent basis, Debye):
    X=              0.8702    Y=             -0.0129    Z=              0.2659  Tot=              0.9100
 Quadrupole moment (field-independent basis, Debye-Ang):
   XX=            -59.0381   YY=            -64.7175   ZZ=            -73.1459
   XY=              0.9348   XZ=              3.0692   YZ=              4.3967

 Normal termination of Gaussian 16 at Tue Dec  5 18:11:46 2023.
