 Gaussian 16, Revision B.01,
 Gaussian 16:  ES64L-G16RevB.01 20-Dec-2017

 -------------------------
 #P B3LYP/6-311+g(d) force
 -------------------------

 -----
 DPGEN
 -----
 Symbolic Z-matrix:
 Charge =  0 Multiplicity = 2

                         Standard orientation:
 ---------------------------------------------------------------------
 Center     Atomic      Atomic             Coordinates (Angstroms)
 Number     Number       Type             X           Y           Z
 ---------------------------------------------------------------------
      1         11           0        0.328118    0.141355   -0.648933
      2         11           0       -1.225165    2.745612    0.727819
      3         11           0        3.418567   -0.786788   -0.586361
      4         11           0       -3.603795    0.473459   -0.450965
      5         11           0        2.321599    2.300351    0.090450
      6         11           0        0.920613   -2.647132    1.022146
      7         11           0       -2.159937   -2.226857   -0.154156
 ---------------------------------------------------------------------

 SCF Done:  E(UB3LYP) =  -1136.12548025     A.U. after   22 cycles

 The electronic state is 2-A.
 Alpha  occ. eigenvalues --  -38.44280 -38.43949 -38.43751 -38.43723 -38.43597
 Alpha  occ. eigenvalues --  -38.43510 -38.43411  -2.20151  -2.19832  -2.19767
 Alpha  occ. eigenvalues --   -2.19610  -2.19440  -2.19381  -2.19288  -1.13904
 Alpha  occ. eigenvalues --   -1.13818  -1.13764  -1.13538  -1.13507  -1.13495
 Alpha  occ. eigenvalues --   -1.13477  -1.13437  -1.13404  -1.13267  -1.13243
 Alpha  occ. eigenvalues --   -1.13233  -1.13102  -1.13099  -1.13075  -1.13038
 Alpha  occ. eigenvalues --   -1.13025  -1.12985  -1.12945  -1.12925  -1.12920
 Alpha  occ. eigenvalues --   -0.18000  -0.14173  -0.13139  -0.09741
 Alpha virt. eigenvalues --   -0.06350  -0.05747  -0.04284  -0.03316  -0.02798
 Alpha virt. eigenvalues --   -0.02342  -0.01808  -0.01048  -0.00634  -0.00570
 Alpha virt. eigenvalues --   -0.00098   0.00232   0.00569   0.00731   0.00805

  Beta  occ. eigenvalues --  -38.44271 -38.43931 -38.43753 -38.43674 -38.43564
  Beta  occ. eigenvalues --  -38.43454 -38.43369  -2.20141  -2.19808  -2.19772
  Beta  occ. eigenvalues --   -2.19522  -2.19381  -2.19280  -2.19210  -1.13906
  Beta  occ. eigenvalues --   -1.13818  -1.13704  -1.13523  -1.13495  -1.13468
  Beta  occ. eigenvalues --   -1.13434  -1.13432  -1.13402  -1.13209  -1.13193
  Beta  occ. eigenvalues --   -1.13159  -1.13064  -1.13059  -1.13023  -1.12969
  Beta  occ. eigenvalues --   -1.12956  -1.12914  -1.12891  -1.12874  -1.12864
  Beta  occ. eigenvalues --   -0.17639  -0.13449  -0.12605
  Beta virt. eigenvalues --   -0.06425  -0.06404  -0.05504  -0.04064  -0.02738
  Beta virt. eigenvalues --   -0.02267  -0.02081  -0.01586  -0.00883  -0.00491
  Beta virt. eigenvalues --   -0.00378   0.00216   0.00423   0.00625   0.00820

 Mulliken charges and spin densities:
               1          2
     1  Na  -2.511502  -0.064766
     2  Na   0.233610   0.123018
     3  Na   0.953429   0.217271
     4  Na   0.702750   0.420605
     5  Na   0.287170   0.056393
     6  Na   0.179574   0.112440
     7  Na   0.154969   0.135039
 Sum of Mulliken charges =  -0.00000   1.00000

 Dipole moment (field-independent basis, Debye):
    X=              0.6232    Y=              0.2080    Z=              0.6860  Tot=              0.9498
 Quadrupole moment (field-independent basis, Debye-Ang):
   XX=            -65.4873   YY=            -62.7208   ZZ=            -70.4611
   XY=             -2.0680   XZ=              0.4706   YZ=              0.8825

 Normal termination of Gaussian 16 at Wed Nov 29 17:09:34 2023.
