 Gaussian 16, Revision B.01,
 Gaussian 16:  ES64L-G16RevB.01 20-Dec-2017

 -------------------------
 #P B3LYP/6-311+g(d) force
 -------------------------

 -----
 DPGEN
 -----
 Symbolic Z-matrix:
 Charge =  0 Multiplicity = 2

                         Standard orientation:
 ---------------------------------------------------------------------
 Center     Atomic      Atomic             Coordinates (Angstroms)
 Number     Number       Type             X           Y           Z
 ---------------------------------------------------------------------
      1         11           0       -2.056010   -2.082701   -0.318885
      2         11           0        0.111743    0.248732   -1.462553
      3         11           0       -2.871629    1.278824   -0.147984
      4         11           0       -0.434771   -0.190757    2.198622
      5         11           0        1.363739   -2.617697   -0.262224
      6         11           0        0.507236    2.965597   -0.146190
      7         11           0        3.379692    0.398002    0.139213
 ---------------------------------------------------------------------

 SCF Done:  E(UB3LYP) =  -1136.13640518     A.U. after   19 cycles

 The electronic state is 2-A.
 Alpha  occ. eigenvalues --  -38.44383 -38.43986 -38.43684 -38.43666 -38.43461
 Alpha  occ. eigenvalues --  -38.43445 -38.42989  -2.20157  -2.19820  -2.19542
 Alpha  occ. eigenvalues --   -2.19500  -2.19334  -2.19284  -2.18998  -1.13833
 Alpha  occ. eigenvalues --   -1.13810  -1.13801  -1.13500  -1.13482  -1.13458
 Alpha  occ. eigenvalues --   -1.13247  -1.13200  -1.13170  -1.13160  -1.13152
 Alpha  occ. eigenvalues --   -1.13107  -1.13026  -1.12996  -1.12983  -1.12967
 Alpha  occ. eigenvalues --   -1.12942  -1.12903  -1.12680  -1.12644  -1.12608
 Alpha  occ. eigenvalues --   -0.18458  -0.12864  -0.12502  -0.10610
 Alpha virt. eigenvalues --   -0.05885  -0.05135  -0.04778  -0.03046  -0.02818
 Alpha virt. eigenvalues --   -0.02551  -0.01666  -0.01150  -0.00567  -0.00414
 Alpha virt. eigenvalues --   -0.00023   0.00331   0.00785   0.00837   0.00879

  Beta  occ. eigenvalues --  -38.44384 -38.43981 -38.43662 -38.43578 -38.43451
  Beta  occ. eigenvalues --  -38.43439 -38.42938  -2.20161  -2.19814  -2.19497
  Beta  occ. eigenvalues --   -2.19347  -2.19320  -2.19277  -2.18906  -1.13824
  Beta  occ. eigenvalues --   -1.13814  -1.13805  -1.13492  -1.13461  -1.13454
  Beta  occ. eigenvalues --   -1.13237  -1.13138  -1.13107  -1.13073  -1.13037
  Beta  occ. eigenvalues --   -1.13022  -1.13009  -1.12980  -1.12959  -1.12951
  Beta  occ. eigenvalues --   -1.12923  -1.12900  -1.12613  -1.12577  -1.12540
  Beta  occ. eigenvalues --   -0.17745  -0.12685  -0.12264
  Beta virt. eigenvalues --   -0.06652  -0.05836  -0.05145  -0.04711  -0.02333
  Beta virt. eigenvalues --   -0.02063  -0.01579  -0.01440  -0.01076  -0.00608
  Beta virt. eigenvalues --   -0.00465   0.00149   0.00372   0.00824   0.00857

 Mulliken charges and spin densities:
               1          2
     1  Na   0.323251   0.033389
     2  Na  -0.201943   0.242534
     3  Na   0.281658  -0.003394
     4  Na  -0.669191   0.816989
     5  Na   0.120441  -0.023685
     6  Na   0.144368  -0.052283
     7  Na   0.001414  -0.013549
 Sum of Mulliken charges =  -0.00000   1.00000

 Dipole moment (field-independent basis, Debye):
    X=              0.1469    Y=              0.1865    Z=              0.2026  Tot=              0.3121
 Quadrupole moment (field-independent basis, Debye-Ang):
   XX=            -54.9577   YY=            -62.3429   ZZ=            -75.4339
   XY=             -0.1891   XZ=              1.4793   YZ=              1.0178

 Normal termination of Gaussian 16 at Thu Dec  7 03:55:59 2023.
