 Gaussian 16, Revision B.01,
 Gaussian 16:  ES64L-G16RevB.01 20-Dec-2017

 -------------------------
 #P B3LYP/6-311+g(d) force
 -------------------------

 -----
 DPGEN
 -----
 Symbolic Z-matrix:
 Charge =  0 Multiplicity = 2

                         Standard orientation:
 ---------------------------------------------------------------------
 Center     Atomic      Atomic             Coordinates (Angstroms)
 Number     Number       Type             X           Y           Z
 ---------------------------------------------------------------------
      1         11           0       -1.520053    1.895094    0.788404
      2         11           0        1.304905    2.086075   -0.927645
      3         11           0       -1.443469   -1.181947    1.621985
      4         11           0       -0.340120   -0.514591   -1.648177
      5         11           0        1.581475   -0.054724    1.665096
      6         11           0        4.136231   -1.264006   -0.511877
      7         11           0       -3.718969   -0.965901   -0.987786
 ---------------------------------------------------------------------

 SCF Done:  E(UB3LYP) =  -1136.12042234     A.U. after   28 cycles

 The electronic state is 2-A.
 Alpha  occ. eigenvalues --  -38.44840 -38.44302 -38.44153 -38.43909 -38.43904
 Alpha  occ. eigenvalues --  -38.43369 -38.43322  -2.20736  -2.20230  -2.19967
 Alpha  occ. eigenvalues --   -2.19806  -2.19651  -2.19270  -2.19226  -1.14426
 Alpha  occ. eigenvalues --   -1.14397  -1.14347  -1.13928  -1.13896  -1.13835
 Alpha  occ. eigenvalues --   -1.13634  -1.13624  -1.13591  -1.13514  -1.13467
 Alpha  occ. eigenvalues --   -1.13397  -1.13328  -1.13324  -1.13283  -1.12961
 Alpha  occ. eigenvalues --   -1.12951  -1.12921  -1.12907  -1.12865  -1.12798
 Alpha  occ. eigenvalues --   -0.18802  -0.13451  -0.12119  -0.10964
 Alpha virt. eigenvalues --   -0.06716  -0.05057  -0.04498  -0.03401  -0.02696
 Alpha virt. eigenvalues --   -0.02577  -0.02186  -0.01487  -0.00754  -0.00019
 Alpha virt. eigenvalues --    0.00081   0.00211   0.00419   0.00611   0.00677

  Beta  occ. eigenvalues --  -38.44782 -38.44237 -38.44137 -38.43924 -38.43855
  Beta  occ. eigenvalues --  -38.43353 -38.43294  -2.20631  -2.20115  -2.19938
  Beta  occ. eigenvalues --   -2.19720  -2.19679  -2.19244  -2.19176  -1.14352
  Beta  occ. eigenvalues --   -1.14313  -1.14269  -1.13850  -1.13816  -1.13732
  Beta  occ. eigenvalues --   -1.13604  -1.13603  -1.13574  -1.13449  -1.13404
  Beta  occ. eigenvalues --   -1.13354  -1.13344  -1.13328  -1.13290  -1.12941
  Beta  occ. eigenvalues --   -1.12914  -1.12883  -1.12874  -1.12835  -1.12768
  Beta  occ. eigenvalues --   -0.17919  -0.13342  -0.10837
  Beta virt. eigenvalues --   -0.07939  -0.06467  -0.04906  -0.04001  -0.02814
  Beta virt. eigenvalues --   -0.02311  -0.02104  -0.01849  -0.01256  -0.00477
  Beta virt. eigenvalues --   -0.00016   0.00118   0.00356   0.00504   0.00711

 Mulliken charges and spin densities:
               1          2
     1  Na  -0.051033   0.168609
     2  Na   0.266264   0.078432
     3  Na   0.136857   0.250885
     4  Na  -0.499959   0.515316
     5  Na  -0.174069   0.083618
     6  Na   0.011237  -0.093397
     7  Na   0.310704  -0.003462
 Sum of Mulliken charges =  -0.00000   1.00000

 Dipole moment (field-independent basis, Debye):
    X=             -0.9169    Y=              0.4614    Z=             -0.2876  Tot=              1.0660
 Quadrupole moment (field-independent basis, Debye-Ang):
   XX=            -56.9227   YY=            -74.1818   ZZ=            -66.4354
   XY=              0.5669   XZ=             -1.8534   YZ=              0.1943

 Normal termination of Gaussian 16 at Tue Dec  5 11:18:42 2023.
