 Gaussian 16, Revision B.01,
 Gaussian 16:  ES64L-G16RevB.01 20-Dec-2017

 -------------------------
 #P B3LYP/6-311+g(d) force
 -------------------------

 -----
 DPGEN
 -----
 Symbolic Z-matrix:
 Charge =  0 Multiplicity = 2

                         Standard orientation:
 ---------------------------------------------------------------------
 Center     Atomic      Atomic             Coordinates (Angstroms)
 Number     Number       Type             X           Y           Z
 ---------------------------------------------------------------------
      1         11           0        0.081484   -2.679456   -0.180600
      2         11           0       -2.528654    2.200173    0.101229
      3         11           0       -2.981863   -1.263277    0.005788
      4         11           0       -0.373991    0.271424   -1.690865
      5         11           0        2.338323    2.470289   -0.245260
      6         11           0        3.245850   -1.136858   -0.069622
      7         11           0        0.218850    0.137706    2.079330
 ---------------------------------------------------------------------

 SCF Done:  E(UB3LYP) =  -1136.13090438     A.U. after   21 cycles

 The electronic state is 2-A.
 Alpha  occ. eigenvalues --  -38.44758 -38.44320 -38.44166 -38.44157 -38.43746
 Alpha  occ. eigenvalues --  -38.43531 -38.42690  -2.20533  -2.20156  -2.19955
 Alpha  occ. eigenvalues --   -2.19927  -2.19588  -2.19438  -2.18565  -1.14210
 Alpha  occ. eigenvalues --   -1.14189  -1.14173  -1.13830  -1.13818  -1.13803
 Alpha  occ. eigenvalues --   -1.13631  -1.13610  -1.13602  -1.13599  -1.13581
 Alpha  occ. eigenvalues --   -1.13572  -1.13259  -1.13215  -1.13202  -1.13129
 Alpha  occ. eigenvalues --   -1.13080  -1.13054  -1.12258  -1.12228  -1.12199
 Alpha  occ. eigenvalues --   -0.18082  -0.13238  -0.11883  -0.10458
 Alpha virt. eigenvalues --   -0.06239  -0.05939  -0.04238  -0.03293  -0.02630
 Alpha virt. eigenvalues --   -0.02482  -0.01950  -0.01496  -0.00862  -0.00300
 Alpha virt. eigenvalues --   -0.00062   0.00303   0.00646   0.00703   0.00810

  Beta  occ. eigenvalues --  -38.44759 -38.44317 -38.44163 -38.44155 -38.43650
  Beta  occ. eigenvalues --  -38.43470 -38.42682  -2.20536  -2.20153  -2.19954
  Beta  occ. eigenvalues --   -2.19924  -2.19409  -2.19326  -2.18555  -1.14198
  Beta  occ. eigenvalues --   -1.14191  -1.14178  -1.13825  -1.13807  -1.13796
  Beta  occ. eigenvalues --   -1.13623  -1.13603  -1.13596  -1.13587  -1.13580
  Beta  occ. eigenvalues --   -1.13573  -1.13140  -1.13088  -1.13074  -1.13050
  Beta  occ. eigenvalues --   -1.12998  -1.12972  -1.12252  -1.12203  -1.12185
  Beta  occ. eigenvalues --   -0.17364  -0.13077  -0.11665
  Beta virt. eigenvalues --   -0.06584  -0.06207  -0.05852  -0.04211  -0.02572
  Beta virt. eigenvalues --   -0.01913  -0.01831  -0.01553  -0.01305  -0.00929
  Beta virt. eigenvalues --   -0.00327   0.00105   0.00340   0.00700   0.00736

 Mulliken charges and spin densities:
               1          2
     1  Na  -0.028592  -0.022215
     2  Na   0.104596  -0.086932
     3  Na   0.229821   0.051324
     4  Na  -0.022188   0.460314
     5  Na  -0.014864  -0.107390
     6  Na   0.093275  -0.016481
     7  Na  -0.362048   0.721382
 Sum of Mulliken charges =  -0.00000   1.00000

 Dipole moment (field-independent basis, Debye):
    X=              0.0588    Y=              0.2387    Z=              0.0787  Tot=              0.2581
 Quadrupole moment (field-independent basis, Debye-Ang):
   XX=            -51.4427   YY=            -65.1965   ZZ=            -76.1027
   XY=             -0.6227   XZ=             -1.1182   YZ=              0.2178

 Normal termination of Gaussian 16 at Fri Dec  8 03:53:02 2023.
