 Gaussian 16, Revision B.01,
 Gaussian 16:  ES64L-G16RevB.01 20-Dec-2017

 -------------------------
 #P B3LYP/6-311+g(d) force
 -------------------------

 -----
 DPGEN
 -----
 Symbolic Z-matrix:
 Charge =  0 Multiplicity = 2

                         Standard orientation:
 ---------------------------------------------------------------------
 Center     Atomic      Atomic             Coordinates (Angstroms)
 Number     Number       Type             X           Y           Z
 ---------------------------------------------------------------------
      1         11           0       -0.635167   -0.100816   -1.480308
      2         11           0        0.685563   -0.149547    2.343206
      3         11           0       -2.412455   -2.175163    0.407910
      4         11           0        1.289268   -2.317540   -0.687558
      5         11           0       -3.007552    1.740052   -0.180007
      6         11           0        3.259276    0.224166   -0.363560
      7         11           0        0.821066    2.778848   -0.039684
 ---------------------------------------------------------------------

 SCF Done:  E(UB3LYP) =  -1136.13077940     A.U. after   19 cycles

 The electronic state is 2-A.
 Alpha  occ. eigenvalues --  -38.44273 -38.44199 -38.44185 -38.44126 -38.43518
 Alpha  occ. eigenvalues --  -38.43280 -38.43276  -2.20056  -2.20018  -2.19990
 Alpha  occ. eigenvalues --   -2.19952  -2.19323  -2.19255  -2.19172  -1.13746
 Alpha  occ. eigenvalues --   -1.13714  -1.13695  -1.13684  -1.13680  -1.13665
 Alpha  occ. eigenvalues --   -1.13661  -1.13654  -1.13622  -1.13600  -1.13585
 Alpha  occ. eigenvalues --   -1.13562  -1.13035  -1.13016  -1.12998  -1.12946
 Alpha  occ. eigenvalues --   -1.12921  -1.12875  -1.12811  -1.12806  -1.12773
 Alpha  occ. eigenvalues --   -0.18147  -0.13060  -0.12096  -0.10863
 Alpha virt. eigenvalues --   -0.05897  -0.05634  -0.04310  -0.03344  -0.02779
 Alpha virt. eigenvalues --   -0.02767  -0.01726  -0.01307  -0.00491  -0.00303
 Alpha virt. eigenvalues --   -0.00081   0.00305   0.00682   0.00801   0.00878

  Beta  occ. eigenvalues --  -38.44273 -38.44192 -38.44179 -38.44019 -38.43515
  Beta  occ. eigenvalues --  -38.43256 -38.43240  -2.20058  -2.20009  -2.19979
  Beta  occ. eigenvalues --   -2.19753  -2.19320  -2.19183  -2.19137  -1.13740
  Beta  occ. eigenvalues --   -1.13714  -1.13692  -1.13687  -1.13664  -1.13656
  Beta  occ. eigenvalues --   -1.13644  -1.13636  -1.13618  -1.13466  -1.13451
  Beta  occ. eigenvalues --   -1.13420  -1.13011  -1.12992  -1.12982  -1.12945
  Beta  occ. eigenvalues --   -1.12865  -1.12826  -1.12788  -1.12754  -1.12744
  Beta  occ. eigenvalues --   -0.17460  -0.12879  -0.11892
  Beta virt. eigenvalues --   -0.06917  -0.05836  -0.05497  -0.04258  -0.02669
  Beta virt. eigenvalues --   -0.02099  -0.01731  -0.01607  -0.01205  -0.00520
  Beta virt. eigenvalues --   -0.00304   0.00110   0.00362   0.00788   0.00811

 Mulliken charges and spin densities:
               1          2
     1  Na   0.233860   0.102067
     2  Na  -0.644780   0.745610
     3  Na  -0.122113   0.072389
     4  Na   0.421155   0.128872
     5  Na   0.033259  -0.044086
     6  Na   0.124663   0.031622
     7  Na  -0.046043  -0.036474
 Sum of Mulliken charges =  -0.00000   1.00000

 Dipole moment (field-independent basis, Debye):
    X=             -0.3221    Y=              0.0429    Z=              0.3287  Tot=              0.4622
 Quadrupole moment (field-independent basis, Debye-Ang):
   XX=            -54.2757   YY=            -65.6894   ZZ=            -73.8142
   XY=              0.7936   XZ=             -2.6346   YZ=             -0.4768

 Normal termination of Gaussian 16 at Thu Dec  7 23:16:36 2023.
