 Gaussian 16, Revision B.01,
 Gaussian 16:  ES64L-G16RevB.01 20-Dec-2017

 -------------------------
 #P B3LYP/6-311+g(d) force
 -------------------------

 -----
 DPGEN
 -----
 Symbolic Z-matrix:
 Charge =  0 Multiplicity = 2

                         Standard orientation:
 ---------------------------------------------------------------------
 Center     Atomic      Atomic             Coordinates (Angstroms)
 Number     Number       Type             X           Y           Z
 ---------------------------------------------------------------------
      1         11           0        0.225904   -1.670749   -1.118657
      2         11           0       -0.976482   -0.489961    1.718143
      3         11           0        3.142505    0.840293   -1.514784
      4         11           0        0.412104    2.079533   -0.308671
      5         11           0       -2.746469   -1.711663   -1.184933
      6         11           0        2.533918   -1.137694    1.913238
      7         11           0       -2.591482    2.090242    0.495664
 ---------------------------------------------------------------------

 SCF Done:  E(UB3LYP) =  -1136.12616324     A.U. after   20 cycles

 The electronic state is 2-A.
 Alpha  occ. eigenvalues --  -38.44898 -38.44249 -38.44066 -38.43809 -38.43323
 Alpha  occ. eigenvalues --  -38.43206 -38.43077  -2.20696  -2.20067  -2.19989
 Alpha  occ. eigenvalues --   -2.19663  -2.19232  -2.19065  -2.18969  -1.14359
 Alpha  occ. eigenvalues --   -1.14341  -1.14303  -1.13745  -1.13720  -1.13701
 Alpha  occ. eigenvalues --   -1.13680  -1.13625  -1.13614  -1.13403  -1.13300
 Alpha  occ. eigenvalues --   -1.13277  -1.12922  -1.12893  -1.12829  -1.12794
 Alpha  occ. eigenvalues --   -1.12731  -1.12696  -1.12645  -1.12638  -1.12562
 Alpha  occ. eigenvalues --   -0.18168  -0.13364  -0.11985  -0.11643
 Alpha virt. eigenvalues --   -0.05801  -0.05152  -0.04701  -0.03404  -0.02931
 Alpha virt. eigenvalues --   -0.02580  -0.01883  -0.01080  -0.00872   0.00169
 Alpha virt. eigenvalues --    0.00238   0.00340   0.00453   0.00520   0.00696

  Beta  occ. eigenvalues --  -38.44824 -38.44210 -38.44020 -38.43783 -38.43304
  Beta  occ. eigenvalues --  -38.43208 -38.43067  -2.20561  -2.19995  -2.19906
  Beta  occ. eigenvalues --   -2.19616  -2.19200  -2.19069  -2.18954  -1.14260
  Beta  occ. eigenvalues --   -1.14247  -1.14213  -1.13690  -1.13666  -1.13651
  Beta  occ. eigenvalues --   -1.13636  -1.13562  -1.13541  -1.13365  -1.13270
  Beta  occ. eigenvalues --   -1.13245  -1.12904  -1.12848  -1.12808  -1.12796
  Beta  occ. eigenvalues --   -1.12726  -1.12699  -1.12640  -1.12618  -1.12546
  Beta  occ. eigenvalues --   -0.17558  -0.13017  -0.11587
  Beta virt. eigenvalues --   -0.07903  -0.05622  -0.04787  -0.04320  -0.03200
  Beta virt. eigenvalues --   -0.02375  -0.01928  -0.01691  -0.00808  -0.00557
  Beta virt. eigenvalues --    0.00245   0.00324   0.00389   0.00584   0.00685

 Mulliken charges and spin densities:
               1          2
     1  Na  -0.413717   0.340067
     2  Na  -0.153943   0.346316
     3  Na   0.769318   0.083699
     4  Na  -0.984646   0.078110
     5  Na   0.128423  -0.005405
     6  Na   0.077936   0.216272
     7  Na   0.576629  -0.059059
 Sum of Mulliken charges =  -0.00000   1.00000

 Dipole moment (field-independent basis, Debye):
    X=              0.4045    Y=             -0.2892    Z=              0.1187  Tot=              0.5112
 Quadrupole moment (field-independent basis, Debye-Ang):
   XX=            -51.6764   YY=            -75.9980   ZZ=            -67.0737
   XY=             -1.3944   XZ=              0.9067   YZ=             -2.2593

 Normal termination of Gaussian 16 at Sun Dec  3 12:42:21 2023.
