 Gaussian 16, Revision B.01,
 Gaussian 16:  ES64L-G16RevB.01 20-Dec-2017

 -------------------------
 #P B3LYP/6-311+g(d) force
 -------------------------

 -----
 DPGEN
 -----
 Symbolic Z-matrix:
 Charge =  0 Multiplicity = 2

                         Standard orientation:
 ---------------------------------------------------------------------
 Center     Atomic      Atomic             Coordinates (Angstroms)
 Number     Number       Type             X           Y           Z
 ---------------------------------------------------------------------
      1         11           0        0.367206    0.276836    1.832109
      2         11           0       -2.417601   -1.310404    0.039662
      3         11           0       -0.122597   -0.298066   -1.774866
      4         11           0        2.631190   -0.310259   -0.447379
      5         11           0       -2.114169    1.737673   -0.063591
      6         11           0        0.582645   -2.622183    0.399846
      7         11           0        1.073326    2.526403    0.014218
 ---------------------------------------------------------------------

 SCF Done:  E(UB3LYP) =  -1136.13185729     A.U. after   18 cycles

 The electronic state is 2-A.
 Alpha  occ. eigenvalues --  -38.43464 -38.43381 -38.43379 -38.43361 -38.43323
 Alpha  occ. eigenvalues --  -38.43292 -38.43243  -2.19503  -2.19444  -2.19355
 Alpha  occ. eigenvalues --   -2.19307  -2.19259  -2.19240  -2.19194  -1.13268
 Alpha  occ. eigenvalues --   -1.13218  -1.13201  -1.13151  -1.13128  -1.13086
 Alpha  occ. eigenvalues --   -1.13046  -1.13014  -1.12989  -1.12982  -1.12957
 Alpha  occ. eigenvalues --   -1.12933  -1.12928  -1.12903  -1.12889  -1.12871
 Alpha  occ. eigenvalues --   -1.12862  -1.12847  -1.12832  -1.12821  -1.12792
 Alpha  occ. eigenvalues --   -0.19945  -0.13177  -0.12995  -0.11390
 Alpha virt. eigenvalues --   -0.04865  -0.04795  -0.04711  -0.03308  -0.03229
 Alpha virt. eigenvalues --   -0.02707  -0.00985  -0.00949  -0.00052   0.00254
 Alpha virt. eigenvalues --    0.00285   0.00373   0.00998   0.01013   0.01023

  Beta  occ. eigenvalues --  -38.43381 -38.43365 -38.43356 -38.43318 -38.43298
  Beta  occ. eigenvalues --  -38.43285 -38.43230  -2.19353  -2.19332  -2.19305
  Beta  occ. eigenvalues --   -2.19292  -2.19253  -2.19231  -2.19174  -1.13196
  Beta  occ. eigenvalues --   -1.13143  -1.13133  -1.13064  -1.13046  -1.13035
  Beta  occ. eigenvalues --   -1.13006  -1.12984  -1.12944  -1.12932  -1.12927
  Beta  occ. eigenvalues --   -1.12907  -1.12871  -1.12866  -1.12862  -1.12861
  Beta  occ. eigenvalues --   -1.12835  -1.12825  -1.12817  -1.12788  -1.12783
  Beta  occ. eigenvalues --   -0.19174  -0.12886  -0.12709
  Beta virt. eigenvalues --   -0.07352  -0.04854  -0.04786  -0.04701  -0.02460
  Beta virt. eigenvalues --   -0.02383  -0.01604  -0.00915  -0.00882   0.00080
  Beta virt. eigenvalues --    0.00207   0.00240   0.00388   0.00996   0.01010

 Mulliken charges and spin densities:
               1          2
     1  Na  -0.689346   0.589393
     2  Na   0.185154  -0.024117
     3  Na  -0.610804   0.506923
     4  Na   0.385087   0.014735
     5  Na   0.123422  -0.071125
     6  Na   0.255482   0.014910
     7  Na   0.351006  -0.030720
 Sum of Mulliken charges =  -0.00000   1.00000

 Dipole moment (field-independent basis, Debye):
    X=              0.0035    Y=              0.0037    Z=              0.0567  Tot=              0.0569
 Quadrupole moment (field-independent basis, Debye-Ang):
   XX=            -61.8713   YY=            -62.2917   ZZ=            -71.2890
   XY=              0.0421   XZ=             -0.9966   YZ=             -1.2691

 Normal termination of Gaussian 16 at Fri Dec  8 02:53:49 2023.
