 Gaussian 16, Revision B.01,
 Gaussian 16:  ES64L-G16RevB.01 20-Dec-2017

 -------------------------
 #P B3LYP/6-311+g(d) force
 -------------------------

 -----
 DPGEN
 -----
 Symbolic Z-matrix:
 Charge =  0 Multiplicity = 2

                         Standard orientation:
 ---------------------------------------------------------------------
 Center     Atomic      Atomic             Coordinates (Angstroms)
 Number     Number       Type             X           Y           Z
 ---------------------------------------------------------------------
      1         11           0        0.242114    0.275602    2.183733
      2         11           0        1.083810   -2.080479   -0.644790
      3         11           0       -2.561915   -1.938669    0.728294
      4         11           0        3.670675   -0.259905    0.234304
      5         11           0       -1.619218   -0.223306   -2.006024
      6         11           0        1.613849    1.998925   -0.810273
      7         11           0       -2.429315    2.227832    0.314755
 ---------------------------------------------------------------------

 SCF Done:  E(UB3LYP) =  -1136.12883613     A.U. after   21 cycles

 The electronic state is 2-A.
 Alpha  occ. eigenvalues --  -38.44471 -38.44409 -38.44208 -38.43994 -38.43862
 Alpha  occ. eigenvalues --  -38.43690 -38.43299  -2.20307  -2.20235  -2.20001
 Alpha  occ. eigenvalues --   -2.19806  -2.19724  -2.19468  -2.19136  -1.13984
 Alpha  occ. eigenvalues --   -1.13971  -1.13952  -1.13903  -1.13865  -1.13854
 Alpha  occ. eigenvalues --   -1.13681  -1.13660  -1.13638  -1.13482  -1.13476
 Alpha  occ. eigenvalues --   -1.13430  -1.13399  -1.13373  -1.13334  -1.13143
 Alpha  occ. eigenvalues --   -1.13127  -1.13112  -1.12829  -1.12817  -1.12752
 Alpha  occ. eigenvalues --   -0.17932  -0.13555  -0.11344  -0.11198
 Alpha virt. eigenvalues --   -0.06110  -0.05668  -0.04513  -0.03241  -0.03078
 Alpha virt. eigenvalues --   -0.02860  -0.01866  -0.01181  -0.00576  -0.00154
 Alpha virt. eigenvalues --    0.00056   0.00266   0.00456   0.00590   0.00688

  Beta  occ. eigenvalues --  -38.44472 -38.44322 -38.44199 -38.43980 -38.43802
  Beta  occ. eigenvalues --  -38.43691 -38.43289  -2.20311  -2.20074  -2.19987
  Beta  occ. eigenvalues --   -2.19781  -2.19613  -2.19473  -2.19120  -1.13984
  Beta  occ. eigenvalues --   -1.13975  -1.13948  -1.13797  -1.13748  -1.13739
  Beta  occ. eigenvalues --   -1.13664  -1.13642  -1.13626  -1.13465  -1.13445
  Beta  occ. eigenvalues --   -1.13414  -1.13319  -1.13302  -1.13255  -1.13135
  Beta  occ. eigenvalues --   -1.13123  -1.13116  -1.12818  -1.12783  -1.12745
  Beta  occ. eigenvalues --   -0.17207  -0.13394  -0.11161
  Beta virt. eigenvalues --   -0.07346  -0.05901  -0.05646  -0.03954  -0.03051
  Beta virt. eigenvalues --   -0.02251  -0.02027  -0.01800  -0.01080  -0.00395
  Beta virt. eigenvalues --   -0.00021   0.00044   0.00333   0.00650   0.00710

 Mulliken charges and spin densities:
               1          2
     1  Na  -0.401603   0.680866
     2  Na  -0.206651   0.012879
     3  Na   0.207346  -0.058768
     4  Na   0.483999   0.005089
     5  Na   0.045942   0.511144
     6  Na  -0.181378  -0.005349
     7  Na   0.052345  -0.145862
 Sum of Mulliken charges =  -0.00000   1.00000

 Dipole moment (field-independent basis, Debye):
    X=              0.3724    Y=             -0.0375    Z=              0.2982  Tot=              0.4786
 Quadrupole moment (field-independent basis, Debye-Ang):
   XX=            -52.6369   YY=            -73.3486   ZZ=            -69.3868
   XY=              0.5439   XZ=             -0.6729   YZ=             -1.8426

 Normal termination of Gaussian 16 at Thu Dec  7 12:23:45 2023.
