 Gaussian 16, Revision B.01,
 Gaussian 16:  ES64L-G16RevB.01 20-Dec-2017

 -------------------------
 #P B3LYP/6-311+g(d) force
 -------------------------

 -----
 DPGEN
 -----
 Symbolic Z-matrix:
 Charge =  0 Multiplicity = 2

                         Standard orientation:
 ---------------------------------------------------------------------
 Center     Atomic      Atomic             Coordinates (Angstroms)
 Number     Number       Type             X           Y           Z
 ---------------------------------------------------------------------
      1         11           0       -3.540711   -0.658700   -0.363113
      2         11           0        2.648208    1.029883    0.519250
      3         11           0       -0.049491    2.686803   -1.107648
      4         11           0       -0.311942   -2.096502    1.267033
      5         11           0        2.223695   -2.264540   -0.984817
      6         11           0       -0.422871    1.351794    1.899908
      7         11           0       -0.546889   -0.048739   -1.230614
 ---------------------------------------------------------------------

 SCF Done:  E(UB3LYP) =  -1136.12680638     A.U. after   19 cycles

 The electronic state is 2-A.
 Alpha  occ. eigenvalues --  -38.44250 -38.44159 -38.43746 -38.43733 -38.43658
 Alpha  occ. eigenvalues --  -38.43239 -38.42976  -2.20037  -2.19989  -2.19670
 Alpha  occ. eigenvalues --   -2.19651  -2.19529  -2.19067  -2.19057  -1.13732
 Alpha  occ. eigenvalues --   -1.13685  -1.13684  -1.13670  -1.13656  -1.13609
 Alpha  occ. eigenvalues --   -1.13524  -1.13345  -1.13331  -1.13265  -1.13256
 Alpha  occ. eigenvalues --   -1.13239  -1.13223  -1.13189  -1.13126  -1.12742
 Alpha  occ. eigenvalues --   -1.12726  -1.12716  -1.12705  -1.12696  -1.12637
 Alpha  occ. eigenvalues --   -0.18662  -0.12536  -0.12419  -0.11292
 Alpha virt. eigenvalues --   -0.05891  -0.04671  -0.04341  -0.03275  -0.03042
 Alpha virt. eigenvalues --   -0.02723  -0.01762  -0.00895  -0.00478   0.00169
 Alpha virt. eigenvalues --    0.00260   0.00350   0.00556   0.00759   0.00911

  Beta  occ. eigenvalues --  -38.44252 -38.44150 -38.43716 -38.43659 -38.43630
  Beta  occ. eigenvalues --  -38.43224 -38.42926  -2.20042  -2.19976  -2.19617
  Beta  occ. eigenvalues --   -2.19516  -2.19480  -2.19039  -2.18971  -1.13729
  Beta  occ. eigenvalues --   -1.13689  -1.13671  -1.13662  -1.13637  -1.13604
  Beta  occ. eigenvalues --   -1.13474  -1.13276  -1.13249  -1.13214  -1.13205
  Beta  occ. eigenvalues --   -1.13171  -1.13149  -1.13124  -1.13097  -1.12713
  Beta  occ. eigenvalues --   -1.12698  -1.12689  -1.12648  -1.12634  -1.12577
  Beta  occ. eigenvalues --   -0.17902  -0.12373  -0.12203
  Beta virt. eigenvalues --   -0.07285  -0.05795  -0.04510  -0.04110  -0.02779
  Beta virt. eigenvalues --   -0.02458  -0.01815  -0.01576  -0.00844  -0.00156
  Beta virt. eigenvalues --    0.00157   0.00302   0.00378   0.00678   0.00774

 Mulliken charges and spin densities:
               1          2
     1  Na   0.082269   0.028048
     2  Na  -0.234290   0.098860
     3  Na   0.281521   0.071745
     4  Na  -0.150912   0.159152
     5  Na   0.388984  -0.032154
     6  Na   0.174260   0.463236
     7  Na  -0.541831   0.211113
 Sum of Mulliken charges =  -0.00000   1.00000

 Dipole moment (field-independent basis, Debye):
    X=             -0.1501    Y=              0.2376    Z=              0.3531  Tot=              0.4513
 Quadrupole moment (field-independent basis, Debye-Ang):
   XX=            -57.4793   YY=            -65.6088   ZZ=            -69.3019
   XY=              0.9078   XZ=             -0.7575   YZ=             -0.4972

 Normal termination of Gaussian 16 at Tue Dec  5 23:52:56 2023.
