 Gaussian 16, Revision B.01,
 Gaussian 16:  ES64L-G16RevB.01 20-Dec-2017

 -------------------------
 #P B3LYP/6-311+g(d) force
 -------------------------

 -----
 DPGEN
 -----
 Symbolic Z-matrix:
 Charge =  0 Multiplicity = 2

                         Standard orientation:
 ---------------------------------------------------------------------
 Center     Atomic      Atomic             Coordinates (Angstroms)
 Number     Number       Type             X           Y           Z
 ---------------------------------------------------------------------
      1         11           0        1.804430    1.308378   -0.698726
      2         11           0       -1.066322    2.597650    0.075476
      3         11           0       -3.806970    0.553783   -0.217164
      4         11           0        4.633755   -0.769966   -1.181240
      5         11           0       -3.485455   -2.355953   -0.796677
      6         11           0       -0.806679   -0.427684    1.266279
      7         11           0        2.727241   -0.906207    1.552053
 ---------------------------------------------------------------------

 SCF Done:  E(UB3LYP) =  -1136.12205490     A.U. after   22 cycles

 The electronic state is 2-A.
 Alpha  occ. eigenvalues --  -38.44296 -38.44294 -38.44181 -38.43890 -38.43870
 Alpha  occ. eigenvalues --  -38.43843 -38.42747  -2.20185  -2.20170  -2.20045
 Alpha  occ. eigenvalues --   -2.19794  -2.19698  -2.19665  -2.18635  -1.13889
 Alpha  occ. eigenvalues --   -1.13883  -1.13870  -1.13848  -1.13823  -1.13785
 Alpha  occ. eigenvalues --   -1.13716  -1.13707  -1.13668  -1.13491  -1.13450
 Alpha  occ. eigenvalues --   -1.13401  -1.13352  -1.13347  -1.13327  -1.13315
 Alpha  occ. eigenvalues --   -1.13314  -1.13297  -1.12301  -1.12290  -1.12282
 Alpha  occ. eigenvalues --   -0.17554  -0.14719  -0.11655  -0.10901
 Alpha virt. eigenvalues --   -0.06657  -0.05267  -0.04083  -0.04017  -0.02734
 Alpha virt. eigenvalues --   -0.02291  -0.02175  -0.01535  -0.00675  -0.00500
 Alpha virt. eigenvalues --   -0.00012   0.00179   0.00389   0.00450   0.00615

  Beta  occ. eigenvalues --  -38.44282 -38.44278 -38.44144 -38.43847 -38.43827
  Beta  occ. eigenvalues --  -38.43823 -38.42733  -2.20151  -2.20151  -2.19984
  Beta  occ. eigenvalues --   -2.19682  -2.19672  -2.19609  -2.18610  -1.13866
  Beta  occ. eigenvalues --   -1.13864  -1.13849  -1.13824  -1.13799  -1.13763
  Beta  occ. eigenvalues --   -1.13680  -1.13668  -1.13586  -1.13419  -1.13367
  Beta  occ. eigenvalues --   -1.13327  -1.13320  -1.13309  -1.13295  -1.13289
  Beta  occ. eigenvalues --   -1.13284  -1.13260  -1.12282  -1.12276  -1.12257
  Beta  occ. eigenvalues --   -0.16955  -0.14394  -0.11508
  Beta virt. eigenvalues --   -0.07093  -0.06409  -0.04805  -0.03852  -0.03818
  Beta virt. eigenvalues --   -0.02384  -0.01992  -0.01601  -0.01325  -0.00485
  Beta virt. eigenvalues --   -0.00272   0.00121   0.00307   0.00491   0.00578

 Mulliken charges and spin densities:
               1          2
     1  Na  -0.995041   0.168331
     2  Na   0.701621   0.200680
     3  Na   0.524152   0.178163
     4  Na   0.488592   0.112596
     5  Na   0.357542  -0.041555
     6  Na  -1.160953   0.321506
     7  Na   0.084087   0.060278
 Sum of Mulliken charges =  -0.00000   1.00000

 Dipole moment (field-independent basis, Debye):
    X=              0.1597    Y=             -0.3027    Z=             -0.1922  Tot=              0.3925
 Quadrupole moment (field-independent basis, Debye-Ang):
   XX=            -62.7081   YY=            -67.5237   ZZ=            -68.3510
   XY=             -4.6027   XZ=              0.1843   YZ=              1.6706

 Normal termination of Gaussian 16 at Tue Nov 28 20:44:53 2023.
