 Gaussian 16, Revision B.01,
 Gaussian 16:  ES64L-G16RevB.01 20-Dec-2017

 -------------------------
 #P B3LYP/6-311+g(d) force
 -------------------------

 -----
 DPGEN
 -----
 Symbolic Z-matrix:
 Charge =  0 Multiplicity = 2

                         Standard orientation:
 ---------------------------------------------------------------------
 Center     Atomic      Atomic             Coordinates (Angstroms)
 Number     Number       Type             X           Y           Z
 ---------------------------------------------------------------------
      1         11           0       -1.684039    2.351075   -0.197417
      2         11           0        0.432756   -0.369039   -1.792398
      3         11           0       -0.011639   -0.075238    1.866773
      4         11           0        1.611239    2.157611    0.028687
      5         11           0        2.872981   -0.816610    0.116232
      6         11           0       -2.578140   -0.464582   -0.036547
      7         11           0       -0.643159   -2.783216    0.014670
 ---------------------------------------------------------------------

 SCF Done:  E(UB3LYP) =  -1136.13298657     A.U. after   19 cycles

 The electronic state is 2-A.
 Alpha  occ. eigenvalues --  -38.43815 -38.43478 -38.43439 -38.43408 -38.43391
 Alpha  occ. eigenvalues --  -38.43352 -38.43279  -2.19709  -2.19468  -2.19405
 Alpha  occ. eigenvalues --   -2.19365  -2.19357  -2.19314  -2.19184  -1.13426
 Alpha  occ. eigenvalues --   -1.13377  -1.13342  -1.13249  -1.13226  -1.13128
 Alpha  occ. eigenvalues --   -1.13109  -1.13066  -1.13059  -1.13041  -1.13016
 Alpha  occ. eigenvalues --   -1.12998  -1.12994  -1.12981  -1.12970  -1.12943
 Alpha  occ. eigenvalues --   -1.12930  -1.12909  -1.12821  -1.12815  -1.12812
 Alpha  occ. eigenvalues --   -0.19589  -0.13343  -0.12751  -0.11133
 Alpha virt. eigenvalues --   -0.05318  -0.04914  -0.04592  -0.03401  -0.03007
 Alpha virt. eigenvalues --   -0.02617  -0.01223  -0.00999  -0.00017   0.00037
 Alpha virt. eigenvalues --    0.00148   0.00372   0.00912   0.00957   0.00977

  Beta  occ. eigenvalues --  -38.43809 -38.43470 -38.43432 -38.43385 -38.43321
  Beta  occ. eigenvalues --  -38.43275 -38.43275  -2.19702  -2.19457  -2.19355
  Beta  occ. eigenvalues --   -2.19306  -2.19246  -2.19216  -2.19179  -1.13417
  Beta  occ. eigenvalues --   -1.13349  -1.13335  -1.13248  -1.13208  -1.13076
  Beta  occ. eigenvalues --   -1.13075  -1.13013  -1.13004  -1.12998  -1.12964
  Beta  occ. eigenvalues --   -1.12939  -1.12927  -1.12908  -1.12899  -1.12879
  Beta  occ. eigenvalues --   -1.12872  -1.12843  -1.12818  -1.12812  -1.12788
  Beta  occ. eigenvalues --   -0.18819  -0.13056  -0.12492
  Beta virt. eigenvalues --   -0.07156  -0.05303  -0.04897  -0.04575  -0.02513
  Beta virt. eigenvalues --   -0.02204  -0.01547  -0.01152  -0.00939  -0.00021
  Beta virt. eigenvalues --    0.00095   0.00129   0.00389   0.00925   0.00964

 Mulliken charges and spin densities:
               1          2
     1  Na  -0.089661  -0.050160
     2  Na  -0.561346   0.582103
     3  Na  -0.570024   0.570145
     4  Na   0.198595   0.017502
     5  Na   0.341239  -0.122235
     6  Na   0.252665   0.089026
     7  Na   0.428532  -0.086381
 Sum of Mulliken charges =  -0.00000   1.00000

 Dipole moment (field-independent basis, Debye):
    X=              0.4076    Y=             -0.1454    Z=              0.0433  Tot=              0.4349
 Quadrupole moment (field-independent basis, Debye-Ang):
   XX=            -60.3829   YY=            -62.3271   ZZ=            -72.4567
   XY=             -0.5592   XZ=              0.9229   YZ=             -0.6771

 Normal termination of Gaussian 16 at Sun Dec  3 13:13:19 2023.
