 Gaussian 16, Revision B.01,
 Gaussian 16:  ES64L-G16RevB.01 20-Dec-2017

 -------------------------
 #P B3LYP/6-311+g(d) force
 -------------------------

 -----
 DPGEN
 -----
 Symbolic Z-matrix:
 Charge =  0 Multiplicity = 2

                         Standard orientation:
 ---------------------------------------------------------------------
 Center     Atomic      Atomic             Coordinates (Angstroms)
 Number     Number       Type             X           Y           Z
 ---------------------------------------------------------------------
      1         11           0       -0.889541   -2.558646    0.053357
      2         11           0        2.430860   -1.540165   -0.106275
      3         11           0        2.788612    1.718772   -0.098155
      4         11           0       -0.047324   -0.323350    1.768100
      5         11           0       -1.310489    2.511138    0.396330
      6         11           0        0.068082    0.172094   -1.588797
      7         11           0       -3.040199    0.020157   -0.424560
 ---------------------------------------------------------------------

 SCF Done:  E(UB3LYP) =  -1136.13343163     A.U. after   19 cycles

 The electronic state is 2-A.
 Alpha  occ. eigenvalues --  -38.44016 -38.44004 -38.43736 -38.43368 -38.43169
 Alpha  occ. eigenvalues --  -38.43102 -38.42913  -2.19917  -2.19824  -2.19646
 Alpha  occ. eigenvalues --   -2.19251  -2.19186  -2.19128  -2.18861  -1.13601
 Alpha  occ. eigenvalues --   -1.13580  -1.13559  -1.13508  -1.13494  -1.13465
 Alpha  occ. eigenvalues --   -1.13340  -1.13320  -1.13256  -1.12956  -1.12946
 Alpha  occ. eigenvalues --   -1.12914  -1.12884  -1.12841  -1.12795  -1.12781
 Alpha  occ. eigenvalues --   -1.12757  -1.12745  -1.12519  -1.12504  -1.12470
 Alpha  occ. eigenvalues --   -0.19296  -0.13556  -0.12353  -0.10700
 Alpha virt. eigenvalues --   -0.05733  -0.05257  -0.04294  -0.03302  -0.02713
 Alpha virt. eigenvalues --   -0.02247  -0.01677  -0.01079  -0.00267  -0.00071
 Alpha virt. eigenvalues --    0.00048   0.00347   0.00799   0.00897   0.00925

  Beta  occ. eigenvalues --  -38.44004 -38.44003 -38.43729 -38.43357 -38.43083
  Beta  occ. eigenvalues --  -38.43038 -38.42903  -2.19897  -2.19827  -2.19637
  Beta  occ. eigenvalues --   -2.19233  -2.19029  -2.19013  -2.18848  -1.13590
  Beta  occ. eigenvalues --   -1.13558  -1.13529  -1.13512  -1.13486  -1.13462
  Beta  occ. eigenvalues --   -1.13335  -1.13288  -1.13250  -1.12934  -1.12877
  Beta  occ. eigenvalues --   -1.12872  -1.12858  -1.12753  -1.12700  -1.12678
  Beta  occ. eigenvalues --   -1.12671  -1.12654  -1.12498  -1.12473  -1.12442
  Beta  occ. eigenvalues --   -0.18567  -0.13286  -0.12083
  Beta virt. eigenvalues --   -0.06765  -0.05674  -0.05256  -0.04274  -0.02507
  Beta virt. eigenvalues --   -0.01950  -0.01591  -0.01212  -0.01015  -0.00274
  Beta virt. eigenvalues --   -0.00096   0.00158   0.00375   0.00848   0.00891

 Mulliken charges and spin densities:
               1          2
     1  Na   0.398136  -0.002401
     2  Na   0.195019  -0.063822
     3  Na  -0.039182  -0.090158
     4  Na  -0.393593   0.648249
     5  Na  -0.002513  -0.029546
     6  Na  -0.398805   0.478520
     7  Na   0.240939   0.059158
 Sum of Mulliken charges =  -0.00000   1.00000

 Dipole moment (field-independent basis, Debye):
    X=              0.1826    Y=              0.1924    Z=             -0.0017  Tot=              0.2652
 Quadrupole moment (field-independent basis, Debye-Ang):
   XX=            -54.2938   YY=            -63.7410   ZZ=            -74.8233
   XY=              0.7129   XZ=              0.6790   YZ=              1.2756

 Normal termination of Gaussian 16 at Wed Nov 29 02:38:59 2023.
