 Gaussian 16, Revision B.01,
 Gaussian 16:  ES64L-G16RevB.01 20-Dec-2017

 -------------------------
 #P B3LYP/6-311+g(d) force
 -------------------------

 -----
 DPGEN
 -----
 Symbolic Z-matrix:
 Charge =  0 Multiplicity = 2

                         Standard orientation:
 ---------------------------------------------------------------------
 Center     Atomic      Atomic             Coordinates (Angstroms)
 Number     Number       Type             X           Y           Z
 ---------------------------------------------------------------------
      1         11           0        4.515750    0.455030   -0.654405
      2         11           0        2.081431   -1.072408   -1.061765
      3         11           0        1.168681    1.691017    0.864190
      4         11           0       -2.513184    2.264060   -0.378005
      5         11           0       -3.862710   -0.335621   -0.920452
      6         11           0       -1.139367   -2.072932   -0.212231
      7         11           0       -0.250601   -0.929147    2.362669
 ---------------------------------------------------------------------

 SCF Done:  E(UB3LYP) =  -1136.11280426     A.U. after   20 cycles

 The electronic state is 2-A.
 Alpha  occ. eigenvalues --  -38.44845 -38.44496 -38.44320 -38.44085 -38.43917
 Alpha  occ. eigenvalues --  -38.43623 -38.43368  -2.20691  -2.20400  -2.20162
 Alpha  occ. eigenvalues --   -2.19959  -2.19779  -2.19439  -2.19283  -1.14369
 Alpha  occ. eigenvalues --   -1.14356  -1.14291  -1.14183  -1.14063  -1.14022
 Alpha  occ. eigenvalues --   -1.13798  -1.13793  -1.13753  -1.13677  -1.13612
 Alpha  occ. eigenvalues --   -1.13581  -1.13502  -1.13436  -1.13417  -1.13098
 Alpha  occ. eigenvalues --   -1.13084  -1.13073  -1.12960  -1.12927  -1.12897
 Alpha  occ. eigenvalues --   -0.17844  -0.14162  -0.11902  -0.11473
 Alpha virt. eigenvalues --   -0.06595  -0.05435  -0.04299  -0.03442  -0.03119
 Alpha virt. eigenvalues --   -0.02597  -0.02343  -0.01219  -0.00810  -0.00285
 Alpha virt. eigenvalues --   -0.00041   0.00010   0.00477   0.00585   0.00813

  Beta  occ. eigenvalues --  -38.44769 -38.44466 -38.44303 -38.44057 -38.43894
  Beta  occ. eigenvalues --  -38.43619 -38.43340  -2.20552  -2.20346  -2.20132
  Beta  occ. eigenvalues --   -2.19908  -2.19736  -2.19432  -2.19232  -1.14280
  Beta  occ. eigenvalues --   -1.14253  -1.14185  -1.14142  -1.14026  -1.13981
  Beta  occ. eigenvalues --   -1.13778  -1.13763  -1.13736  -1.13644  -1.13562
  Beta  occ. eigenvalues --   -1.13543  -1.13480  -1.13399  -1.13389  -1.13096
  Beta  occ. eigenvalues --   -1.13080  -1.13051  -1.12923  -1.12894  -1.12856
  Beta  occ. eigenvalues --   -0.17132  -0.13840  -0.11390
  Beta virt. eigenvalues --   -0.08082  -0.06199  -0.04902  -0.03958  -0.03158
  Beta virt. eigenvalues --   -0.02593  -0.02220  -0.02102  -0.00950  -0.00608
  Beta virt. eigenvalues --   -0.00127   0.00071   0.00116   0.00572   0.00715

 Mulliken charges and spin densities:
               1          2
     1  Na   0.902266  -0.068646
     2  Na  -0.437385   0.084851
     3  Na  -0.735876   0.492140
     4  Na   0.015786  -0.061175
     5  Na   0.091166   0.099880
     6  Na  -0.182326   0.389219
     7  Na   0.346369   0.063732
 Sum of Mulliken charges =  -0.00000   1.00000

 Dipole moment (field-independent basis, Debye):
    X=              1.0540    Y=             -0.1748    Z=              0.5634  Tot=              1.2079
 Quadrupole moment (field-independent basis, Debye-Ang):
   XX=            -61.7874   YY=            -70.7440   ZZ=            -68.3189
   XY=              5.3324   XZ=             -0.0300   YZ=              3.5728

 Normal termination of Gaussian 16 at Sun Dec  3 18:52:00 2023.
