 Gaussian 16, Revision B.01,
 Gaussian 16:  ES64L-G16RevB.01 20-Dec-2017

 -------------------------
 #P B3LYP/6-311+g(d) force
 -------------------------

 -----
 DPGEN
 -----
 Symbolic Z-matrix:
 Charge =  0 Multiplicity = 2

                         Standard orientation:
 ---------------------------------------------------------------------
 Center     Atomic      Atomic             Coordinates (Angstroms)
 Number     Number       Type             X           Y           Z
 ---------------------------------------------------------------------
      1         11           0        1.141446    2.893706    0.240553
      2         11           0        3.187000   -0.081989   -0.176538
      3         11           0       -2.410233    1.704805   -0.269137
      4         11           0       -2.838434   -1.681166   -0.177821
      5         11           0       -0.203462    0.171607   -1.577526
      6         11           0       -0.359665   -0.429013    2.221575
      7         11           0        1.483348   -2.577951   -0.261105
 ---------------------------------------------------------------------

 SCF Done:  E(UB3LYP) =  -1136.13250702     A.U. after   19 cycles

 The electronic state is 2-A.
 Alpha  occ. eigenvalues --  -38.44149 -38.44142 -38.44024 -38.43889 -38.43491
 Alpha  occ. eigenvalues --  -38.43436 -38.43252  -2.19997  -2.19958  -2.19901
 Alpha  occ. eigenvalues --   -2.19730  -2.19407  -2.19350  -2.19055  -1.13707
 Alpha  occ. eigenvalues --   -1.13674  -1.13656  -1.13633  -1.13627  -1.13620
 Alpha  occ. eigenvalues --   -1.13607  -1.13548  -1.13491  -1.13382  -1.13357
 Alpha  occ. eigenvalues --   -1.13346  -1.13088  -1.13072  -1.13015  -1.13015
 Alpha  occ. eigenvalues --   -1.12998  -1.12979  -1.12724  -1.12719  -1.12699
 Alpha  occ. eigenvalues --   -0.18361  -0.13389  -0.12075  -0.10778
 Alpha virt. eigenvalues --   -0.05760  -0.05476  -0.04525  -0.03342  -0.02933
 Alpha virt. eigenvalues --   -0.02556  -0.01655  -0.01188  -0.00486  -0.00368
 Alpha virt. eigenvalues --   -0.00043   0.00336   0.00719   0.00830   0.00877

  Beta  occ. eigenvalues --  -38.44148 -38.44139 -38.44013 -38.43784 -38.43485
  Beta  occ. eigenvalues --  -38.43383 -38.43249  -2.19996  -2.19956  -2.19885
  Beta  occ. eigenvalues --   -2.19534  -2.19343  -2.19311  -2.19052  -1.13708
  Beta  occ. eigenvalues --   -1.13658  -1.13643  -1.13630  -1.13620  -1.13613
  Beta  occ. eigenvalues --   -1.13592  -1.13519  -1.13484  -1.13251  -1.13222
  Beta  occ. eigenvalues --   -1.13207  -1.13034  -1.13019  -1.13005  -1.12965
  Beta  occ. eigenvalues --   -1.12961  -1.12944  -1.12719  -1.12706  -1.12699
  Beta  occ. eigenvalues --   -0.17661  -0.13156  -0.11883
  Beta virt. eigenvalues --   -0.06843  -0.05702  -0.05440  -0.04476  -0.02582
  Beta virt. eigenvalues --   -0.02110  -0.01603  -0.01539  -0.01115  -0.00528
  Beta virt. eigenvalues --   -0.00404   0.00128   0.00375   0.00804   0.00838

 Mulliken charges and spin densities:
               1          2
     1  Na  -0.042695   0.019380
     2  Na   0.018761  -0.004364
     3  Na   0.307213   0.072700
     4  Na   0.200004  -0.047645
     5  Na  -0.095177   0.211253
     6  Na  -0.596273   0.781016
     7  Na   0.208167  -0.032341
 Sum of Mulliken charges =  -0.00000   1.00000

 Dipole moment (field-independent basis, Debye):
    X=             -0.2927    Y=             -0.1619    Z=              0.1205  Tot=              0.3555
 Quadrupole moment (field-independent basis, Debye-Ang):
   XX=            -55.9268   YY=            -64.1566   ZZ=            -74.4803
   XY=              1.3366   XZ=              0.5181   YZ=              1.4045

 Normal termination of Gaussian 16 at Thu Dec  7 18:53:04 2023.
