 Gaussian 16, Revision B.01,
 Gaussian 16:  ES64L-G16RevB.01 20-Dec-2017

 -------------------------
 #P B3LYP/6-311+g(d) force
 -------------------------

 -----
 DPGEN
 -----
 Symbolic Z-matrix:
 Charge =  0 Multiplicity = 2

                         Standard orientation:
 ---------------------------------------------------------------------
 Center     Atomic      Atomic             Coordinates (Angstroms)
 Number     Number       Type             X           Y           Z
 ---------------------------------------------------------------------
      1         11           0       -3.579690   -1.478290   -1.218506
      2         11           0       -6.485585   -0.633755    0.467601
      3         11           0       -6.761128    2.882163    0.056293
      4         11           0       -0.303647   -1.518747    0.204934
      5         11           0        3.025933   -0.752880    1.399793
      6         11           0        5.558063    0.311381   -0.888840
      7         11           0        8.546055    1.190128   -0.021276
 ---------------------------------------------------------------------

 SCF Done:  E(UB3LYP) =  -1136.10537899     A.U. after   20 cycles

 The electronic state is 2-A.
 Alpha  occ. eigenvalues --  -38.45354 -38.44851 -38.44609 -38.44485 -38.44468
 Alpha  occ. eigenvalues --  -38.44107 -38.44003  -2.21122  -2.20606  -2.20396
 Alpha  occ. eigenvalues --   -2.20275  -2.20267  -2.19892  -2.19742  -1.14769
 Alpha  occ. eigenvalues --   -1.14767  -1.14728  -1.14292  -1.14284  -1.14256
 Alpha  occ. eigenvalues --   -1.14042  -1.14042  -1.14035  -1.13931  -1.13928
 Alpha  occ. eigenvalues --   -1.13926  -1.13917  -1.13883  -1.13879  -1.13569
 Alpha  occ. eigenvalues --   -1.13563  -1.13537  -1.13438  -1.13437  -1.13383
 Alpha  occ. eigenvalues --   -0.14940  -0.14300  -0.12611  -0.11313
 Alpha virt. eigenvalues --   -0.07119  -0.05592  -0.04270  -0.03248  -0.03076
 Alpha virt. eigenvalues --   -0.02721  -0.02429  -0.01917  -0.01524  -0.01418
 Alpha virt. eigenvalues --   -0.00747  -0.00459  -0.00298   0.00042   0.00390

  Beta  occ. eigenvalues --  -38.45268 -38.44874 -38.44554 -38.44419 -38.44401
  Beta  occ. eigenvalues --  -38.44119 -38.44031  -2.20962  -2.20655  -2.20294
  Beta  occ. eigenvalues --   -2.20151  -2.20142  -2.19917  -2.19799  -1.14660
  Beta  occ. eigenvalues --   -1.14657  -1.14624  -1.14329  -1.14315  -1.14262
  Beta  occ. eigenvalues --   -1.13973  -1.13972  -1.13969  -1.13847  -1.13844
  Beta  occ. eigenvalues --   -1.13839  -1.13832  -1.13809  -1.13806  -1.13590
  Beta  occ. eigenvalues --   -1.13584  -1.13522  -1.13482  -1.13481  -1.13385
  Beta  occ. eigenvalues --   -0.14431  -0.13737  -0.11953
  Beta virt. eigenvalues --   -0.08299  -0.06600  -0.05234  -0.04039  -0.03094
  Beta virt. eigenvalues --   -0.02843  -0.02507  -0.02152  -0.01603  -0.01281
  Beta virt. eigenvalues --   -0.01060  -0.00454  -0.00277  -0.00025   0.00191

 Mulliken charges and spin densities:
               1          2
     1  Na  -0.247103   0.264925
     2  Na  -0.057761  -0.084040
     3  Na   0.168695   0.413297
     4  Na  -0.017852  -0.042107
     5  Na   0.216765   0.218223
     6  Na  -0.319842   0.027784
     7  Na   0.257098   0.201918
 Sum of Mulliken charges =  -0.00000   1.00000

 Dipole moment (field-independent basis, Debye):
    X=             -0.7346    Y=              0.8896    Z=              0.1886  Tot=              1.1690
 Quadrupole moment (field-independent basis, Debye-Ang):
   XX=            -49.9431   YY=            -67.0959   ZZ=            -69.3944
   XY=              1.1265   XZ=              3.2755   YZ=             -0.8425

 Normal termination of Gaussian 16 at Mon Dec  4 04:55:30 2023.
