 Gaussian 16, Revision B.01,
 Gaussian 16:  ES64L-G16RevB.01 20-Dec-2017

 -------------------------
 #P B3LYP/6-311+g(d) force
 -------------------------

 -----
 DPGEN
 -----
 Symbolic Z-matrix:
 Charge =  0 Multiplicity = 2

                         Standard orientation:
 ---------------------------------------------------------------------
 Center     Atomic      Atomic             Coordinates (Angstroms)
 Number     Number       Type             X           Y           Z
 ---------------------------------------------------------------------
      1         11           0        3.265547   -0.554350   -0.212016
      2         11           0       -2.128071    2.019161    0.061949
      3         11           0        0.486143   -2.527470    0.144442
      4         11           0       -0.171049   -0.277633   -1.730473
      5         11           0        1.011127    2.688482   -0.424565
      6         11           0        0.286250    0.284088    2.249183
      7         11           0       -2.749947   -1.632278   -0.088520
 ---------------------------------------------------------------------

 SCF Done:  E(UB3LYP) =  -1136.13690421     A.U. after   20 cycles

 The electronic state is 2-A.
 Alpha  occ. eigenvalues --  -38.44031 -38.43935 -38.43566 -38.43559 -38.43491
 Alpha  occ. eigenvalues --  -38.43474 -38.43266  -2.19887  -2.19733  -2.19468
 Alpha  occ. eigenvalues --   -2.19419  -2.19396  -2.19325  -2.19190  -1.13546
 Alpha  occ. eigenvalues --   -1.13515  -1.13504  -1.13401  -1.13396  -1.13379
 Alpha  occ. eigenvalues --   -1.13232  -1.13153  -1.13115  -1.13097  -1.13085
 Alpha  occ. eigenvalues --   -1.13066  -1.13060  -1.13036  -1.13028  -1.12992
 Alpha  occ. eigenvalues --   -1.12976  -1.12939  -1.12866  -1.12851  -1.12778
 Alpha  occ. eigenvalues --   -0.18616  -0.12728  -0.12582  -0.11087
 Alpha virt. eigenvalues --   -0.05479  -0.05046  -0.04627  -0.03253  -0.03131
 Alpha virt. eigenvalues --   -0.02832  -0.01512  -0.01043  -0.00233  -0.00113
 Alpha virt. eigenvalues --   -0.00046   0.00355   0.00773   0.00900   0.00930

  Beta  occ. eigenvalues --  -38.43935 -38.43929 -38.43563 -38.43558 -38.43465
  Beta  occ. eigenvalues --  -38.43429 -38.43256  -2.19735  -2.19697  -2.19416
  Beta  occ. eigenvalues --   -2.19398  -2.19355  -2.19312  -2.19176  -1.13420
  Beta  occ. eigenvalues --   -1.13400  -1.13387  -1.13384  -1.13380  -1.13365
  Beta  occ. eigenvalues --   -1.13167  -1.13128  -1.13089  -1.13070  -1.13061
  Beta  occ. eigenvalues --   -1.13052  -1.13036  -1.13033  -1.12984  -1.12960
  Beta  occ. eigenvalues --   -1.12952  -1.12934  -1.12849  -1.12805  -1.12775
  Beta  occ. eigenvalues --   -0.17864  -0.12512  -0.12383
  Beta virt. eigenvalues --   -0.07111  -0.05438  -0.05042  -0.04547  -0.02415
  Beta virt. eigenvalues --   -0.02370  -0.01802  -0.01439  -0.00984  -0.00279
  Beta virt. eigenvalues --   -0.00115   0.00089   0.00373   0.00841   0.00888

 Mulliken charges and spin densities:
               1          2
     1  Na   0.095198  -0.082774
     2  Na   0.152062   0.002724
     3  Na   0.306147   0.078481
     4  Na  -0.281141   0.410185
     5  Na   0.125499  -0.045710
     6  Na  -0.596547   0.658259
     7  Na   0.198783  -0.021166
 Sum of Mulliken charges =  -0.00000   1.00000

 Dipole moment (field-independent basis, Debye):
    X=              0.0940    Y=              0.1331    Z=              0.1752  Tot=              0.2393
 Quadrupole moment (field-independent basis, Debye-Ang):
   XX=            -57.1070   YY=            -65.1768   ZZ=            -72.2092
   XY=              0.6766   XZ=             -1.1197   YZ=             -0.9266

 Normal termination of Gaussian 16 at Thu Dec  7 15:09:28 2023.
