 Gaussian 16, Revision B.01,
 Gaussian 16:  ES64L-G16RevB.01 20-Dec-2017

 -------------------------
 #P B3LYP/6-311+g(d) force
 -------------------------

 -----
 DPGEN
 -----
 Symbolic Z-matrix:
 Charge =  0 Multiplicity = 2

                         Standard orientation:
 ---------------------------------------------------------------------
 Center     Atomic      Atomic             Coordinates (Angstroms)
 Number     Number       Type             X           Y           Z
 ---------------------------------------------------------------------
      1         11           0       -1.279859   -2.193948   -0.721165
      2         11           0        4.151861    0.785989   -0.695352
      3         11           0       -1.778313    2.737410   -0.366521
      4         11           0       -4.003251   -0.211112   -0.865084
      5         11           0        1.645042    1.291986    0.680371
      6         11           0       -1.531535   -0.592849    2.027017
      7         11           0        2.796055   -1.817476   -0.059266
 ---------------------------------------------------------------------

 SCF Done:  E(UB3LYP) =  -1136.11307450     A.U. after   24 cycles

 The electronic state is 2-A.
 Alpha  occ. eigenvalues --  -38.44811 -38.44773 -38.44772 -38.44203 -38.43842
 Alpha  occ. eigenvalues --  -38.43535 -38.43510  -2.20688  -2.20638  -2.20612
 Alpha  occ. eigenvalues --   -2.20037  -2.19733  -2.19362  -2.19264  -1.14459
 Alpha  occ. eigenvalues --   -1.14393  -1.14317  -1.14310  -1.14288  -1.14277
 Alpha  occ. eigenvalues --   -1.14268  -1.14255  -1.14173  -1.13704  -1.13667
 Alpha  occ. eigenvalues --   -1.13653  -1.13418  -1.13402  -1.13349  -1.13047
 Alpha  occ. eigenvalues --   -1.13033  -1.12993  -1.12954  -1.12918  -1.12912
 Alpha  occ. eigenvalues --   -0.17380  -0.14925  -0.11144  -0.10789
 Alpha virt. eigenvalues --   -0.06502  -0.05926  -0.04752  -0.03403  -0.02681
 Alpha virt. eigenvalues --   -0.02499  -0.02134  -0.01417  -0.01114  -0.00718
 Alpha virt. eigenvalues --   -0.00103   0.00210   0.00330   0.00507   0.00625

  Beta  occ. eigenvalues --  -38.44769 -38.44759 -38.44743 -38.44123 -38.43822
  Beta  occ. eigenvalues --  -38.43531 -38.43511  -2.20635  -2.20607  -2.20544
  Beta  occ. eigenvalues --   -2.19887  -2.19699  -2.19357  -2.19268  -1.14434
  Beta  occ. eigenvalues --   -1.14356  -1.14289  -1.14263  -1.14256  -1.14254
  Beta  occ. eigenvalues --   -1.14203  -1.14190  -1.14148  -1.13600  -1.13570
  Beta  occ. eigenvalues --   -1.13548  -1.13391  -1.13363  -1.13322  -1.13042
  Beta  occ. eigenvalues --   -1.13034  -1.12965  -1.12959  -1.12924  -1.12895
  Beta  occ. eigenvalues --   -0.16795  -0.14393  -0.10991
  Beta virt. eigenvalues --   -0.07147  -0.06400  -0.05696  -0.04123  -0.03358
  Beta virt. eigenvalues --   -0.02419  -0.01940  -0.01435  -0.01256  -0.01013
  Beta virt. eigenvalues --   -0.00351  -0.00061   0.00308   0.00446   0.00632

 Mulliken charges and spin densities:
               1          2
     1  Na  -0.077701   0.006405
     2  Na   0.754715   0.193167
     3  Na   0.058220  -0.017783
     4  Na   0.156944   0.468584
     5  Na  -1.008553   0.039903
     6  Na   0.127792   0.285365
     7  Na  -0.011419   0.024360
 Sum of Mulliken charges =  -0.00000   1.00000

 Dipole moment (field-independent basis, Debye):
    X=              1.0956    Y=             -0.4272    Z=              0.1230  Tot=              1.1824
 Quadrupole moment (field-independent basis, Debye-Ang):
   XX=            -56.7349   YY=            -74.6359   ZZ=            -67.2434
   XY=              0.3424   XZ=             -4.1691   YZ=             -1.3927

 Normal termination of Gaussian 16 at Sun Dec  3 17:21:10 2023.
