 Gaussian 16, Revision B.01,
 Gaussian 16:  ES64L-G16RevB.01 20-Dec-2017

 -------------------------
 #P B3LYP/6-311+g(d) force
 -------------------------

 -----
 DPGEN
 -----
 Symbolic Z-matrix:
 Charge =  0 Multiplicity = 2

                         Standard orientation:
 ---------------------------------------------------------------------
 Center     Atomic      Atomic             Coordinates (Angstroms)
 Number     Number       Type             X           Y           Z
 ---------------------------------------------------------------------
      1         11           0        0.104756   -0.276581   -1.799638
      2         11           0        2.257597    1.905088   -0.293417
      3         11           0        0.099907    0.216219    1.837652
      4         11           0        2.670694   -1.624169    0.193160
      5         11           0       -0.804441   -2.777956    0.080917
      6         11           0       -3.305139   -0.186953   -0.086536
      7         11           0       -1.023374    2.744352    0.067862
 ---------------------------------------------------------------------

 SCF Done:  E(UB3LYP) =  -1136.14055391     A.U. after   19 cycles

 The electronic state is 2-A.
 Alpha  occ. eigenvalues --  -38.44099 -38.43770 -38.43561 -38.43530 -38.43413
 Alpha  occ. eigenvalues --  -38.43268 -38.43265  -2.19888  -2.19604  -2.19430
 Alpha  occ. eigenvalues --   -2.19382  -2.19268  -2.19208  -2.19203  -1.13564
 Alpha  occ. eigenvalues --   -1.13539  -1.13538  -1.13276  -1.13272  -1.13248
 Alpha  occ. eigenvalues --   -1.13120  -1.13100  -1.13093  -1.13067  -1.13056
 Alpha  occ. eigenvalues --   -1.12996  -1.12980  -1.12932  -1.12891  -1.12887
 Alpha  occ. eigenvalues --   -1.12862  -1.12833  -1.12822  -1.12815  -1.12815
 Alpha  occ. eigenvalues --   -0.18668  -0.12818  -0.12649  -0.10614
 Alpha virt. eigenvalues --   -0.05621  -0.05155  -0.04828  -0.03033  -0.02965
 Alpha virt. eigenvalues --   -0.02419  -0.01549  -0.01165  -0.00418  -0.00352
 Alpha virt. eigenvalues --    0.00000   0.00361   0.00814   0.00876   0.00890

  Beta  occ. eigenvalues --  -38.44100 -38.43764 -38.43551 -38.43524 -38.43408
  Beta  occ. eigenvalues --  -38.43189 -38.43187  -2.19891  -2.19597  -2.19416
  Beta  occ. eigenvalues --   -2.19375  -2.19263  -2.19067  -2.19056  -1.13554
  Beta  occ. eigenvalues --   -1.13542  -1.13539  -1.13270  -1.13250  -1.13241
  Beta  occ. eigenvalues --   -1.13110  -1.13081  -1.13063  -1.13060  -1.13029
  Beta  occ. eigenvalues --   -1.12994  -1.12960  -1.12908  -1.12891  -1.12799
  Beta  occ. eigenvalues --   -1.12766  -1.12734  -1.12720  -1.12715  -1.12710
  Beta  occ. eigenvalues --   -0.17931  -0.12594  -0.12402
  Beta virt. eigenvalues --   -0.06711  -0.05606  -0.05161  -0.04765  -0.02266
  Beta virt. eigenvalues --   -0.02176  -0.01483  -0.01364  -0.01084  -0.00468
  Beta virt. eigenvalues --   -0.00410   0.00131   0.00380   0.00850   0.00876

 Mulliken charges and spin densities:
               1          2
     1  Na  -0.222978   0.706653
     2  Na   0.196038  -0.036582
     3  Na  -0.252590   0.751508
     4  Na   0.157284  -0.071296
     5  Na   0.077455  -0.125923
     6  Na  -0.049281  -0.119594
     7  Na   0.094072  -0.104767
 Sum of Mulliken charges =  -0.00000   1.00000

 Dipole moment (field-independent basis, Debye):
    X=             -0.0719    Y=             -0.0957    Z=              0.0066  Tot=              0.1199
 Quadrupole moment (field-independent basis, Debye-Ang):
   XX=            -55.9507   YY=            -61.8067   ZZ=            -75.0055
   XY=             -0.4304   XZ=              0.0970   YZ=             -1.1853

 Normal termination of Gaussian 16 at Thu Dec  7 23:29:04 2023.
