 Gaussian 16, Revision B.01,
 Gaussian 16:  ES64L-G16RevB.01 20-Dec-2017

 -------------------------
 #P B3LYP/6-311+g(d) force
 -------------------------

 -----
 DPGEN
 -----
 Symbolic Z-matrix:
 Charge =  0 Multiplicity = 2

                         Standard orientation:
 ---------------------------------------------------------------------
 Center     Atomic      Atomic             Coordinates (Angstroms)
 Number     Number       Type             X           Y           Z
 ---------------------------------------------------------------------
      1         11           0        0.010039    1.626433    0.267123
      2         11           0        2.319120    3.676224    0.037568
      3         11           0        3.017589    0.172505   -0.887078
      4         11           0        0.495431   -1.261759    1.506471
      5         11           0       -2.465095   -1.033717    0.540549
      6         11           0        2.766041   -3.425549   -0.653736
      7         11           0       -6.143125    0.245863   -0.810897
 ---------------------------------------------------------------------

 SCF Done:  E(UB3LYP) =  -1136.11846895     A.U. after   21 cycles

 The electronic state is 2-A.
 Alpha  occ. eigenvalues --  -38.45303 -38.44250 -38.44084 -38.43935 -38.43835
 Alpha  occ. eigenvalues --  -38.43690 -38.43578  -2.21081  -2.20064  -2.19982
 Alpha  occ. eigenvalues --   -2.19762  -2.19748  -2.19462  -2.19393  -1.14709
 Alpha  occ. eigenvalues --   -1.14709  -1.14680  -1.13778  -1.13766  -1.13711
 Alpha  occ. eigenvalues --   -1.13670  -1.13636  -1.13573  -1.13501  -1.13448
 Alpha  occ. eigenvalues --   -1.13433  -1.13408  -1.13393  -1.13277  -1.13132
 Alpha  occ. eigenvalues --   -1.13123  -1.13084  -1.13071  -1.13061  -1.13039
 Alpha  occ. eigenvalues --   -0.17083  -0.13480  -0.12424  -0.11478
 Alpha virt. eigenvalues --   -0.05810  -0.05385  -0.05079  -0.03599  -0.02565
 Alpha virt. eigenvalues --   -0.02234  -0.01994  -0.01809  -0.01513  -0.00886
 Alpha virt. eigenvalues --   -0.00438  -0.00086   0.00325   0.00415   0.00552

  Beta  occ. eigenvalues --  -38.45157 -38.44237 -38.44054 -38.43932 -38.43823
  Beta  occ. eigenvalues --  -38.43675 -38.43584  -2.20808  -2.20039  -2.19930
  Beta  occ. eigenvalues --   -2.19756  -2.19731  -2.19435  -2.19411  -1.14524
  Beta  occ. eigenvalues --   -1.14523  -1.14497  -1.13761  -1.13750  -1.13675
  Beta  occ. eigenvalues --   -1.13635  -1.13615  -1.13530  -1.13494  -1.13433
  Beta  occ. eigenvalues --   -1.13423  -1.13403  -1.13386  -1.13262  -1.13114
  Beta  occ. eigenvalues --   -1.13103  -1.13089  -1.13077  -1.13067  -1.13010
  Beta  occ. eigenvalues --   -0.16781  -0.12739  -0.11981
  Beta virt. eigenvalues --   -0.07751  -0.05722  -0.05013  -0.04850  -0.03377
  Beta virt. eigenvalues --   -0.02159  -0.01977  -0.01721  -0.01455  -0.00988
  Beta virt. eigenvalues --   -0.00491  -0.00107   0.00022   0.00440   0.00505

 Mulliken charges and spin densities:
               1          2
     1  Na  -1.655600  -0.081578
     2  Na   1.058817   0.052497
     3  Na  -0.286822   0.145936
     4  Na   0.490982   0.237925
     5  Na   0.198281  -0.050131
     6  Na   0.135765   0.031500
     7  Na   0.058577   0.663850
 Sum of Mulliken charges =  -0.00000   1.00000

 Dipole moment (field-independent basis, Debye):
    X=              0.4066    Y=              0.4713    Z=             -0.0487  Tot=              0.6244
 Quadrupole moment (field-independent basis, Debye-Ang):
   XX=            -66.9215   YY=            -60.3553   ZZ=            -70.1501
   XY=              2.3326   XZ=              1.3351   YZ=              0.0514

 Normal termination of Gaussian 16 at Wed Nov 29 01:32:22 2023.
