 Gaussian 16, Revision B.01,
 Gaussian 16:  ES64L-G16RevB.01 20-Dec-2017

 -------------------------
 #P B3LYP/6-311+g(d) force
 -------------------------

 -----
 DPGEN
 -----
 Symbolic Z-matrix:
 Charge =  0 Multiplicity = 2

                         Standard orientation:
 ---------------------------------------------------------------------
 Center     Atomic      Atomic             Coordinates (Angstroms)
 Number     Number       Type             X           Y           Z
 ---------------------------------------------------------------------
      1         11           0        3.232781    0.371081    1.295867
      2         11           0        0.792390    0.250545   -0.407150
      3         11           0        1.208519   -2.460355   -1.488171
      4         11           0       -1.549181   -2.293812    0.129031
      5         11           0       -1.416667    0.164733    2.271988
      6         11           0       -2.457340    0.943321   -0.639172
      7         11           0        0.189498    3.024487   -1.162393
 ---------------------------------------------------------------------

 SCF Done:  E(UB3LYP) =  -1136.11886949     A.U. after   20 cycles

 The electronic state is 2-A.
 Alpha  occ. eigenvalues --  -38.44575 -38.44348 -38.43833 -38.43720 -38.43687
 Alpha  occ. eigenvalues --  -38.43230 -38.42286  -2.20387  -2.20240  -2.19689
 Alpha  occ. eigenvalues --   -2.19598  -2.19596  -2.19141  -2.18437  -1.14085
 Alpha  occ. eigenvalues --   -1.14014  -1.13996  -1.13908  -1.13882  -1.13851
 Alpha  occ. eigenvalues --   -1.13431  -1.13331  -1.13318  -1.13315  -1.13284
 Alpha  occ. eigenvalues --   -1.13269  -1.13238  -1.13203  -1.13196  -1.12822
 Alpha  occ. eigenvalues --   -1.12815  -1.12762  -1.12149  -1.12095  -1.12070
 Alpha  occ. eigenvalues --   -0.18562  -0.12755  -0.12589  -0.11342
 Alpha virt. eigenvalues --   -0.05420  -0.04828  -0.04588  -0.03526  -0.02977
 Alpha virt. eigenvalues --   -0.02499  -0.01284  -0.01033  -0.00553   0.00214
 Alpha virt. eigenvalues --    0.00317   0.00363   0.00609   0.00729   0.00834

  Beta  occ. eigenvalues --  -38.44523 -38.44276 -38.43809 -38.43689 -38.43679
  Beta  occ. eigenvalues --  -38.43225 -38.42269  -2.20291  -2.20106  -2.19647
  Beta  occ. eigenvalues --   -2.19586  -2.19539  -2.19136  -2.18415  -1.14021
  Beta  occ. eigenvalues --   -1.13944  -1.13932  -1.13821  -1.13791  -1.13757
  Beta  occ. eigenvalues --   -1.13403  -1.13298  -1.13293  -1.13282  -1.13269
  Beta  occ. eigenvalues --   -1.13248  -1.13202  -1.13173  -1.13157  -1.12819
  Beta  occ. eigenvalues --   -1.12804  -1.12739  -1.12094  -1.12070  -1.12058
  Beta  occ. eigenvalues --   -0.17921  -0.12413  -0.12161
  Beta virt. eigenvalues --   -0.07752  -0.04984  -0.04691  -0.04332  -0.03109
  Beta virt. eigenvalues --   -0.02515  -0.01752  -0.01132  -0.00917  -0.00244
  Beta virt. eigenvalues --    0.00293   0.00385   0.00420   0.00777   0.00828

 Mulliken charges and spin densities:
               1          2
     1  Na   0.130490   0.326423
     2  Na  -1.050021   0.247875
     3  Na   0.675738  -0.021380
     4  Na   0.065450   0.247081
     5  Na  -0.079137   0.430001
     6  Na   0.501249  -0.220019
     7  Na  -0.243769  -0.009981
 Sum of Mulliken charges =  -0.00000   1.00000

 Dipole moment (field-independent basis, Debye):
    X=             -0.0949    Y=              0.1798    Z=              0.4543  Tot=              0.4977
 Quadrupole moment (field-independent basis, Debye-Ang):
   XX=            -61.9032   YY=            -64.7017   ZZ=            -65.8648
   XY=              0.1327   XZ=              2.2063   YZ=              0.6196

 Normal termination of Gaussian 16 at Fri Dec  8 03:44:40 2023.
