 Gaussian 16, Revision B.01,
 Gaussian 16:  ES64L-G16RevB.01 20-Dec-2017

 -------------------------
 #P B3LYP/6-311+g(d) force
 -------------------------

 -----
 DPGEN
 -----
 Symbolic Z-matrix:
 Charge =  0 Multiplicity = 2

                         Standard orientation:
 ---------------------------------------------------------------------
 Center     Atomic      Atomic             Coordinates (Angstroms)
 Number     Number       Type             X           Y           Z
 ---------------------------------------------------------------------
      1         11           0        1.758921   -2.413917   -0.220156
      2         11           0        0.389688    0.063995    2.227373
      3         11           0        0.407522    2.961658   -0.009475
      4         11           0       -1.841699   -2.132174    0.334458
      5         11           0        2.885529    0.703675   -0.341956
      6         11           0       -3.070685    0.988031   -0.028497
      7         11           0       -0.529277   -0.171268   -1.961748
 ---------------------------------------------------------------------

 SCF Done:  E(UB3LYP) =  -1136.13836038     A.U. after   18 cycles

 The electronic state is 2-A.
 Alpha  occ. eigenvalues --  -38.44143 -38.44019 -38.43893 -38.43745 -38.43537
 Alpha  occ. eigenvalues --  -38.43296 -38.43251  -2.19994  -2.19834  -2.19788
 Alpha  occ. eigenvalues --   -2.19596  -2.19403  -2.19111  -2.19093  -1.13652
 Alpha  occ. eigenvalues --   -1.13625  -1.13616  -1.13529  -1.13504  -1.13474
 Alpha  occ. eigenvalues --   -1.13461  -1.13426  -1.13399  -1.13266  -1.13262
 Alpha  occ. eigenvalues --   -1.13248  -1.13080  -1.13072  -1.13025  -1.12785
 Alpha  occ. eigenvalues --   -1.12779  -1.12763  -1.12752  -1.12749  -1.12737
 Alpha  occ. eigenvalues --   -0.18366  -0.13023  -0.12181  -0.11189
 Alpha virt. eigenvalues --   -0.05564  -0.05043  -0.04669  -0.03533  -0.03029
 Alpha virt. eigenvalues --   -0.03018  -0.01364  -0.00950  -0.00321  -0.00221
 Alpha virt. eigenvalues --   -0.00107   0.00398   0.00771   0.00833   0.00894

  Beta  occ. eigenvalues --  -38.44049 -38.44019 -38.43824 -38.43739 -38.43528
  Beta  occ. eigenvalues --  -38.43295 -38.43247  -2.19836  -2.19819  -2.19662
  Beta  occ. eigenvalues --   -2.19588  -2.19390  -2.19111  -2.19088  -1.13538
  Beta  occ. eigenvalues --   -1.13516  -1.13503  -1.13493  -1.13488  -1.13476
  Beta  occ. eigenvalues --   -1.13385  -1.13338  -1.13310  -1.13262  -1.13250
  Beta  occ. eigenvalues --   -1.13230  -1.13072  -1.13036  -1.13019  -1.12782
  Beta  occ. eigenvalues --   -1.12766  -1.12760  -1.12750  -1.12739  -1.12726
  Beta  occ. eigenvalues --   -0.17604  -0.12832  -0.11978
  Beta virt. eigenvalues --   -0.07271  -0.05510  -0.05009  -0.04534  -0.02765
  Beta virt. eigenvalues --   -0.02265  -0.02006  -0.01276  -0.00877  -0.00365
  Beta virt. eigenvalues --   -0.00273   0.00063   0.00424   0.00870   0.00906

 Mulliken charges and spin densities:
               1          2
     1  Na   0.174186  -0.028530
     2  Na  -0.467831   0.663751
     3  Na   0.034819  -0.099606
     4  Na   0.206404   0.030468
     5  Na   0.129418  -0.014645
     6  Na   0.175761  -0.100707
     7  Na  -0.252757   0.549269
 Sum of Mulliken charges =  -0.00000   1.00000

 Dipole moment (field-independent basis, Debye):
    X=             -0.2534    Y=              0.0587    Z=              0.0710  Tot=              0.2696
 Quadrupole moment (field-independent basis, Debye-Ang):
   XX=            -59.6473   YY=            -65.3625   ZZ=            -70.7905
   XY=             -0.9296   XZ=             -1.6061   YZ=             -0.4119

 Normal termination of Gaussian 16 at Tue Dec  5 23:30:41 2023.
