 Gaussian 16, Revision B.01,
 Gaussian 16:  ES64L-G16RevB.01 20-Dec-2017

 -------------------------
 #P B3LYP/6-311+g(d) force
 -------------------------

 -----
 DPGEN
 -----
 Symbolic Z-matrix:
 Charge =  0 Multiplicity = 2

                         Standard orientation:
 ---------------------------------------------------------------------
 Center     Atomic      Atomic             Coordinates (Angstroms)
 Number     Number       Type             X           Y           Z
 ---------------------------------------------------------------------
      1         11           0        2.889138    1.162548    0.101264
      2         11           0       -0.322009    3.002988   -0.464766
      3         11           0       -3.121671   -0.965751   -0.664015
      4         11           0        5.463928   -0.929747   -0.270816
      5         11           0       -6.255387   -0.620048    0.014111
      6         11           0       -0.715804    0.289148    1.294238
      7         11           0        2.061804   -1.939138   -0.010016
 ---------------------------------------------------------------------

 SCF Done:  E(UB3LYP) =  -1136.11874052     A.U. after   20 cycles

 The electronic state is 2-A.
 Alpha  occ. eigenvalues --  -38.44669 -38.44432 -38.44382 -38.44091 -38.43971
 Alpha  occ. eigenvalues --  -38.43770 -38.43591  -2.20511  -2.20294  -2.20190
 Alpha  occ. eigenvalues --   -2.19951  -2.19786  -2.19553  -2.19401  -1.14226
 Alpha  occ. eigenvalues --   -1.14185  -1.14096  -1.13994  -1.13987  -1.13905
 Alpha  occ. eigenvalues --   -1.13851  -1.13840  -1.13791  -1.13648  -1.13614
 Alpha  occ. eigenvalues --   -1.13592  -1.13443  -1.13427  -1.13401  -1.13219
 Alpha  occ. eigenvalues --   -1.13206  -1.13204  -1.13086  -1.13066  -1.13014
 Alpha  occ. eigenvalues --   -0.17043  -0.13944  -0.12068  -0.10752
 Alpha virt. eigenvalues --   -0.06368  -0.05538  -0.04982  -0.03241  -0.02956
 Alpha virt. eigenvalues --   -0.02421  -0.02061  -0.01435  -0.01072  -0.00879
 Alpha virt. eigenvalues --   -0.00313  -0.00015   0.00084   0.00400   0.00581

  Beta  occ. eigenvalues --  -38.44614 -38.44410 -38.44366 -38.44068 -38.43931
  Beta  occ. eigenvalues --  -38.43742 -38.43595  -2.20410  -2.20255  -2.20162
  Beta  occ. eigenvalues --   -2.19912  -2.19710  -2.19500  -2.19412  -1.14164
  Beta  occ. eigenvalues --   -1.14117  -1.14009  -1.13970  -1.13941  -1.13875
  Beta  occ. eigenvalues --   -1.13832  -1.13814  -1.13772  -1.13628  -1.13575
  Beta  occ. eigenvalues --   -1.13550  -1.13391  -1.13373  -1.13353  -1.13188
  Beta  occ. eigenvalues --   -1.13170  -1.13168  -1.13093  -1.13076  -1.12998
  Beta  occ. eigenvalues --   -0.16411  -0.13795  -0.11633
  Beta virt. eigenvalues --   -0.07317  -0.06057  -0.05063  -0.04684  -0.03006
  Beta virt. eigenvalues --   -0.02622  -0.02280  -0.01684  -0.01241  -0.00825
  Beta virt. eigenvalues --   -0.00496  -0.00095   0.00131   0.00266   0.00502

 Mulliken charges and spin densities:
               1          2
     1  Na  -0.618485   0.234601
     2  Na   0.187212   0.156972
     3  Na  -0.410809  -0.068552
     4  Na   0.783164   0.130218
     5  Na   0.344112   0.148286
     6  Na   0.018310   0.257396
     7  Na  -0.303505   0.141079
 Sum of Mulliken charges =  -0.00000   1.00000

 Dipole moment (field-independent basis, Debye):
    X=              1.7319    Y=              0.0238    Z=             -0.0290  Tot=              1.7323
 Quadrupole moment (field-independent basis, Debye-Ang):
   XX=            -57.3194   YY=            -69.2752   ZZ=            -69.6025
   XY=             -7.3066   XZ=             -2.4871   YZ=              0.1993

 Normal termination of Gaussian 16 at Tue Nov 28 23:23:13 2023.
