 Gaussian 16, Revision B.01,
 Gaussian 16:  ES64L-G16RevB.01 20-Dec-2017

 -------------------------
 #P B3LYP/6-311+g(d) force
 -------------------------

 -----
 DPGEN
 -----
 Symbolic Z-matrix:
 Charge =  0 Multiplicity = 2

                         Standard orientation:
 ---------------------------------------------------------------------
 Center     Atomic      Atomic             Coordinates (Angstroms)
 Number     Number       Type             X           Y           Z
 ---------------------------------------------------------------------
      1         11           0       -0.803228    1.290338    2.094958
      2         11           0       -3.400777   -0.866685   -0.713742
      3         11           0        4.510943   -0.103821   -0.516883
      4         11           0       -1.157935   -2.306579    0.781971
      5         11           0       -1.524612    2.339184   -0.659922
      6         11           0        2.107573   -0.246088    0.951769
      7         11           0        0.268036   -0.106349   -1.938150
 ---------------------------------------------------------------------

 SCF Done:  E(UB3LYP) =  -1136.11236843     A.U. after   25 cycles

 The electronic state is 2-A.
 Alpha  occ. eigenvalues --  -38.45600 -38.45329 -38.44605 -38.43855 -38.43486
 Alpha  occ. eigenvalues --  -38.43117 -38.42876  -2.21432  -2.21150  -2.20433
 Alpha  occ. eigenvalues --   -2.19780  -2.19372  -2.18980  -2.18768  -1.15123
 Alpha  occ. eigenvalues --   -1.15089  -1.15030  -1.14909  -1.14779  -1.14766
 Alpha  occ. eigenvalues --   -1.14126  -1.14083  -1.14066  -1.13470  -1.13439
 Alpha  occ. eigenvalues --   -1.13398  -1.13053  -1.13025  -1.12997  -1.12653
 Alpha  occ. eigenvalues --   -1.12633  -1.12613  -1.12437  -1.12424  -1.12399
 Alpha  occ. eigenvalues --   -0.18327  -0.13792  -0.11796  -0.11219
 Alpha virt. eigenvalues --   -0.07440  -0.04465  -0.03912  -0.03338  -0.03232
 Alpha virt. eigenvalues --   -0.03027  -0.02581  -0.01164  -0.00786  -0.00052
 Alpha virt. eigenvalues --   -0.00014   0.00155   0.00179   0.00788   0.00899

  Beta  occ. eigenvalues --  -38.45540 -38.45325 -38.44597 -38.43832 -38.43429
  Beta  occ. eigenvalues --  -38.43090 -38.42862  -2.21324  -2.21143  -2.20420
  Beta  occ. eigenvalues --   -2.19743  -2.19267  -2.18931  -2.18743  -1.15051
  Beta  occ. eigenvalues --   -1.15002  -1.14952  -1.14907  -1.14773  -1.14757
  Beta  occ. eigenvalues --   -1.14113  -1.14076  -1.14049  -1.13442  -1.13389
  Beta  occ. eigenvalues --   -1.13371  -1.12989  -1.12949  -1.12916  -1.12624
  Beta  occ. eigenvalues --   -1.12604  -1.12559  -1.12414  -1.12409  -1.12366
  Beta  occ. eigenvalues --   -0.17501  -0.13647  -0.11114
  Beta virt. eigenvalues --   -0.07773  -0.07211  -0.04004  -0.03580  -0.03158
  Beta virt. eigenvalues --   -0.02874  -0.02542  -0.01939  -0.00848  -0.00694
  Beta virt. eigenvalues --   -0.00009   0.00066   0.00249   0.00293   0.00865

 Mulliken charges and spin densities:
               1          2
     1  Na   0.073230   0.173928
     2  Na   0.073814  -0.080069
     3  Na   0.587342   0.065404
     4  Na   0.024677   0.269631
     5  Na   0.101111   0.098662
     6  Na  -0.664996   0.072943
     7  Na  -0.195177   0.399501
 Sum of Mulliken charges =  -0.00000   1.00000

 Dipole moment (field-independent basis, Debye):
    X=              0.8274    Y=              0.1135    Z=             -0.7363  Tot=              1.1134
 Quadrupole moment (field-independent basis, Debye-Ang):
   XX=            -49.7477   YY=            -79.2529   ZZ=            -66.5726
   XY=             -2.5152   XZ=             -1.6151   YZ=             -2.0340

 Normal termination of Gaussian 16 at Mon Dec  4 04:19:21 2023.
