 Gaussian 16, Revision B.01,
 Gaussian 16:  ES64L-G16RevB.01 20-Dec-2017

 -------------------------
 #P B3LYP/6-311+g(d) force
 -------------------------

 -----
 DPGEN
 -----
 Symbolic Z-matrix:
 Charge =  0 Multiplicity = 2

                         Standard orientation:
 ---------------------------------------------------------------------
 Center     Atomic      Atomic             Coordinates (Angstroms)
 Number     Number       Type             X           Y           Z
 ---------------------------------------------------------------------
      1         11           0        1.351719   -2.327071   -0.801971
      2         11           0       -3.831543   -0.285697    1.109289
      3         11           0        3.971172   -0.425518    0.225012
      4         11           0       -2.096672   -1.332825   -1.152886
      5         11           0        0.337438   -0.367896    1.669284
      6         11           0       -1.655144    2.247771   -0.971725
      7         11           0        1.923030    2.491237   -0.077004
 ---------------------------------------------------------------------

 SCF Done:  E(UB3LYP) =  -1136.11908092     A.U. after   25 cycles

 The electronic state is 2-A.
 Alpha  occ. eigenvalues --  -38.46182 -38.45136 -38.44095 -38.43910 -38.43775
 Alpha  occ. eigenvalues --  -38.43294 -38.43148  -2.21970  -2.20937  -2.19948
 Alpha  occ. eigenvalues --   -2.19789  -2.19569  -2.19080  -2.19002  -1.15676
 Alpha  occ. eigenvalues --   -1.15629  -1.15585  -1.14617  -1.14578  -1.14567
 Alpha  occ. eigenvalues --   -1.13690  -1.13579  -1.13566  -1.13454  -1.13435
 Alpha  occ. eigenvalues --   -1.13400  -1.13246  -1.13226  -1.13188  -1.12770
 Alpha  occ. eigenvalues --   -1.12755  -1.12715  -1.12688  -1.12661  -1.12627
 Alpha  occ. eigenvalues --   -0.17641  -0.14234  -0.11741  -0.10197
 Alpha virt. eigenvalues --   -0.07358  -0.05646  -0.04646  -0.03435  -0.03046
 Alpha virt. eigenvalues --   -0.02414  -0.01885  -0.01411  -0.00933  -0.00525
 Alpha virt. eigenvalues --   -0.00123  -0.00029   0.00265   0.00514   0.00676

  Beta  occ. eigenvalues --  -38.46175 -38.45117 -38.44023 -38.43885 -38.43738
  Beta  occ. eigenvalues --  -38.43302 -38.43121  -2.21956  -2.20902  -2.19814
  Beta  occ. eigenvalues --   -2.19749  -2.19503  -2.19098  -2.18955  -1.15652
  Beta  occ. eigenvalues --   -1.15629  -1.15574  -1.14590  -1.14559  -1.14543
  Beta  occ. eigenvalues --   -1.13610  -1.13486  -1.13476  -1.13417  -1.13405
  Beta  occ. eigenvalues --   -1.13336  -1.13191  -1.13183  -1.13143  -1.12785
  Beta  occ. eigenvalues --   -1.12770  -1.12709  -1.12658  -1.12631  -1.12577
  Beta  occ. eigenvalues --   -0.17172  -0.13866  -0.11375
  Beta virt. eigenvalues --   -0.07154  -0.06768  -0.05556  -0.03988  -0.03258
  Beta virt. eigenvalues --   -0.02746  -0.02044  -0.01397  -0.01244  -0.00628
  Beta virt. eigenvalues --   -0.00301  -0.00072   0.00101   0.00460   0.00686

 Mulliken charges and spin densities:
               1          2
     1  Na  -0.107387   0.143243
     2  Na   0.359706   0.431829
     3  Na   0.500823   0.124090
     4  Na   0.087423   0.189472
     5  Na  -0.513755  -0.034000
     6  Na  -0.188220   0.138228
     7  Na  -0.138589   0.007137
 Sum of Mulliken charges =  -0.00000   1.00000

 Dipole moment (field-independent basis, Debye):
    X=              0.9156    Y=             -0.2460    Z=              0.1291  Tot=              0.9568
 Quadrupole moment (field-independent basis, Debye-Ang):
   XX=            -54.3673   YY=            -76.1262   ZZ=            -69.2375
   XY=             -2.5132   XZ=              1.0500   YZ=              0.5012

 Normal termination of Gaussian 16 at Mon Dec  4 02:24:20 2023.
