 Gaussian 16, Revision B.01,
 Gaussian 16:  ES64L-G16RevB.01 20-Dec-2017

 -------------------------
 #P B3LYP/6-311+g(d) force
 -------------------------

 -----
 DPGEN
 -----
 Symbolic Z-matrix:
 Charge =  0 Multiplicity = 2

                         Standard orientation:
 ---------------------------------------------------------------------
 Center     Atomic      Atomic             Coordinates (Angstroms)
 Number     Number       Type             X           Y           Z
 ---------------------------------------------------------------------
      1         11           0        0.626847   -1.840507    0.679314
      2         11           0        0.353342    0.262738   -1.625783
      3         11           0        3.080176   -0.298701   -0.456573
      4         11           0        1.184280    1.504058    1.025753
      5         11           0       -1.340684   -0.014075    1.675800
      6         11           0       -1.652758    1.756048   -0.561982
      7         11           0       -2.251202   -1.369561   -0.736529
 ---------------------------------------------------------------------

 SCF Done:  E(UB3LYP) =  -1136.10222788     A.U. after   22 cycles

 The electronic state is 2-A.
 Alpha  occ. eigenvalues --  -38.44289 -38.44137 -38.43961 -38.43587 -38.43218
 Alpha  occ. eigenvalues --  -38.43212 -38.42701  -2.20308  -2.20248  -2.20161
 Alpha  occ. eigenvalues --   -2.19598  -2.19302  -2.19291  -2.18770  -1.14075
 Alpha  occ. eigenvalues --   -1.14046  -1.14025  -1.13957  -1.13947  -1.13903
 Alpha  occ. eigenvalues --   -1.13874  -1.13780  -1.13743  -1.13277  -1.13252
 Alpha  occ. eigenvalues --   -1.13204  -1.13008  -1.12964  -1.12947  -1.12941
 Alpha  occ. eigenvalues --   -1.12891  -1.12820  -1.12494  -1.12432  -1.12348
 Alpha  occ. eigenvalues --   -0.20933  -0.14141  -0.12416  -0.11891
 Alpha virt. eigenvalues --   -0.05728  -0.04274  -0.04047  -0.03559  -0.02902
 Alpha virt. eigenvalues --   -0.02813  -0.01438  -0.00494  -0.00261   0.00310
 Alpha virt. eigenvalues --    0.00596   0.00755   0.00935   0.01019   0.01075

  Beta  occ. eigenvalues --  -38.44283 -38.44063 -38.43888 -38.43566 -38.43201
  Beta  occ. eigenvalues --  -38.43175 -38.42679  -2.20238  -2.20177  -2.20031
  Beta  occ. eigenvalues --   -2.19565  -2.19276  -2.19228  -2.18737  -1.14018
  Beta  occ. eigenvalues --   -1.13980  -1.13920  -1.13914  -1.13873  -1.13857
  Beta  occ. eigenvalues --   -1.13842  -1.13701  -1.13650  -1.13255  -1.13210
  Beta  occ. eigenvalues --   -1.13170  -1.12971  -1.12936  -1.12901  -1.12870
  Beta  occ. eigenvalues --   -1.12848  -1.12785  -1.12469  -1.12372  -1.12327
  Beta  occ. eigenvalues --   -0.20097  -0.13895  -0.11632
  Beta virt. eigenvalues --   -0.08080  -0.05637  -0.04184  -0.03458  -0.03234
  Beta virt. eigenvalues --   -0.02115  -0.01831  -0.01363  -0.00406  -0.00062
  Beta virt. eigenvalues --    0.00341   0.00657   0.00774   0.01026   0.01053

 Mulliken charges and spin densities:
               1          2
     1  Na  -0.746631   0.104009
     2  Na  -0.105500   0.452250
     3  Na   0.801328  -0.017812
     4  Na  -0.656596   0.115567
     5  Na   0.742074   0.363345
     6  Na   0.063423  -0.014221
     7  Na  -0.098098  -0.003138
 Sum of Mulliken charges =  -0.00000   1.00000

 Dipole moment (field-independent basis, Debye):
    X=              0.3536    Y=             -0.0986    Z=             -0.1445  Tot=              0.3945
 Quadrupole moment (field-independent basis, Debye-Ang):
   XX=            -55.0177   YY=            -74.3409   ZZ=            -66.3426
   XY=              0.0493   XZ=              0.6413   YZ=              1.6748

 Normal termination of Gaussian 16 at Sat Dec  9 05:41:42 2023.
