 Gaussian 16, Revision B.01,
 Gaussian 16:  ES64L-G16RevB.01 20-Dec-2017

 -------------------------
 #P B3LYP/6-311+g(d) force
 -------------------------

 -----
 DPGEN
 -----
 Symbolic Z-matrix:
 Charge =  0 Multiplicity = 2

                         Standard orientation:
 ---------------------------------------------------------------------
 Center     Atomic      Atomic             Coordinates (Angstroms)
 Number     Number       Type             X           Y           Z
 ---------------------------------------------------------------------
      1         11           0        3.024824   -0.016537    0.545035
      2         11           0       -0.706827    1.111602   -2.062365
      3         11           0       -1.238677    0.904983    2.177508
      4         11           0        1.589346   -1.835306   -1.406627
      5         11           0       -0.312125   -2.533603    1.182591
      6         11           0        0.961715    2.790518    0.174852
      7         11           0       -3.318256   -0.421657   -0.610994
 ---------------------------------------------------------------------

 SCF Done:  E(UB3LYP) =  -1136.12546660     A.U. after   19 cycles

 The electronic state is 2-A.
 Alpha  occ. eigenvalues --  -38.44575 -38.44430 -38.44353 -38.44228 -38.43942
 Alpha  occ. eigenvalues --  -38.43695 -38.42978  -2.20390  -2.20255  -2.20135
 Alpha  occ. eigenvalues --   -2.20086  -2.19742  -2.19568  -2.18821  -1.14058
 Alpha  occ. eigenvalues --   -1.14027  -1.14009  -1.13976  -1.13911  -1.13879
 Alpha  occ. eigenvalues --   -1.13836  -1.13794  -1.13769  -1.13737  -1.13732
 Alpha  occ. eigenvalues --   -1.13702  -1.13432  -1.13421  -1.13359  -1.13231
 Alpha  occ. eigenvalues --   -1.13211  -1.13190  -1.12501  -1.12486  -1.12459
 Alpha  occ. eigenvalues --   -0.17799  -0.12814  -0.12072  -0.11810
 Alpha virt. eigenvalues --   -0.05993  -0.05009  -0.04175  -0.03820  -0.03638
 Alpha virt. eigenvalues --   -0.03313  -0.01421  -0.00619  -0.00491   0.00041
 Alpha virt. eigenvalues --    0.00086   0.00229   0.00462   0.00655   0.00719

  Beta  occ. eigenvalues --  -38.44504 -38.44429 -38.44346 -38.44156 -38.43923
  Beta  occ. eigenvalues --  -38.43677 -38.42974  -2.20258  -2.20254  -2.20125
  Beta  occ. eigenvalues --   -2.19954  -2.19708  -2.19534  -2.18816  -1.13970
  Beta  occ. eigenvalues --   -1.13965  -1.13939  -1.13914  -1.13905  -1.13881
  Beta  occ. eigenvalues --   -1.13809  -1.13787  -1.13756  -1.13647  -1.13639
  Beta  occ. eigenvalues --   -1.13616  -1.13407  -1.13388  -1.13340  -1.13210
  Beta  occ. eigenvalues --   -1.13185  -1.13160  -1.12495  -1.12468  -1.12457
  Beta  occ. eigenvalues --   -0.17066  -0.12609  -0.11905
  Beta virt. eigenvalues --   -0.07956  -0.05871  -0.04628  -0.03824  -0.03466
  Beta virt. eigenvalues --   -0.03011  -0.02470  -0.01352  -0.00601  -0.00187
  Beta virt. eigenvalues --    0.00071   0.00158   0.00375   0.00517   0.00758

 Mulliken charges and spin densities:
               1          2
     1  Na   0.081941  -0.016008
     2  Na   0.004218   0.267421
     3  Na  -0.200604   0.475983
     4  Na   0.087828   0.127254
     5  Na  -0.098039   0.043006
     6  Na  -0.002081   0.142710
     7  Na   0.126736  -0.040365
 Sum of Mulliken charges =  -0.00000   1.00000

 Dipole moment (field-independent basis, Debye):
    X=             -0.2498    Y=             -0.2169    Z=              0.2422  Tot=              0.4100
 Quadrupole moment (field-independent basis, Debye-Ang):
   XX=            -62.0920   YY=            -71.0992   ZZ=            -65.1475
   XY=              1.2519   XZ=              1.1988   YZ=              0.9502

 Normal termination of Gaussian 16 at Sun Dec  3 16:40:34 2023.
