 Gaussian 16, Revision B.01,
 Gaussian 16:  ES64L-G16RevB.01 20-Dec-2017

 -------------------------
 #P B3LYP/6-311+g(d) force
 -------------------------

 -----
 DPGEN
 -----
 Symbolic Z-matrix:
 Charge =  0 Multiplicity = 2

                         Standard orientation:
 ---------------------------------------------------------------------
 Center     Atomic      Atomic             Coordinates (Angstroms)
 Number     Number       Type             X           Y           Z
 ---------------------------------------------------------------------
      1         11           0       -1.335815    0.871325   -1.513169
      2         11           0       -1.316398   -1.986611   -0.157355
      3         11           0       -3.817945   -0.003027    0.086499
      4         11           0       -1.236583    0.721081    1.604055
      5         11           0        3.730195   -1.816033    0.058388
      6         11           0        1.281202   -0.167960   -0.055794
      7         11           0        2.695344    2.381226   -0.022623
 ---------------------------------------------------------------------

 SCF Done:  E(UB3LYP) =  -1136.09208644     A.U. after   32 cycles

 The electronic state is 2-A.
 Alpha  occ. eigenvalues --  -38.45734 -38.44688 -38.44617 -38.44540 -38.43886
 Alpha  occ. eigenvalues --  -38.43702 -38.42724  -2.21670  -2.20677  -2.20410
 Alpha  occ. eigenvalues --   -2.20338  -2.19852  -2.19735  -2.18856  -1.15359
 Alpha  occ. eigenvalues --   -1.15328  -1.15305  -1.14403  -1.14340  -1.14256
 Alpha  occ. eigenvalues --   -1.14128  -1.14079  -1.14060  -1.14032  -1.13992
 Alpha  occ. eigenvalues --   -1.13948  -1.13603  -1.13517  -1.13468  -1.13419
 Alpha  occ. eigenvalues --   -1.13381  -1.13295  -1.12608  -1.12507  -1.12438
 Alpha  occ. eigenvalues --   -0.19628  -0.14498  -0.10918  -0.10626
 Alpha virt. eigenvalues --   -0.07874  -0.06124  -0.03514  -0.03266  -0.02944
 Alpha virt. eigenvalues --   -0.01905  -0.01744  -0.01572  -0.00755  -0.00446
 Alpha virt. eigenvalues --   -0.00158   0.00177   0.00479   0.00525   0.00601

  Beta  occ. eigenvalues --  -38.45703 -38.44630 -38.44618 -38.44553 -38.43856
  Beta  occ. eigenvalues --  -38.43625 -38.42706  -2.21619  -2.20573  -2.20413
  Beta  occ. eigenvalues --   -2.20364  -2.19802  -2.19597  -2.18829  -1.15332
  Beta  occ. eigenvalues --   -1.15276  -1.15238  -1.14326  -1.14270  -1.14164
  Beta  occ. eigenvalues --   -1.14131  -1.14097  -1.14061  -1.14034  -1.14007
  Beta  occ. eigenvalues --   -1.13963  -1.13565  -1.13456  -1.13414  -1.13325
  Beta  occ. eigenvalues --   -1.13290  -1.13183  -1.12596  -1.12442  -1.12426
  Beta  occ. eigenvalues --   -0.18798  -0.14281  -0.10743
  Beta virt. eigenvalues --   -0.07659  -0.06540  -0.06021  -0.03193  -0.02910
  Beta virt. eigenvalues --   -0.02827  -0.01633  -0.01160  -0.01115  -0.00517
  Beta virt. eigenvalues --   -0.00111  -0.00058   0.00202   0.00561   0.00626

 Mulliken charges and spin densities:
               1          2
     1  Na  -0.422959   0.154121
     2  Na  -0.039248   0.242518
     3  Na   1.169587   0.276927
     4  Na  -0.323975   0.261417
     5  Na   1.006478  -0.038528
     6  Na  -2.293334   0.233275
     7  Na   0.903451  -0.129730
 Sum of Mulliken charges =  -0.00000   1.00000

 Dipole moment (field-independent basis, Debye):
    X=             -0.7509    Y=              0.4286    Z=             -0.5415  Tot=              1.0202
 Quadrupole moment (field-independent basis, Debye-Ang):
   XX=            -44.5459   YY=            -73.1317   ZZ=            -73.6813
   XY=              2.7017   XZ=              3.1850   YZ=             -1.0042

 Normal termination of Gaussian 16 at Thu Dec  7 02:04:14 2023.
