 Gaussian 16, Revision B.01,
 Gaussian 16:  ES64L-G16RevB.01 20-Dec-2017

 -------------------------
 #P B3LYP/6-311+g(d) force
 -------------------------

 -----
 DPGEN
 -----
 Symbolic Z-matrix:
 Charge =  0 Multiplicity = 2

                         Standard orientation:
 ---------------------------------------------------------------------
 Center     Atomic      Atomic             Coordinates (Angstroms)
 Number     Number       Type             X           Y           Z
 ---------------------------------------------------------------------
      1         11           0        1.338655    3.067422   -0.016342
      2         11           0       -0.246800    0.027345    2.019827
      3         11           0       -2.597646    1.572303   -0.119310
      4         11           0       -2.551754   -1.458481   -0.230980
      5         11           0        0.020229   -0.130693   -1.639328
      6         11           0        3.023701   -0.305670   -0.165040
      7         11           0        1.013615   -2.772227    0.151174
 ---------------------------------------------------------------------

 SCF Done:  E(UB3LYP) =  -1136.13504581     A.U. after   19 cycles

 The electronic state is 2-A.
 Alpha  occ. eigenvalues --  -38.44055 -38.44048 -38.43689 -38.43649 -38.43564
 Alpha  occ. eigenvalues --  -38.43270 -38.43262  -2.19926  -2.19899  -2.19601
 Alpha  occ. eigenvalues --   -2.19455  -2.19415  -2.19248  -2.19140  -1.13652
 Alpha  occ. eigenvalues --   -1.13592  -1.13585  -1.13567  -1.13565  -1.13528
 Alpha  occ. eigenvalues --   -1.13291  -1.13247  -1.13225  -1.13125  -1.13093
 Alpha  occ. eigenvalues --   -1.13081  -1.13074  -1.13067  -1.13060  -1.12939
 Alpha  occ. eigenvalues --   -1.12890  -1.12874  -1.12802  -1.12789  -1.12779
 Alpha  occ. eigenvalues --   -0.18727  -0.13358  -0.12166  -0.10724
 Alpha virt. eigenvalues --   -0.05685  -0.05188  -0.04805  -0.03332  -0.02707
 Alpha virt. eigenvalues --   -0.02524  -0.01492  -0.01199  -0.00475  -0.00340
 Alpha virt. eigenvalues --   -0.00005   0.00358   0.00794   0.00853   0.00884

  Beta  occ. eigenvalues --  -38.44049 -38.44044 -38.43678 -38.43653 -38.43468
  Beta  occ. eigenvalues --  -38.43256 -38.43206  -2.19918  -2.19894  -2.19586
  Beta  occ. eigenvalues --   -2.19423  -2.19278  -2.19133  -2.19131  -1.13651
  Beta  occ. eigenvalues --   -1.13587  -1.13566  -1.13547  -1.13547  -1.13528
  Beta  occ. eigenvalues --   -1.13276  -1.13225  -1.13200  -1.13087  -1.13073
  Beta  occ. eigenvalues --   -1.13072  -1.13010  -1.12956  -1.12942  -1.12869
  Beta  occ. eigenvalues --   -1.12823  -1.12791  -1.12786  -1.12766  -1.12746
  Beta  occ. eigenvalues --   -0.17977  -0.13106  -0.11969
  Beta virt. eigenvalues --   -0.06779  -0.05664  -0.05140  -0.04789  -0.02500
  Beta virt. eigenvalues --   -0.01991  -0.01495  -0.01385  -0.01112  -0.00519
  Beta virt. eigenvalues --   -0.00395   0.00140   0.00388   0.00845   0.00861

 Mulliken charges and spin densities:
               1          2
     1  Na  -0.133236  -0.123358
     2  Na  -0.483233   0.767352
     3  Na   0.067928  -0.077511
     4  Na   0.435999   0.067603
     5  Na  -0.157904   0.434192
     6  Na   0.054940  -0.074149
     7  Na   0.215506   0.005870
 Sum of Mulliken charges =  -0.00000   1.00000

 Dipole moment (field-independent basis, Debye):
    X=             -0.0615    Y=              0.0647    Z=              0.1072  Tot=              0.1395
 Quadrupole moment (field-independent basis, Debye-Ang):
   XX=            -57.4549   YY=            -61.5738   ZZ=            -74.8176
   XY=             -0.6461   XZ=              0.4878   YZ=             -0.2933

 Normal termination of Gaussian 16 at Thu Dec  7 15:37:40 2023.
