 Gaussian 16, Revision B.01,
 Gaussian 16:  ES64L-G16RevB.01 20-Dec-2017

 -------------------------
 #P B3LYP/6-311+g(d) force
 -------------------------

 -----
 DPGEN
 -----
 Symbolic Z-matrix:
 Charge =  0 Multiplicity = 2

                         Standard orientation:
 ---------------------------------------------------------------------
 Center     Atomic      Atomic             Coordinates (Angstroms)
 Number     Number       Type             X           Y           Z
 ---------------------------------------------------------------------
      1         11           0        1.037956    2.874117   -0.449831
      2         11           0        0.502069    0.404405    1.745415
      3         11           0       -0.347041   -0.595635   -1.478134
      4         11           0        3.660809   -0.453587   -0.012486
      5         11           0       -2.222145    1.833402   -0.053280
      6         11           0        0.504318   -2.856611   -0.059434
      7         11           0       -3.135965   -1.206092    0.307752
 ---------------------------------------------------------------------

 SCF Done:  E(UB3LYP) =  -1136.12602450     A.U. after   21 cycles

 The electronic state is 2-A.
 Alpha  occ. eigenvalues --  -38.45339 -38.44200 -38.43893 -38.43508 -38.43493
 Alpha  occ. eigenvalues --  -38.43386 -38.43026  -2.21075  -2.20038  -2.19763
 Alpha  occ. eigenvalues --   -2.19403  -2.19321  -2.19285  -2.19035  -1.14755
 Alpha  occ. eigenvalues --   -1.14730  -1.14709  -1.13730  -1.13690  -1.13673
 Alpha  occ. eigenvalues --   -1.13600  -1.13404  -1.13340  -1.13095  -1.13067
 Alpha  occ. eigenvalues --   -1.13056  -1.13014  -1.12983  -1.12970  -1.12948
 Alpha  occ. eigenvalues --   -1.12905  -1.12890  -1.12708  -1.12669  -1.12618
 Alpha  occ. eigenvalues --   -0.18422  -0.13088  -0.12536  -0.09954
 Alpha virt. eigenvalues --   -0.06622  -0.05072  -0.04779  -0.03019  -0.02750
 Alpha virt. eigenvalues --   -0.02308  -0.01783  -0.01217  -0.00633  -0.00486
 Alpha virt. eigenvalues --   -0.00027   0.00271   0.00675   0.00755   0.00834

  Beta  occ. eigenvalues --  -38.45340 -38.44188 -38.43882 -38.43498 -38.43479
  Beta  occ. eigenvalues --  -38.43323 -38.42963  -2.21080  -2.20018  -2.19746
  Beta  occ. eigenvalues --   -2.19390  -2.19298  -2.19170  -2.18922  -1.14746
  Beta  occ. eigenvalues --   -1.14734  -1.14714  -1.13720  -1.13662  -1.13656
  Beta  occ. eigenvalues --   -1.13575  -1.13371  -1.13334  -1.13087  -1.13053
  Beta  occ. eigenvalues --   -1.13018  -1.12986  -1.12953  -1.12930  -1.12899
  Beta  occ. eigenvalues --   -1.12832  -1.12805  -1.12627  -1.12584  -1.12540
  Beta  occ. eigenvalues --   -0.17765  -0.12856  -0.12255
  Beta virt. eigenvalues --   -0.06594  -0.06169  -0.05046  -0.04688  -0.02361
  Beta virt. eigenvalues --   -0.02172  -0.02014  -0.01133  -0.00912  -0.00643
  Beta virt. eigenvalues --   -0.00513   0.00138   0.00324   0.00719   0.00840

 Mulliken charges and spin densities:
               1          2
     1  Na  -0.063261  -0.012226
     2  Na  -0.322421   0.688951
     3  Na  -0.053736   0.419219
     4  Na  -0.013419  -0.117057
     5  Na   0.255013   0.095859
     6  Na   0.122698  -0.144125
     7  Na   0.075125   0.069378
 Sum of Mulliken charges =  -0.00000   1.00000

 Dipole moment (field-independent basis, Debye):
    X=              0.6884    Y=             -0.2022    Z=              0.0465  Tot=              0.7189
 Quadrupole moment (field-independent basis, Debye-Ang):
   XX=            -50.2081   YY=            -63.2883   ZZ=            -77.5115
   XY=              0.7970   XZ=             -2.0764   YZ=             -2.3915

 Normal termination of Gaussian 16 at Tue Dec  5 12:58:21 2023.
