 Gaussian 16, Revision B.01,
 Gaussian 16:  ES64L-G16RevB.01 20-Dec-2017

 -------------------------
 #P B3LYP/6-311+g(d) force
 -------------------------

 -----
 DPGEN
 -----
 Symbolic Z-matrix:
 Charge =  0 Multiplicity = 2

                         Standard orientation:
 ---------------------------------------------------------------------
 Center     Atomic      Atomic             Coordinates (Angstroms)
 Number     Number       Type             X           Y           Z
 ---------------------------------------------------------------------
      1         11           0       -0.340519    0.372035    1.853842
      2         11           0       -1.392877   -2.209752    0.149826
      3         11           0       -2.958039    0.640593   -0.060611
      4         11           0        0.347477    2.810274   -0.210597
      5         11           0        2.791494    0.633202    0.124628
      6         11           0        1.772687   -2.155197   -0.011555
      7         11           0       -0.220223   -0.091155   -1.845533
 ---------------------------------------------------------------------

 SCF Done:  E(UB3LYP) =  -1136.13473378     A.U. after   19 cycles

 The electronic state is 2-A.
 Alpha  occ. eigenvalues --  -38.43941 -38.43730 -38.43417 -38.43392 -38.43297
 Alpha  occ. eigenvalues --  -38.43243 -38.43198  -2.19829  -2.19637  -2.19400
 Alpha  occ. eigenvalues --   -2.19391  -2.19209  -2.19180  -2.19128  -1.13522
 Alpha  occ. eigenvalues --   -1.13502  -1.13460  -1.13375  -1.13290  -1.13285
 Alpha  occ. eigenvalues --   -1.13118  -1.13074  -1.13060  -1.13036  -1.13016
 Alpha  occ. eigenvalues --   -1.13010  -1.12903  -1.12857  -1.12852  -1.12841
 Alpha  occ. eigenvalues --   -1.12837  -1.12802  -1.12785  -1.12759  -1.12734
 Alpha  occ. eigenvalues --   -0.19487  -0.13310  -0.12665  -0.11137
 Alpha virt. eigenvalues --   -0.05540  -0.04758  -0.04552  -0.03350  -0.03037
 Alpha virt. eigenvalues --   -0.02668  -0.01375  -0.00885  -0.00047  -0.00006
 Alpha virt. eigenvalues --    0.00125   0.00373   0.00901   0.00959   0.00985

  Beta  occ. eigenvalues --  -38.43935 -38.43727 -38.43336 -38.43308 -38.43291
  Beta  occ. eigenvalues --  -38.43232 -38.43194  -2.19821  -2.19634  -2.19252
  Beta  occ. eigenvalues --   -2.19237  -2.19194  -2.19172  -2.19124  -1.13518
  Beta  occ. eigenvalues --   -1.13466  -1.13455  -1.13377  -1.13291  -1.13257
  Beta  occ. eigenvalues --   -1.13040  -1.12982  -1.12965  -1.12934  -1.12913
  Beta  occ. eigenvalues --   -1.12904  -1.12881  -1.12840  -1.12821  -1.12808
  Beta  occ. eigenvalues --   -1.12799  -1.12786  -1.12782  -1.12734  -1.12726
  Beta  occ. eigenvalues --   -0.18717  -0.13043  -0.12399
  Beta virt. eigenvalues --   -0.07157  -0.05518  -0.04749  -0.04540  -0.02498
  Beta virt. eigenvalues --   -0.02214  -0.01585  -0.01302  -0.00823  -0.00082
  Beta virt. eigenvalues --    0.00062   0.00126   0.00393   0.00925   0.00950

 Mulliken charges and spin densities:
               1          2
     1  Na  -0.568163   0.583128
     2  Na   0.394925   0.045020
     3  Na   0.396604  -0.106795
     4  Na   0.206975  -0.106572
     5  Na   0.093223  -0.016865
     6  Na   0.060805  -0.033789
     7  Na  -0.584369   0.635873
 Sum of Mulliken charges =  -0.00000   1.00000

 Dipole moment (field-independent basis, Debye):
    X=             -0.2931    Y=              0.2975    Z=              0.0074  Tot=              0.4177
 Quadrupole moment (field-independent basis, Debye-Ang):
   XX=            -58.2977   YY=            -64.3281   ZZ=            -72.3632
   XY=             -0.4645   XZ=              0.3516   YZ=             -0.9236

 Normal termination of Gaussian 16 at Thu Dec  7 22:38:04 2023.
