 Gaussian 16, Revision B.01,
 Gaussian 16:  ES64L-G16RevB.01 20-Dec-2017

 -------------------------
 #P B3LYP/6-311+g(d) force
 -------------------------

 -----
 DPGEN
 -----
 Symbolic Z-matrix:
 Charge =  0 Multiplicity = 2

                         Standard orientation:
 ---------------------------------------------------------------------
 Center     Atomic      Atomic             Coordinates (Angstroms)
 Number     Number       Type             X           Y           Z
 ---------------------------------------------------------------------
      1         11           0        1.183074   -1.800920    2.069747
      2         11           0        3.631030   -0.540568   -1.076615
      3         11           0       -5.128873   -0.143376   -0.181438
      4         11           0       -1.711067    0.361401    0.814850
      5         11           0        1.570350    2.057225    1.743620
      6         11           0        0.389055    2.298344   -1.828651
      7         11           0        0.066431   -2.232105   -1.541512
 ---------------------------------------------------------------------

 SCF Done:  E(UB3LYP) =  -1136.10624519     A.U. after   26 cycles

 The electronic state is 2-A.
 Alpha  occ. eigenvalues --  -38.45890 -38.44876 -38.44634 -38.44542 -38.44452
 Alpha  occ. eigenvalues --  -38.43723 -38.43477  -2.21617  -2.20594  -2.20379
 Alpha  occ. eigenvalues --   -2.20333  -2.20212  -2.19503  -2.19276  -1.15291
 Alpha  occ. eigenvalues --   -1.15260  -1.15240  -1.14270  -1.14267  -1.14231
 Alpha  occ. eigenvalues --   -1.14065  -1.14043  -1.14002  -1.13998  -1.13980
 Alpha  occ. eigenvalues --   -1.13943  -1.13883  -1.13858  -1.13832  -1.13179
 Alpha  occ. eigenvalues --   -1.13167  -1.13130  -1.12985  -1.12952  -1.12885
 Alpha  occ. eigenvalues --   -0.16918  -0.12181  -0.11618  -0.11294
 Alpha virt. eigenvalues --   -0.07649  -0.05066  -0.04645  -0.03239  -0.03140
 Alpha virt. eigenvalues --   -0.02962  -0.02708  -0.01294  -0.00743  -0.00661
 Alpha virt. eigenvalues --   -0.00397  -0.00269   0.00084   0.00550   0.00594

  Beta  occ. eigenvalues --  -38.45853 -38.44894 -38.44620 -38.44476 -38.44410
  Beta  occ. eigenvalues --  -38.43700 -38.43462  -2.21547  -2.20628  -2.20355
  Beta  occ. eigenvalues --   -2.20212  -2.20132  -2.19463  -2.19251  -1.15232
  Beta  occ. eigenvalues --   -1.15213  -1.15195  -1.14293  -1.14290  -1.14253
  Beta  occ. eigenvalues --   -1.14048  -1.14018  -1.13982  -1.13915  -1.13897
  Beta  occ. eigenvalues --   -1.13854  -1.13827  -1.13797  -1.13782  -1.13149
  Beta  occ. eigenvalues --   -1.13137  -1.13091  -1.12964  -1.12927  -1.12865
  Beta  occ. eigenvalues --   -0.16065  -0.12129  -0.11170
  Beta virt. eigenvalues --   -0.07894  -0.07415  -0.04456  -0.04320  -0.03054
  Beta virt. eigenvalues --   -0.02833  -0.02446  -0.02128  -0.01176  -0.00722
  Beta virt. eigenvalues --   -0.00427  -0.00266  -0.00195   0.00137   0.00663

 Mulliken charges and spin densities:
               1          2
     1  Na   0.345053   0.203791
     2  Na  -0.122407   0.262199
     3  Na  -0.115225  -0.036789
     4  Na  -0.815473   0.313289
     5  Na   0.567997  -0.109034
     6  Na   0.042387   0.227091
     7  Na   0.097668   0.139453
 Sum of Mulliken charges =  -0.00000   1.00000

 Dipole moment (field-independent basis, Debye):
    X=              0.7841    Y=             -0.3217    Z=             -0.5841  Tot=              1.0293
 Quadrupole moment (field-independent basis, Debye-Ang):
   XX=            -52.7441   YY=            -76.6010   ZZ=            -64.8748
   XY=              1.3507   XZ=              3.0928   YZ=             -1.4153

 Normal termination of Gaussian 16 at Sat Dec  9 06:43:34 2023.
