 Gaussian 16, Revision B.01,
 Gaussian 16:  ES64L-G16RevB.01 20-Dec-2017

 -------------------------
 #P B3LYP/6-311+g(d) force
 -------------------------

 -----
 DPGEN
 -----
 Symbolic Z-matrix:
 Charge =  0 Multiplicity = 2

                         Standard orientation:
 ---------------------------------------------------------------------
 Center     Atomic      Atomic             Coordinates (Angstroms)
 Number     Number       Type             X           Y           Z
 ---------------------------------------------------------------------
      1         11           0        2.835784   -1.484677   -1.241137
      2         11           0       -0.085303   -1.457511   -0.123742
      3         11           0       -0.055631    2.197639    1.695608
      4         11           0        2.345839   -0.687600    1.837173
      5         11           0       -2.207673    1.444771   -0.641442
      6         11           0        0.906857    1.928996   -1.685315
      7         11           0       -3.739874   -1.941618    0.158855
 ---------------------------------------------------------------------

 SCF Done:  E(UB3LYP) =  -1136.12787796     A.U. after   21 cycles

 The electronic state is 2-A.
 Alpha  occ. eigenvalues --  -38.44375 -38.44251 -38.43961 -38.43945 -38.43818
 Alpha  occ. eigenvalues --  -38.43374 -38.43257  -2.20250  -2.20124  -2.19810
 Alpha  occ. eigenvalues --   -2.19792  -2.19684  -2.19287  -2.19016  -1.13944
 Alpha  occ. eigenvalues --   -1.13916  -1.13874  -1.13815  -1.13752  -1.13732
 Alpha  occ. eigenvalues --   -1.13510  -1.13490  -1.13471  -1.13443  -1.13436
 Alpha  occ. eigenvalues --   -1.13404  -1.13369  -1.13353  -1.13250  -1.13009
 Alpha  occ. eigenvalues --   -1.12964  -1.12886  -1.12691  -1.12686  -1.12645
 Alpha  occ. eigenvalues --   -0.18192  -0.13417  -0.11700  -0.11487
 Alpha virt. eigenvalues --   -0.05634  -0.05384  -0.04970  -0.03545  -0.03017
 Alpha virt. eigenvalues --   -0.02488  -0.01693  -0.01112  -0.00689  -0.00015
 Alpha virt. eigenvalues --    0.00188   0.00246   0.00275   0.00574   0.00745

  Beta  occ. eigenvalues --  -38.44321 -38.44226 -38.43909 -38.43902 -38.43813
  Beta  occ. eigenvalues --  -38.43362 -38.43265  -2.20153  -2.20077  -2.19716
  Beta  occ. eigenvalues --   -2.19713  -2.19676  -2.19267  -2.19031  -1.13882
  Beta  occ. eigenvalues --   -1.13851  -1.13801  -1.13778  -1.13715  -1.13685
  Beta  occ. eigenvalues --   -1.13460  -1.13438  -1.13413  -1.13382  -1.13371
  Beta  occ. eigenvalues --   -1.13361  -1.13341  -1.13313  -1.13245  -1.12964
  Beta  occ. eigenvalues --   -1.12950  -1.12880  -1.12700  -1.12696  -1.12655
  Beta  occ. eigenvalues --   -0.17457  -0.13313  -0.11555
  Beta virt. eigenvalues --   -0.07538  -0.05455  -0.05162  -0.04274  -0.03369
  Beta virt. eigenvalues --   -0.02267  -0.02007  -0.01586  -0.01004  -0.00281
  Beta virt. eigenvalues --   -0.00019   0.00257   0.00408   0.00455   0.00712

 Mulliken charges and spin densities:
               1          2
     1  Na   1.522779   0.161973
     2  Na  -1.832611   0.407813
     3  Na  -0.081931   0.227218
     4  Na   0.205937   0.022479
     5  Na   0.664514   0.087076
     6  Na  -0.393639   0.231545
     7  Na  -0.085049  -0.138103
 Sum of Mulliken charges =  -0.00000   1.00000

 Dipole moment (field-independent basis, Debye):
    X=              1.1361    Y=              0.5215    Z=              0.0273  Tot=              1.2504
 Quadrupole moment (field-independent basis, Debye-Ang):
   XX=            -58.8704   YY=            -69.9176   ZZ=            -66.4697
   XY=             -3.3709   XZ=             -1.7300   YZ=              0.2611

 Normal termination of Gaussian 16 at Wed Nov 29 15:58:17 2023.
