 Gaussian 16, Revision B.01,
 Gaussian 16:  ES64L-G16RevB.01 20-Dec-2017

 -------------------------
 #P B3LYP/6-311+g(d) force
 -------------------------

 -----
 DPGEN
 -----
 Symbolic Z-matrix:
 Charge =  0 Multiplicity = 2

                         Standard orientation:
 ---------------------------------------------------------------------
 Center     Atomic      Atomic             Coordinates (Angstroms)
 Number     Number       Type             X           Y           Z
 ---------------------------------------------------------------------
      1         11           0       -1.407490   -2.127444    0.337145
      2         11           0        2.729887    1.055562   -0.345123
      3         11           0       -0.426812    0.224081   -1.635006
      4         11           0       -0.105014    2.635027    0.271299
      5         11           0        1.872700   -2.104800   -0.487681
      6         11           0       -3.332132    0.443470   -0.104211
      7         11           0        0.668862   -0.125896    1.963577
 ---------------------------------------------------------------------

 SCF Done:  E(UB3LYP) =  -1136.13528107     A.U. after   19 cycles

 The electronic state is 2-A.
 Alpha  occ. eigenvalues --  -38.44264 -38.43829 -38.43461 -38.43275 -38.43157
 Alpha  occ. eigenvalues --  -38.43118 -38.43074  -2.20098  -2.19739  -2.19428
 Alpha  occ. eigenvalues --   -2.19296  -2.19064  -2.19049  -2.18981  -1.13777
 Alpha  occ. eigenvalues --   -1.13765  -1.13733  -1.13426  -1.13404  -1.13384
 Alpha  occ. eigenvalues --   -1.13105  -1.13060  -1.13053  -1.13005  -1.12981
 Alpha  occ. eigenvalues --   -1.12909  -1.12748  -1.12725  -1.12722  -1.12713
 Alpha  occ. eigenvalues --   -1.12703  -1.12660  -1.12645  -1.12643  -1.12584
 Alpha  occ. eigenvalues --   -0.19289  -0.13390  -0.12390  -0.11057
 Alpha virt. eigenvalues --   -0.05858  -0.04756  -0.04264  -0.03370  -0.02950
 Alpha virt. eigenvalues --   -0.02559  -0.01683  -0.00841  -0.00153   0.00008
 Alpha virt. eigenvalues --    0.00124   0.00356   0.00848   0.00920   0.00963

  Beta  occ. eigenvalues --  -38.44265 -38.43818 -38.43371 -38.43215 -38.43143
  Beta  occ. eigenvalues --  -38.43107 -38.43064  -2.20102  -2.19723  -2.19263
  Beta  occ. eigenvalues --   -2.19186  -2.19043  -2.19032  -2.18967  -1.13779
  Beta  occ. eigenvalues --   -1.13757  -1.13736  -1.13417  -1.13380  -1.13355
  Beta  occ. eigenvalues --   -1.13003  -1.12946  -1.12938  -1.12929  -1.12910
  Beta  occ. eigenvalues --   -1.12826  -1.12734  -1.12712  -1.12704  -1.12671
  Beta  occ. eigenvalues --   -1.12662  -1.12647  -1.12635  -1.12601  -1.12577
  Beta  occ. eigenvalues --   -0.18536  -0.13160  -0.12126
  Beta virt. eigenvalues --   -0.07067  -0.05781  -0.04751  -0.04243  -0.02628
  Beta virt. eigenvalues --   -0.02136  -0.01643  -0.01442  -0.00793  -0.00105
  Beta virt. eigenvalues --    0.00077   0.00125   0.00385   0.00903   0.00925

 Mulliken charges and spin densities:
               1          2
     1  Na   0.258730   0.023572
     2  Na   0.295164   0.022770
     3  Na  -0.506177   0.480295
     4  Na   0.147829  -0.070010
     5  Na   0.152404   0.054254
     6  Na   0.124878  -0.079900
     7  Na  -0.472828   0.569019
 Sum of Mulliken charges =  -0.00000   1.00000

 Dipole moment (field-independent basis, Debye):
    X=             -0.2256    Y=              0.1696    Z=              0.0845  Tot=              0.2946
 Quadrupole moment (field-independent basis, Debye-Ang):
   XX=            -54.4228   YY=            -66.9560   ZZ=            -72.3787
   XY=             -0.7909   XZ=             -1.9088   YZ=              0.6821

 Normal termination of Gaussian 16 at Thu Dec  7 21:02:55 2023.
