 Gaussian 16, Revision B.01,
 Gaussian 16:  ES64L-G16RevB.01 20-Dec-2017

 -------------------------
 #P B3LYP/6-311+g(d) force
 -------------------------

 -----
 DPGEN
 -----
 Symbolic Z-matrix:
 Charge =  0 Multiplicity = 2

                         Standard orientation:
 ---------------------------------------------------------------------
 Center     Atomic      Atomic             Coordinates (Angstroms)
 Number     Number       Type             X           Y           Z
 ---------------------------------------------------------------------
      1         11           0       -1.441550   -0.836626    1.966649
      2         11           0       -2.923150    0.083129   -0.854863
      3         11           0        0.549531    0.360357   -0.695687
      4         11           0       -1.375904    3.163126    0.350290
      5         11           0        3.640751    1.324277   -0.484278
      6         11           0        2.406402   -1.574045    0.834342
      7         11           0       -0.856080   -2.520219   -1.116453
 ---------------------------------------------------------------------

 SCF Done:  E(UB3LYP) =  -1136.12687872     A.U. after   22 cycles

 The electronic state is 2-A.
 Alpha  occ. eigenvalues --  -38.44459 -38.44203 -38.44077 -38.43820 -38.43621
 Alpha  occ. eigenvalues --  -38.43140 -38.42962  -2.20268  -2.20053  -2.19963
 Alpha  occ. eigenvalues --   -2.19690  -2.19393  -2.19030  -2.18990  -1.13943
 Alpha  occ. eigenvalues --   -1.13921  -1.13909  -1.13772  -1.13712  -1.13655
 Alpha  occ. eigenvalues --   -1.13647  -1.13643  -1.13568  -1.13358  -1.13336
 Alpha  occ. eigenvalues --   -1.13288  -1.13064  -1.13060  -1.13029  -1.12764
 Alpha  occ. eigenvalues --   -1.12702  -1.12672  -1.12654  -1.12621  -1.12609
 Alpha  occ. eigenvalues --   -0.18278  -0.13624  -0.11816  -0.10454
 Alpha virt. eigenvalues --   -0.06347  -0.05291  -0.04563  -0.03222  -0.02532
 Alpha virt. eigenvalues --   -0.02204  -0.01901  -0.01161  -0.00845  -0.00243
 Alpha virt. eigenvalues --   -0.00141   0.00299   0.00407   0.00681   0.00803

  Beta  occ. eigenvalues --  -38.44454 -38.44187 -38.44052 -38.43742 -38.43622
  Beta  occ. eigenvalues --  -38.43105 -38.42942  -2.20259  -2.20026  -2.19920
  Beta  occ. eigenvalues --   -2.19546  -2.19396  -2.18971  -2.18957  -1.13934
  Beta  occ. eigenvalues --   -1.13915  -1.13904  -1.13756  -1.13686  -1.13626
  Beta  occ. eigenvalues --   -1.13622  -1.13602  -1.13524  -1.13258  -1.13237
  Beta  occ. eigenvalues --   -1.13185  -1.13067  -1.13056  -1.13031  -1.12729
  Beta  occ. eigenvalues --   -1.12645  -1.12636  -1.12603  -1.12587  -1.12581
  Beta  occ. eigenvalues --   -0.17612  -0.13421  -0.11636
  Beta virt. eigenvalues --   -0.06622  -0.06145  -0.05108  -0.04427  -0.02730
  Beta virt. eigenvalues --   -0.01992  -0.01929  -0.01307  -0.00938  -0.00693
  Beta virt. eigenvalues --   -0.00214   0.00106   0.00368   0.00560   0.00691

 Mulliken charges and spin densities:
               1          2
     1  Na  -0.423322   0.530884
     2  Na   1.125351   0.104932
     3  Na  -1.950213   0.244320
     4  Na  -0.111665  -0.079564
     5  Na   0.434092  -0.024593
     6  Na   0.241945   0.050306
     7  Na   0.683812   0.173714
 Sum of Mulliken charges =  -0.00000   1.00000

 Dipole moment (field-independent basis, Debye):
    X=              0.6325    Y=             -0.0168    Z=              0.2494  Tot=              0.6801
 Quadrupole moment (field-independent basis, Debye-Ang):
   XX=            -53.5511   YY=            -63.9920   ZZ=            -73.5565
   XY=              1.0743   XZ=              0.6636   YZ=              0.1080

 Normal termination of Gaussian 16 at Tue Dec  5 18:37:04 2023.
