 Gaussian 16, Revision B.01,
 Gaussian 16:  ES64L-G16RevB.01 20-Dec-2017

 -------------------------
 #P B3LYP/6-311+g(d) force
 -------------------------

 -----
 DPGEN
 -----
 Symbolic Z-matrix:
 Charge =  0 Multiplicity = 2

                         Standard orientation:
 ---------------------------------------------------------------------
 Center     Atomic      Atomic             Coordinates (Angstroms)
 Number     Number       Type             X           Y           Z
 ---------------------------------------------------------------------
      1         11           0        0.832531    3.524863    0.068127
      2         11           0        2.289002    0.457806    1.348321
      3         11           0        1.247502   -2.817041   -0.422486
      4         11           0       -3.211412    2.485364   -0.631947
      5         11           0        4.935546    0.041429   -0.699321
      6         11           0       -1.677511   -3.285300    0.107933
      7         11           0       -4.415658   -0.407121    0.229373
 ---------------------------------------------------------------------

 SCF Done:  E(UB3LYP) =  -1136.10780613     A.U. after   20 cycles

 The electronic state is 2-A.
 Alpha  occ. eigenvalues --  -38.44970 -38.44891 -38.44567 -38.44487 -38.44302
 Alpha  occ. eigenvalues --  -38.44233 -38.43832  -2.20763  -2.20668  -2.20340
 Alpha  occ. eigenvalues --   -2.20238  -2.20116  -2.20023  -2.19637  -1.14415
 Alpha  occ. eigenvalues --   -1.14403  -1.14396  -1.14348  -1.14326  -1.14304
 Alpha  occ. eigenvalues --   -1.13992  -1.13978  -1.13956  -1.13925  -1.13919
 Alpha  occ. eigenvalues --   -1.13888  -1.13821  -1.13778  -1.13755  -1.13681
 Alpha  occ. eigenvalues --   -1.13666  -1.13647  -1.13301  -1.13292  -1.13271
 Alpha  occ. eigenvalues --   -0.15686  -0.13714  -0.12897  -0.10966
 Alpha virt. eigenvalues --   -0.06699  -0.06193  -0.03958  -0.03486  -0.03194
 Alpha virt. eigenvalues --   -0.02576  -0.02161  -0.01724  -0.01239  -0.01047
 Alpha virt. eigenvalues --   -0.00528  -0.00378   0.00277   0.00409   0.00561

  Beta  occ. eigenvalues --  -38.44901 -38.44881 -38.44495 -38.44483 -38.44287
  Beta  occ. eigenvalues --  -38.44190 -38.43827  -2.20691  -2.20598  -2.20258
  Beta  occ. eigenvalues --   -2.20183  -2.20090  -2.19943  -2.19632  -1.14373
  Beta  occ. eigenvalues --   -1.14362  -1.14320  -1.14292  -1.14285  -1.14246
  Beta  occ. eigenvalues --   -1.13936  -1.13933  -1.13885  -1.13882  -1.13872
  Beta  occ. eigenvalues --   -1.13853  -1.13793  -1.13762  -1.13738  -1.13627
  Beta  occ. eigenvalues --   -1.13615  -1.13594  -1.13295  -1.13287  -1.13260
  Beta  occ. eigenvalues --   -0.15232  -0.13108  -0.12234
  Beta virt. eigenvalues --   -0.07742  -0.06751  -0.05630  -0.03736  -0.03159
  Beta virt. eigenvalues --   -0.02917  -0.02243  -0.01886  -0.01530  -0.01007
  Beta virt. eigenvalues --   -0.00814  -0.00199  -0.00151   0.00350   0.00474

 Mulliken charges and spin densities:
               1          2
     1  Na   0.002281   0.437733
     2  Na  -0.145012  -0.093059
     3  Na   0.179264   0.086049
     4  Na  -0.139824  -0.052774
     5  Na   0.198445   0.448748
     6  Na  -0.142190  -0.035667
     7  Na   0.047037   0.208970
 Sum of Mulliken charges =  -0.00000   1.00000

 Dipole moment (field-independent basis, Debye):
    X=              0.9675    Y=              0.2128    Z=             -0.2728  Tot=              1.0275
 Quadrupole moment (field-independent basis, Debye-Ang):
   XX=            -62.7773   YY=            -68.5946   ZZ=            -69.4261
   XY=              2.8305   XZ=             -3.9750   YZ=             -2.3954

 Normal termination of Gaussian 16 at Sun Dec  3 12:13:20 2023.
