 Gaussian 16, Revision B.01,
 Gaussian 16:  ES64L-G16RevB.01 20-Dec-2017

 -------------------------
 #P B3LYP/6-311+g(d) force
 -------------------------

 -----
 DPGEN
 -----
 Symbolic Z-matrix:
 Charge =  0 Multiplicity = 2

                         Standard orientation:
 ---------------------------------------------------------------------
 Center     Atomic      Atomic             Coordinates (Angstroms)
 Number     Number       Type             X           Y           Z
 ---------------------------------------------------------------------
      1         11           0       -0.154053   -2.694716   -0.179048
      2         11           0       -0.867214    3.057739    0.281799
      3         11           0        2.703107   -1.854812    1.138007
      4         11           0        5.007052    0.416331   -0.374514
      5         11           0        2.006635    1.608154   -0.724326
      6         11           0       -4.464361    1.351478    0.562480
      7         11           0       -4.231166   -1.884174   -0.704398
 ---------------------------------------------------------------------

 SCF Done:  E(UB3LYP) =  -1136.10986354     A.U. after   23 cycles

 The electronic state is 2-A.
 Alpha  occ. eigenvalues --  -38.45092 -38.44852 -38.44755 -38.44491 -38.44303
 Alpha  occ. eigenvalues --  -38.43978 -38.43627  -2.20835  -2.20602  -2.20564
 Alpha  occ. eigenvalues --   -2.20332  -2.20123  -2.19758  -2.19409  -1.14518
 Alpha  occ. eigenvalues --   -1.14496  -1.14472  -1.14277  -1.14253  -1.14248
 Alpha  occ. eigenvalues --   -1.14240  -1.14235  -1.14192  -1.14001  -1.13968
 Alpha  occ. eigenvalues --   -1.13948  -1.13807  -1.13800  -1.13744  -1.13425
 Alpha  occ. eigenvalues --   -1.13420  -1.13385  -1.13071  -1.13069  -1.13035
 Alpha  occ. eigenvalues --   -0.16200  -0.13950  -0.12445  -0.11250
 Alpha virt. eigenvalues --   -0.07193  -0.04968  -0.04743  -0.03582  -0.03307
 Alpha virt. eigenvalues --   -0.02336  -0.02231  -0.01361  -0.01336  -0.00873
 Alpha virt. eigenvalues --   -0.00650  -0.00388   0.00132   0.00525   0.00534

  Beta  occ. eigenvalues --  -38.45081 -38.44832 -38.44730 -38.44409 -38.44281
  Beta  occ. eigenvalues --  -38.43941 -38.43585  -2.20818  -2.20566  -2.20526
  Beta  occ. eigenvalues --   -2.20180  -2.20089  -2.19694  -2.19333  -1.14507
  Beta  occ. eigenvalues --   -1.14486  -1.14449  -1.14253  -1.14232  -1.14219
  Beta  occ. eigenvalues --   -1.14209  -1.14202  -1.14140  -1.13900  -1.13864
  Beta  occ. eigenvalues --   -1.13849  -1.13789  -1.13769  -1.13681  -1.13382
  Beta  occ. eigenvalues --   -1.13376  -1.13333  -1.13021  -1.13014  -1.12982
  Beta  occ. eigenvalues --   -0.15461  -0.13414  -0.11656
  Beta virt. eigenvalues --   -0.08011  -0.07361  -0.04473  -0.04388  -0.03351
  Beta virt. eigenvalues --   -0.02951  -0.02151  -0.02034  -0.00999  -0.00890
  Beta virt. eigenvalues --   -0.00581  -0.00535  -0.00368   0.00326   0.00565

 Mulliken charges and spin densities:
               1          2
     1  Na  -0.620938   0.124070
     2  Na   0.359551  -0.021312
     3  Na   0.501734   0.040772
     4  Na   0.696077   0.334581
     5  Na  -0.964409   0.285958
     6  Na  -0.185215   0.121669
     7  Na   0.213200   0.114262
 Sum of Mulliken charges =  -0.00000   1.00000

 Dipole moment (field-independent basis, Debye):
    X=              0.3001    Y=             -0.3703    Z=              0.1506  Tot=              0.4999
 Quadrupole moment (field-independent basis, Debye-Ang):
   XX=            -54.5487   YY=            -72.2343   ZZ=            -69.5859
   XY=             -2.2717   XZ=              0.7153   YZ=              1.9797

 Normal termination of Gaussian 16 at Sun Dec  3 21:50:53 2023.
