 Gaussian 16, Revision B.01,
 Gaussian 16:  ES64L-G16RevB.01 20-Dec-2017

 -------------------------
 #P B3LYP/6-311+g(d) force
 -------------------------

 -----
 DPGEN
 -----
 Symbolic Z-matrix:
 Charge =  0 Multiplicity = 2

                         Standard orientation:
 ---------------------------------------------------------------------
 Center     Atomic      Atomic             Coordinates (Angstroms)
 Number     Number       Type             X           Y           Z
 ---------------------------------------------------------------------
      1         11           0       -3.530747    0.447976   -0.206988
      2         11           0        2.501782    1.963785   -0.098088
      3         11           0        0.000135   -0.231053    2.061107
      4         11           0        0.374676   -0.679905   -1.668842
      5         11           0       -0.802127    2.844929   -0.113318
      6         11           0        3.132362   -1.680025    0.019230
      7         11           0       -1.676082   -2.665707    0.006899
 ---------------------------------------------------------------------

 SCF Done:  E(UB3LYP) =  -1136.13005626     A.U. after   21 cycles

 The electronic state is 2-A.
 Alpha  occ. eigenvalues --  -38.44888 -38.44698 -38.44107 -38.43920 -38.43648
 Alpha  occ. eigenvalues --  -38.43532 -38.43100  -2.20649  -2.20478  -2.19912
 Alpha  occ. eigenvalues --   -2.19737  -2.19528  -2.19380  -2.18908  -1.14325
 Alpha  occ. eigenvalues --   -1.14305  -1.14289  -1.14153  -1.14128  -1.14126
 Alpha  occ. eigenvalues --   -1.13592  -1.13579  -1.13547  -1.13434  -1.13401
 Alpha  occ. eigenvalues --   -1.13366  -1.13210  -1.13169  -1.13148  -1.13043
 Alpha  occ. eigenvalues --   -1.13003  -1.12999  -1.12582  -1.12577  -1.12552
 Alpha  occ. eigenvalues --   -0.17824  -0.13122  -0.12115  -0.10312
 Alpha virt. eigenvalues --   -0.06551  -0.05673  -0.04486  -0.03203  -0.02667
 Alpha virt. eigenvalues --   -0.02446  -0.02105  -0.01428  -0.00940  -0.00408
 Alpha virt. eigenvalues --   -0.00073   0.00260   0.00653   0.00682   0.00712

  Beta  occ. eigenvalues --  -38.44884 -38.44697 -38.44105 -38.43915 -38.43596
  Beta  occ. eigenvalues --  -38.43429 -38.43098  -2.20643  -2.20480  -2.19910
  Beta  occ. eigenvalues --   -2.19730  -2.19432  -2.19189  -2.18906  -1.14310
  Beta  occ. eigenvalues --   -1.14302  -1.14287  -1.14144  -1.14131  -1.14122
  Beta  occ. eigenvalues --   -1.13586  -1.13565  -1.13549  -1.13427  -1.13375
  Beta  occ. eigenvalues --   -1.13363  -1.13140  -1.13101  -1.13078  -1.12915
  Beta  occ. eigenvalues --   -1.12869  -1.12863  -1.12581  -1.12563  -1.12552
  Beta  occ. eigenvalues --   -0.17139  -0.12948  -0.11921
  Beta virt. eigenvalues --   -0.06535  -0.06407  -0.05628  -0.04430  -0.02492
  Beta virt. eigenvalues --   -0.02059  -0.01960  -0.01426  -0.01301  -0.00993
  Beta virt. eigenvalues --   -0.00425   0.00106   0.00312   0.00691   0.00735

 Mulliken charges and spin densities:
               1          2
     1  Na  -0.046854   0.009300
     2  Na   0.005843  -0.010162
     3  Na  -0.236458   0.729282
     4  Na   0.024575   0.439083
     5  Na  -0.200287  -0.047904
     6  Na   0.248367  -0.074701
     7  Na   0.204815  -0.044899
 Sum of Mulliken charges =  -0.00000   1.00000

 Dipole moment (field-independent basis, Debye):
    X=              0.1511    Y=             -0.4627    Z=              0.0109  Tot=              0.4869
 Quadrupole moment (field-independent basis, Debye-Ang):
   XX=            -50.8812   YY=            -65.2457   ZZ=            -76.9062
   XY=             -0.4092   XZ=              0.9837   YZ=             -0.8793

 Normal termination of Gaussian 16 at Fri Dec  8 01:30:53 2023.
