 Gaussian 16, Revision B.01,
 Gaussian 16:  ES64L-G16RevB.01 20-Dec-2017

 -------------------------
 #P B3LYP/6-311+g(d) force
 -------------------------

 -----
 DPGEN
 -----
 Symbolic Z-matrix:
 Charge =  0 Multiplicity = 2

                         Standard orientation:
 ---------------------------------------------------------------------
 Center     Atomic      Atomic             Coordinates (Angstroms)
 Number     Number       Type             X           Y           Z
 ---------------------------------------------------------------------
      1         11           0        3.436692   -1.280303   -0.906202
      2         11           0       -1.672556   -2.200807    0.663955
      3         11           0        2.521178    2.241038    0.225244
      4         11           0        0.892263   -0.998647    1.720480
      5         11           0       -0.028867    0.059841   -1.627189
      6         11           0       -3.507398    0.247588   -1.044783
      7         11           0       -1.641312    1.931290    0.968495
 ---------------------------------------------------------------------

 SCF Done:  E(UB3LYP) =  -1136.12420103     A.U. after   22 cycles

 The electronic state is 2-A.
 Alpha  occ. eigenvalues --  -38.44944 -38.44605 -38.44325 -38.44153 -38.43855
 Alpha  occ. eigenvalues --  -38.43098 -38.42955  -2.20728  -2.20463  -2.20181
 Alpha  occ. eigenvalues --   -2.19916  -2.19686  -2.19004  -2.18830  -1.14398
 Alpha  occ. eigenvalues --   -1.14367  -1.14351  -1.14173  -1.14112  -1.14084
 Alpha  occ. eigenvalues --   -1.13854  -1.13828  -1.13814  -1.13601  -1.13573
 Alpha  occ. eigenvalues --   -1.13554  -1.13359  -1.13339  -1.13321  -1.12765
 Alpha  occ. eigenvalues --   -1.12645  -1.12632  -1.12481  -1.12476  -1.12448
 Alpha  occ. eigenvalues --   -0.18129  -0.13861  -0.11195  -0.10951
 Alpha virt. eigenvalues --   -0.06496  -0.05784  -0.04461  -0.03190  -0.02690
 Alpha virt. eigenvalues --   -0.02393  -0.02348  -0.01264  -0.00833  -0.00258
 Alpha virt. eigenvalues --    0.00136   0.00175   0.00379   0.00558   0.00659

  Beta  occ. eigenvalues --  -38.44904 -38.44571 -38.44300 -38.44150 -38.43834
  Beta  occ. eigenvalues --  -38.43048 -38.42946  -2.20653  -2.20402  -2.20134
  Beta  occ. eigenvalues --   -2.19913  -2.19647  -2.18913  -2.18817  -1.14340
  Beta  occ. eigenvalues --   -1.14318  -1.14302  -1.14120  -1.14073  -1.14034
  Beta  occ. eigenvalues --   -1.13823  -1.13793  -1.13783  -1.13596  -1.13571
  Beta  occ. eigenvalues --   -1.13542  -1.13335  -1.13302  -1.13287  -1.12711
  Beta  occ. eigenvalues --   -1.12583  -1.12553  -1.12471  -1.12456  -1.12420
  Beta  occ. eigenvalues --   -0.17484  -0.13560  -0.10925
  Beta virt. eigenvalues --   -0.07332  -0.06250  -0.05646  -0.03916  -0.03025
  Beta virt. eigenvalues --   -0.02292  -0.01992  -0.01553  -0.01128  -0.00606
  Beta virt. eigenvalues --   -0.00138   0.00159   0.00235   0.00462   0.00671

 Mulliken charges and spin densities:
               1          2
     1  Na   0.179230   0.105801
     2  Na  -0.309059   0.006677
     3  Na  -0.051194   0.019349
     4  Na   0.157242   0.335702
     5  Na  -0.395890   0.277180
     6  Na   0.814945   0.154009
     7  Na  -0.395274   0.101281
 Sum of Mulliken charges =  -0.00000   1.00000

 Dipole moment (field-independent basis, Debye):
    X=              0.3506    Y=              0.0129    Z=             -0.4030  Tot=              0.5343
 Quadrupole moment (field-independent basis, Debye-Ang):
   XX=            -49.7363   YY=            -73.9603   ZZ=            -70.4818
   XY=             -0.1506   XZ=              0.3182   YZ=              3.7189

 Normal termination of Gaussian 16 at Thu Dec  7 21:18:24 2023.
