 Gaussian 16, Revision B.01,
 Gaussian 16:  ES64L-G16RevB.01 20-Dec-2017

 -------------------------
 #P B3LYP/6-311+g(d) force
 -------------------------

 -----
 DPGEN
 -----
 Symbolic Z-matrix:
 Charge =  0 Multiplicity = 2

                         Standard orientation:
 ---------------------------------------------------------------------
 Center     Atomic      Atomic             Coordinates (Angstroms)
 Number     Number       Type             X           Y           Z
 ---------------------------------------------------------------------
      1         11           0        0.932452   -2.757594   -0.112385
      2         11           0        3.323964   -0.588959    0.036261
      3         11           0        1.332530    2.816358    0.081892
      4         11           0       -3.566228   -1.187419    0.070150
      5         11           0        0.230929   -0.031266   -1.712551
      6         11           0       -0.172050    0.099080    2.056822
      7         11           0       -2.081596    1.649800   -0.420190
 ---------------------------------------------------------------------

 SCF Done:  E(UB3LYP) =  -1136.13010946     A.U. after   20 cycles

 The electronic state is 2-A.
 Alpha  occ. eigenvalues --  -38.44822 -38.44517 -38.43843 -38.43529 -38.43467
 Alpha  occ. eigenvalues --  -38.43467 -38.43023  -2.20634  -2.20289  -2.19702
 Alpha  occ. eigenvalues --   -2.19477  -2.19377  -2.19321  -2.18843  -1.14305
 Alpha  occ. eigenvalues --   -1.14296  -1.14274  -1.13974  -1.13950  -1.13925
 Alpha  occ. eigenvalues --   -1.13377  -1.13339  -1.13310  -1.13213  -1.13169
 Alpha  occ. eigenvalues --   -1.13095  -1.13040  -1.13034  -1.12985  -1.12976
 Alpha  occ. eigenvalues --   -1.12972  -1.12949  -1.12510  -1.12503  -1.12492
 Alpha  occ. eigenvalues --   -0.18321  -0.13317  -0.11908  -0.10678
 Alpha virt. eigenvalues --   -0.06449  -0.04962  -0.04484  -0.03360  -0.02652
 Alpha virt. eigenvalues --   -0.02611  -0.02092  -0.01262  -0.00455  -0.00197
 Alpha virt. eigenvalues --   -0.00084   0.00278   0.00716   0.00723   0.00814

  Beta  occ. eigenvalues --  -38.44821 -38.44522 -38.43750 -38.43461 -38.43459
  Beta  occ. eigenvalues --  -38.43453 -38.43021  -2.20634  -2.20300  -2.19529
  Beta  occ. eigenvalues --   -2.19357  -2.19348  -2.19313  -2.18842  -1.14299
  Beta  occ. eigenvalues --   -1.14290  -1.14273  -1.13983  -1.13947  -1.13933
  Beta  occ. eigenvalues --   -1.13262  -1.13217  -1.13185  -1.13148  -1.13093
  Beta  occ. eigenvalues --   -1.13015  -1.13006  -1.12982  -1.12968  -1.12959
  Beta  occ. eigenvalues --   -1.12949  -1.12930  -1.12507  -1.12496  -1.12484
  Beta  occ. eigenvalues --   -0.17574  -0.13141  -0.11707
  Beta virt. eigenvalues --   -0.06750  -0.06364  -0.04953  -0.04449  -0.02610
  Beta virt. eigenvalues --   -0.02013  -0.01926  -0.01524  -0.01211  -0.00489
  Beta virt. eigenvalues --   -0.00208   0.00070   0.00296   0.00771   0.00821

 Mulliken charges and spin densities:
               1          2
     1  Na   0.057241  -0.105648
     2  Na   0.106700  -0.035835
     3  Na  -0.014494  -0.075571
     4  Na  -0.037042  -0.097983
     5  Na   0.049055   0.451993
     6  Na  -0.500313   0.809108
     7  Na   0.338853   0.053937
 Sum of Mulliken charges =  -0.00000   1.00000

 Dipole moment (field-independent basis, Debye):
    X=              0.3002    Y=             -0.3617    Z=              0.1724  Tot=              0.5006
 Quadrupole moment (field-independent basis, Debye-Ang):
   XX=            -52.3039   YY=            -65.7587   ZZ=            -75.0846
   XY=              2.5895   XZ=              0.6011   YZ=             -0.4164

 Normal termination of Gaussian 16 at Thu Dec  7 04:58:47 2023.
