 Gaussian 16, Revision B.01,
 Gaussian 16:  ES64L-G16RevB.01 20-Dec-2017

 -------------------------
 #P B3LYP/6-311+g(d) force
 -------------------------

 -----
 DPGEN
 -----
 Symbolic Z-matrix:
 Charge =  0 Multiplicity = 2

                         Standard orientation:
 ---------------------------------------------------------------------
 Center     Atomic      Atomic             Coordinates (Angstroms)
 Number     Number       Type             X           Y           Z
 ---------------------------------------------------------------------
      1         11           0       -0.250438   -2.160288   -1.233515
      2         11           0        0.428687    4.364616    0.070534
      3         11           0        1.048096   -1.743752    1.719387
      4         11           0       -4.382733   -1.007674    0.449535
      5         11           0       -2.032369    0.701924   -0.611026
      6         11           0        3.432513   -1.970055   -0.429115
      7         11           0        1.756245    1.815230    0.034200
 ---------------------------------------------------------------------

 SCF Done:  E(UB3LYP) =  -1136.11266607     A.U. after   23 cycles

 The electronic state is 2-A.
 Alpha  occ. eigenvalues --  -38.45683 -38.45114 -38.44200 -38.43919 -38.43505
 Alpha  occ. eigenvalues --  -38.43375 -38.43350  -2.21518  -2.20920  -2.20025
 Alpha  occ. eigenvalues --   -2.19770  -2.19349  -2.19260  -2.19175  -1.15191
 Alpha  occ. eigenvalues --   -1.15179  -1.15151  -1.14588  -1.14572  -1.14552
 Alpha  occ. eigenvalues --   -1.13824  -1.13665  -1.13653  -1.13442  -1.13418
 Alpha  occ. eigenvalues --   -1.13349  -1.13068  -1.13035  -1.13009  -1.12933
 Alpha  occ. eigenvalues --   -1.12905  -1.12844  -1.12814  -1.12812  -1.12773
 Alpha  occ. eigenvalues --   -0.17338  -0.13436  -0.12949  -0.09601
 Alpha virt. eigenvalues --   -0.06876  -0.06032  -0.04848  -0.03133  -0.02661
 Alpha virt. eigenvalues --   -0.02358  -0.02072  -0.01589  -0.01336  -0.00500
 Alpha virt. eigenvalues --   -0.00262  -0.00013   0.00125   0.00389   0.00538

  Beta  occ. eigenvalues --  -38.45665 -38.45100 -38.44204 -38.43916 -38.43501
  Beta  occ. eigenvalues --  -38.43291 -38.43284  -2.21489  -2.20896  -2.20032
  Beta  occ. eigenvalues --   -2.19765  -2.19348  -2.19104  -2.19051  -1.15168
  Beta  occ. eigenvalues --   -1.15154  -1.15118  -1.14572  -1.14544  -1.14528
  Beta  occ. eigenvalues --   -1.13828  -1.13670  -1.13657  -1.13439  -1.13407
  Beta  occ. eigenvalues --   -1.13346  -1.13042  -1.13018  -1.13002  -1.12828
  Beta  occ. eigenvalues --   -1.12797  -1.12749  -1.12731  -1.12726  -1.12699
  Beta  occ. eigenvalues --   -0.16847  -0.13209  -0.12469
  Beta virt. eigenvalues --   -0.06673  -0.06129  -0.05857  -0.04611  -0.02725
  Beta virt. eigenvalues --   -0.02425  -0.02171  -0.01938  -0.01254  -0.01020
  Beta virt. eigenvalues --   -0.00174  -0.00035   0.00118   0.00355   0.00496

 Mulliken charges and spin densities:
               1          2
     1  Na  -0.084286   0.316073
     2  Na   0.791453   0.019437
     3  Na   0.149933   0.225224
     4  Na   0.083341   0.278640
     5  Na  -0.395162   0.136469
     6  Na   0.734209   0.087509
     7  Na  -1.279487  -0.063352
 Sum of Mulliken charges =  -0.00000   1.00000

 Dipole moment (field-independent basis, Debye):
    X=              1.6269    Y=             -0.5341    Z=             -0.0199  Tot=              1.7124
 Quadrupole moment (field-independent basis, Debye-Ang):
   XX=            -71.7673   YY=            -59.1678   ZZ=            -69.9939
   XY=             -3.8148   XZ=             -5.2656   YZ=             -1.0015

 Normal termination of Gaussian 16 at Mon Dec  4 05:34:28 2023.
