 Gaussian 16, Revision B.01,
 Gaussian 16:  ES64L-G16RevB.01 20-Dec-2017

 -------------------------
 #P B3LYP/6-311+g(d) force
 -------------------------

 -----
 DPGEN
 -----
 Symbolic Z-matrix:
 Charge =  0 Multiplicity = 2

                         Standard orientation:
 ---------------------------------------------------------------------
 Center     Atomic      Atomic             Coordinates (Angstroms)
 Number     Number       Type             X           Y           Z
 ---------------------------------------------------------------------
      1         11           0       -1.595357    2.423200   -0.469585
      2         11           0        0.043222   -2.846888   -0.192575
      3         11           0        2.819884   -0.855603   -0.432527
      4         11           0        1.802033    2.315248    0.474277
      5         11           0        0.064293   -0.297118    2.052227
      6         11           0       -0.195448    0.028213   -1.718932
      7         11           0       -2.938627   -0.767052    0.287115
 ---------------------------------------------------------------------

 SCF Done:  E(UB3LYP) =  -1136.13962685     A.U. after   18 cycles

 The electronic state is 2-A.
 Alpha  occ. eigenvalues --  -38.43788 -38.43715 -38.43585 -38.43424 -38.43388
 Alpha  occ. eigenvalues --  -38.43336 -38.43336  -2.19693  -2.19558  -2.19445
 Alpha  occ. eigenvalues --   -2.19339  -2.19295  -2.19234  -2.19220  -1.13363
 Alpha  occ. eigenvalues --   -1.13329  -1.13320  -1.13231  -1.13225  -1.13192
 Alpha  occ. eigenvalues --   -1.13150  -1.13122  -1.13103  -1.13090  -1.13017
 Alpha  occ. eigenvalues --   -1.12960  -1.12938  -1.12923  -1.12907  -1.12901
 Alpha  occ. eigenvalues --   -1.12886  -1.12885  -1.12867  -1.12860  -1.12833
 Alpha  occ. eigenvalues --   -0.18868  -0.12843  -0.12625  -0.11167
 Alpha virt. eigenvalues --   -0.05251  -0.04891  -0.04762  -0.03257  -0.03154
 Alpha virt. eigenvalues --   -0.02815  -0.01282  -0.01048  -0.00226  -0.00069
 Alpha virt. eigenvalues --    0.00039   0.00374   0.00875   0.00919   0.00937

  Beta  occ. eigenvalues --  -38.43709 -38.43697 -38.43576 -38.43414 -38.43379
  Beta  occ. eigenvalues --  -38.43329 -38.43267  -2.19550  -2.19526  -2.19433
  Beta  occ. eigenvalues --   -2.19282  -2.19221  -2.19212  -2.19209  -1.13262
  Beta  occ. eigenvalues --   -1.13229  -1.13215  -1.13210  -1.13193  -1.13169
  Beta  occ. eigenvalues --   -1.13125  -1.13093  -1.13079  -1.13067  -1.12955
  Beta  occ. eigenvalues --   -1.12925  -1.12914  -1.12887  -1.12881  -1.12871
  Beta  occ. eigenvalues --   -1.12868  -1.12851  -1.12843  -1.12826  -1.12810
  Beta  occ. eigenvalues --   -0.18129  -0.12580  -0.12362
  Beta virt. eigenvalues --   -0.07237  -0.05234  -0.04862  -0.04691  -0.02477
  Beta virt. eigenvalues --   -0.02373  -0.01753  -0.01196  -0.00966  -0.00197
  Beta virt. eigenvalues --   -0.00125   0.00125   0.00397   0.00903   0.00924

 Mulliken charges and spin densities:
               1          2
     1  Na   0.150229  -0.024255
     2  Na   0.173378  -0.072677
     3  Na   0.107694  -0.020460
     4  Na   0.026625   0.032156
     5  Na  -0.418438   0.694777
     6  Na  -0.136224   0.419345
     7  Na   0.096735  -0.028887
 Sum of Mulliken charges =  -0.00000   1.00000

 Dipole moment (field-independent basis, Debye):
    X=             -0.0779    Y=             -0.1230    Z=              0.1983  Tot=              0.2460
 Quadrupole moment (field-independent basis, Debye-Ang):
   XX=            -59.5466   YY=            -62.6502   ZZ=            -72.1516
   XY=              0.2455   XZ=             -0.7533   YZ=              0.7087

 Normal termination of Gaussian 16 at Tue Dec  5 20:01:29 2023.
