 Gaussian 16, Revision B.01,
 Gaussian 16:  ES64L-G16RevB.01 20-Dec-2017

 -------------------------
 #P B3LYP/6-311+g(d) force
 -------------------------

 -----
 DPGEN
 -----
 Symbolic Z-matrix:
 Charge =  0 Multiplicity = 2

                         Standard orientation:
 ---------------------------------------------------------------------
 Center     Atomic      Atomic             Coordinates (Angstroms)
 Number     Number       Type             X           Y           Z
 ---------------------------------------------------------------------
      1         11           0        1.975130    1.518000   -1.074855
      2         11           0       -1.346885    2.841492    0.308547
      3         11           0       -3.895120    0.706907    0.427384
      4         11           0        4.521808   -0.491244   -1.190028
      5         11           0       -4.432639   -2.577684   -1.077108
      6         11           0       -0.048843   -0.251179    1.098698
      7         11           0        3.226550   -1.746291    1.507362
 ---------------------------------------------------------------------

 SCF Done:  E(UB3LYP) =  -1136.11333030     A.U. after   25 cycles

 The electronic state is 2-A.
 Alpha  occ. eigenvalues --  -38.44907 -38.44636 -38.44401 -38.44371 -38.44158
 Alpha  occ. eigenvalues --  -38.44145 -38.43960  -2.20742  -2.20468  -2.20224
 Alpha  occ. eigenvalues --   -2.20218  -2.19975  -2.19942  -2.19708  -1.14442
 Alpha  occ. eigenvalues --   -1.14402  -1.14343  -1.14162  -1.14139  -1.14095
 Alpha  occ. eigenvalues --   -1.13926  -1.13889  -1.13872  -1.13866  -1.13858
 Alpha  occ. eigenvalues --   -1.13798  -1.13676  -1.13643  -1.13630  -1.13609
 Alpha  occ. eigenvalues --   -1.13601  -1.13551  -1.13372  -1.13371  -1.13323
 Alpha  occ. eigenvalues --   -0.17062  -0.14400  -0.11522  -0.11146
 Alpha virt. eigenvalues --   -0.07405  -0.05470  -0.04083  -0.04036  -0.03082
 Alpha virt. eigenvalues --   -0.02792  -0.01984  -0.01507  -0.01278  -0.00661
 Alpha virt. eigenvalues --   -0.00252  -0.00115   0.00139   0.00291   0.00450

  Beta  occ. eigenvalues --  -38.44855 -38.44600 -38.44357 -38.44338 -38.44168
  Beta  occ. eigenvalues --  -38.44137 -38.43927  -2.20647  -2.20404  -2.20158
  Beta  occ. eigenvalues --   -2.20145  -2.19962  -2.19958  -2.19647  -1.14382
  Beta  occ. eigenvalues --   -1.14347  -1.14250  -1.14120  -1.14096  -1.14032
  Beta  occ. eigenvalues --   -1.13882  -1.13840  -1.13825  -1.13811  -1.13798
  Beta  occ. eigenvalues --   -1.13749  -1.13675  -1.13644  -1.13625  -1.13620
  Beta  occ. eigenvalues --   -1.13597  -1.13551  -1.13331  -1.13329  -1.13284
  Beta  occ. eigenvalues --   -0.16543  -0.14144  -0.11212
  Beta virt. eigenvalues --   -0.07390  -0.07185  -0.05069  -0.03866  -0.03789
  Beta virt. eigenvalues --   -0.02675  -0.02425  -0.01710  -0.01270  -0.00943
  Beta virt. eigenvalues --   -0.00505  -0.00055   0.00080   0.00171   0.00506

 Mulliken charges and spin densities:
               1          2
     1  Na   0.003006   0.250252
     2  Na   0.704119   0.067756
     3  Na   0.330301   0.013827
     4  Na   0.109759   0.073998
     5  Na   0.113137   0.143210
     6  Na  -1.407590   0.508322
     7  Na   0.147269  -0.057366
 Sum of Mulliken charges =  -0.00000   1.00000

 Dipole moment (field-independent basis, Debye):
    X=              1.2943    Y=              0.5714    Z=              0.1030  Tot=              1.4185
 Quadrupole moment (field-independent basis, Debye-Ang):
   XX=            -68.3801   YY=            -63.0067   ZZ=            -70.9087
   XY=             -8.2621   XZ=             -0.7667   YZ=              2.3698

 Normal termination of Gaussian 16 at Tue Nov 28 22:11:40 2023.
