 Gaussian 16, Revision B.01,
 Gaussian 16:  ES64L-G16RevB.01 20-Dec-2017

 -------------------------
 #P B3LYP/6-311+g(d) force
 -------------------------

 -----
 DPGEN
 -----
 Symbolic Z-matrix:
 Charge =  0 Multiplicity = 2

                         Standard orientation:
 ---------------------------------------------------------------------
 Center     Atomic      Atomic             Coordinates (Angstroms)
 Number     Number       Type             X           Y           Z
 ---------------------------------------------------------------------
      1         11           0       -3.567978    0.692150    0.416238
      2         11           0       -0.306972    0.078550    2.060306
      3         11           0       -2.200406   -2.065023   -0.373723
      4         11           0        2.637574    1.924291   -0.031079
      5         11           0        0.611792   -1.185326   -1.176531
      6         11           0       -0.874676    1.848099   -1.182400
      7         11           0        3.700666   -1.292740    0.287189
 ---------------------------------------------------------------------

 SCF Done:  E(UB3LYP) =  -1136.11760917     A.U. after   29 cycles

 The electronic state is 2-A.
 Alpha  occ. eigenvalues --  -38.45315 -38.45272 -38.45012 -38.44191 -38.43425
 Alpha  occ. eigenvalues --  -38.43033 -38.42743  -2.21155  -2.21083  -2.20804
 Alpha  occ. eigenvalues --   -2.19990  -2.19312  -2.18977  -2.18622  -1.14829
 Alpha  occ. eigenvalues --   -1.14812  -1.14797  -1.14772  -1.14716  -1.14693
 Alpha  occ. eigenvalues --   -1.14472  -1.14462  -1.14444  -1.13669  -1.13648
 Alpha  occ. eigenvalues --   -1.13636  -1.13048  -1.12960  -1.12948  -1.12668
 Alpha  occ. eigenvalues --   -1.12619  -1.12592  -1.12307  -1.12269  -1.12244
 Alpha  occ. eigenvalues --   -0.18423  -0.14174  -0.11091  -0.10775
 Alpha virt. eigenvalues --   -0.07464  -0.05748  -0.03974  -0.03197  -0.02989
 Alpha virt. eigenvalues --   -0.02412  -0.02288  -0.01447  -0.00713  -0.00461
 Alpha virt. eigenvalues --    0.00015   0.00163   0.00331   0.00595   0.00640

  Beta  occ. eigenvalues --  -38.45305 -38.45206 -38.45003 -38.44192 -38.43413
  Beta  occ. eigenvalues --  -38.42982 -38.42701  -2.21138  -2.20962  -2.20787
  Beta  occ. eigenvalues --   -2.19994  -2.19295  -2.18888  -2.18545  -1.14819
  Beta  occ. eigenvalues --   -1.14796  -1.14771  -1.14686  -1.14634  -1.14603
  Beta  occ. eigenvalues --   -1.14459  -1.14451  -1.14432  -1.13666  -1.13653
  Beta  occ. eigenvalues --   -1.13627  -1.13022  -1.12955  -1.12915  -1.12615
  Beta  occ. eigenvalues --   -1.12537  -1.12525  -1.12253  -1.12208  -1.12188
  Beta  occ. eigenvalues --   -0.17707  -0.13967  -0.10852
  Beta virt. eigenvalues --   -0.07288  -0.06877  -0.05785  -0.03392  -0.03001
  Beta virt. eigenvalues --   -0.02746  -0.01828  -0.01425  -0.01380  -0.00594
  Beta virt. eigenvalues --   -0.00258   0.00062   0.00156   0.00513   0.00663

 Mulliken charges and spin densities:
               1          2
     1  Na   0.642917   0.285628
     2  Na  -0.399109   0.401172
     3  Na  -0.163575  -0.037009
     4  Na   0.118456   0.009040
     5  Na  -0.137698   0.235015
     6  Na  -0.388182   0.017830
     7  Na   0.327191   0.088324
 Sum of Mulliken charges =  -0.00000   1.00000

 Dipole moment (field-independent basis, Debye):
    X=              0.2280    Y=              0.1453    Z=              0.6382  Tot=              0.6931
 Quadrupole moment (field-independent basis, Debye-Ang):
   XX=            -44.4361   YY=            -75.8193   ZZ=            -72.9665
   XY=             -0.7939   XZ=              1.3171   YZ=             -0.9063

 Normal termination of Gaussian 16 at Thu Dec  7 21:38:07 2023.
