 Gaussian 16, Revision B.01,
 Gaussian 16:  ES64L-G16RevB.01 20-Dec-2017

 -------------------------
 #P B3LYP/6-311+g(d) force
 -------------------------

 -----
 DPGEN
 -----
 Symbolic Z-matrix:
 Charge =  0 Multiplicity = 2

                         Standard orientation:
 ---------------------------------------------------------------------
 Center     Atomic      Atomic             Coordinates (Angstroms)
 Number     Number       Type             X           Y           Z
 ---------------------------------------------------------------------
      1         11           0        1.304753    0.418485    2.083287
      2         11           0        3.756845   -1.179786   -0.428532
      3         11           0       -2.224583    2.059398    0.245395
      4         11           0       -3.734366   -1.373379    0.096709
      5         11           0        1.223606    2.496406   -0.501441
      6         11           0       -0.226679   -0.339522   -2.072819
      7         11           0       -0.099576   -2.081602    0.577401
 ---------------------------------------------------------------------

 SCF Done:  E(UB3LYP) =  -1136.12126427     A.U. after   22 cycles

 The electronic state is 2-A.
 Alpha  occ. eigenvalues --  -38.45514 -38.44465 -38.44384 -38.44044 -38.43940
 Alpha  occ. eigenvalues --  -38.43631 -38.42987  -2.21234  -2.20237  -2.20218
 Alpha  occ. eigenvalues --   -2.19820  -2.19809  -2.19489  -2.18827  -1.14908
 Alpha  occ. eigenvalues --   -1.14907  -1.14860  -1.13944  -1.13893  -1.13884
 Alpha  occ. eigenvalues --   -1.13865  -1.13849  -1.13832  -1.13512  -1.13504
 Alpha  occ. eigenvalues --   -1.13486  -1.13454  -1.13446  -1.13400  -1.13204
 Alpha  occ. eigenvalues --   -1.13183  -1.13053  -1.12507  -1.12500  -1.12451
 Alpha  occ. eigenvalues --   -0.17761  -0.12891  -0.11641  -0.10920
 Alpha virt. eigenvalues --   -0.06992  -0.05383  -0.03967  -0.03273  -0.02902
 Alpha virt. eigenvalues --   -0.02772  -0.02486  -0.01407  -0.00463  -0.00325
 Alpha virt. eigenvalues --    0.00053   0.00143   0.00347   0.00581   0.00740

  Beta  occ. eigenvalues --  -38.45519 -38.44467 -38.44299 -38.44042 -38.43862
  Beta  occ. eigenvalues --  -38.43610 -38.42979  -2.21243  -2.20222  -2.20080
  Beta  occ. eigenvalues --   -2.19817  -2.19665  -2.19455  -2.18815  -1.14916
  Beta  occ. eigenvalues --   -1.14901  -1.14868  -1.13891  -1.13888  -1.13853
  Beta  occ. eigenvalues --   -1.13840  -1.13753  -1.13719  -1.13491  -1.13486
  Beta  occ. eigenvalues --   -1.13448  -1.13413  -1.13355  -1.13300  -1.13178
  Beta  occ. eigenvalues --   -1.13122  -1.13035  -1.12501  -1.12466  -1.12445
  Beta  occ. eigenvalues --   -0.16987  -0.12777  -0.11446
  Beta virt. eigenvalues --   -0.07060  -0.06808  -0.05348  -0.03685  -0.02843
  Beta virt. eigenvalues --   -0.02473  -0.02102  -0.01775  -0.01364  -0.00413
  Beta virt. eigenvalues --   -0.00177   0.00066   0.00168   0.00558   0.00654

 Mulliken charges and spin densities:
               1          2
     1  Na  -0.053263   0.379164
     2  Na   0.163461  -0.102136
     3  Na  -0.075185  -0.017591
     4  Na   0.170006  -0.100641
     5  Na   0.053873  -0.009138
     6  Na  -0.323141   0.684881
     7  Na   0.064247   0.165461
 Sum of Mulliken charges =  -0.00000   1.00000

 Dipole moment (field-independent basis, Debye):
    X=              0.3520    Y=             -0.2354    Z=             -0.2072  Tot=              0.4714
 Quadrupole moment (field-independent basis, Debye-Ang):
   XX=            -47.8745   YY=            -72.8607   ZZ=            -71.8927
   XY=             -0.7999   XZ=             -2.3803   YZ=              0.5339

 Normal termination of Gaussian 16 at Sun Dec  3 23:54:58 2023.
