 Gaussian 16, Revision B.01,
 Gaussian 16:  ES64L-G16RevB.01 20-Dec-2017

 -------------------------
 #P B3LYP/6-311+g(d) force
 -------------------------

 -----
 DPGEN
 -----
 Symbolic Z-matrix:
 Charge =  0 Multiplicity = 2

                         Standard orientation:
 ---------------------------------------------------------------------
 Center     Atomic      Atomic             Coordinates (Angstroms)
 Number     Number       Type             X           Y           Z
 ---------------------------------------------------------------------
      1         11           0       -0.171511   -0.075120    2.092369
      2         11           0        1.742719   -0.056148   -1.210485
      3         11           0        1.961590    2.953283    0.279266
      4         11           0        2.206294   -2.719858    0.139765
      5         11           0       -3.594899    0.066912   -0.095068
      6         11           0       -0.978784    1.801217   -0.722498
      7         11           0       -1.165408   -1.970286   -0.483350
 ---------------------------------------------------------------------

 SCF Done:  E(UB3LYP) =  -1136.13270492     A.U. after   19 cycles

 The electronic state is 2-A.
 Alpha  occ. eigenvalues --  -38.43931 -38.43832 -38.43829 -38.43696 -38.43645
 Alpha  occ. eigenvalues --  -38.43329 -38.43208  -2.19786  -2.19674  -2.19654
 Alpha  occ. eigenvalues --   -2.19606  -2.19524  -2.19268  -2.19163  -1.13478
 Alpha  occ. eigenvalues --   -1.13466  -1.13419  -1.13406  -1.13332  -1.13330
 Alpha  occ. eigenvalues --   -1.13317  -1.13311  -1.13301  -1.13300  -1.13292
 Alpha  occ. eigenvalues --   -1.13190  -1.13185  -1.13140  -1.13129  -1.12991
 Alpha  occ. eigenvalues --   -1.12941  -1.12868  -1.12846  -1.12818  -1.12752
 Alpha  occ. eigenvalues --   -0.18628  -0.13173  -0.12750  -0.10498
 Alpha virt. eigenvalues --   -0.05794  -0.05396  -0.04566  -0.03048  -0.02917
 Alpha virt. eigenvalues --   -0.02387  -0.01734  -0.01548  -0.00299  -0.00179
 Alpha virt. eigenvalues --    0.00084   0.00279   0.00739   0.00796   0.00869

  Beta  occ. eigenvalues --  -38.43927 -38.43833 -38.43830 -38.43683 -38.43535
  Beta  occ. eigenvalues --  -38.43310 -38.43174  -2.19780  -2.19678  -2.19659
  Beta  occ. eigenvalues --   -2.19586  -2.19322  -2.19236  -2.19104  -1.13475
  Beta  occ. eigenvalues --   -1.13461  -1.13404  -1.13401  -1.13335  -1.13326
  Beta  occ. eigenvalues --   -1.13313  -1.13304  -1.13292  -1.13290  -1.13245
  Beta  occ. eigenvalues --   -1.13178  -1.13063  -1.13000  -1.12990  -1.12966
  Beta  occ. eigenvalues --   -1.12890  -1.12842  -1.12810  -1.12767  -1.12710
  Beta  occ. eigenvalues --   -0.17909  -0.12959  -0.12568
  Beta virt. eigenvalues --   -0.06585  -0.05648  -0.05346  -0.04522  -0.02381
  Beta virt. eigenvalues --   -0.02242  -0.01698  -0.01445  -0.01335  -0.00334
  Beta virt. eigenvalues --   -0.00018   0.00182   0.00352   0.00775   0.00838

 Mulliken charges and spin densities:
               1          2
     1  Na  -0.453229   0.638028
     2  Na  -0.015638   0.118203
     3  Na   0.139359  -0.046636
     4  Na   0.316230   0.012539
     5  Na   0.646555   0.037465
     6  Na  -0.361571   0.124539
     7  Na  -0.271707   0.115862
 Sum of Mulliken charges =  -0.00000   1.00000

 Dipole moment (field-independent basis, Debye):
    X=              0.0146    Y=             -0.0031    Z=              0.3873  Tot=              0.3876
 Quadrupole moment (field-independent basis, Debye-Ang):
   XX=            -56.3183   YY=            -61.2921   ZZ=            -74.9087
   XY=              0.3416   XZ=              1.5471   YZ=              0.4790

 Normal termination of Gaussian 16 at Fri Dec  8 05:32:34 2023.
