 Gaussian 16, Revision B.01,
 Gaussian 16:  ES64L-G16RevB.01 20-Dec-2017

 -------------------------
 #P B3LYP/6-311+g(d) force
 -------------------------

 -----
 DPGEN
 -----
 Symbolic Z-matrix:
 Charge =  0 Multiplicity = 2

                         Standard orientation:
 ---------------------------------------------------------------------
 Center     Atomic      Atomic             Coordinates (Angstroms)
 Number     Number       Type             X           Y           Z
 ---------------------------------------------------------------------
      1         11           0        2.025870   -2.630740    0.470528
      2         11           0        1.120591    2.853228    0.583362
      3         11           0        2.985819    0.257444   -0.790683
      4         11           0       -2.188284    2.017543   -0.135224
      5         11           0       -0.351174   -0.565095    1.383384
      6         11           0       -3.519808   -1.577980   -0.241803
      7         11           0       -0.073014   -0.354399   -1.269564
 ---------------------------------------------------------------------

 SCF Done:  E(UB3LYP) =  -1136.12216809     A.U. after   23 cycles

 The electronic state is 2-A.
 Alpha  occ. eigenvalues --  -38.44503 -38.44279 -38.44006 -38.43731 -38.43651
 Alpha  occ. eigenvalues --  -38.43374 -38.43219  -2.20277  -2.20120  -2.20036
 Alpha  occ. eigenvalues --   -2.19592  -2.19548  -2.19384  -2.19044  -1.14010
 Alpha  occ. eigenvalues --   -1.13950  -1.13939  -1.13897  -1.13827  -1.13797
 Alpha  occ. eigenvalues --   -1.13722  -1.13634  -1.13624  -1.13274  -1.13267
 Alpha  occ. eigenvalues --   -1.13242  -1.13221  -1.13186  -1.13142  -1.13071
 Alpha  occ. eigenvalues --   -1.12952  -1.12943  -1.12716  -1.12702  -1.12690
 Alpha  occ. eigenvalues --   -0.18598  -0.13581  -0.12258  -0.09915
 Alpha virt. eigenvalues --   -0.06260  -0.05698  -0.04426  -0.03048  -0.02580
 Alpha virt. eigenvalues --   -0.02224  -0.01659  -0.01476  -0.00729  -0.00188
 Alpha virt. eigenvalues --    0.00005   0.00236   0.00647   0.00662   0.00743

  Beta  occ. eigenvalues --  -38.44489 -38.44274 -38.43973 -38.43714 -38.43612
  Beta  occ. eigenvalues --  -38.43310 -38.43213  -2.20253  -2.20114  -2.19979
  Beta  occ. eigenvalues --   -2.19564  -2.19477  -2.19268  -2.19037  -1.13943
  Beta  occ. eigenvalues --   -1.13929  -1.13919  -1.13882  -1.13821  -1.13782
  Beta  occ. eigenvalues --   -1.13710  -1.13592  -1.13588  -1.13255  -1.13235
  Beta  occ. eigenvalues --   -1.13206  -1.13166  -1.13132  -1.13100  -1.12992
  Beta  occ. eigenvalues --   -1.12867  -1.12856  -1.12715  -1.12688  -1.12673
  Beta  occ. eigenvalues --   -0.17999  -0.13252  -0.11963
  Beta virt. eigenvalues --   -0.06379  -0.05984  -0.05648  -0.04249  -0.02472
  Beta virt. eigenvalues --   -0.02193  -0.01835  -0.01530  -0.00798  -0.00637
  Beta virt. eigenvalues --   -0.00120   0.00147   0.00327   0.00686   0.00725

 Mulliken charges and spin densities:
               1          2
     1  Na  -0.041831   0.104720
     2  Na  -0.328926   0.025833
     3  Na   0.479196   0.199112
     4  Na   0.280270   0.018240
     5  Na   0.077519   0.367910
     6  Na  -0.019514   0.070567
     7  Na  -0.446715   0.213619
 Sum of Mulliken charges =  -0.00000   1.00000

 Dipole moment (field-independent basis, Debye):
    X=             -0.6441    Y=             -0.2087    Z=              0.2403  Tot=              0.7185
 Quadrupole moment (field-independent basis, Debye-Ang):
   XX=            -52.7369   YY=            -61.6822   ZZ=            -76.3797
   XY=             -0.7556   XZ=              1.2043   YZ=              0.2915

 Normal termination of Gaussian 16 at Tue Dec  5 15:43:06 2023.
