 Gaussian 16, Revision B.01,
 Gaussian 16:  ES64L-G16RevB.01 20-Dec-2017

 -------------------------
 #P B3LYP/6-311+g(d) force
 -------------------------

 -----
 DPGEN
 -----
 Symbolic Z-matrix:
 Charge =  0 Multiplicity = 2

                         Standard orientation:
 ---------------------------------------------------------------------
 Center     Atomic      Atomic             Coordinates (Angstroms)
 Number     Number       Type             X           Y           Z
 ---------------------------------------------------------------------
      1         11           0        2.141274   -1.826126   -1.031104
      2         11           0        2.565154    0.922774    0.285603
      3         11           0       -1.581461   -2.330814    0.387522
      4         11           0       -0.605648    0.251892   -1.536277
      5         11           0        0.499487   -0.472545    1.925390
      6         11           0        0.040031    2.844072    0.032504
      7         11           0       -3.058837    0.610747   -0.063638
 ---------------------------------------------------------------------

 SCF Done:  E(UB3LYP) =  -1136.12843438     A.U. after   20 cycles

 The electronic state is 2-A.
 Alpha  occ. eigenvalues --  -38.44268 -38.43711 -38.43685 -38.43607 -38.43453
 Alpha  occ. eigenvalues --  -38.43284 -38.43138  -2.20151  -2.19649  -2.19594
 Alpha  occ. eigenvalues --   -2.19574  -2.19342  -2.19334  -2.19023  -1.13928
 Alpha  occ. eigenvalues --   -1.13791  -1.13759  -1.13458  -1.13361  -1.13317
 Alpha  occ. eigenvalues --   -1.13256  -1.13246  -1.13209  -1.13200  -1.13178
 Alpha  occ. eigenvalues --   -1.13142  -1.13036  -1.13022  -1.13012  -1.12971
 Alpha  occ. eigenvalues --   -1.12959  -1.12941  -1.12698  -1.12670  -1.12646
 Alpha  occ. eigenvalues --   -0.19223  -0.13525  -0.12404  -0.11157
 Alpha virt. eigenvalues --   -0.05604  -0.04870  -0.04489  -0.03526  -0.02992
 Alpha virt. eigenvalues --   -0.02552  -0.01417  -0.00923  -0.00160   0.00017
 Alpha virt. eigenvalues --    0.00123   0.00365   0.00851   0.00902   0.00959

  Beta  occ. eigenvalues --  -38.44266 -38.43672 -38.43603 -38.43595 -38.43441
  Beta  occ. eigenvalues --  -38.43231 -38.43136  -2.20150  -2.19563  -2.19521
  Beta  occ. eigenvalues --   -2.19494  -2.19324  -2.19237  -2.19023  -1.13919
  Beta  occ. eigenvalues --   -1.13779  -1.13762  -1.13399  -1.13310  -1.13232
  Beta  occ. eigenvalues --   -1.13203  -1.13184  -1.13155  -1.13131  -1.13112
  Beta  occ. eigenvalues --   -1.13107  -1.13013  -1.12967  -1.12957  -1.12951
  Beta  occ. eigenvalues --   -1.12902  -1.12885  -1.12692  -1.12660  -1.12637
  Beta  occ. eigenvalues --   -0.18519  -0.13259  -0.12138
  Beta virt. eigenvalues --   -0.07216  -0.05511  -0.04840  -0.04360  -0.02811
  Beta virt. eigenvalues --   -0.02255  -0.01566  -0.01293  -0.00833  -0.00057
  Beta virt. eigenvalues --    0.00010   0.00166   0.00413   0.00903   0.00950

 Mulliken charges and spin densities:
               1          2
     1  Na  -0.081439   0.129882
     2  Na   0.509877   0.158442
     3  Na   0.129396   0.033329
     4  Na  -0.166584   0.333924
     5  Na  -0.311688   0.441322
     6  Na  -0.133841  -0.053780
     7  Na   0.054278  -0.043120
 Sum of Mulliken charges =  -0.00000   1.00000

 Dipole moment (field-independent basis, Debye):
    X=             -0.3573    Y=             -0.1486    Z=              0.1504  Tot=              0.4152
 Quadrupole moment (field-independent basis, Debye-Ang):
   XX=            -57.8806   YY=            -64.7955   ZZ=            -72.2278
   XY=             -0.5172   XZ=             -1.8528   YZ=              1.8457

 Normal termination of Gaussian 16 at Thu Dec  7 15:01:24 2023.
