 Gaussian 16, Revision B.01,
 Gaussian 16:  ES64L-G16RevB.01 20-Dec-2017

 -------------------------
 #P B3LYP/6-311+g(d) force
 -------------------------

 -----
 DPGEN
 -----
 Symbolic Z-matrix:
 Charge =  0 Multiplicity = 2

                         Standard orientation:
 ---------------------------------------------------------------------
 Center     Atomic      Atomic             Coordinates (Angstroms)
 Number     Number       Type             X           Y           Z
 ---------------------------------------------------------------------
      1         11           0       -4.255797   -1.076388   -0.177851
      2         11           0       -0.788930   -1.911756   -0.902600
      3         11           0        3.660860    0.610007   -0.314032
      4         11           0        2.307401   -2.863449    0.101097
      5         11           0       -2.841390    2.051160    0.249326
      6         11           0        0.607834    0.094757    1.725945
      7         11           0        1.310022    3.095669   -0.681886
 ---------------------------------------------------------------------

 SCF Done:  E(UB3LYP) =  -1136.11902417     A.U. after   22 cycles

 The electronic state is 2-A.
 Alpha  occ. eigenvalues --  -38.45006 -38.44727 -38.44470 -38.44278 -38.44148
 Alpha  occ. eigenvalues --  -38.43656 -38.43617  -2.20750  -2.20519  -2.20291
 Alpha  occ. eigenvalues --   -2.20078  -2.19910  -2.19465  -2.19443  -1.14444
 Alpha  occ. eigenvalues --   -1.14407  -1.14387  -1.14213  -1.14210  -1.14134
 Alpha  occ. eigenvalues --   -1.13976  -1.13943  -1.13893  -1.13755  -1.13733
 Alpha  occ. eigenvalues --   -1.13716  -1.13600  -1.13569  -1.13552  -1.13119
 Alpha  occ. eigenvalues --   -1.13115  -1.13113  -1.13091  -1.13084  -1.13063
 Alpha  occ. eigenvalues --   -0.16969  -0.13688  -0.12344  -0.09878
 Alpha virt. eigenvalues --   -0.06784  -0.06432  -0.04499  -0.03205  -0.02854
 Alpha virt. eigenvalues --   -0.02487  -0.02287  -0.01536  -0.01339  -0.00723
 Alpha virt. eigenvalues --   -0.00192   0.00084   0.00383   0.00416   0.00608

  Beta  occ. eigenvalues --  -38.45003 -38.44725 -38.44409 -38.44277 -38.44149
  Beta  occ. eigenvalues --  -38.43602 -38.43553  -2.20748  -2.20518  -2.20179
  Beta  occ. eigenvalues --   -2.20079  -2.19914  -2.19365  -2.19326  -1.14445
  Beta  occ. eigenvalues --   -1.14409  -1.14364  -1.14215  -1.14197  -1.14125
  Beta  occ. eigenvalues --   -1.13899  -1.13866  -1.13809  -1.13757  -1.13728
  Beta  occ. eigenvalues --   -1.13707  -1.13605  -1.13575  -1.13528  -1.13048
  Beta  occ. eigenvalues --   -1.13045  -1.13031  -1.13028  -1.13006  -1.12979
  Beta  occ. eigenvalues --   -0.16449  -0.13160  -0.12109
  Beta virt. eigenvalues --   -0.06690  -0.06522  -0.06143  -0.04233  -0.02692
  Beta virt. eigenvalues --   -0.02486  -0.02286  -0.02015  -0.01299  -0.00946
  Beta virt. eigenvalues --   -0.00662   0.00101   0.00248   0.00453   0.00543

 Mulliken charges and spin densities:
               1          2
     1  Na   0.242853   0.287220
     2  Na  -0.485731  -0.019140
     3  Na  -0.097037   0.441187
     4  Na   0.520023   0.084941
     5  Na  -0.073391   0.001867
     6  Na  -0.206858   0.241564
     7  Na   0.100140  -0.037639
 Sum of Mulliken charges =  -0.00000   1.00000

 Dipole moment (field-independent basis, Debye):
    X=             -0.1532    Y=             -0.2234    Z=              0.3336  Tot=              0.4297
 Quadrupole moment (field-independent basis, Debye-Ang):
   XX=            -69.3975   YY=            -63.5528   ZZ=            -69.8192
   XY=             -8.9844   XZ=              0.6357   YZ=             -1.3711

 Normal termination of Gaussian 16 at Sun Dec  3 13:53:51 2023.
