 Gaussian 16, Revision B.01,
 Gaussian 16:  ES64L-G16RevB.01 20-Dec-2017

 -------------------------
 #P B3LYP/6-311+g(d) force
 -------------------------

 -----
 DPGEN
 -----
 Symbolic Z-matrix:
 Charge =  0 Multiplicity = 2

                         Standard orientation:
 ---------------------------------------------------------------------
 Center     Atomic      Atomic             Coordinates (Angstroms)
 Number     Number       Type             X           Y           Z
 ---------------------------------------------------------------------
      1         11           0       -0.883086   -2.691980   -0.086655
      2         11           0       -3.729907    2.130283   -0.232955
      3         11           0        2.746852    2.650129   -0.369704
      4         11           0       -0.381257    3.307560    0.623690
      5         11           0       -4.540703   -1.748430   -0.083170
      6         11           0        2.108664   -3.376209    0.297979
      7         11           0        4.679437   -0.271354   -0.149185
 ---------------------------------------------------------------------

 SCF Done:  E(UB3LYP) =  -1136.10530683     A.U. after   24 cycles

 The electronic state is 2-A.
 Alpha  occ. eigenvalues --  -38.45840 -38.45151 -38.44675 -38.44615 -38.44427
 Alpha  occ. eigenvalues --  -38.44006 -38.44004  -2.21555  -2.20917  -2.20446
 Alpha  occ. eigenvalues --   -2.20407  -2.20202  -2.19817  -2.19796  -1.15248
 Alpha  occ. eigenvalues --   -1.15228  -1.15186  -1.14580  -1.14561  -1.14544
 Alpha  occ. eigenvalues --   -1.14130  -1.14126  -1.14090  -1.14087  -1.14079
 Alpha  occ. eigenvalues --   -1.14062  -1.13856  -1.13842  -1.13822  -1.13481
 Alpha  occ. eigenvalues --   -1.13466  -1.13457  -1.13456  -1.13441  -1.13423
 Alpha  occ. eigenvalues --   -0.15378  -0.13729  -0.13456  -0.11004
 Alpha virt. eigenvalues --   -0.07860  -0.04847  -0.04544  -0.03576  -0.03505
 Alpha virt. eigenvalues --   -0.02474  -0.02174  -0.02021  -0.01358  -0.00884
 Alpha virt. eigenvalues --   -0.00610  -0.00359  -0.00021   0.00322   0.00439

  Beta  occ. eigenvalues --  -38.45845 -38.45092 -38.44681 -38.44590 -38.44353
  Beta  occ. eigenvalues --  -38.43968 -38.43967  -2.21568  -2.20810  -2.20462
  Beta  occ. eigenvalues --   -2.20366  -2.20064  -2.19750  -2.19725  -1.15262
  Beta  occ. eigenvalues --   -1.15239  -1.15169  -1.14508  -1.14490  -1.14464
  Beta  occ. eigenvalues --   -1.14144  -1.14140  -1.14073  -1.14059  -1.14053
  Beta  occ. eigenvalues --   -1.14003  -1.13763  -1.13750  -1.13731  -1.13427
  Beta  occ. eigenvalues --   -1.13423  -1.13411  -1.13407  -1.13392  -1.13380
  Beta  occ. eigenvalues --   -0.14868  -0.12909  -0.12798
  Beta virt. eigenvalues --   -0.08033  -0.07861  -0.04326  -0.04118  -0.03323
  Beta virt. eigenvalues --   -0.03247  -0.02250  -0.02022  -0.01814  -0.01153
  Beta virt. eigenvalues --   -0.00493  -0.00421  -0.00042   0.00107   0.00316

 Mulliken charges and spin densities:
               1          2
     1  Na  -1.236080   0.371970
     2  Na   0.112200  -0.013755
     3  Na   0.173733  -0.043577
     4  Na  -0.530521   0.183700
     5  Na   0.403541   0.366420
     6  Na   0.950302  -0.153457
     7  Na   0.126825   0.288699
 Sum of Mulliken charges =  -0.00000   1.00000

 Dipole moment (field-independent basis, Debye):
    X=              0.0295    Y=              0.2035    Z=             -0.0927  Tot=              0.2255
 Quadrupole moment (field-independent basis, Debye-Ang):
   XX=            -55.2248   YY=            -68.4206   ZZ=            -74.1597
   XY=             -5.4612   XZ=              0.8646   YZ=             -1.0064

 Normal termination of Gaussian 16 at Sun Dec  3 21:28:00 2023.
