 Gaussian 16, Revision B.01,
 Gaussian 16:  ES64L-G16RevB.01 20-Dec-2017

 -------------------------
 #P B3LYP/6-311+g(d) force
 -------------------------

 -----
 DPGEN
 -----
 Symbolic Z-matrix:
 Charge =  0 Multiplicity = 2

                         Standard orientation:
 ---------------------------------------------------------------------
 Center     Atomic      Atomic             Coordinates (Angstroms)
 Number     Number       Type             X           Y           Z
 ---------------------------------------------------------------------
      1         11           0       -2.736107   -1.660782   -0.300851
      2         11           0        1.152359   -2.628024   -0.020194
      3         11           0        1.416095    2.562310   -0.112245
      4         11           0        3.235211   -0.095754    0.168469
      5         11           0       -0.413327   -0.232984    1.684651
      6         11           0       -2.604528    1.889948    0.219285
      7         11           0       -0.049704    0.165286   -1.639115
 ---------------------------------------------------------------------

 SCF Done:  E(UB3LYP) =  -1136.13505629     A.U. after   19 cycles

 The electronic state is 2-A.
 Alpha  occ. eigenvalues --  -38.44313 -38.44280 -38.44178 -38.43323 -38.43192
 Alpha  occ. eigenvalues --  -38.43115 -38.42963  -2.20143  -2.20131  -2.20000
 Alpha  occ. eigenvalues --   -2.19184  -2.19076  -2.19061  -2.18944  -1.13818
 Alpha  occ. eigenvalues --   -1.13810  -1.13805  -1.13789  -1.13785  -1.13775
 Alpha  occ. eigenvalues --   -1.13678  -1.13657  -1.13631  -1.12898  -1.12845
 Alpha  occ. eigenvalues --   -1.12814  -1.12806  -1.12752  -1.12735  -1.12702
 Alpha  occ. eigenvalues --   -1.12688  -1.12669  -1.12624  -1.12562  -1.12552
 Alpha  occ. eigenvalues --   -0.18761  -0.13511  -0.12204  -0.10256
 Alpha virt. eigenvalues --   -0.05972  -0.05687  -0.04322  -0.03243  -0.02533
 Alpha virt. eigenvalues --   -0.02045  -0.01867  -0.01370  -0.00515  -0.00316
 Alpha virt. eigenvalues --    0.00015   0.00326   0.00726   0.00811   0.00887

  Beta  occ. eigenvalues --  -38.44303 -38.44278 -38.44170 -38.43318 -38.43187
  Beta  occ. eigenvalues --  -38.43045 -38.42889  -2.20130  -2.20128  -2.19988
  Beta  occ. eigenvalues --   -2.19179  -2.19055  -2.18948  -2.18809  -1.13809
  Beta  occ. eigenvalues --   -1.13805  -1.13788  -1.13783  -1.13765  -1.13765
  Beta  occ. eigenvalues --   -1.13659  -1.13636  -1.13627  -1.12885  -1.12830
  Beta  occ. eigenvalues --   -1.12805  -1.12768  -1.12712  -1.12686  -1.12679
  Beta  occ. eigenvalues --   -1.12607  -1.12587  -1.12531  -1.12466  -1.12456
  Beta  occ. eigenvalues --   -0.18063  -0.13271  -0.11944
  Beta virt. eigenvalues --   -0.06412  -0.05904  -0.05669  -0.04321  -0.02465
  Beta virt. eigenvalues --   -0.01839  -0.01731  -0.01297  -0.01048  -0.00550
  Beta virt. eigenvalues --   -0.00362   0.00159   0.00365   0.00785   0.00815

 Mulliken charges and spin densities:
               1          2
     1  Na   0.177509  -0.054427
     2  Na   0.214152  -0.043513
     3  Na   0.229453  -0.072927
     4  Na  -0.000330  -0.009924
     5  Na  -0.361895   0.641526
     6  Na   0.092714  -0.078282
     7  Na  -0.351603   0.617547
 Sum of Mulliken charges =  -0.00000   1.00000

 Dipole moment (field-independent basis, Debye):
    X=             -0.3839    Y=             -0.0095    Z=              0.0197  Tot=              0.3845
 Quadrupole moment (field-independent basis, Debye-Ang):
   XX=            -51.2804   YY=            -63.2295   ZZ=            -76.9786
   XY=             -0.0542   XZ=              1.0269   YZ=              1.0723

 Normal termination of Gaussian 16 at Fri Dec  8 06:01:50 2023.
