 Gaussian 16, Revision B.01,
 Gaussian 16:  ES64L-G16RevB.01 20-Dec-2017

 -------------------------
 #P B3LYP/6-311+g(d) force
 -------------------------

 -----
 DPGEN
 -----
 Symbolic Z-matrix:
 Charge =  0 Multiplicity = 2

                         Standard orientation:
 ---------------------------------------------------------------------
 Center     Atomic      Atomic             Coordinates (Angstroms)
 Number     Number       Type             X           Y           Z
 ---------------------------------------------------------------------
      1         11           0       -2.454553   -2.018925   -0.279164
      2         11           0        2.695416    0.304133   -0.019655
      3         11           0        0.916133    2.985421   -0.478082
      4         11           0       -2.880705    1.241236    0.114697
      5         11           0       -0.214936    0.025183   -1.295895
      6         11           0        0.087921    0.132710    2.136532
      7         11           0        1.850725   -2.669758   -0.178433
 ---------------------------------------------------------------------

 SCF Done:  E(UB3LYP) =  -1136.13198831     A.U. after   19 cycles

 The electronic state is 2-A.
 Alpha  occ. eigenvalues --  -38.44308 -38.44134 -38.43622 -38.43553 -38.43472
 Alpha  occ. eigenvalues --  -38.43258 -38.42891  -2.20149  -2.19969  -2.19505
 Alpha  occ. eigenvalues --   -2.19433  -2.19385  -2.19111  -2.18947  -1.13842
 Alpha  occ. eigenvalues --   -1.13811  -1.13788  -1.13662  -1.13617  -1.13588
 Alpha  occ. eigenvalues --   -1.13207  -1.13176  -1.13143  -1.13123  -1.13110
 Alpha  occ. eigenvalues --   -1.13073  -1.13037  -1.13021  -1.12982  -1.12801
 Alpha  occ. eigenvalues --   -1.12760  -1.12746  -1.12640  -1.12593  -1.12560
 Alpha  occ. eigenvalues --   -0.18732  -0.13439  -0.12218  -0.10595
 Alpha virt. eigenvalues --   -0.05662  -0.05336  -0.04689  -0.03243  -0.02540
 Alpha virt. eigenvalues --   -0.02419  -0.01565  -0.01342  -0.00499  -0.00287
 Alpha virt. eigenvalues --   -0.00003   0.00335   0.00783   0.00798   0.00900

  Beta  occ. eigenvalues --  -38.44304 -38.44128 -38.43553 -38.43514 -38.43463
  Beta  occ. eigenvalues --  -38.43247 -38.42846  -2.20145  -2.19961  -2.19421
  Beta  occ. eigenvalues --   -2.19387  -2.19306  -2.19094  -2.18868  -1.13839
  Beta  occ. eigenvalues --   -1.13794  -1.13780  -1.13651  -1.13601  -1.13586
  Beta  occ. eigenvalues --   -1.13192  -1.13132  -1.13066  -1.13032  -1.13025
  Beta  occ. eigenvalues --   -1.13020  -1.12984  -1.12978  -1.12966  -1.12781
  Beta  occ. eigenvalues --   -1.12751  -1.12723  -1.12571  -1.12535  -1.12503
  Beta  occ. eigenvalues --   -0.18019  -0.13212  -0.11991
  Beta virt. eigenvalues --   -0.06650  -0.05627  -0.05268  -0.04649  -0.02451
  Beta virt. eigenvalues --   -0.01892  -0.01481  -0.01341  -0.01241  -0.00531
  Beta virt. eigenvalues --   -0.00306   0.00160   0.00379   0.00793   0.00875

 Mulliken charges and spin densities:
               1          2
     1  Na   0.137282   0.008819
     2  Na   0.528665   0.182050
     3  Na   0.261487   0.087597
     4  Na   0.230113   0.057784
     5  Na  -0.644012   0.027512
     6  Na  -0.495798   0.650779
     7  Na  -0.017736  -0.014541
 Sum of Mulliken charges =  -0.00000   1.00000

 Dipole moment (field-independent basis, Debye):
    X=             -0.6997    Y=             -0.0926    Z=              0.2518  Tot=              0.7493
 Quadrupole moment (field-independent basis, Debye-Ang):
   XX=            -57.5637   YY=            -59.5091   ZZ=            -75.6815
   XY=             -0.4303   XZ=             -0.4891   YZ=             -0.0601

 Normal termination of Gaussian 16 at Tue Dec  5 09:59:57 2023.
