 Gaussian 16, Revision B.01,
 Gaussian 16:  ES64L-G16RevB.01 20-Dec-2017

 -------------------------
 #P B3LYP/6-311+g(d) force
 -------------------------

 -----
 DPGEN
 -----
 Symbolic Z-matrix:
 Charge =  0 Multiplicity = 2

                         Standard orientation:
 ---------------------------------------------------------------------
 Center     Atomic      Atomic             Coordinates (Angstroms)
 Number     Number       Type             X           Y           Z
 ---------------------------------------------------------------------
      1         11           0       -0.832828    1.645512    0.991250
      2         11           0        2.220174    0.684800   -0.013971
      3         11           0        0.375842   -1.507527   -0.666710
      4         11           0       -2.882687   -1.094661    1.492645
      5         11           0       -3.775131   -1.425416   -1.343580
      6         11           0        4.335462   -2.401593    0.157506
      7         11           0        0.559168    4.098884   -0.617140
 ---------------------------------------------------------------------

 SCF Done:  E(UB3LYP) =  -1136.11402910     A.U. after   24 cycles

 The electronic state is 2-A.
 Alpha  occ. eigenvalues --  -38.45514 -38.45047 -38.44332 -38.44272 -38.43616
 Alpha  occ. eigenvalues --  -38.43304 -38.43266  -2.21338  -2.20787  -2.20197
 Alpha  occ. eigenvalues --   -2.20155  -2.19470  -2.19172  -2.19126  -1.15109
 Alpha  occ. eigenvalues --   -1.15016  -1.14897  -1.14462  -1.14460  -1.14393
 Alpha  occ. eigenvalues --   -1.13921  -1.13912  -1.13866  -1.13844  -1.13828
 Alpha  occ. eigenvalues --   -1.13693  -1.13125  -1.13097  -1.13084  -1.12866
 Alpha  occ. eigenvalues --   -1.12857  -1.12833  -1.12775  -1.12768  -1.12709
 Alpha  occ. eigenvalues --   -0.17393  -0.13863  -0.12590  -0.09820
 Alpha virt. eigenvalues --   -0.07263  -0.05236  -0.04735  -0.03648  -0.02951
 Alpha virt. eigenvalues --   -0.02287  -0.02031  -0.01566  -0.01112  -0.00767
 Alpha virt. eigenvalues --   -0.00285   0.00184   0.00321   0.00453   0.00570

  Beta  occ. eigenvalues --  -38.45503 -38.45034 -38.44321 -38.44272 -38.43538
  Beta  occ. eigenvalues --  -38.43258 -38.43237  -2.21322  -2.20763  -2.20183
  Beta  occ. eigenvalues --   -2.20158  -2.19326  -2.19123  -2.19038  -1.15096
  Beta  occ. eigenvalues --   -1.14993  -1.14889  -1.14446  -1.14442  -1.14377
  Beta  occ. eigenvalues --   -1.13912  -1.13886  -1.13856  -1.13833  -1.13791
  Beta  occ. eigenvalues --   -1.13704  -1.13030  -1.12997  -1.12987  -1.12831
  Beta  occ. eigenvalues --   -1.12822  -1.12781  -1.12714  -1.12704  -1.12650
  Beta  occ. eigenvalues --   -0.16866  -0.13428  -0.12301
  Beta virt. eigenvalues --   -0.07069  -0.06339  -0.05039  -0.04341  -0.03427
  Beta virt. eigenvalues --   -0.02749  -0.02093  -0.01823  -0.01094  -0.00900
  Beta virt. eigenvalues --   -0.00367  -0.00131   0.00269   0.00549   0.00629

 Mulliken charges and spin densities:
               1          2
     1  Na  -0.765809   0.074238
     2  Na  -0.730519  -0.006894
     3  Na  -0.592188  -0.072025
     4  Na   0.479146   0.068464
     5  Na   0.064649   0.511693
     6  Na   0.436486   0.098808
     7  Na   1.108235   0.325717
 Sum of Mulliken charges =  -0.00000   1.00000

 Dipole moment (field-independent basis, Debye):
    X=              1.1545    Y=             -0.9318    Z=              0.6978  Tot=              1.6396
 Quadrupole moment (field-independent basis, Debye-Ang):
   XX=            -64.3013   YY=            -68.3160   ZZ=            -68.0673
   XY=             -7.0856   XZ=             -2.4234   YZ=             -2.1182

 Normal termination of Gaussian 16 at Wed Nov 29 00:47:29 2023.
