 Gaussian 16, Revision B.01,
 Gaussian 16:  ES64L-G16RevB.01 20-Dec-2017

 -------------------------
 #P B3LYP/6-311+g(d) force
 -------------------------

 -----
 DPGEN
 -----
 Symbolic Z-matrix:
 Charge =  0 Multiplicity = 2

                         Standard orientation:
 ---------------------------------------------------------------------
 Center     Atomic      Atomic             Coordinates (Angstroms)
 Number     Number       Type             X           Y           Z
 ---------------------------------------------------------------------
      1         11           0        0.081436   -1.621707   -1.434226
      2         11           0       -0.217023    3.149245    0.112899
      3         11           0        5.136206   -0.494672   -0.130658
      4         11           0        2.567969    0.839533    0.005759
      5         11           0        0.164936   -1.904071    1.511529
      6         11           0       -2.492522    0.611399    0.074965
      7         11           0       -5.241002   -0.579726   -0.140268
 ---------------------------------------------------------------------

 SCF Done:  E(UB3LYP) =  -1136.10585225     A.U. after   28 cycles

 The electronic state is 2-A.
 Alpha  occ. eigenvalues --  -38.44901 -38.44660 -38.44605 -38.44492 -38.43640
 Alpha  occ. eigenvalues --  -38.43381 -38.43326  -2.20733  -2.20506  -2.20447
 Alpha  occ. eigenvalues --   -2.20322  -2.19453  -2.19248  -2.19195  -1.14407
 Alpha  occ. eigenvalues --   -1.14351  -1.14342  -1.14267  -1.14159  -1.14155
 Alpha  occ. eigenvalues --   -1.14133  -1.14065  -1.14053  -1.13973  -1.13949
 Alpha  occ. eigenvalues --   -1.13927  -1.13106  -1.13102  -1.13085  -1.12936
 Alpha  occ. eigenvalues --   -1.12934  -1.12892  -1.12889  -1.12877  -1.12822
 Alpha  occ. eigenvalues --   -0.17053  -0.13965  -0.11758  -0.11710
 Alpha virt. eigenvalues --   -0.06390  -0.05485  -0.04184  -0.03627  -0.02770
 Alpha virt. eigenvalues --   -0.02225  -0.02089  -0.01291  -0.01075  -0.01007
 Alpha virt. eigenvalues --   -0.00612  -0.00302   0.00324   0.00436   0.00542

  Beta  occ. eigenvalues --  -38.44804 -38.44658 -38.44529 -38.44494 -38.43579
  Beta  occ. eigenvalues --  -38.43380 -38.43325  -2.20554  -2.20502  -2.20326
  Beta  occ. eigenvalues --   -2.20307  -2.19340  -2.19256  -2.19203  -1.14287
  Beta  occ. eigenvalues --   -1.14265  -1.14229  -1.14220  -1.14151  -1.14137
  Beta  occ. eigenvalues --   -1.14066  -1.13975  -1.13969  -1.13957  -1.13957
  Beta  occ. eigenvalues --   -1.13926  -1.13029  -1.13026  -1.13011  -1.12947
  Beta  occ. eigenvalues --   -1.12903  -1.12891  -1.12880  -1.12837  -1.12827
  Beta  occ. eigenvalues --   -0.16660  -0.12916  -0.11277
  Beta virt. eigenvalues --   -0.08432  -0.06374  -0.04859  -0.03912  -0.03525
  Beta virt. eigenvalues --   -0.02521  -0.01946  -0.01710  -0.01086  -0.00743
  Beta virt. eigenvalues --   -0.00591  -0.00295  -0.00225   0.00367   0.00568

 Mulliken charges and spin densities:
               1          2
     1  Na   0.737989  -0.054707
     2  Na   2.708189   0.055181
     3  Na   0.461918   0.090732
     4  Na  -2.237507   0.428612
     5  Na   0.724275   0.003964
     6  Na  -2.336483   0.443611
     7  Na  -0.058381   0.032607
 Sum of Mulliken charges =  -0.00000   1.00000

 Dipole moment (field-independent basis, Debye):
    X=             -0.1251    Y=             -1.8105    Z=             -0.0172  Tot=              1.8149
 Quadrupole moment (field-independent basis, Debye-Ang):
   XX=            -61.6548   YY=            -74.2083   ZZ=            -62.8291
   XY=             -0.7673   XZ=              0.3712   YZ=              0.0182

 Normal termination of Gaussian 16 at Sun Dec  3 14:21:56 2023.
