 Gaussian 16, Revision B.01,
 Gaussian 16:  ES64L-G16RevB.01 20-Dec-2017

 -------------------------
 #P B3LYP/6-311+g(d) force
 -------------------------

 -----
 DPGEN
 -----
 Symbolic Z-matrix:
 Charge =  0 Multiplicity = 2

                         Standard orientation:
 ---------------------------------------------------------------------
 Center     Atomic      Atomic             Coordinates (Angstroms)
 Number     Number       Type             X           Y           Z
 ---------------------------------------------------------------------
      1         11           0       -3.354410   -1.909931    1.397878
      2         11           0       -1.324930    2.525391   -0.821606
      3         11           0       -4.701318    0.423435   -0.641017
      4         11           0        4.776246    0.552390    0.450387
      5         11           0        3.477682   -1.842429   -0.774923
      6         11           0       -0.031729   -2.023273   -0.571060
      7         11           0        1.158459    2.274417    0.960341
 ---------------------------------------------------------------------

 SCF Done:  E(UB3LYP) =  -1136.10714136     A.U. after   21 cycles

 The electronic state is 2-A.
 Alpha  occ. eigenvalues --  -38.45085 -38.45038 -38.44466 -38.44380 -38.44263
 Alpha  occ. eigenvalues --  -38.43940 -38.43512  -2.20870  -2.20787  -2.20253
 Alpha  occ. eigenvalues --   -2.20219  -2.20086  -2.19738  -2.19312  -1.14531
 Alpha  occ. eigenvalues --   -1.14517  -1.14507  -1.14467  -1.14447  -1.14420
 Alpha  occ. eigenvalues --   -1.13986  -1.13917  -1.13891  -1.13867  -1.13853
 Alpha  occ. eigenvalues --   -1.13836  -1.13745  -1.13728  -1.13693  -1.13439
 Alpha  occ. eigenvalues --   -1.13404  -1.13372  -1.12975  -1.12974  -1.12949
 Alpha  occ. eigenvalues --   -0.16055  -0.14210  -0.12077  -0.11075
 Alpha virt. eigenvalues --   -0.07412  -0.04863  -0.04714  -0.03671  -0.03356
 Alpha virt. eigenvalues --   -0.02369  -0.02241  -0.01427  -0.01120  -0.00876
 Alpha virt. eigenvalues --   -0.00469  -0.00236   0.00245   0.00560   0.00649

  Beta  occ. eigenvalues --  -38.45057 -38.45024 -38.44374 -38.44311 -38.44262
  Beta  occ. eigenvalues --  -38.43928 -38.43513  -2.20826  -2.20755  -2.20099
  Beta  occ. eigenvalues --   -2.20085  -2.20081  -2.19718  -2.19316  -1.14498
  Beta  occ. eigenvalues --   -1.14491  -1.14464  -1.14445  -1.14428  -1.14394
  Beta  occ. eigenvalues --   -1.13921  -1.13802  -1.13778  -1.13777  -1.13766
  Beta  occ. eigenvalues --   -1.13748  -1.13742  -1.13711  -1.13637  -1.13418
  Beta  occ. eigenvalues --   -1.13389  -1.13361  -1.12978  -1.12970  -1.12948
  Beta  occ. eigenvalues --   -0.15421  -0.13597  -0.11769
  Beta virt. eigenvalues --   -0.07717  -0.07255  -0.04510  -0.04136  -0.03481
  Beta virt. eigenvalues --   -0.03007  -0.02343  -0.01867  -0.00992  -0.00833
  Beta virt. eigenvalues --   -0.00672  -0.00359  -0.00158   0.00374   0.00617

 Mulliken charges and spin densities:
               1          2
     1  Na   0.368713  -0.039468
     2  Na  -0.200877  -0.019460
     3  Na   0.311363   0.314430
     4  Na   0.005112   0.308962
     5  Na  -0.022997  -0.024048
     6  Na  -0.434959   0.411617
     7  Na  -0.026354   0.047968
 Sum of Mulliken charges =  -0.00000   1.00000

 Dipole moment (field-independent basis, Debye):
    X=             -0.7536    Y=             -0.2697    Z=              0.2438  Tot=              0.8367
 Quadrupole moment (field-independent basis, Debye-Ang):
   XX=            -61.7168   YY=            -73.5859   ZZ=            -65.4194
   XY=              0.2999   XZ=              2.8237   YZ=             -1.5956

 Normal termination of Gaussian 16 at Sun Dec  3 12:40:10 2023.
