 Gaussian 16, Revision B.01,
 Gaussian 16:  ES64L-G16RevB.01 20-Dec-2017

 -------------------------
 #P B3LYP/6-311+g(d) force
 -------------------------

 -----
 DPGEN
 -----
 Symbolic Z-matrix:
 Charge =  0 Multiplicity = 2

                         Standard orientation:
 ---------------------------------------------------------------------
 Center     Atomic      Atomic             Coordinates (Angstroms)
 Number     Number       Type             X           Y           Z
 ---------------------------------------------------------------------
      1         11           0        0.159870   -0.280901    1.911837
      2         11           0        0.971117    2.740394    0.112566
      3         11           0        3.220541    0.008654   -0.293735
      4         11           0       -3.340648   -1.314728   -0.206163
      5         11           0        1.027671   -2.817053    0.004595
      6         11           0        0.280862   -0.108678   -1.426400
      7         11           0       -2.319413    1.772312   -0.102701
 ---------------------------------------------------------------------

 SCF Done:  E(UB3LYP) =  -1136.13223464     A.U. after   21 cycles

 The electronic state is 2-A.
 Alpha  occ. eigenvalues --  -38.44524 -38.44454 -38.43606 -38.43535 -38.43248
 Alpha  occ. eigenvalues --  -38.43174 -38.42944  -2.20382  -2.20235  -2.19471
 Alpha  occ. eigenvalues --   -2.19402  -2.19271  -2.19101  -2.18817  -1.14082
 Alpha  occ. eigenvalues --   -1.14034  -1.14002  -1.13912  -1.13900  -1.13867
 Alpha  occ. eigenvalues --   -1.13160  -1.13139  -1.13135  -1.13107  -1.13077
 Alpha  occ. eigenvalues --   -1.13018  -1.12974  -1.12894  -1.12890  -1.12773
 Alpha  occ. eigenvalues --   -1.12713  -1.12712  -1.12493  -1.12473  -1.12457
 Alpha  occ. eigenvalues --   -0.18713  -0.13381  -0.12254  -0.10361
 Alpha virt. eigenvalues --   -0.06288  -0.05103  -0.04578  -0.03081  -0.02634
 Alpha virt. eigenvalues --   -0.02148  -0.02009  -0.01173  -0.00662  -0.00286
 Alpha virt. eigenvalues --   -0.00010   0.00283   0.00763   0.00794   0.00878

  Beta  occ. eigenvalues --  -38.44508 -38.44451 -38.43602 -38.43528 -38.43200
  Beta  occ. eigenvalues --  -38.43076 -38.42939  -2.20356  -2.20231  -2.19466
  Beta  occ. eigenvalues --   -2.19392  -2.19186  -2.18920  -2.18811  -1.14056
  Beta  occ. eigenvalues --   -1.13999  -1.13987  -1.13912  -1.13887  -1.13865
  Beta  occ. eigenvalues --   -1.13155  -1.13128  -1.13124  -1.13096  -1.13039
  Beta  occ. eigenvalues --   -1.13013  -1.12907  -1.12841  -1.12823  -1.12655
  Beta  occ. eigenvalues --   -1.12590  -1.12580  -1.12490  -1.12462  -1.12436
  Beta  occ. eigenvalues --   -0.18015  -0.13113  -0.12014
  Beta virt. eigenvalues --   -0.06545  -0.06136  -0.05082  -0.04564  -0.02376
  Beta virt. eigenvalues --   -0.01971  -0.01822  -0.01137  -0.01108  -0.00682
  Beta virt. eigenvalues --   -0.00309   0.00143   0.00341   0.00786   0.00834

 Mulliken charges and spin densities:
               1          2
     1  Na  -0.371354   0.646948
     2  Na   0.147113   0.029357
     3  Na   0.490359   0.081335
     4  Na   0.052780  -0.033467
     5  Na   0.138194  -0.081250
     6  Na  -0.525873   0.346293
     7  Na   0.068781   0.010784
 Sum of Mulliken charges =  -0.00000   1.00000

 Dipole moment (field-independent basis, Debye):
    X=              0.1215    Y=             -0.3408    Z=              0.1630  Tot=              0.3969
 Quadrupole moment (field-independent basis, Debye-Ang):
   XX=            -53.3932   YY=            -62.4968   ZZ=            -76.2941
   XY=              1.1329   XZ=              0.2880   YZ=              0.6559

 Normal termination of Gaussian 16 at Tue Dec  5 13:48:11 2023.
