 Gaussian 16, Revision B.01,
 Gaussian 16:  ES64L-G16RevB.01 20-Dec-2017

 -------------------------
 #P B3LYP/6-311+g(d) force
 -------------------------

 -----
 DPGEN
 -----
 Symbolic Z-matrix:
 Charge =  0 Multiplicity = 2

                         Standard orientation:
 ---------------------------------------------------------------------
 Center     Atomic      Atomic             Coordinates (Angstroms)
 Number     Number       Type             X           Y           Z
 ---------------------------------------------------------------------
      1         11           0        1.503173    2.182368   -0.329428
      2         11           0       -1.488705    3.531193   -0.297024
      3         11           0       -0.165475   -1.328573    1.804024
      4         11           0       -2.511088   -2.966367   -0.695081
      5         11           0        1.281653   -1.443172   -1.425232
      6         11           0       -2.813048    0.563121    0.502475
      7         11           0        4.193490   -0.538571    0.440267
 ---------------------------------------------------------------------

 SCF Done:  E(UB3LYP) =  -1136.12106425     A.U. after   22 cycles

 The electronic state is 2-A.
 Alpha  occ. eigenvalues --  -38.45178 -38.44506 -38.44451 -38.44347 -38.44153
 Alpha  occ. eigenvalues --  -38.44035 -38.43311  -2.20934  -2.20308  -2.20241
 Alpha  occ. eigenvalues --   -2.20155  -2.19927  -2.19857  -2.19130  -1.14611
 Alpha  occ. eigenvalues --   -1.14596  -1.14557  -1.14005  -1.13993  -1.13938
 Alpha  occ. eigenvalues --   -1.13925  -1.13893  -1.13849  -1.13843  -1.13831
 Alpha  occ. eigenvalues --   -1.13777  -1.13605  -1.13578  -1.13552  -1.13538
 Alpha  occ. eigenvalues --   -1.13514  -1.13452  -1.12798  -1.12785  -1.12781
 Alpha  occ. eigenvalues --   -0.17054  -0.13280  -0.12735  -0.09741
 Alpha virt. eigenvalues --   -0.06741  -0.06022  -0.05205  -0.03275  -0.02666
 Alpha virt. eigenvalues --   -0.02433  -0.01828  -0.01652  -0.01200  -0.00803
 Alpha virt. eigenvalues --   -0.00172   0.00156   0.00339   0.00547   0.00617

  Beta  occ. eigenvalues --  -38.45171 -38.44470 -38.44439 -38.44333 -38.44122
  Beta  occ. eigenvalues --  -38.43972 -38.43311  -2.20921  -2.20243  -2.20219
  Beta  occ. eigenvalues --   -2.20132  -2.19871  -2.19740  -2.19131  -1.14602
  Beta  occ. eigenvalues --   -1.14581  -1.14550  -1.13963  -1.13942  -1.13919
  Beta  occ. eigenvalues --   -1.13904  -1.13843  -1.13831  -1.13819  -1.13803
  Beta  occ. eigenvalues --   -1.13770  -1.13567  -1.13528  -1.13514  -1.13460
  Beta  occ. eigenvalues --   -1.13421  -1.13372  -1.12798  -1.12785  -1.12777
  Beta  occ. eigenvalues --   -0.16549  -0.13139  -0.12440
  Beta virt. eigenvalues --   -0.06642  -0.06173  -0.05792  -0.04916  -0.02793
  Beta virt. eigenvalues --   -0.02412  -0.02089  -0.01529  -0.01216  -0.01140
  Beta virt. eigenvalues --   -0.00571   0.00038   0.00241   0.00536   0.00638

 Mulliken charges and spin densities:
               1          2
     1  Na  -0.537193   0.100373
     2  Na   0.531927  -0.109547
     3  Na   0.009301   0.398359
     4  Na   0.225115   0.164852
     5  Na  -0.163435   0.231712
     6  Na  -0.414100   0.104113
     7  Na   0.348386   0.110138
 Sum of Mulliken charges =  -0.00000   1.00000

 Dipole moment (field-independent basis, Debye):
    X=              0.9701    Y=             -0.2449    Z=              0.1779  Tot=              1.0162
 Quadrupole moment (field-independent basis, Debye-Ang):
   XX=            -50.3689   YY=            -67.3634   ZZ=            -77.1311
   XY=             -0.4187   XZ=              2.5433   YZ=             -0.3935

 Normal termination of Gaussian 16 at Sun Dec  3 15:21:01 2023.
