 Gaussian 16, Revision B.01,
 Gaussian 16:  ES64L-G16RevB.01 20-Dec-2017

 -------------------------
 #P B3LYP/6-311+g(d) force
 -------------------------

 -----
 DPGEN
 -----
 Symbolic Z-matrix:
 Charge =  0 Multiplicity = 2

                         Standard orientation:
 ---------------------------------------------------------------------
 Center     Atomic      Atomic             Coordinates (Angstroms)
 Number     Number       Type             X           Y           Z
 ---------------------------------------------------------------------
      1         11           0       -2.675421    0.714698    1.889898
      2         11           0        1.255427   -2.826005   -1.258444
      3         11           0        2.307528    2.940101   -0.869694
      4         11           0        0.102461   -1.440680    1.709494
      5         11           0        3.068991   -0.073350    1.065478
      6         11           0       -2.130857   -1.822794   -1.513130
      7         11           0       -1.928127    2.508029   -1.023603
 ---------------------------------------------------------------------

 SCF Done:  E(UB3LYP) =  -1136.11807217     A.U. after   21 cycles

 The electronic state is 2-A.
 Alpha  occ. eigenvalues --  -38.44804 -38.44551 -38.44492 -38.44273 -38.44195
 Alpha  occ. eigenvalues --  -38.44050 -38.43877  -2.20576  -2.20293  -2.20283
 Alpha  occ. eigenvalues --   -2.20073  -2.19928  -2.19911  -2.19666  -1.14255
 Alpha  occ. eigenvalues --   -1.14224  -1.14193  -1.13975  -1.13958  -1.13957
 Alpha  occ. eigenvalues --   -1.13941  -1.13925  -1.13912  -1.13746  -1.13724
 Alpha  occ. eigenvalues --   -1.13694  -1.13606  -1.13595  -1.13581  -1.13566
 Alpha  occ. eigenvalues --   -1.13558  -1.13542  -1.13355  -1.13325  -1.13286
 Alpha  occ. eigenvalues --   -0.16800  -0.12832  -0.12284  -0.11293
 Alpha virt. eigenvalues --   -0.06325  -0.05542  -0.05142  -0.03595  -0.03264
 Alpha virt. eigenvalues --   -0.02589  -0.01337  -0.01041  -0.00934  -0.00632
 Alpha virt. eigenvalues --   -0.00377  -0.00205   0.00204   0.00459   0.00549

  Beta  occ. eigenvalues --  -38.44758 -38.44542 -38.44473 -38.44228 -38.44182
  Beta  occ. eigenvalues --  -38.43995 -38.43870  -2.20491  -2.20275  -2.20251
  Beta  occ. eigenvalues --   -2.19991  -2.19902  -2.19813  -2.19654  -1.14192
  Beta  occ. eigenvalues --   -1.14171  -1.14128  -1.13959  -1.13946  -1.13936
  Beta  occ. eigenvalues --   -1.13924  -1.13911  -1.13874  -1.13683  -1.13668
  Beta  occ. eigenvalues --   -1.13637  -1.13589  -1.13565  -1.13549  -1.13531
  Beta  occ. eigenvalues --   -1.13489  -1.13459  -1.13338  -1.13318  -1.13277
  Beta  occ. eigenvalues --   -0.16144  -0.12703  -0.11865
  Beta virt. eigenvalues --   -0.07805  -0.06131  -0.05077  -0.04663  -0.03377
  Beta virt. eigenvalues --   -0.02791  -0.02032  -0.01222  -0.00888  -0.00746
  Beta virt. eigenvalues --   -0.00504  -0.00140  -0.00124   0.00386   0.00567

 Mulliken charges and spin densities:
               1          2
     1  Na  -0.232694   0.129080
     2  Na   0.138102   0.158072
     3  Na   0.049840   0.081213
     4  Na   1.073088   0.302368
     5  Na  -0.490586  -0.057449
     6  Na  -0.431378   0.260432
     7  Na  -0.106371   0.126284
 Sum of Mulliken charges =  -0.00000   1.00000

 Dipole moment (field-independent basis, Debye):
    X=             -0.4262    Y=             -0.6058    Z=             -0.4465  Tot=              0.8649
 Quadrupole moment (field-independent basis, Debye-Ang):
   XX=            -63.1626   YY=            -68.3344   ZZ=            -67.5035
   XY=             -2.9646   XZ=             -0.8026   YZ=              0.0974

 Normal termination of Gaussian 16 at Sun Dec  3 17:36:34 2023.
