 Gaussian 16, Revision B.01,
 Gaussian 16:  ES64L-G16RevB.01 20-Dec-2017

 -------------------------
 #P B3LYP/6-311+g(d) force
 -------------------------

 -----
 DPGEN
 -----
 Symbolic Z-matrix:
 Charge =  0 Multiplicity = 2

                         Standard orientation:
 ---------------------------------------------------------------------
 Center     Atomic      Atomic             Coordinates (Angstroms)
 Number     Number       Type             X           Y           Z
 ---------------------------------------------------------------------
      1         11           0       -2.309103    0.558852   -0.969461
      2         11           0        0.512162    0.034762    1.678012
      3         11           0        0.179556   -2.052579   -1.272954
      4         11           0       -2.314090   -2.259130    0.926219
      5         11           0        3.829559   -0.561618    0.363013
      6         11           0       -0.949508    2.966458    0.676763
      7         11           0        1.051423    1.313256   -1.401592
 ---------------------------------------------------------------------

 SCF Done:  E(UB3LYP) =  -1136.13529601     A.U. after   19 cycles

 The electronic state is 2-A.
 Alpha  occ. eigenvalues --  -38.44226 -38.43713 -38.43707 -38.43561 -38.43444
 Alpha  occ. eigenvalues --  -38.43425 -38.43147  -2.19988  -2.19612  -2.19581
 Alpha  occ. eigenvalues --   -2.19470  -2.19365  -2.19268  -2.19026  -1.13663
 Alpha  occ. eigenvalues --   -1.13655  -1.13614  -1.13317  -1.13292  -1.13276
 Alpha  occ. eigenvalues --   -1.13251  -1.13239  -1.13186  -1.13176  -1.13117
 Alpha  occ. eigenvalues --   -1.13082  -1.13058  -1.13026  -1.12955  -1.12928
 Alpha  occ. eigenvalues --   -1.12919  -1.12902  -1.12683  -1.12681  -1.12663
 Alpha  occ. eigenvalues --   -0.18544  -0.12678  -0.12421  -0.11034
 Alpha virt. eigenvalues --   -0.05938  -0.04709  -0.04540  -0.03255  -0.03080
 Alpha virt. eigenvalues --   -0.02564  -0.01787  -0.01022  -0.00574   0.00016
 Alpha virt. eigenvalues --    0.00293   0.00312   0.00632   0.00765   0.00824

  Beta  occ. eigenvalues --  -38.44227 -38.43688 -38.43679 -38.43497 -38.43410
  Beta  occ. eigenvalues --  -38.43400 -38.43138  -2.19991  -2.19579  -2.19520
  Beta  occ. eigenvalues --   -2.19353  -2.19289  -2.19241  -2.19010  -1.13661
  Beta  occ. eigenvalues --   -1.13653  -1.13617  -1.13287  -1.13249  -1.13235
  Beta  occ. eigenvalues --   -1.13220  -1.13184  -1.13148  -1.13103  -1.13034
  Beta  occ. eigenvalues --   -1.13008  -1.12989  -1.12949  -1.12911  -1.12903
  Beta  occ. eigenvalues --   -1.12892  -1.12881  -1.12674  -1.12666  -1.12639
  Beta  occ. eigenvalues --   -0.17752  -0.12526  -0.12242
  Beta virt. eigenvalues --   -0.07076  -0.05817  -0.04564  -0.04372  -0.02723
  Beta virt. eigenvalues --   -0.02504  -0.01826  -0.01471  -0.00964  -0.00232
  Beta virt. eigenvalues --   -0.00006   0.00325   0.00377   0.00757   0.00784

 Mulliken charges and spin densities:
               1          2
     1  Na   0.036842   0.322494
     2  Na  -0.431201   0.720959
     3  Na  -0.235106   0.084329
     4  Na   0.264982  -0.134402
     5  Na   0.105567  -0.097690
     6  Na   0.280290  -0.183969
     7  Na  -0.021373   0.288278
 Sum of Mulliken charges =  -0.00000   1.00000

 Dipole moment (field-independent basis, Debye):
    X=              0.2635    Y=             -0.1210    Z=              0.0059  Tot=              0.2900
 Quadrupole moment (field-independent basis, Debye-Ang):
   XX=            -57.2446   YY=            -65.3390   ZZ=            -70.0803
   XY=             -0.8164   XZ=             -0.9432   YZ=              0.1992

 Normal termination of Gaussian 16 at Tue Dec  5 16:38:24 2023.
