 Gaussian 16, Revision B.01,
 Gaussian 16:  ES64L-G16RevB.01 20-Dec-2017

 -------------------------
 #P B3LYP/6-311+g(d) force
 -------------------------

 -----
 DPGEN
 -----
 Symbolic Z-matrix:
 Charge =  0 Multiplicity = 2

                         Standard orientation:
 ---------------------------------------------------------------------
 Center     Atomic      Atomic             Coordinates (Angstroms)
 Number     Number       Type             X           Y           Z
 ---------------------------------------------------------------------
      1         11           0       -1.661795    2.777493   -0.077583
      2         11           0       -0.494327   -0.069313   -1.667847
      3         11           0       -0.265460   -2.859579    0.337148
      4         11           0        2.144351    1.969025    0.355817
      5         11           0        0.675444   -0.314296    2.418679
      6         11           0        2.784914   -0.833276   -1.275025
      7         11           0       -3.183127   -0.670054   -0.091189
 ---------------------------------------------------------------------

 SCF Done:  E(UB3LYP) =  -1136.13266864     A.U. after   19 cycles

 The electronic state is 2-A.
 Alpha  occ. eigenvalues --  -38.44532 -38.44183 -38.44022 -38.43590 -38.43544
 Alpha  occ. eigenvalues --  -38.43531 -38.43220  -2.20370  -2.20000  -2.19863
 Alpha  occ. eigenvalues --   -2.19531  -2.19379  -2.19313  -2.19055  -1.14012
 Alpha  occ. eigenvalues --   -1.14000  -1.13996  -1.13713  -1.13663  -1.13610
 Alpha  occ. eigenvalues --   -1.13546  -1.13511  -1.13484  -1.13213  -1.13176
 Alpha  occ. eigenvalues --   -1.13164  -1.13063  -1.13039  -1.13012  -1.12996
 Alpha  occ. eigenvalues --   -1.12975  -1.12943  -1.12740  -1.12721  -1.12684
 Alpha  occ. eigenvalues --   -0.18071  -0.12942  -0.12008  -0.11560
 Alpha virt. eigenvalues --   -0.05593  -0.05004  -0.04635  -0.03495  -0.03178
 Alpha virt. eigenvalues --   -0.03082  -0.01445  -0.00965  -0.00407  -0.00199
 Alpha virt. eigenvalues --   -0.00056   0.00364   0.00707   0.00846   0.00869

  Beta  occ. eigenvalues --  -38.44428 -38.44184 -38.43978 -38.43543 -38.43537
  Beta  occ. eigenvalues --  -38.43535 -38.43214  -2.20179  -2.20001  -2.19784
  Beta  occ. eigenvalues --   -2.19447  -2.19370  -2.19322  -2.19046  -1.13886
  Beta  occ. eigenvalues --   -1.13869  -1.13857  -1.13707  -1.13661  -1.13615
  Beta  occ. eigenvalues --   -1.13483  -1.13456  -1.13431  -1.13158  -1.13119
  Beta  occ. eigenvalues --   -1.13099  -1.13049  -1.13015  -1.13010  -1.12996
  Beta  occ. eigenvalues --   -1.12979  -1.12948  -1.12731  -1.12694  -1.12681
  Beta  occ. eigenvalues --   -0.17363  -0.12712  -0.11810
  Beta virt. eigenvalues --   -0.07572  -0.05557  -0.04838  -0.04434  -0.02889
  Beta virt. eigenvalues --   -0.02417  -0.02210  -0.01317  -0.00905  -0.00348
  Beta virt. eigenvalues --   -0.00172   0.00067   0.00418   0.00852   0.00877

 Mulliken charges and spin densities:
               1          2
     1  Na  -0.083876  -0.044288
     2  Na   0.156444   0.224569
     3  Na  -0.037403   0.087661
     4  Na  -0.082537   0.118759
     5  Na  -0.283444   0.521245
     6  Na   0.240139   0.123452
     7  Na   0.090678  -0.031398
 Sum of Mulliken charges =  -0.00000   1.00000

 Dipole moment (field-independent basis, Debye):
    X=             -0.1650    Y=             -0.1535    Z=              0.2652  Tot=              0.3480
 Quadrupole moment (field-independent basis, Debye-Ang):
   XX=            -59.6167   YY=            -66.2743   ZZ=            -69.8686
   XY=              0.1773   XZ=             -2.5343   YZ=              1.2342

 Normal termination of Gaussian 16 at Sun Dec  3 19:35:26 2023.
