 Gaussian 16, Revision B.01,
 Gaussian 16:  ES64L-G16RevB.01 20-Dec-2017

 -------------------------
 #P B3LYP/6-311+g(d) force
 -------------------------

 -----
 DPGEN
 -----
 Symbolic Z-matrix:
 Charge =  0 Multiplicity = 2

                         Standard orientation:
 ---------------------------------------------------------------------
 Center     Atomic      Atomic             Coordinates (Angstroms)
 Number     Number       Type             X           Y           Z
 ---------------------------------------------------------------------
      1         11           0       -2.684565   -1.267473   -0.112362
      2         11           0        2.919059    0.115178   -0.132237
      3         11           0       -0.167551   -0.457523    1.986965
      4         11           0       -1.969795    2.378631   -0.210752
      5         11           0        1.162712    2.369024    0.165693
      6         11           0        0.668908   -2.779175   -0.116467
      7         11           0        0.071231   -0.358661   -1.580840
 ---------------------------------------------------------------------

 SCF Done:  E(UB3LYP) =  -1136.13085720     A.U. after   19 cycles

 The electronic state is 2-A.
 Alpha  occ. eigenvalues --  -38.43928 -38.43792 -38.43648 -38.43645 -38.43489
 Alpha  occ. eigenvalues --  -38.43316 -38.43141  -2.19788  -2.19717  -2.19570
 Alpha  occ. eigenvalues --   -2.19480  -2.19428  -2.19268  -2.19208  -1.13517
 Alpha  occ. eigenvalues --   -1.13478  -1.13467  -1.13405  -1.13392  -1.13388
 Alpha  occ. eigenvalues --   -1.13305  -1.13229  -1.13194  -1.13182  -1.13141
 Alpha  occ. eigenvalues --   -1.13114  -1.13090  -1.13050  -1.13041  -1.12923
 Alpha  occ. eigenvalues --   -1.12897  -1.12876  -1.12864  -1.12824  -1.12812
 Alpha  occ. eigenvalues --   -0.19299  -0.13147  -0.12800  -0.10908
 Alpha virt. eigenvalues --   -0.05579  -0.04975  -0.04665  -0.03217  -0.02944
 Alpha virt. eigenvalues --   -0.02539  -0.01296  -0.01184  -0.00161  -0.00040
 Alpha virt. eigenvalues --    0.00026   0.00356   0.00851   0.00958   0.00971

  Beta  occ. eigenvalues --  -38.43922 -38.43781 -38.43645 -38.43643 -38.43395
  Beta  occ. eigenvalues --  -38.43310 -38.43073  -2.19779  -2.19701  -2.19565
  Beta  occ. eigenvalues --   -2.19481  -2.19261  -2.19253  -2.19086  -1.13500
  Beta  occ. eigenvalues --   -1.13467  -1.13434  -1.13402  -1.13390  -1.13345
  Beta  occ. eigenvalues --   -1.13299  -1.13213  -1.13188  -1.13170  -1.13125
  Beta  occ. eigenvalues --   -1.13116  -1.12981  -1.12932  -1.12919  -1.12907
  Beta  occ. eigenvalues --   -1.12877  -1.12860  -1.12785  -1.12739  -1.12721
  Beta  occ. eigenvalues --   -0.18556  -0.12880  -0.12553
  Beta virt. eigenvalues --   -0.06936  -0.05575  -0.04922  -0.04656  -0.02366
  Beta virt. eigenvalues --   -0.02171  -0.01457  -0.01231  -0.01123  -0.00222
  Beta virt. eigenvalues --   -0.00049   0.00142   0.00387   0.00862   0.00957

 Mulliken charges and spin densities:
               1          2
     1  Na   0.214996  -0.078678
     2  Na   0.341381   0.002488
     3  Na  -0.577558   0.708677
     4  Na  -0.039314  -0.039460
     5  Na   0.090214   0.032922
     6  Na   0.554833  -0.066805
     7  Na  -0.584551   0.440856
 Sum of Mulliken charges =  -0.00000   1.00000

 Dipole moment (field-independent basis, Debye):
    X=             -0.3223    Y=             -0.3430    Z=              0.1784  Tot=              0.5033
 Quadrupole moment (field-independent basis, Debye-Ang):
   XX=            -58.9457   YY=            -61.4764   ZZ=            -73.8925
   XY=             -0.5715   XZ=              0.5012   YZ=              0.1154

 Normal termination of Gaussian 16 at Thu Dec  7 22:49:00 2023.
