 Gaussian 16, Revision B.01,
 Gaussian 16:  ES64L-G16RevB.01 20-Dec-2017

 -------------------------
 #P B3LYP/6-311+g(d) force
 -------------------------

 -----
 DPGEN
 -----
 Symbolic Z-matrix:
 Charge =  0 Multiplicity = 2

                         Standard orientation:
 ---------------------------------------------------------------------
 Center     Atomic      Atomic             Coordinates (Angstroms)
 Number     Number       Type             X           Y           Z
 ---------------------------------------------------------------------
      1         11           0       -2.851691    1.591505    0.013437
      2         11           0       -2.095737   -2.024942   -0.325412
      3         11           0        0.013787   -0.032116   -1.802450
      4         11           0        3.186231    0.157132    0.064999
      5         11           0       -0.627538    0.094740    1.811014
      6         11           0        1.111282    2.730261   -0.060992
      7         11           0        1.263666   -2.516580    0.299405
 ---------------------------------------------------------------------

 SCF Done:  E(UB3LYP) =  -1136.13786177     A.U. after   19 cycles

 The electronic state is 2-A.
 Alpha  occ. eigenvalues --  -38.44175 -38.43979 -38.43678 -38.43558 -38.43335
 Alpha  occ. eigenvalues --  -38.43277 -38.43138  -2.19994  -2.19820  -2.19562
 Alpha  occ. eigenvalues --   -2.19392  -2.19274  -2.19225  -2.19014  -1.13687
 Alpha  occ. eigenvalues --   -1.13647  -1.13629  -1.13490  -1.13481  -1.13480
 Alpha  occ. eigenvalues --   -1.13264  -1.13237  -1.13180  -1.13077  -1.13065
 Alpha  occ. eigenvalues --   -1.13020  -1.12949  -1.12904  -1.12897  -1.12895
 Alpha  occ. eigenvalues --   -1.12850  -1.12844  -1.12686  -1.12673  -1.12654
 Alpha  occ. eigenvalues --   -0.18735  -0.13208  -0.12415  -0.10657
 Alpha virt. eigenvalues --   -0.05800  -0.05295  -0.04514  -0.03239  -0.02854
 Alpha virt. eigenvalues --   -0.02424  -0.01600  -0.01159  -0.00418  -0.00249
 Alpha virt. eigenvalues --    0.00000   0.00353   0.00802   0.00862   0.00909

  Beta  occ. eigenvalues --  -38.44171 -38.43978 -38.43665 -38.43554 -38.43261
  Beta  occ. eigenvalues --  -38.43196 -38.43129  -2.19991  -2.19821  -2.19543
  Beta  occ. eigenvalues --   -2.19389  -2.19137  -2.19078  -2.19002  -1.13674
  Beta  occ. eigenvalues --   -1.13632  -1.13630  -1.13495  -1.13483  -1.13463
  Beta  occ. eigenvalues --   -1.13249  -1.13190  -1.13173  -1.13071  -1.13044
  Beta  occ. eigenvalues --   -1.13019  -1.12860  -1.12808  -1.12800  -1.12797
  Beta  occ. eigenvalues --   -1.12749  -1.12737  -1.12675  -1.12652  -1.12634
  Beta  occ. eigenvalues --   -0.18011  -0.12980  -0.12161
  Beta virt. eigenvalues --   -0.06764  -0.05758  -0.05253  -0.04499  -0.02469
  Beta virt. eigenvalues --   -0.02074  -0.01532  -0.01388  -0.01073  -0.00466
  Beta virt. eigenvalues --   -0.00285   0.00133   0.00380   0.00834   0.00893

 Mulliken charges and spin densities:
               1          2
     1  Na   0.143506  -0.157700
     2  Na   0.315325  -0.008967
     3  Na  -0.242272   0.632989
     4  Na  -0.051783  -0.041760
     5  Na  -0.328061   0.722660
     6  Na   0.054606  -0.141348
     7  Na   0.108679  -0.005875
 Sum of Mulliken charges =  -0.00000   1.00000

 Dipole moment (field-independent basis, Debye):
    X=             -0.2555    Y=              0.2252    Z=             -0.0255  Tot=              0.3416
 Quadrupole moment (field-independent basis, Debye-Ang):
   XX=            -55.3657   YY=            -63.2152   ZZ=            -74.7921
   XY=             -0.4948   XZ=              1.4425   YZ=             -0.3134

 Normal termination of Gaussian 16 at Thu Dec  7 09:46:08 2023.
