 Gaussian 16, Revision B.01,
 Gaussian 16:  ES64L-G16RevB.01 20-Dec-2017

 -------------------------
 #P B3LYP/6-311+g(d) force
 -------------------------

 -----
 DPGEN
 -----
 Symbolic Z-matrix:
 Charge =  0 Multiplicity = 2

                         Standard orientation:
 ---------------------------------------------------------------------
 Center     Atomic      Atomic             Coordinates (Angstroms)
 Number     Number       Type             X           Y           Z
 ---------------------------------------------------------------------
      1         11           0        1.158051    1.907189    1.335731
      2         11           0       -2.665192    2.035191   -0.676426
      3         11           0       -5.601163    0.072883   -0.572328
      4         11           0       -3.149717   -1.934143    0.565404
      5         11           0        0.023027   -1.494128   -0.079325
      6         11           0        3.841721   -0.516931    0.434624
      7         11           0        6.393272   -0.070060   -1.007679
 ---------------------------------------------------------------------

 SCF Done:  E(UB3LYP) =  -1136.11112191     A.U. after   23 cycles

 The electronic state is 2-A.
 Alpha  occ. eigenvalues --  -38.45809 -38.45047 -38.44825 -38.44552 -38.44270
 Alpha  occ. eigenvalues --  -38.43158 -38.43088  -2.21575  -2.20801  -2.20666
 Alpha  occ. eigenvalues --   -2.20363  -2.20071  -2.18964  -2.18933  -1.15259
 Alpha  occ. eigenvalues --   -1.15222  -1.15173  -1.14477  -1.14450  -1.14427
 Alpha  occ. eigenvalues --   -1.14347  -1.14328  -1.14281  -1.14037  -1.14031
 Alpha  occ. eigenvalues --   -1.13966  -1.13737  -1.13734  -1.13711  -1.12771
 Alpha  occ. eigenvalues --   -1.12630  -1.12620  -1.12594  -1.12583  -1.12471
 Alpha  occ. eigenvalues --   -0.16630  -0.14025  -0.11996  -0.11321
 Alpha virt. eigenvalues --   -0.06966  -0.06061  -0.03972  -0.03404  -0.03308
 Alpha virt. eigenvalues --   -0.02967  -0.02137  -0.01668  -0.01221  -0.00677
 Alpha virt. eigenvalues --   -0.00247  -0.00151  -0.00045   0.00052   0.00557

  Beta  occ. eigenvalues --  -38.45738 -38.45019 -38.44761 -38.44505 -38.44263
  Beta  occ. eigenvalues --  -38.43174 -38.43085  -2.21443  -2.20749  -2.20551
  Beta  occ. eigenvalues --   -2.20282  -2.20059  -2.18993  -2.18928  -1.15171
  Beta  occ. eigenvalues --   -1.15135  -1.15070  -1.14441  -1.14406  -1.14397
  Beta  occ. eigenvalues --   -1.14260  -1.14253  -1.14191  -1.13983  -1.13974
  Beta  occ. eigenvalues --   -1.13891  -1.13729  -1.13718  -1.13700  -1.12786
  Beta  occ. eigenvalues --   -1.12640  -1.12636  -1.12596  -1.12582  -1.12484
  Beta  occ. eigenvalues --   -0.15837  -0.13956  -0.11282
  Beta virt. eigenvalues --   -0.08036  -0.06569  -0.05560  -0.03692  -0.03188
  Beta virt. eigenvalues --   -0.02731  -0.02642  -0.01912  -0.01386  -0.01058
  Beta virt. eigenvalues --   -0.00567  -0.00069   0.00051   0.00109   0.00243

 Mulliken charges and spin densities:
               1          2
     1  Na   0.153842   0.142501
     2  Na  -0.095052   0.421943
     3  Na   0.269210   0.001389
     4  Na   0.475788  -0.014225
     5  Na  -0.674360   0.531606
     6  Na  -0.513587   0.033032
     7  Na   0.384160  -0.116247
 Sum of Mulliken charges =  -0.00000   1.00000

 Dipole moment (field-independent basis, Debye):
    X=             -2.5399    Y=              0.7238    Z=              0.0581  Tot=              2.6417
 Quadrupole moment (field-independent basis, Debye-Ang):
   XX=            -68.4565   YY=            -66.7792   ZZ=            -69.0994
   XY=              3.6959   XZ=             -0.3386   YZ=              0.1029

 Normal termination of Gaussian 16 at Sun Dec  3 18:09:44 2023.
