 Gaussian 16, Revision B.01,
 Gaussian 16:  ES64L-G16RevB.01 20-Dec-2017

 -------------------------
 #P B3LYP/6-311+g(d) force
 -------------------------

 -----
 DPGEN
 -----
 Symbolic Z-matrix:
 Charge =  0 Multiplicity = 2

                         Standard orientation:
 ---------------------------------------------------------------------
 Center     Atomic      Atomic             Coordinates (Angstroms)
 Number     Number       Type             X           Y           Z
 ---------------------------------------------------------------------
      1         11           0       -2.512799   -1.663799   -0.536799
      2         11           0        0.419164   -0.050399   -1.796459
      3         11           0        3.204686   -0.057986   -0.027160
      4         11           0        0.871484    2.746779   -0.105684
      5         11           0       -2.632089    1.493919    0.139134
      6         11           0       -0.253534    0.178279    1.860555
      7         11           0        0.903088   -2.646793    0.466413
 ---------------------------------------------------------------------

 SCF Done:  E(UB3LYP) =  -1136.13885847     A.U. after   18 cycles

 The electronic state is 2-A.
 Alpha  occ. eigenvalues --  -38.44256 -38.43769 -38.43630 -38.43415 -38.43385
 Alpha  occ. eigenvalues --  -38.43232 -38.43167  -2.20091  -2.19635  -2.19480
 Alpha  occ. eigenvalues --   -2.19364  -2.19333  -2.19089  -2.19031  -1.13779
 Alpha  occ. eigenvalues --   -1.13747  -1.13725  -1.13347  -1.13311  -1.13271
 Alpha  occ. eigenvalues --   -1.13150  -1.13125  -1.13115  -1.13053  -1.13007
 Alpha  occ. eigenvalues --   -1.12999  -1.12985  -1.12970  -1.12955  -1.12768
 Alpha  occ. eigenvalues --   -1.12758  -1.12712  -1.12705  -1.12690  -1.12655
 Alpha  occ. eigenvalues --   -0.18794  -0.13215  -0.12330  -0.10868
 Alpha virt. eigenvalues --   -0.05762  -0.04986  -0.04516  -0.03343  -0.02930
 Alpha virt. eigenvalues --   -0.02543  -0.01605  -0.00996  -0.00269  -0.00214
 Alpha virt. eigenvalues --    0.00014   0.00367   0.00814   0.00893   0.00919

  Beta  occ. eigenvalues --  -38.44254 -38.43764 -38.43617 -38.43344 -38.43303
  Beta  occ. eigenvalues --  -38.43227 -38.43154  -2.20090  -2.19630  -2.19458
  Beta  occ. eigenvalues --   -2.19234  -2.19183  -2.19084  -2.19011  -1.13769
  Beta  occ. eigenvalues --   -1.13739  -1.13722  -1.13341  -1.13285  -1.13269
  Beta  occ. eigenvalues --   -1.13124  -1.13106  -1.13099  -1.12968  -1.12919
  Beta  occ. eigenvalues --   -1.12902  -1.12889  -1.12861  -1.12853  -1.12756
  Beta  occ. eigenvalues --   -1.12737  -1.12698  -1.12691  -1.12657  -1.12643
  Beta  occ. eigenvalues --   -0.18069  -0.12969  -0.12061
  Beta virt. eigenvalues --   -0.06983  -0.05710  -0.04961  -0.04472  -0.02571
  Beta virt. eigenvalues --   -0.02152  -0.01526  -0.01505  -0.00920  -0.00303
  Beta virt. eigenvalues --   -0.00231   0.00122   0.00390   0.00865   0.00896

 Mulliken charges and spin densities:
               1          2
     1  Na   0.019765   0.031983
     2  Na  -0.215465   0.644572
     3  Na   0.131005  -0.101381
     4  Na   0.011668  -0.156565
     5  Na   0.174718  -0.056600
     6  Na  -0.186140   0.632489
     7  Na   0.064450   0.005503
 Sum of Mulliken charges =  -0.00000   1.00000

 Dipole moment (field-independent basis, Debye):
    X=              0.2308    Y=              0.0725    Z=             -0.0195  Tot=              0.2427
 Quadrupole moment (field-independent basis, Debye-Ang):
   XX=            -55.5931   YY=            -64.4384   ZZ=            -73.5702
   XY=             -0.0048   XZ=              1.3567   YZ=             -0.1757

 Normal termination of Gaussian 16 at Fri Dec  8 01:26:14 2023.
