 Gaussian 16, Revision B.01,
 Gaussian 16:  ES64L-G16RevB.01 20-Dec-2017

 -------------------------
 #P B3LYP/6-311+g(d) force
 -------------------------

 -----
 DPGEN
 -----
 Symbolic Z-matrix:
 Charge =  0 Multiplicity = 2

                         Standard orientation:
 ---------------------------------------------------------------------
 Center     Atomic      Atomic             Coordinates (Angstroms)
 Number     Number       Type             X           Y           Z
 ---------------------------------------------------------------------
      1         11           0       -0.147825   -0.072372   -1.713784
      2         11           0        1.918695   -2.417080   -0.644276
      3         11           0        0.429785    2.657725   -0.054150
      4         11           0       -2.473746   -1.736223    0.374331
      5         11           0       -2.935668    1.172229   -0.249509
      6         11           0        0.070279   -0.452718    1.948795
      7         11           0        3.138480    0.848439    0.338593
 ---------------------------------------------------------------------

 SCF Done:  E(UB3LYP) =  -1136.13251353     A.U. after   19 cycles

 The electronic state is 2-A.
 Alpha  occ. eigenvalues --  -38.44486 -38.44150 -38.43918 -38.43842 -38.43439
 Alpha  occ. eigenvalues --  -38.43429 -38.42722  -2.20311  -2.20025  -2.19809
 Alpha  occ. eigenvalues --   -2.19733  -2.19394  -2.19265  -2.18597  -1.13982
 Alpha  occ. eigenvalues --   -1.13975  -1.13947  -1.13772  -1.13685  -1.13661
 Alpha  occ. eigenvalues --   -1.13509  -1.13448  -1.13426  -1.13398  -1.13354
 Alpha  occ. eigenvalues --   -1.13342  -1.13079  -1.13053  -1.13026  -1.12925
 Alpha  occ. eigenvalues --   -1.12904  -1.12900  -1.12293  -1.12260  -1.12227
 Alpha  occ. eigenvalues --   -0.18703  -0.13612  -0.11947  -0.10956
 Alpha virt. eigenvalues --   -0.06108  -0.05267  -0.04184  -0.03451  -0.02808
 Alpha virt. eigenvalues --   -0.02540  -0.01891  -0.01126  -0.00336  -0.00109
 Alpha virt. eigenvalues --   -0.00028   0.00334   0.00708   0.00838   0.00852

  Beta  occ. eigenvalues --  -38.44481 -38.44145 -38.43907 -38.43763 -38.43420
  Beta  occ. eigenvalues --  -38.43357 -38.42720  -2.20302  -2.20019  -2.19791
  Beta  occ. eigenvalues --   -2.19588  -2.19262  -2.19233  -2.18596  -1.13973
  Beta  occ. eigenvalues --   -1.13960  -1.13941  -1.13772  -1.13660  -1.13656
  Beta  occ. eigenvalues --   -1.13475  -1.13423  -1.13414  -1.13307  -1.13257
  Beta  occ. eigenvalues --   -1.13239  -1.12993  -1.12967  -1.12940  -1.12884
  Beta  occ. eigenvalues --   -1.12878  -1.12865  -1.12291  -1.12250  -1.12215
  Beta  occ. eigenvalues --   -0.17997  -0.13372  -0.11647
  Beta virt. eigenvalues --   -0.07095  -0.06018  -0.05230  -0.04049  -0.02782
  Beta virt. eigenvalues --   -0.02067  -0.01775  -0.01553  -0.01020  -0.00349
  Beta virt. eigenvalues --   -0.00133   0.00099   0.00368   0.00795   0.00851

 Mulliken charges and spin densities:
               1          2
     1  Na  -0.157565   0.451952
     2  Na  -0.007953  -0.003028
     3  Na  -0.038069  -0.005564
     4  Na   0.425403   0.068148
     5  Na   0.033417  -0.021648
     6  Na  -0.344403   0.509640
     7  Na   0.089170   0.000500
 Sum of Mulliken charges =  -0.00000   1.00000

 Dipole moment (field-independent basis, Debye):
    X=              0.0465    Y=             -0.1099    Z=              0.1959  Tot=              0.2294
 Quadrupole moment (field-independent basis, Debye-Ang):
   XX=            -52.7537   YY=            -67.8966   ZZ=            -73.5587
   XY=             -0.2787   XZ=              0.5394   YZ=              0.7409

 Normal termination of Gaussian 16 at Thu Dec  7 05:57:01 2023.
