 Gaussian 16, Revision B.01,
 Gaussian 16:  ES64L-G16RevB.01 20-Dec-2017

 -------------------------
 #P B3LYP/6-311+g(d) force
 -------------------------

 -----
 DPGEN
 -----
 Symbolic Z-matrix:
 Charge =  0 Multiplicity = 2

                         Standard orientation:
 ---------------------------------------------------------------------
 Center     Atomic      Atomic             Coordinates (Angstroms)
 Number     Number       Type             X           Y           Z
 ---------------------------------------------------------------------
      1         11           0       -4.175567    0.023264   -0.037893
      2         11           0       -2.206588    2.394542    1.317515
      3         11           0        0.624080    3.179312   -0.434973
      4         11           0        0.477730   -2.581968    0.401526
      5         11           0        3.696452   -1.878075    1.224240
      6         11           0       -2.386084   -2.530911   -1.276068
      7         11           0        3.969977    1.393836   -1.194346
 ---------------------------------------------------------------------

 SCF Done:  E(UB3LYP) =  -1136.10721153     A.U. after   24 cycles

 The electronic state is 2-A.
 Alpha  occ. eigenvalues --  -38.45547 -38.45048 -38.44909 -38.44682 -38.44307
 Alpha  occ. eigenvalues --  -38.43694 -38.43691  -2.21327  -2.20797  -2.20648
 Alpha  occ. eigenvalues --   -2.20467  -2.20091  -2.19523  -2.19504  -1.15008
 Alpha  occ. eigenvalues --   -1.14991  -1.14974  -1.14465  -1.14435  -1.14423
 Alpha  occ. eigenvalues --   -1.14341  -1.14336  -1.14274  -1.14153  -1.14142
 Alpha  occ. eigenvalues --   -1.14106  -1.13750  -1.13736  -1.13721  -1.13181
 Alpha  occ. eigenvalues --   -1.13169  -1.13160  -1.13159  -1.13156  -1.13145
 Alpha  occ. eigenvalues --   -0.15780  -0.13759  -0.13134  -0.10704
 Alpha virt. eigenvalues --   -0.07735  -0.05102  -0.04302  -0.03711  -0.03549
 Alpha virt. eigenvalues --   -0.02337  -0.01836  -0.01590  -0.01453  -0.00977
 Alpha virt. eigenvalues --   -0.00774  -0.00228   0.00005   0.00486   0.00596

  Beta  occ. eigenvalues --  -38.45540 -38.44985 -38.44916 -38.44664 -38.44259
  Beta  occ. eigenvalues --  -38.43653 -38.43652  -2.21320  -2.20682  -2.20664
  Beta  occ. eigenvalues --   -2.20438  -2.20004  -2.19443  -2.19433  -1.15005
  Beta  occ. eigenvalues --   -1.14990  -1.14939  -1.14387  -1.14360  -1.14355
  Beta  occ. eigenvalues --   -1.14349  -1.14336  -1.14261  -1.14135  -1.14127
  Beta  occ. eigenvalues --   -1.14053  -1.13692  -1.13673  -1.13658  -1.13128
  Beta  occ. eigenvalues --   -1.13114  -1.13110  -1.13108  -1.13107  -1.13104
  Beta  occ. eigenvalues --   -0.15352  -0.12947  -0.12579
  Beta virt. eigenvalues --   -0.07839  -0.07544  -0.04543  -0.03813  -0.03571
  Beta virt. eigenvalues --   -0.03342  -0.02204  -0.01609  -0.01201  -0.01022
  Beta virt. eigenvalues --   -0.00826  -0.00676  -0.00095   0.00221   0.00554

 Mulliken charges and spin densities:
               1          2
     1  Na   0.062572   0.068348
     2  Na   0.057799   0.170310
     3  Na  -0.180183  -0.020465
     4  Na  -0.974047   0.156306
     5  Na   0.136456   0.114459
     6  Na   0.768024   0.216475
     7  Na   0.129379   0.294566
 Sum of Mulliken charges =  -0.00000   1.00000

 Dipole moment (field-independent basis, Debye):
    X=             -0.2130    Y=              0.0224    Z=             -0.1380  Tot=              0.2548
 Quadrupole moment (field-independent basis, Debye-Ang):
   XX=            -53.8201   YY=            -75.0770   ZZ=            -70.4676
   XY=             -0.3768   XZ=              0.2734   YZ=              0.2675

 Normal termination of Gaussian 16 at Sun Dec  3 19:06:12 2023.
