 Gaussian 16, Revision B.01,
 Gaussian 16:  ES64L-G16RevB.01 20-Dec-2017

 -------------------------
 #P B3LYP/6-311+g(d) force
 -------------------------

 -----
 DPGEN
 -----
 Symbolic Z-matrix:
 Charge =  0 Multiplicity = 2

                         Standard orientation:
 ---------------------------------------------------------------------
 Center     Atomic      Atomic             Coordinates (Angstroms)
 Number     Number       Type             X           Y           Z
 ---------------------------------------------------------------------
      1         11           0        0.376694    2.985045    0.453107
      2         11           0        5.155367   -0.484457   -1.394452
      3         11           0        2.953734    0.721132    0.479199
      4         11           0        1.346368   -2.157833    1.621395
      5         11           0       -0.268648   -0.305076   -0.083940
      6         11           0       -3.377956   -0.935783   -1.159040
      7         11           0       -6.185560    0.176973    0.083732
 ---------------------------------------------------------------------

 SCF Done:  E(UB3LYP) =  -1136.10312139     A.U. after   25 cycles

 The electronic state is 2-A.
 Alpha  occ. eigenvalues --  -38.45995 -38.44659 -38.44590 -38.44068 -38.43959
 Alpha  occ. eigenvalues --  -38.43230 -38.43228  -2.21851  -2.20421  -2.20415
 Alpha  occ. eigenvalues --   -2.19887  -2.19871  -2.19150  -2.19027  -1.15540
 Alpha  occ. eigenvalues --   -1.15477  -1.15434  -1.14081  -1.14079  -1.14071
 Alpha  occ. eigenvalues --   -1.14067  -1.14060  -1.14040  -1.13612  -1.13566
 Alpha  occ. eigenvalues --   -1.13533  -1.13530  -1.13520  -1.13485  -1.12866
 Alpha  occ. eigenvalues --   -1.12833  -1.12805  -1.12678  -1.12671  -1.12631
 Alpha  occ. eigenvalues --   -0.17434  -0.13502  -0.12324  -0.11258
 Alpha virt. eigenvalues --   -0.07300  -0.04857  -0.04355  -0.03684  -0.03327
 Alpha virt. eigenvalues --   -0.02188  -0.01986  -0.01658  -0.01206  -0.00742
 Alpha virt. eigenvalues --   -0.00643  -0.00269   0.00337   0.00449   0.00543

  Beta  occ. eigenvalues --  -38.45892 -38.44666 -38.44510 -38.44066 -38.43947
  Beta  occ. eigenvalues --  -38.43209 -38.43209  -2.21661  -2.20428  -2.20273
  Beta  occ. eigenvalues --   -2.19874  -2.19868  -2.19119  -2.18988  -1.15405
  Beta  occ. eigenvalues --   -1.15349  -1.15305  -1.14090  -1.14088  -1.14075
  Beta  occ. eigenvalues --   -1.13962  -1.13960  -1.13948  -1.13602  -1.13547
  Beta  occ. eigenvalues --   -1.13528  -1.13517  -1.13503  -1.13470  -1.12841
  Beta  occ. eigenvalues --   -1.12802  -1.12771  -1.12652  -1.12642  -1.12606
  Beta  occ. eigenvalues --   -0.16605  -0.13415  -0.10908
  Beta virt. eigenvalues --   -0.08382  -0.07111  -0.04287  -0.04179  -0.03298
  Beta virt. eigenvalues --   -0.02860  -0.01922  -0.01716  -0.01418  -0.01060
  Beta virt. eigenvalues --   -0.00546  -0.00340  -0.00074   0.00357   0.00554

 Mulliken charges and spin densities:
               1          2
     1  Na   0.556057   0.350010
     2  Na   0.322222   0.059079
     3  Na   0.393181   0.318950
     4  Na   1.172838   0.262865
     5  Na  -1.571334   0.152978
     6  Na  -1.016513  -0.115490
     7  Na   0.143548  -0.028392
 Sum of Mulliken charges =  -0.00000   1.00000

 Dipole moment (field-independent basis, Debye):
    X=             -1.2942    Y=              0.0683    Z=              1.0795  Tot=              1.6867
 Quadrupole moment (field-independent basis, Debye-Ang):
   XX=            -71.9490   YY=            -62.9789   ZZ=            -66.4419
   XY=             -5.4133   XZ=             -2.8489   YZ=             -0.0910

 Normal termination of Gaussian 16 at Tue Nov 28 22:52:15 2023.
