 Gaussian 16, Revision B.01,
 Gaussian 16:  ES64L-G16RevB.01 20-Dec-2017

 -------------------------
 #P B3LYP/6-311+g(d) force
 -------------------------

 -----
 DPGEN
 -----
 Symbolic Z-matrix:
 Charge =  0 Multiplicity = 2

                         Standard orientation:
 ---------------------------------------------------------------------
 Center     Atomic      Atomic             Coordinates (Angstroms)
 Number     Number       Type             X           Y           Z
 ---------------------------------------------------------------------
      1         11           0       -2.919209    0.809427    0.043046
      2         11           0        0.173760    2.976278    0.017062
      3         11           0       -0.414575   -0.046731   -1.518437
      4         11           0        1.617081   -2.138193    0.235699
      5         11           0       -2.117791   -2.091766   -0.006648
      6         11           0        0.341037    0.260472    1.672855
      7         11           0        3.319697    0.230513   -0.443576
 ---------------------------------------------------------------------

 SCF Done:  E(UB3LYP) =  -1136.12684245     A.U. after   21 cycles

 The electronic state is 2-A.
 Alpha  occ. eigenvalues --  -38.44693 -38.44413 -38.43505 -38.43336 -38.43225
 Alpha  occ. eigenvalues --  -38.43105 -38.42881  -2.20536  -2.20326  -2.19425
 Alpha  occ. eigenvalues --   -2.19281  -2.19273  -2.18953  -2.18896  -1.14245
 Alpha  occ. eigenvalues --   -1.14185  -1.14157  -1.14057  -1.13994  -1.13939
 Alpha  occ. eigenvalues --   -1.13174  -1.13086  -1.13048  -1.13017  -1.12964
 Alpha  occ. eigenvalues --   -1.12942  -1.12914  -1.12880  -1.12867  -1.12681
 Alpha  occ. eigenvalues --   -1.12617  -1.12577  -1.12573  -1.12498  -1.12484
 Alpha  occ. eigenvalues --   -0.19233  -0.13792  -0.12292  -0.10370
 Alpha virt. eigenvalues --   -0.06257  -0.04913  -0.04484  -0.03408  -0.02505
 Alpha virt. eigenvalues --   -0.02006  -0.01928  -0.01045  -0.00376  -0.00127
 Alpha virt. eigenvalues --    0.00029   0.00336   0.00799   0.00852   0.00929

  Beta  occ. eigenvalues --  -38.44679 -38.44406 -38.43499 -38.43323 -38.43167
  Beta  occ. eigenvalues --  -38.43101 -38.42800  -2.20513  -2.20318  -2.19420
  Beta  occ. eigenvalues --   -2.19264  -2.19169  -2.18950  -2.18747  -1.14233
  Beta  occ. eigenvalues --   -1.14151  -1.14143  -1.14052  -1.13977  -1.13922
  Beta  occ. eigenvalues --   -1.13157  -1.13084  -1.13017  -1.12996  -1.12908
  Beta  occ. eigenvalues --   -1.12891  -1.12882  -1.12817  -1.12799  -1.12658
  Beta  occ. eigenvalues --   -1.12597  -1.12577  -1.12477  -1.12399  -1.12381
  Beta  occ. eigenvalues --   -0.18525  -0.13511  -0.12035
  Beta virt. eigenvalues --   -0.06534  -0.06136  -0.04892  -0.04483  -0.02605
  Beta virt. eigenvalues --   -0.01850  -0.01783  -0.01015  -0.00988  -0.00388
  Beta virt. eigenvalues --   -0.00148   0.00167   0.00375   0.00846   0.00854

 Mulliken charges and spin densities:
               1          2
     1  Na   0.357076  -0.047423
     2  Na  -0.036659  -0.103467
     3  Na  -0.684087   0.483786
     4  Na   0.490354   0.064614
     5  Na   0.367105   0.035651
     6  Na  -0.392935   0.509185
     7  Na  -0.100855   0.057654
 Sum of Mulliken charges =  -0.00000   1.00000

 Dipole moment (field-independent basis, Debye):
    X=              0.1178    Y=              0.2338    Z=              0.0325  Tot=              0.2638
 Quadrupole moment (field-independent basis, Debye-Ang):
   XX=            -52.2424   YY=            -63.9181   ZZ=            -76.1470
   XY=              0.8980   XZ=             -2.0253   YZ=             -0.8888

 Normal termination of Gaussian 16 at Tue Nov 28 21:28:08 2023.
