 Gaussian 16, Revision B.01,
 Gaussian 16:  ES64L-G16RevB.01 20-Dec-2017

 -------------------------
 #P B3LYP/6-311+g(d) force
 -------------------------

 -----
 DPGEN
 -----
 Symbolic Z-matrix:
 Charge =  0 Multiplicity = 2

                         Standard orientation:
 ---------------------------------------------------------------------
 Center     Atomic      Atomic             Coordinates (Angstroms)
 Number     Number       Type             X           Y           Z
 ---------------------------------------------------------------------
      1         11           0        3.105351    1.178124    0.020017
      2         11           0        3.174372   -2.231805   -0.170038
      3         11           0       -3.180610   -2.136527    0.042052
      4         11           0       -2.734231    1.186138    0.037934
      5         11           0       -0.066251    2.899776    0.043890
      6         11           0        0.077987   -0.597036    1.601012
      7         11           0       -0.376618   -0.298671   -1.574866
 ---------------------------------------------------------------------

 SCF Done:  E(UB3LYP) =  -1136.12373220     A.U. after   22 cycles

 The electronic state is 2-A.
 Alpha  occ. eigenvalues --  -38.44982 -38.44487 -38.44389 -38.44254 -38.43852
 Alpha  occ. eigenvalues --  -38.43492 -38.42609  -2.20776  -2.20257  -2.20182
 Alpha  occ. eigenvalues --   -2.20167  -2.19761  -2.19373  -2.18473  -1.14455
 Alpha  occ. eigenvalues --   -1.14435  -1.14415  -1.13925  -1.13922  -1.13894
 Alpha  occ. eigenvalues --   -1.13885  -1.13875  -1.13842  -1.13829  -1.13824
 Alpha  occ. eigenvalues --   -1.13769  -1.13493  -1.13391  -1.13356  -1.13088
 Alpha  occ. eigenvalues --   -1.12996  -1.12964  -1.12159  -1.12130  -1.12117
 Alpha  occ. eigenvalues --   -0.18257  -0.13782  -0.11859  -0.09743
 Alpha virt. eigenvalues --   -0.06624  -0.06331  -0.04296  -0.03282  -0.02408
 Alpha virt. eigenvalues --   -0.02226  -0.01938  -0.01592  -0.01177  -0.00303
 Alpha virt. eigenvalues --   -0.00072   0.00197   0.00563   0.00609   0.00780

  Beta  occ. eigenvalues --  -38.44980 -38.44487 -38.44390 -38.44244 -38.43790
  Beta  occ. eigenvalues --  -38.43414 -38.42604  -2.20774  -2.20258  -2.20186
  Beta  occ. eigenvalues --   -2.20153  -2.19648  -2.19229  -2.18468  -1.14440
  Beta  occ. eigenvalues --   -1.14432  -1.14417  -1.13927  -1.13912  -1.13895
  Beta  occ. eigenvalues --   -1.13888  -1.13866  -1.13834  -1.13821  -1.13781
  Beta  occ. eigenvalues --   -1.13765  -1.13405  -1.13308  -1.13276  -1.12987
  Beta  occ. eigenvalues --   -1.12890  -1.12861  -1.12159  -1.12128  -1.12088
  Beta  occ. eigenvalues --   -0.17555  -0.13598  -0.11674
  Beta virt. eigenvalues --   -0.06544  -0.06280  -0.05913  -0.04293  -0.02585
  Beta virt. eigenvalues --   -0.02292  -0.01717  -0.01568  -0.01241  -0.00845
  Beta virt. eigenvalues --   -0.00276   0.00142   0.00242   0.00614   0.00627

 Mulliken charges and spin densities:
               1          2
     1  Na   0.202695   0.045603
     2  Na   0.129251  -0.033016
     3  Na   0.349380   0.011519
     4  Na   0.575871   0.212407
     5  Na  -0.354424  -0.102156
     6  Na  -0.459691   0.468438
     7  Na  -0.443082   0.397205
 Sum of Mulliken charges =  -0.00000   1.00000

 Dipole moment (field-independent basis, Debye):
    X=              0.2607    Y=             -0.4988    Z=              0.0730  Tot=              0.5675
 Quadrupole moment (field-independent basis, Debye-Ang):
   XX=            -49.3273   YY=            -62.2262   ZZ=            -79.5896
   XY=              1.6062   XZ=             -0.9764   YZ=              0.9254

 Normal termination of Gaussian 16 at Fri Dec  8 04:38:33 2023.
