 Gaussian 16, Revision B.01,
 Gaussian 16:  ES64L-G16RevB.01 20-Dec-2017

 -------------------------
 #P B3LYP/6-311+g(d) force
 -------------------------

 -----
 DPGEN
 -----
 Symbolic Z-matrix:
 Charge =  0 Multiplicity = 2

                         Standard orientation:
 ---------------------------------------------------------------------
 Center     Atomic      Atomic             Coordinates (Angstroms)
 Number     Number       Type             X           Y           Z
 ---------------------------------------------------------------------
      1         11           0        0.312567   -1.437607    0.928111
      2         11           0        3.409670   -3.011803   -0.166790
      3         11           0        3.375048    0.424955   -0.540561
      4         11           0        0.101714    1.415174   -0.984864
      5         11           0       -2.553802   -0.762386    0.068486
      6         11           0        2.418176    3.270433    0.769021
      7         11           0       -7.063372    0.101233   -0.073402
 ---------------------------------------------------------------------

 SCF Done:  E(UB3LYP) =  -1136.11803259     A.U. after   19 cycles

 The electronic state is 2-A.
 Alpha  occ. eigenvalues --  -38.45867 -38.44451 -38.43994 -38.43820 -38.43645
 Alpha  occ. eigenvalues --  -38.43442 -38.42904  -2.21649  -2.20304  -2.19811
 Alpha  occ. eigenvalues --   -2.19696  -2.19515  -2.19271  -2.18700  -1.15267
 Alpha  occ. eigenvalues --   -1.15266  -1.15251  -1.14020  -1.13998  -1.13884
 Alpha  occ. eigenvalues --   -1.13491  -1.13472  -1.13441  -1.13392  -1.13387
 Alpha  occ. eigenvalues --   -1.13323  -1.13231  -1.13201  -1.13090  -1.12943
 Alpha  occ. eigenvalues --   -1.12929  -1.12902  -1.12366  -1.12363  -1.12333
 Alpha  occ. eigenvalues --   -0.16929  -0.13585  -0.12209  -0.11714
 Alpha virt. eigenvalues --   -0.06092  -0.05145  -0.04875  -0.03546  -0.02692
 Alpha virt. eigenvalues --   -0.02358  -0.02086  -0.01866  -0.01324  -0.01126
 Alpha virt. eigenvalues --   -0.00403  -0.00254   0.00308   0.00477   0.00569

  Beta  occ. eigenvalues --  -38.45698 -38.44443 -38.43991 -38.43808 -38.43637
  Beta  occ. eigenvalues --  -38.43446 -38.42898  -2.21334  -2.20291  -2.19806
  Beta  occ. eigenvalues --   -2.19675  -2.19500  -2.19281  -2.18689  -1.15053
  Beta  occ. eigenvalues --   -1.15053  -1.15037  -1.14013  -1.13988  -1.13870
  Beta  occ. eigenvalues --   -1.13485  -1.13468  -1.13438  -1.13379  -1.13370
  Beta  occ. eigenvalues --   -1.13305  -1.13221  -1.13192  -1.13078  -1.12951
  Beta  occ. eigenvalues --   -1.12939  -1.12887  -1.12359  -1.12354  -1.12327
  Beta  occ. eigenvalues --   -0.16765  -0.12725  -0.11803
  Beta virt. eigenvalues --   -0.07615  -0.06027  -0.04832  -0.04671  -0.03428
  Beta virt. eigenvalues --   -0.02440  -0.01821  -0.01594  -0.01218  -0.00839
  Beta virt. eigenvalues --   -0.00584  -0.00348   0.00031   0.00425   0.00608

 Mulliken charges and spin densities:
               1          2
     1  Na  -0.686338  -0.017246
     2  Na   0.397312   0.015288
     3  Na  -0.102272   0.101932
     4  Na  -0.182329  -0.017303
     5  Na   0.210356   0.187077
     6  Na   0.223622   0.002003
     7  Na   0.139648   0.728249
 Sum of Mulliken charges =  -0.00000   1.00000

 Dipole moment (field-independent basis, Debye):
    X=             -0.4596    Y=              1.0195    Z=              0.1606  Tot=              1.1297
 Quadrupole moment (field-independent basis, Debye-Ang):
   XX=            -63.9718   YY=            -66.6491   ZZ=            -67.8686
   XY=              1.7893   XZ=              1.1306   YZ=              1.6157

 Normal termination of Gaussian 16 at Tue Nov 28 23:57:06 2023.
