 Gaussian 16, Revision B.01,
 Gaussian 16:  ES64L-G16RevB.01 20-Dec-2017

 -------------------------
 #P B3LYP/6-311+g(d) force
 -------------------------

 -----
 DPGEN
 -----
 Symbolic Z-matrix:
 Charge =  0 Multiplicity = 2

                         Standard orientation:
 ---------------------------------------------------------------------
 Center     Atomic      Atomic             Coordinates (Angstroms)
 Number     Number       Type             X           Y           Z
 ---------------------------------------------------------------------
      1         11           0       -2.570052    1.211543   -0.740341
      2         11           0       -0.524740   -1.398067   -1.372737
      3         11           0        0.222927   -0.525062    2.178313
      4         11           0       -3.556174   -1.149947    0.305008
      5         11           0        0.330178    2.601448    0.338502
      6         11           0        2.988402    1.242921   -0.562241
      7         11           0        3.109459   -1.982835   -0.146505
 ---------------------------------------------------------------------

 SCF Done:  E(UB3LYP) =  -1136.11620838     A.U. after   22 cycles

 The electronic state is 2-A.
 Alpha  occ. eigenvalues --  -38.45469 -38.45024 -38.44439 -38.44434 -38.43913
 Alpha  occ. eigenvalues --  -38.43845 -38.42257  -2.21338  -2.20835  -2.20363
 Alpha  occ. eigenvalues --   -2.20284  -2.19749  -2.19646  -2.18123  -1.15154
 Alpha  occ. eigenvalues --   -1.14958  -1.14951  -1.14537  -1.14523  -1.14435
 Alpha  occ. eigenvalues --   -1.14042  -1.14005  -1.13964  -1.13959  -1.13945
 Alpha  occ. eigenvalues --   -1.13928  -1.13403  -1.13371  -1.13363  -1.13323
 Alpha  occ. eigenvalues --   -1.13306  -1.13279  -1.11807  -1.11785  -1.11770
 Alpha  occ. eigenvalues --   -0.18129  -0.14289  -0.11557  -0.10711
 Alpha virt. eigenvalues --   -0.06979  -0.05876  -0.03924  -0.03683  -0.02791
 Alpha virt. eigenvalues --   -0.02563  -0.02414  -0.01357  -0.00680  -0.00236
 Alpha virt. eigenvalues --   -0.00022   0.00149   0.00491   0.00520   0.00736

  Beta  occ. eigenvalues --  -38.45469 -38.45012 -38.44416 -38.44416 -38.43840
  Beta  occ. eigenvalues --  -38.43794 -38.42253  -2.21341  -2.20815  -2.20333
  Beta  occ. eigenvalues --   -2.20243  -2.19639  -2.19529  -2.18118  -1.15155
  Beta  occ. eigenvalues --   -1.14961  -1.14934  -1.14526  -1.14490  -1.14422
  Beta  occ. eigenvalues --   -1.14023  -1.13987  -1.13930  -1.13928  -1.13912
  Beta  occ. eigenvalues --   -1.13899  -1.13318  -1.13292  -1.13274  -1.13255
  Beta  occ. eigenvalues --   -1.13218  -1.13208  -1.11806  -1.11785  -1.11744
  Beta  occ. eigenvalues --   -0.17506  -0.13975  -0.11426
  Beta virt. eigenvalues --   -0.06873  -0.06774  -0.05798  -0.03674  -0.03248
  Beta virt. eigenvalues --   -0.02454  -0.01869  -0.01760  -0.01209  -0.00625
  Beta virt. eigenvalues --   -0.00051   0.00039   0.00252   0.00592   0.00643

 Mulliken charges and spin densities:
               1          2
     1  Na  -0.135068  -0.011358
     2  Na  -0.386339   0.114050
     3  Na  -0.673965   0.634117
     4  Na   0.776245   0.014834
     5  Na   0.241200   0.186021
     6  Na  -0.196715  -0.070719
     7  Na   0.374641   0.133054
 Sum of Mulliken charges =  -0.00000   1.00000

 Dipole moment (field-independent basis, Debye):
    X=             -0.9403    Y=             -0.9035    Z=              0.0119  Tot=              1.3040
 Quadrupole moment (field-independent basis, Debye-Ang):
   XX=            -52.3112   YY=            -72.8560   ZZ=            -72.4669
   XY=              1.4061   XZ=             -1.6574   YZ=             -1.2190

 Normal termination of Gaussian 16 at Thu Dec  7 02:12:57 2023.
