 Gaussian 16, Revision B.01,
 Gaussian 16:  ES64L-G16RevB.01 20-Dec-2017

 -------------------------
 #P B3LYP/6-311+g(d) force
 -------------------------

 -----
 DPGEN
 -----
 Symbolic Z-matrix:
 Charge =  0 Multiplicity = 2

                         Standard orientation:
 ---------------------------------------------------------------------
 Center     Atomic      Atomic             Coordinates (Angstroms)
 Number     Number       Type             X           Y           Z
 ---------------------------------------------------------------------
      1         11           0       -1.764765   -1.312098    1.066353
      2         11           0       -5.261538   -1.072622   -0.510197
      3         11           0       -5.239443    1.860446    0.282115
      4         11           0       -0.779994    1.038024   -0.855245
      5         11           0        1.151447   -1.290069   -0.412016
      6         11           0        4.914094    0.646263    1.215587
      7         11           0        6.980200    0.130056   -0.786598
 ---------------------------------------------------------------------

 SCF Done:  E(UB3LYP) =  -1136.10545419     A.U. after   19 cycles

 The electronic state is 2-A.
 Alpha  occ. eigenvalues --  -38.44685 -38.44640 -38.44571 -38.44188 -38.44010
 Alpha  occ. eigenvalues --  -38.43958 -38.43844  -2.20535  -2.20450  -2.20380
 Alpha  occ. eigenvalues --   -2.20066  -2.19825  -2.19765  -2.19723  -1.14268
 Alpha  occ. eigenvalues --   -1.14239  -1.14195  -1.14177  -1.14097  -1.14095
 Alpha  occ. eigenvalues --   -1.14023  -1.14014  -1.13938  -1.13751  -1.13716
 Alpha  occ. eigenvalues --   -1.13669  -1.13590  -1.13487  -1.13468  -1.13414
 Alpha  occ. eigenvalues --   -1.13399  -1.13396  -1.13385  -1.13349  -1.13314
 Alpha  occ. eigenvalues --   -0.16484  -0.13959  -0.12736  -0.09727
 Alpha virt. eigenvalues --   -0.06435  -0.05576  -0.05373  -0.03470  -0.02893
 Alpha virt. eigenvalues --   -0.02624  -0.02122  -0.02036  -0.01032  -0.00804
 Alpha virt. eigenvalues --   -0.00499  -0.00110   0.00258   0.00334   0.00475

  Beta  occ. eigenvalues --  -38.44682 -38.44639 -38.44571 -38.44134 -38.43999
  Beta  occ. eigenvalues --  -38.43932 -38.43781  -2.20534  -2.20448  -2.20380
  Beta  occ. eigenvalues --   -2.19965  -2.19807  -2.19716  -2.19608  -1.14266
  Beta  occ. eigenvalues --   -1.14226  -1.14197  -1.14159  -1.14095  -1.14093
  Beta  occ. eigenvalues --   -1.14023  -1.14014  -1.13937  -1.13677  -1.13645
  Beta  occ. eigenvalues --   -1.13599  -1.13569  -1.13476  -1.13443  -1.13379
  Beta  occ. eigenvalues --   -1.13362  -1.13322  -1.13311  -1.13301  -1.13233
  Beta  occ. eigenvalues --   -0.15906  -0.13856  -0.12599
  Beta virt. eigenvalues --   -0.06343  -0.06082  -0.05364  -0.04834  -0.03189
  Beta virt. eigenvalues --   -0.02794  -0.02467  -0.01908  -0.01465  -0.00998
  Beta virt. eigenvalues --   -0.00361  -0.00307   0.00134   0.00370   0.00484

 Mulliken charges and spin densities:
               1          2
     1  Na  -0.013004   0.523594
     2  Na   0.181350   0.005487
     3  Na  -0.008999   0.120844
     4  Na  -0.069666   0.279958
     5  Na  -0.140247   0.068487
     6  Na  -0.134602  -0.011316
     7  Na   0.185167   0.012946
 Sum of Mulliken charges =  -0.00000   1.00000

 Dipole moment (field-independent basis, Debye):
    X=              1.6647    Y=             -0.2139    Z=             -0.3491  Tot=              1.7143
 Quadrupole moment (field-independent basis, Debye-Ang):
   XX=            -59.6496   YY=            -72.3720   ZZ=            -67.0935
   XY=             -2.9615   XZ=             -4.4326   YZ=              6.2888

 Normal termination of Gaussian 16 at Tue Nov 28 23:50:18 2023.
