 Gaussian 16, Revision B.01,
 Gaussian 16:  ES64L-G16RevB.01 20-Dec-2017

 -------------------------
 #P B3LYP/6-311+g(d) force
 -------------------------

 -----
 DPGEN
 -----
 Symbolic Z-matrix:
 Charge =  0 Multiplicity = 2

                         Standard orientation:
 ---------------------------------------------------------------------
 Center     Atomic      Atomic             Coordinates (Angstroms)
 Number     Number       Type             X           Y           Z
 ---------------------------------------------------------------------
      1         11           0       -0.875521   -2.881562    0.107257
      2         11           0        2.454923    2.100093   -0.095580
      3         11           0       -0.566249    0.150527   -1.812626
      4         11           0       -3.022961   -0.148726    0.135825
      5         11           0        0.591363   -0.226230    2.049484
      6         11           0        2.612539   -1.762153   -0.514420
      7         11           0       -1.194093    2.768051    0.130060
 ---------------------------------------------------------------------

 SCF Done:  E(UB3LYP) =  -1136.13753280     A.U. after   18 cycles

 The electronic state is 2-A.
 Alpha  occ. eigenvalues --  -38.44042 -38.44010 -38.43676 -38.43652 -38.43645
 Alpha  occ. eigenvalues --  -38.43594 -38.43510  -2.19833  -2.19790  -2.19543
 Alpha  occ. eigenvalues --   -2.19501  -2.19487  -2.19431  -2.19423  -1.13507
 Alpha  occ. eigenvalues --   -1.13493  -1.13474  -1.13468  -1.13449  -1.13431
 Alpha  occ. eigenvalues --   -1.13288  -1.13213  -1.13196  -1.13179  -1.13168
 Alpha  occ. eigenvalues --   -1.13148  -1.13131  -1.13128  -1.13107  -1.13102
 Alpha  occ. eigenvalues --   -1.13087  -1.13081  -1.13055  -1.13043  -1.13036
 Alpha  occ. eigenvalues --   -0.18222  -0.12795  -0.12527  -0.10622
 Alpha virt. eigenvalues --   -0.05631  -0.05232  -0.04996  -0.03296  -0.03004
 Alpha virt. eigenvalues --   -0.02520  -0.01323  -0.01246  -0.00572  -0.00496
 Alpha virt. eigenvalues --   -0.00037   0.00381   0.00801   0.00815   0.00869

  Beta  occ. eigenvalues --  -38.44031 -38.44010 -38.43672 -38.43648 -38.43589
  Beta  occ. eigenvalues --  -38.43562 -38.43444  -2.19815  -2.19792  -2.19538
  Beta  occ. eigenvalues --   -2.19484  -2.19418  -2.19348  -2.19310  -1.13483
  Beta  occ. eigenvalues --   -1.13476  -1.13465  -1.13453  -1.13450  -1.13434
  Beta  occ. eigenvalues --   -1.13270  -1.13206  -1.13176  -1.13166  -1.13132
  Beta  occ. eigenvalues --   -1.13107  -1.13098  -1.13071  -1.13059  -1.13055
  Beta  occ. eigenvalues --   -1.13021  -1.13013  -1.13007  -1.12964  -1.12955
  Beta  occ. eigenvalues --   -0.17508  -0.12588  -0.12325
  Beta virt. eigenvalues --   -0.06795  -0.05633  -0.05188  -0.04826  -0.02556
  Beta virt. eigenvalues --   -0.02263  -0.01538  -0.01232  -0.01157  -0.00614
  Beta virt. eigenvalues --   -0.00539   0.00117   0.00409   0.00824   0.00853

 Mulliken charges and spin densities:
               1          2
     1  Na   0.167693  -0.034376
     2  Na   0.014921  -0.105843
     3  Na  -0.144420   0.593469
     4  Na   0.251147  -0.014566
     5  Na  -0.380739   0.691762
     6  Na   0.003952  -0.037956
     7  Na   0.087444  -0.092490
 Sum of Mulliken charges =  -0.00000   1.00000

 Dipole moment (field-independent basis, Debye):
    X=              0.1701    Y=              0.0271    Z=              0.0207  Tot=              0.1735
 Quadrupole moment (field-independent basis, Debye-Ang):
   XX=            -59.1345   YY=            -60.9389   ZZ=            -74.0173
   XY=              0.1690   XZ=             -2.3993   YZ=              0.7806

 Normal termination of Gaussian 16 at Mon Dec  4 04:46:33 2023.
