 Gaussian 16, Revision B.01,
 Gaussian 16:  ES64L-G16RevB.01 20-Dec-2017

 -------------------------
 #P B3LYP/6-311+g(d) force
 -------------------------

 -----
 DPGEN
 -----
 Symbolic Z-matrix:
 Charge =  0 Multiplicity = 2

                         Standard orientation:
 ---------------------------------------------------------------------
 Center     Atomic      Atomic             Coordinates (Angstroms)
 Number     Number       Type             X           Y           Z
 ---------------------------------------------------------------------
      1         11           0       -0.500312   -0.092585   -1.617865
      2         11           0       -2.749984   -1.907238    0.056081
      3         11           0        0.947388   -2.504809   -0.061129
      4         11           0        3.294253   -0.197288   -0.334080
      5         11           0        0.223060    0.007801    2.074146
      6         11           0        1.091464    2.517866   -0.067569
      7         11           0       -2.305868    2.176253   -0.049583
 ---------------------------------------------------------------------

 SCF Done:  E(UB3LYP) =  -1136.13672024     A.U. after   19 cycles

 The electronic state is 2-A.
 Alpha  occ. eigenvalues --  -38.44115 -38.43960 -38.43918 -38.43555 -38.43385
 Alpha  occ. eigenvalues --  -38.43286 -38.43197  -2.19909  -2.19785  -2.19743
 Alpha  occ. eigenvalues --   -2.19447  -2.19277  -2.19170  -2.19161  -1.13589
 Alpha  occ. eigenvalues --   -1.13564  -1.13550  -1.13458  -1.13443  -1.13433
 Alpha  occ. eigenvalues --   -1.13432  -1.13400  -1.13379  -1.13124  -1.13090
 Alpha  occ. eigenvalues --   -1.13056  -1.13004  -1.12942  -1.12883  -1.12873
 Alpha  occ. eigenvalues --   -1.12834  -1.12830  -1.12797  -1.12782  -1.12773
 Alpha  occ. eigenvalues --   -0.18605  -0.12901  -0.12532  -0.10657
 Alpha virt. eigenvalues --   -0.05686  -0.05479  -0.04464  -0.03080  -0.02915
 Alpha virt. eigenvalues --   -0.02506  -0.01675  -0.01304  -0.00337  -0.00232
 Alpha virt. eigenvalues --   -0.00030   0.00325   0.00761   0.00837   0.00909

  Beta  occ. eigenvalues --  -38.44115 -38.43953 -38.43916 -38.43454 -38.43375
  Beta  occ. eigenvalues --  -38.43278 -38.43140  -2.19912  -2.19776  -2.19743
  Beta  occ. eigenvalues --   -2.19264  -2.19261  -2.19152  -2.19067  -1.13582
  Beta  occ. eigenvalues --   -1.13563  -1.13552  -1.13455  -1.13430  -1.13426
  Beta  occ. eigenvalues --   -1.13417  -1.13387  -1.13383  -1.13021  -1.12978
  Beta  occ. eigenvalues --   -1.12958  -1.12929  -1.12893  -1.12876  -1.12849
  Beta  occ. eigenvalues --   -1.12795  -1.12780  -1.12769  -1.12724  -1.12706
  Beta  occ. eigenvalues --   -0.17872  -0.12690  -0.12301
  Beta virt. eigenvalues --   -0.06739  -0.05644  -0.05437  -0.04441  -0.02351
  Beta virt. eigenvalues --   -0.02117  -0.01612  -0.01418  -0.01249  -0.00391
  Beta virt. eigenvalues --   -0.00263   0.00122   0.00355   0.00820   0.00830

 Mulliken charges and spin densities:
               1          2
     1  Na  -0.250521   0.474684
     2  Na   0.120860  -0.110615
     3  Na   0.286434   0.014158
     4  Na  -0.007482   0.006236
     5  Na  -0.494962   0.725476
     6  Na   0.215977   0.006987
     7  Na   0.129693  -0.116927
 Sum of Mulliken charges =   0.00000   1.00000

 Dipole moment (field-independent basis, Debye):
    X=             -0.3286    Y=             -0.0117    Z=              0.1418  Tot=              0.3581
 Quadrupole moment (field-independent basis, Debye-Ang):
   XX=            -54.3034   YY=            -63.7841   ZZ=            -74.7676
   XY=              0.3032   XZ=             -1.8240   YZ=             -0.2892

 Normal termination of Gaussian 16 at Tue Dec  5 19:46:33 2023.
