 Gaussian 16, Revision B.01,
 Gaussian 16:  ES64L-G16RevB.01 20-Dec-2017

 -------------------------
 #P B3LYP/6-311+g(d) force
 -------------------------

 -----
 DPGEN
 -----
 Symbolic Z-matrix:
 Charge =  0 Multiplicity = 2

                         Standard orientation:
 ---------------------------------------------------------------------
 Center     Atomic      Atomic             Coordinates (Angstroms)
 Number     Number       Type             X           Y           Z
 ---------------------------------------------------------------------
      1         11           0       -0.871529   -2.210862    0.826756
      2         11           0        4.156190   -0.421971   -0.730767
      3         11           0        1.787774   -2.710228   -0.570848
      4         11           0        3.127890    2.302033    1.101011
      5         11           0       -0.468610    2.318956   -0.181731
      6         11           0       -4.265563   -1.327513    0.364190
      7         11           0       -3.466152    2.049585   -0.808611
 ---------------------------------------------------------------------

 SCF Done:  E(UB3LYP) =  -1136.10796311     A.U. after   25 cycles

 The electronic state is 2-A.
 Alpha  occ. eigenvalues --  -38.45557 -38.44785 -38.44636 -38.44295 -38.44246
 Alpha  occ. eigenvalues --  -38.44133 -38.43467  -2.21341  -2.20603  -2.20442
 Alpha  occ. eigenvalues --   -2.20100  -2.20029  -2.19943  -2.19320  -1.15016
 Alpha  occ. eigenvalues --   -1.15007  -1.14979  -1.14311  -1.14259  -1.14227
 Alpha  occ. eigenvalues --   -1.14140  -1.14114  -1.14089  -1.13768  -1.13755
 Alpha  occ. eigenvalues --   -1.13729  -1.13694  -1.13672  -1.13670  -1.13590
 Alpha  occ. eigenvalues --   -1.13581  -1.13562  -1.12997  -1.12956  -1.12955
 Alpha  occ. eigenvalues --   -0.16236  -0.14286  -0.12916  -0.10589
 Alpha virt. eigenvalues --   -0.07812  -0.04708  -0.04259  -0.03822  -0.03655
 Alpha virt. eigenvalues --   -0.02538  -0.02231  -0.01191  -0.01010  -0.00845
 Alpha virt. eigenvalues --   -0.00516  -0.00449   0.00256   0.00546   0.00610

  Beta  occ. eigenvalues --  -38.45546 -38.44757 -38.44630 -38.44259 -38.44215
  Beta  occ. eigenvalues --  -38.44045 -38.43435  -2.21324  -2.20558  -2.20437
  Beta  occ. eigenvalues --   -2.20039  -2.19972  -2.19780  -2.19262  -1.15007
  Beta  occ. eigenvalues --   -1.14992  -1.14949  -1.14260  -1.14234  -1.14184
  Beta  occ. eigenvalues --   -1.14127  -1.14111  -1.14065  -1.13728  -1.13718
  Beta  occ. eigenvalues --   -1.13673  -1.13655  -1.13636  -1.13623  -1.13479
  Beta  occ. eigenvalues --   -1.13469  -1.13456  -1.12959  -1.12918  -1.12916
  Beta  occ. eigenvalues --   -0.15802  -0.13553  -0.12227
  Beta virt. eigenvalues --   -0.07947  -0.07333  -0.04401  -0.03835  -0.03513
  Beta virt. eigenvalues --   -0.03321  -0.02324  -0.01945  -0.00936  -0.00783
  Beta virt. eigenvalues --   -0.00535  -0.00349  -0.00240   0.00344   0.00637

 Mulliken charges and spin densities:
               1          2
     1  Na  -0.670170   0.107463
     2  Na   0.122795   0.140217
     3  Na   0.394552   0.020109
     4  Na   0.618018   0.343503
     5  Na  -0.933365   0.282179
     6  Na   0.092171   0.411331
     7  Na   0.375998  -0.304803
 Sum of Mulliken charges =  -0.00000   1.00000

 Dipole moment (field-independent basis, Debye):
    X=              0.3504    Y=              0.3060    Z=             -0.3076  Tot=              0.5577
 Quadrupole moment (field-independent basis, Debye-Ang):
   XX=            -56.2014   YY=            -74.9606   ZZ=            -69.1923
   XY=             -5.7827   XZ=             -0.2884   YZ=              1.8109

 Normal termination of Gaussian 16 at Sun Dec  3 13:36:24 2023.
