 Gaussian 16, Revision B.01,
 Gaussian 16:  ES64L-G16RevB.01 20-Dec-2017

 -------------------------
 #P B3LYP/6-311+g(d) force
 -------------------------

 -----
 DPGEN
 -----
 Symbolic Z-matrix:
 Charge =  0 Multiplicity = 2

                         Standard orientation:
 ---------------------------------------------------------------------
 Center     Atomic      Atomic             Coordinates (Angstroms)
 Number     Number       Type             X           Y           Z
 ---------------------------------------------------------------------
      1         11           0        1.036639   -2.633582   -0.127804
      2         11           0       -2.270320   -2.063481   -0.221822
      3         11           0        0.089217    0.413907   -1.465625
      4         11           0       -3.215030    1.536281   -0.095721
      5         11           0        1.167400    2.937786    0.003521
      6         11           0        0.036649   -0.038609    2.106927
      7         11           0        3.155445   -0.152302   -0.199475
 ---------------------------------------------------------------------

 SCF Done:  E(UB3LYP) =  -1136.13331143     A.U. after   20 cycles

 The electronic state is 2-A.
 Alpha  occ. eigenvalues --  -38.44644 -38.44197 -38.43897 -38.43873 -38.43469
 Alpha  occ. eigenvalues --  -38.43138 -38.43012  -2.20393  -2.20047  -2.19721
 Alpha  occ. eigenvalues --   -2.19694  -2.19338  -2.19109  -2.18903  -1.14071
 Alpha  occ. eigenvalues --   -1.14044  -1.14037  -1.13733  -1.13706  -1.13682
 Alpha  occ. eigenvalues --   -1.13438  -1.13374  -1.13374  -1.13360  -1.13343
 Alpha  occ. eigenvalues --   -1.13328  -1.13008  -1.12958  -1.12953  -1.12803
 Alpha  occ. eigenvalues --   -1.12764  -1.12722  -1.12574  -1.12559  -1.12552
 Alpha  occ. eigenvalues --   -0.18399  -0.12970  -0.12356  -0.10434
 Alpha virt. eigenvalues --   -0.06229  -0.05291  -0.04637  -0.03003  -0.02737
 Alpha virt. eigenvalues --   -0.02410  -0.01863  -0.01294  -0.00741  -0.00382
 Alpha virt. eigenvalues --   -0.00019   0.00308   0.00713   0.00798   0.00870

  Beta  occ. eigenvalues --  -38.44646 -38.44189 -38.43894 -38.43868 -38.43362
  Beta  occ. eigenvalues --  -38.43090 -38.43005  -2.20399  -2.20036  -2.19718
  Beta  occ. eigenvalues --   -2.19688  -2.19141  -2.19024  -2.18894  -1.14064
  Beta  occ. eigenvalues --   -1.14049  -1.14042  -1.13724  -1.13682  -1.13672
  Beta  occ. eigenvalues --   -1.13432  -1.13368  -1.13355  -1.13343  -1.13341
  Beta  occ. eigenvalues --   -1.13328  -1.12878  -1.12819  -1.12814  -1.12738
  Beta  occ. eigenvalues --   -1.12703  -1.12657  -1.12569  -1.12553  -1.12517
  Beta  occ. eigenvalues --   -0.17679  -0.12766  -0.12146
  Beta virt. eigenvalues --   -0.06497  -0.06217  -0.05226  -0.04622  -0.02282
  Beta virt. eigenvalues --   -0.01999  -0.01806  -0.01320  -0.01197  -0.00786
  Beta virt. eigenvalues --   -0.00420   0.00144   0.00355   0.00733   0.00853

 Mulliken charges and spin densities:
               1          2
     1  Na   0.167662   0.058267
     2  Na   0.112497  -0.003223
     3  Na  -0.323140   0.256590
     4  Na   0.036678  -0.070458
     5  Na   0.151549  -0.066788
     6  Na  -0.521171   0.759718
     7  Na   0.375925   0.065894
 Sum of Mulliken charges =  -0.00000   1.00000

 Dipole moment (field-independent basis, Debye):
    X=             -0.1975    Y=              0.4374    Z=              0.1276  Tot=              0.4966
 Quadrupole moment (field-independent basis, Debye-Ang):
   XX=            -54.2344   YY=            -61.5679   ZZ=            -76.4636
   XY=             -0.2691   XZ=             -0.0065   YZ=              1.0395

 Normal termination of Gaussian 16 at Thu Dec  7 09:10:46 2023.
