 Gaussian 16, Revision B.01,
 Gaussian 16:  ES64L-G16RevB.01 20-Dec-2017

 -------------------------
 #P B3LYP/6-311+g(d) force
 -------------------------

 -----
 DPGEN
 -----
 Symbolic Z-matrix:
 Charge =  0 Multiplicity = 2

                         Standard orientation:
 ---------------------------------------------------------------------
 Center     Atomic      Atomic             Coordinates (Angstroms)
 Number     Number       Type             X           Y           Z
 ---------------------------------------------------------------------
      1         11           0        2.326916    1.127150   -1.292805
      2         11           0       -3.044162   -1.894841   -0.805159
      3         11           0        3.352503   -1.705777    0.448143
      4         11           0       -0.682588    2.560331   -0.806655
      5         11           0       -0.227678   -1.475975   -0.490082
      6         11           0       -2.704824    0.711561    1.219792
      7         11           0        0.979833    0.677551    1.726766
 ---------------------------------------------------------------------

 SCF Done:  E(UB3LYP) =  -1136.12794303     A.U. after   21 cycles

 The electronic state is 2-A.
 Alpha  occ. eigenvalues --  -38.44297 -38.44242 -38.43906 -38.43875 -38.43645
 Alpha  occ. eigenvalues --  -38.43558 -38.43020  -2.20109  -2.20101  -2.19798
 Alpha  occ. eigenvalues --   -2.19790  -2.19582  -2.19439  -2.18873  -1.13779
 Alpha  occ. eigenvalues --   -1.13778  -1.13771  -1.13763  -1.13744  -1.13728
 Alpha  occ. eigenvalues --   -1.13526  -1.13499  -1.13471  -1.13415  -1.13405
 Alpha  occ. eigenvalues --   -1.13397  -1.13363  -1.13263  -1.13231  -1.13063
 Alpha  occ. eigenvalues --   -1.13056  -1.13002  -1.12545  -1.12533  -1.12517
 Alpha  occ. eigenvalues --   -0.18441  -0.13974  -0.11970  -0.10702
 Alpha virt. eigenvalues --   -0.06284  -0.05362  -0.04592  -0.03366  -0.02754
 Alpha virt. eigenvalues --   -0.02191  -0.02041  -0.01232  -0.00581  -0.00080
 Alpha virt. eigenvalues --    0.00112   0.00203   0.00406   0.00576   0.00770

  Beta  occ. eigenvalues --  -38.44290 -38.44216 -38.43856 -38.43820 -38.43625
  Beta  occ. eigenvalues --  -38.43542 -38.43007  -2.20097  -2.20054  -2.19708
  Beta  occ. eigenvalues --   -2.19689  -2.19550  -2.19410  -2.18853  -1.13769
  Beta  occ. eigenvalues --   -1.13755  -1.13743  -1.13736  -1.13731  -1.13691
  Beta  occ. eigenvalues --   -1.13466  -1.13431  -1.13401  -1.13374  -1.13343
  Beta  occ. eigenvalues --   -1.13326  -1.13286  -1.13223  -1.13203  -1.13041
  Beta  occ. eigenvalues --   -1.13035  -1.12983  -1.12532  -1.12520  -1.12480
  Beta  occ. eigenvalues --   -0.17816  -0.13771  -0.11600
  Beta virt. eigenvalues --   -0.07010  -0.06125  -0.05252  -0.04096  -0.03024
  Beta virt. eigenvalues --   -0.02205  -0.02059  -0.01380  -0.01034  -0.00251
  Beta virt. eigenvalues --   -0.00021   0.00196   0.00250   0.00558   0.00650

 Mulliken charges and spin densities:
               1          2
     1  Na   0.193630   0.202189
     2  Na   0.075842  -0.061337
     3  Na   1.297757   0.043464
     4  Na  -0.205052   0.081688
     5  Na  -1.502188   0.268193
     6  Na   0.414725   0.133773
     7  Na  -0.274714   0.332031
 Sum of Mulliken charges =  -0.00000   1.00000

 Dipole moment (field-independent basis, Debye):
    X=              0.3907    Y=              0.0321    Z=              0.2296  Tot=              0.4543
 Quadrupole moment (field-independent basis, Debye-Ang):
   XX=            -50.7380   YY=            -71.7651   ZZ=            -71.2864
   XY=             -3.9760   XZ=             -0.6515   YZ=             -0.4378

 Normal termination of Gaussian 16 at Thu Dec  7 11:00:39 2023.
