 Gaussian 16, Revision B.01,
 Gaussian 16:  ES64L-G16RevB.01 20-Dec-2017

 -------------------------
 #P B3LYP/6-311+g(d) force
 -------------------------

 -----
 DPGEN
 -----
 Symbolic Z-matrix:
 Charge =  0 Multiplicity = 2

                         Standard orientation:
 ---------------------------------------------------------------------
 Center     Atomic      Atomic             Coordinates (Angstroms)
 Number     Number       Type             X           Y           Z
 ---------------------------------------------------------------------
      1         11           0       -1.262085   -1.688872   -0.528027
      2         11           0        1.818456   -2.771029    0.241059
      3         11           0        3.965564   -0.546761   -0.382767
      4         11           0       -4.433054   -0.106040   -0.999295
      5         11           0        1.859607    3.522109   -0.696792
      6         11           0        0.588430    0.669077    1.049753
      7         11           0       -2.536920    0.921516    1.316068
 ---------------------------------------------------------------------

 SCF Done:  E(UB3LYP) =  -1136.11705090     A.U. after   22 cycles

 The electronic state is 2-A.
 Alpha  occ. eigenvalues --  -38.44805 -38.44639 -38.44402 -38.44220 -38.44046
 Alpha  occ. eigenvalues --  -38.43265 -38.43166  -2.20690  -2.20450  -2.20275
 Alpha  occ. eigenvalues --   -2.19945  -2.19903  -2.19122  -2.19088  -1.14402
 Alpha  occ. eigenvalues --   -1.14351  -1.14323  -1.14112  -1.14106  -1.14063
 Alpha  occ. eigenvalues --   -1.13972  -1.13955  -1.13881  -1.13629  -1.13605
 Alpha  occ. eigenvalues --   -1.13593  -1.13555  -1.13535  -1.13514  -1.12796
 Alpha  occ. eigenvalues --   -1.12792  -1.12785  -1.12777  -1.12756  -1.12686
 Alpha  occ. eigenvalues --   -0.17605  -0.14322  -0.11718  -0.10733
 Alpha virt. eigenvalues --   -0.07122  -0.04948  -0.04419  -0.04078  -0.02918
 Alpha virt. eigenvalues --   -0.02398  -0.01663  -0.01504  -0.00923  -0.00608
 Alpha virt. eigenvalues --   -0.00404   0.00174   0.00370   0.00532   0.00616

  Beta  occ. eigenvalues --  -38.44786 -38.44578 -38.44378 -38.44239 -38.43964
  Beta  occ. eigenvalues --  -38.43261 -38.43117  -2.20663  -2.20335  -2.20235
  Beta  occ. eigenvalues --   -2.19982  -2.19749  -2.19120  -2.19005  -1.14345
  Beta  occ. eigenvalues --   -1.14325  -1.14302  -1.14037  -1.14028  -1.13983
  Beta  occ. eigenvalues --   -1.13943  -1.13910  -1.13849  -1.13654  -1.13627
  Beta  occ. eigenvalues --   -1.13619  -1.13450  -1.13429  -1.13417  -1.12789
  Beta  occ. eigenvalues --   -1.12787  -1.12750  -1.12736  -1.12683  -1.12623
  Beta  occ. eigenvalues --   -0.16875  -0.13658  -0.11662
  Beta virt. eigenvalues --   -0.07253  -0.06766  -0.04790  -0.03861  -0.03776
  Beta virt. eigenvalues --   -0.02513  -0.02243  -0.01145  -0.01107  -0.00896
  Beta virt. eigenvalues --   -0.00402  -0.00221   0.00316   0.00523   0.00634

 Mulliken charges and spin densities:
               1          2
     1  Na  -0.895660   0.164530
     2  Na   0.645139   0.023793
     3  Na   0.378473   0.405356
     4  Na   0.511731   0.417385
     5  Na   0.212874  -0.038995
     6  Na  -0.855093  -0.030139
     7  Na   0.002536   0.058071
 Sum of Mulliken charges =  -0.00000   1.00000

 Dipole moment (field-independent basis, Debye):
    X=             -0.5038    Y=             -0.0757    Z=             -0.2051  Tot=              0.5491
 Quadrupole moment (field-independent basis, Debye-Ang):
   XX=            -64.3391   YY=            -67.6443   ZZ=            -67.2920
   XY=             -1.2364   XZ=             -1.8238   YZ=             -1.0839

 Normal termination of Gaussian 16 at Tue Nov 28 21:24:21 2023.
