 Gaussian 16, Revision B.01,
 Gaussian 16:  ES64L-G16RevB.01 20-Dec-2017

 -------------------------
 #P B3LYP/6-311+g(d) force
 -------------------------

 -----
 DPGEN
 -----
 Symbolic Z-matrix:
 Charge =  0 Multiplicity = 2

                         Standard orientation:
 ---------------------------------------------------------------------
 Center     Atomic      Atomic             Coordinates (Angstroms)
 Number     Number       Type             X           Y           Z
 ---------------------------------------------------------------------
      1         11           0       -2.424861   -1.927435   -0.515863
      2         11           0       -3.000577    1.200713   -0.036222
      3         11           0        0.441646    3.072939    0.395850
      4         11           0        0.143954    0.300077   -1.261657
      5         11           0        3.293853    0.545685   -0.436914
      6         11           0       -0.154721   -0.625154    1.653602
      7         11           0        1.700704   -2.566824    0.201204
 ---------------------------------------------------------------------

 SCF Done:  E(UB3LYP) =  -1136.13083570     A.U. after   19 cycles

 The electronic state is 2-A.
 Alpha  occ. eigenvalues --  -38.44285 -38.44237 -38.43751 -38.43634 -38.43426
 Alpha  occ. eigenvalues --  -38.43159 -38.42988  -2.20123  -2.20062  -2.19620
 Alpha  occ. eigenvalues --   -2.19498  -2.19242  -2.19186  -2.18975  -1.13802
 Alpha  occ. eigenvalues --   -1.13793  -1.13760  -1.13746  -1.13709  -1.13689
 Alpha  occ. eigenvalues --   -1.13289  -1.13285  -1.13250  -1.13227  -1.13151
 Alpha  occ. eigenvalues --   -1.13120  -1.12980  -1.12939  -1.12901  -1.12870
 Alpha  occ. eigenvalues --   -1.12799  -1.12792  -1.12648  -1.12584  -1.12568
 Alpha  occ. eigenvalues --   -0.18638  -0.13480  -0.12373  -0.09995
 Alpha virt. eigenvalues --   -0.05968  -0.05358  -0.04869  -0.03024  -0.02619
 Alpha virt. eigenvalues --   -0.01973  -0.01648  -0.01336  -0.00650  -0.00513
 Alpha virt. eigenvalues --    0.00027   0.00292   0.00713   0.00793   0.00815

  Beta  occ. eigenvalues --  -38.44279 -38.44214 -38.43731 -38.43625 -38.43417
  Beta  occ. eigenvalues --  -38.43126 -38.42909  -2.20117  -2.20020  -2.19587
  Beta  occ. eigenvalues --   -2.19486  -2.19226  -2.19129  -2.18831  -1.13798
  Beta  occ. eigenvalues --   -1.13787  -1.13737  -1.13710  -1.13675  -1.13664
  Beta  occ. eigenvalues --   -1.13269  -1.13256  -1.13213  -1.13204  -1.13134
  Beta  occ. eigenvalues --   -1.13105  -1.12947  -1.12902  -1.12881  -1.12852
  Beta  occ. eigenvalues --   -1.12757  -1.12754  -1.12556  -1.12486  -1.12460
  Beta  occ. eigenvalues --   -0.18026  -0.13104  -0.12118
  Beta virt. eigenvalues --   -0.06383  -0.05779  -0.05304  -0.04755  -0.02354
  Beta virt. eigenvalues --   -0.01959  -0.01812  -0.01258  -0.00870  -0.00584
  Beta virt. eigenvalues --   -0.00516   0.00176   0.00377   0.00785   0.00822

 Mulliken charges and spin densities:
               1          2
     1  Na   0.127632   0.104522
     2  Na   0.176817   0.052832
     3  Na  -0.146407   0.069972
     4  Na  -0.391979   0.112207
     5  Na   0.087865   0.100670
     6  Na  -0.096711   0.571653
     7  Na   0.242783  -0.011855
 Sum of Mulliken charges =  -0.00000   1.00000

 Dipole moment (field-independent basis, Debye):
    X=             -0.0445    Y=              0.0409    Z=              0.1823  Tot=              0.1921
 Quadrupole moment (field-independent basis, Debye-Ang):
   XX=            -53.9035   YY=            -60.8449   ZZ=            -76.7164
   XY=             -1.0015   XZ=              0.2078   YZ=              2.2884

 Normal termination of Gaussian 16 at Tue Nov 28 20:23:51 2023.
