 Gaussian 16, Revision B.01,
 Gaussian 16:  ES64L-G16RevB.01 20-Dec-2017

 -------------------------
 #P B3LYP/6-311+g(d) force
 -------------------------

 -----
 DPGEN
 -----
 Symbolic Z-matrix:
 Charge =  0 Multiplicity = 2

                         Standard orientation:
 ---------------------------------------------------------------------
 Center     Atomic      Atomic             Coordinates (Angstroms)
 Number     Number       Type             X           Y           Z
 ---------------------------------------------------------------------
      1         11           0        1.497343   -2.377053    0.248190
      2         11           0       -0.302522    0.274912    1.959348
      3         11           0        0.489214    2.974155   -0.174556
      4         11           0       -1.822154   -2.199370   -0.363161
      5         11           0       -2.993303    0.875344    0.126122
      6         11           0        2.960423    0.259093    0.118092
      7         11           0        0.171000    0.192919   -1.914035
 ---------------------------------------------------------------------

 SCF Done:  E(UB3LYP) =  -1136.13810379     A.U. after   19 cycles

 The electronic state is 2-A.
 Alpha  occ. eigenvalues --  -38.44044 -38.43868 -38.43675 -38.43552 -38.43446
 Alpha  occ. eigenvalues --  -38.43367 -38.43148  -2.19881  -2.19748  -2.19585
 Alpha  occ. eigenvalues --   -2.19485  -2.19281  -2.19238  -2.19049  -1.13573
 Alpha  occ. eigenvalues --   -1.13544  -1.13514  -1.13468  -1.13408  -1.13380
 Alpha  occ. eigenvalues --   -1.13252  -1.13214  -1.13209  -1.13158  -1.13133
 Alpha  occ. eigenvalues --   -1.13110  -1.12954  -1.12940  -1.12911  -1.12907
 Alpha  occ. eigenvalues --   -1.12900  -1.12880  -1.12721  -1.12696  -1.12687
 Alpha  occ. eigenvalues --   -0.18816  -0.13092  -0.12457  -0.11069
 Alpha virt. eigenvalues --   -0.05643  -0.04881  -0.04622  -0.03369  -0.03053
 Alpha virt. eigenvalues --   -0.02792  -0.01404  -0.01030  -0.00253  -0.00107
 Alpha virt. eigenvalues --   -0.00015   0.00384   0.00853   0.00904   0.00936

  Beta  occ. eigenvalues --  -38.44040 -38.43863 -38.43593 -38.43470 -38.43441
  Beta  occ. eigenvalues --  -38.43358 -38.43142  -2.19877  -2.19742  -2.19435
  Beta  occ. eigenvalues --   -2.19335  -2.19275  -2.19225  -2.19041  -1.13562
  Beta  occ. eigenvalues --   -1.13526  -1.13515  -1.13467  -1.13380  -1.13376
  Beta  occ. eigenvalues --   -1.13155  -1.13109  -1.13101  -1.13064  -1.13031
  Beta  occ. eigenvalues --   -1.13006  -1.12931  -1.12921  -1.12904  -1.12899
  Beta  occ. eigenvalues --   -1.12882  -1.12860  -1.12719  -1.12690  -1.12658
  Beta  occ. eigenvalues --   -0.18063  -0.12851  -0.12203
  Beta virt. eigenvalues --   -0.07159  -0.05617  -0.04818  -0.04602  -0.02557
  Beta virt. eigenvalues --   -0.02262  -0.01750  -0.01314  -0.00954  -0.00307
  Beta virt. eigenvalues --   -0.00133   0.00101   0.00403   0.00866   0.00924

 Mulliken charges and spin densities:
               1          2
     1  Na   0.049078   0.010560
     2  Na  -0.370776   0.654024
     3  Na   0.125897  -0.156180
     4  Na   0.119776   0.024303
     5  Na   0.187715  -0.107109
     6  Na   0.189046  -0.050820
     7  Na  -0.300735   0.625223
 Sum of Mulliken charges =  -0.00000   1.00000

 Dipole moment (field-independent basis, Debye):
    X=             -0.2035    Y=              0.3357    Z=              0.0356  Tot=              0.3941
 Quadrupole moment (field-independent basis, Debye-Ang):
   XX=            -58.8120   YY=            -63.6877   ZZ=            -72.4375
   XY=             -0.0001   XZ=              0.9469   YZ=              0.0146

 Normal termination of Gaussian 16 at Wed Nov 29 16:55:36 2023.
