 Gaussian 16, Revision B.01,
 Gaussian 16:  ES64L-G16RevB.01 20-Dec-2017

 -------------------------
 #P B3LYP/6-311+g(d) force
 -------------------------

 -----
 DPGEN
 -----
 Symbolic Z-matrix:
 Charge =  0 Multiplicity = 2

                         Standard orientation:
 ---------------------------------------------------------------------
 Center     Atomic      Atomic             Coordinates (Angstroms)
 Number     Number       Type             X           Y           Z
 ---------------------------------------------------------------------
      1         11           0        2.730861    1.442980   -0.275954
      2         11           0        0.113382    0.002514    2.136377
      3         11           0       -1.825713   -2.162974    0.348203
      4         11           0       -2.945528    0.610319   -0.607708
      5         11           0       -0.281302    2.839145    0.210634
      6         11           0        0.086003   -0.247813   -1.601421
      7         11           0        2.122297   -2.484171   -0.210131
 ---------------------------------------------------------------------

 SCF Done:  E(UB3LYP) =  -1136.13726158     A.U. after   19 cycles

 The electronic state is 2-A.
 Alpha  occ. eigenvalues --  -38.43997 -38.43831 -38.43763 -38.43640 -38.43523
 Alpha  occ. eigenvalues --  -38.43232 -38.43178  -2.19825  -2.19716  -2.19560
 Alpha  occ. eigenvalues --   -2.19525  -2.19401  -2.19164  -2.19095  -1.13514
 Alpha  occ. eigenvalues --   -1.13487  -1.13455  -1.13385  -1.13347  -1.13335
 Alpha  occ. eigenvalues --   -1.13250  -1.13248  -1.13214  -1.13198  -1.13188
 Alpha  occ. eigenvalues --   -1.13168  -1.13083  -1.13035  -1.13021  -1.12847
 Alpha  occ. eigenvalues --   -1.12804  -1.12787  -1.12770  -1.12751  -1.12729
 Alpha  occ. eigenvalues --   -0.18672  -0.12969  -0.12402  -0.11016
 Alpha virt. eigenvalues --   -0.05524  -0.05117  -0.04600  -0.03269  -0.02971
 Alpha virt. eigenvalues --   -0.02752  -0.01403  -0.01216  -0.00309  -0.00178
 Alpha virt. eigenvalues --    0.00010   0.00359   0.00828   0.00854   0.00928

  Beta  occ. eigenvalues --  -38.43993 -38.43763 -38.43729 -38.43630 -38.43509
  Beta  occ. eigenvalues --  -38.43226 -38.43121  -2.19820  -2.19561  -2.19529
  Beta  occ. eigenvalues --   -2.19511  -2.19379  -2.19088  -2.19061  -1.13505
  Beta  occ. eigenvalues --   -1.13474  -1.13452  -1.13273  -1.13241  -1.13235
  Beta  occ. eigenvalues --   -1.13217  -1.13211  -1.13202  -1.13194  -1.13162
  Beta  occ. eigenvalues --   -1.13139  -1.13056  -1.13014  -1.13008  -1.12784
  Beta  occ. eigenvalues --   -1.12762  -1.12741  -1.12726  -1.12717  -1.12703
  Beta  occ. eigenvalues --   -0.17935  -0.12724  -0.12172
  Beta virt. eigenvalues --   -0.07066  -0.05521  -0.05042  -0.04553  -0.02485
  Beta virt. eigenvalues --   -0.02229  -0.01697  -0.01300  -0.01158  -0.00304
  Beta virt. eigenvalues --   -0.00207   0.00123   0.00386   0.00847   0.00897

 Mulliken charges and spin densities:
               1          2
     1  Na   0.030218  -0.076194
     2  Na  -0.365773   0.628438
     3  Na   0.225377   0.080069
     4  Na   0.141048   0.036275
     5  Na   0.144491   0.058101
     6  Na  -0.163906   0.354681
     7  Na  -0.011455  -0.081370
 Sum of Mulliken charges =  -0.00000   1.00000

 Dipole moment (field-independent basis, Debye):
    X=              0.3051    Y=             -0.0823    Z=              0.1575  Tot=              0.3531
 Quadrupole moment (field-independent basis, Debye-Ang):
   XX=            -58.3746   YY=            -62.4228   ZZ=            -73.1383
   XY=             -0.3008   XZ=              0.1950   YZ=             -0.8965

 Normal termination of Gaussian 16 at Thu Dec  7 06:37:23 2023.
