 Gaussian 16, Revision B.01,
 Gaussian 16:  ES64L-G16RevB.01 20-Dec-2017

 -------------------------
 #P B3LYP/6-311+g(d) force
 -------------------------

 -----
 DPGEN
 -----
 Symbolic Z-matrix:
 Charge =  0 Multiplicity = 2

                         Standard orientation:
 ---------------------------------------------------------------------
 Center     Atomic      Atomic             Coordinates (Angstroms)
 Number     Number       Type             X           Y           Z
 ---------------------------------------------------------------------
      1         11           0       -2.685076   -0.770156    0.870625
      2         11           0       -5.472862   -0.991265   -0.759669
      3         11           0       -3.186163    2.122550   -0.157489
      4         11           0        0.229398    1.367893    0.098849
      5         11           0        0.977347   -1.841416   -0.129005
      6         11           0        3.677613   -0.010671    0.975381
      7         11           0        6.459743    0.123064   -0.898692
 ---------------------------------------------------------------------

 SCF Done:  E(UB3LYP) =  -1136.11676854     A.U. after   21 cycles

 The electronic state is 2-A.
 Alpha  occ. eigenvalues --  -38.44725 -38.44584 -38.44405 -38.44302 -38.44077
 Alpha  occ. eigenvalues --  -38.43483 -38.43410  -2.20589  -2.20470  -2.20246
 Alpha  occ. eigenvalues --   -2.20108  -2.19934  -2.19303  -2.19171  -1.14334
 Alpha  occ. eigenvalues --   -1.14250  -1.14184  -1.14162  -1.14121  -1.14069
 Alpha  occ. eigenvalues --   -1.13912  -1.13891  -1.13873  -1.13769  -1.13763
 Alpha  occ. eigenvalues --   -1.13720  -1.13624  -1.13593  -1.13557  -1.13002
 Alpha  occ. eigenvalues --   -1.12980  -1.12926  -1.12836  -1.12835  -1.12793
 Alpha  occ. eigenvalues --   -0.17263  -0.14325  -0.11677  -0.11015
 Alpha virt. eigenvalues --   -0.06518  -0.05499  -0.05053  -0.03303  -0.02984
 Alpha virt. eigenvalues --   -0.02673  -0.02078  -0.01118  -0.00977  -0.00812
 Alpha virt. eigenvalues --   -0.00400  -0.00264   0.00033   0.00263   0.00583

  Beta  occ. eigenvalues --  -38.44658 -38.44567 -38.44356 -38.44267 -38.44054
  Beta  occ. eigenvalues --  -38.43482 -38.43407  -2.20467  -2.20442  -2.20154
  Beta  occ. eigenvalues --   -2.20043  -2.19897  -2.19302  -2.19164  -1.14268
  Beta  occ. eigenvalues --   -1.14172  -1.14136  -1.14089  -1.14064  -1.14039
  Beta  occ. eigenvalues --   -1.13851  -1.13831  -1.13810  -1.13720  -1.13716
  Beta  occ. eigenvalues --   -1.13683  -1.13604  -1.13573  -1.13492  -1.12998
  Beta  occ. eigenvalues --   -1.12981  -1.12925  -1.12832  -1.12831  -1.12790
  Beta  occ. eigenvalues --   -0.16607  -0.14090  -0.11063
  Beta virt. eigenvalues --   -0.07676  -0.06255  -0.05030  -0.04786  -0.02975
  Beta virt. eigenvalues --   -0.02739  -0.02202  -0.01757  -0.00940  -0.00735
  Beta virt. eigenvalues --   -0.00622  -0.00143  -0.00056   0.00182   0.00361

 Mulliken charges and spin densities:
               1          2
     1  Na  -0.331839   0.207813
     2  Na   0.246507   0.068795
     3  Na   0.377556  -0.027850
     4  Na  -0.601333   0.374455
     5  Na   0.024892   0.246220
     6  Na   0.376502   0.130341
     7  Na  -0.092285   0.000227
 Sum of Mulliken charges =  -0.00000   1.00000

 Dipole moment (field-independent basis, Debye):
    X=             -2.3842    Y=             -0.1432    Z=             -0.5367  Tot=              2.4480
 Quadrupole moment (field-independent basis, Debye-Ang):
   XX=            -70.7113   YY=            -66.7584   ZZ=            -67.5934
   XY=             -1.6443   XZ=              0.0429   YZ=              0.4135

 Normal termination of Gaussian 16 at Wed Nov 29 03:20:35 2023.
