 Gaussian 16, Revision B.01,
 Gaussian 16:  ES64L-G16RevB.01 20-Dec-2017

 -------------------------
 #P B3LYP/6-311+g(d) force
 -------------------------

 -----
 DPGEN
 -----
 Symbolic Z-matrix:
 Charge =  0 Multiplicity = 2

                         Standard orientation:
 ---------------------------------------------------------------------
 Center     Atomic      Atomic             Coordinates (Angstroms)
 Number     Number       Type             X           Y           Z
 ---------------------------------------------------------------------
      1         11           0        0.873349    1.376411    1.661965
      2         11           0       -0.195496   -2.877481    0.777896
      3         11           0       -3.693336   -2.293402   -0.500616
      4         11           0       -4.202639    0.882123   -1.033902
      5         11           0       -1.863714    3.328619    0.308577
      6         11           0        3.702154   -1.141748    0.231205
      7         11           0        5.379682    0.725478   -1.445126
 ---------------------------------------------------------------------

 SCF Done:  E(UB3LYP) =  -1136.10671469     A.U. after   22 cycles

 The electronic state is 2-A.
 Alpha  occ. eigenvalues --  -38.45361 -38.45266 -38.44824 -38.44794 -38.44531
 Alpha  occ. eigenvalues --  -38.43785 -38.43470  -2.21107  -2.21089  -2.20587
 Alpha  occ. eigenvalues --   -2.20571  -2.20333  -2.19561  -2.19226  -1.14778
 Alpha  occ. eigenvalues --   -1.14772  -1.14768  -1.14715  -1.14709  -1.14709
 Alpha  occ. eigenvalues --   -1.14254  -1.14246  -1.14244  -1.14231  -1.14206
 Alpha  occ. eigenvalues --   -1.14177  -1.14015  -1.13997  -1.13982  -1.13241
 Alpha  occ. eigenvalues --   -1.13235  -1.13201  -1.12908  -1.12893  -1.12879
 Alpha  occ. eigenvalues --   -0.15673  -0.14179  -0.11955  -0.11877
 Alpha virt. eigenvalues --   -0.06478  -0.06320  -0.04164  -0.03642  -0.03094
 Alpha virt. eigenvalues --   -0.02600  -0.02322  -0.01370  -0.01242  -0.01053
 Alpha virt. eigenvalues --   -0.00632  -0.00496  -0.00266   0.00341   0.00661

  Beta  occ. eigenvalues --  -38.45305 -38.45187 -38.44769 -38.44744 -38.44534
  Beta  occ. eigenvalues --  -38.43791 -38.43485  -2.21003  -2.20943  -2.20494
  Beta  occ. eigenvalues --   -2.20466  -2.20345  -2.19575  -2.19255  -1.14708
  Beta  occ. eigenvalues --   -1.14698  -1.14671  -1.14637  -1.14615  -1.14610
  Beta  occ. eigenvalues --   -1.14190  -1.14184  -1.14173  -1.14159  -1.14145
  Beta  occ. eigenvalues --   -1.14108  -1.14021  -1.14010  -1.13947  -1.13248
  Beta  occ. eigenvalues --   -1.13245  -1.13200  -1.12929  -1.12915  -1.12887
  Beta  occ. eigenvalues --   -0.14938  -0.13488  -0.11757
  Beta virt. eigenvalues --   -0.08646  -0.06077  -0.05758  -0.03778  -0.03422
  Beta virt. eigenvalues --   -0.02863  -0.02291  -0.02141  -0.01119  -0.00931
  Beta virt. eigenvalues --   -0.00830  -0.00514  -0.00240  -0.00058   0.00440

 Mulliken charges and spin densities:
               1          2
     1  Na  -0.460869   0.263567
     2  Na  -0.010735   0.262400
     3  Na   0.146200  -0.018950
     4  Na  -0.164395   0.282958
     5  Na   0.288563  -0.110256
     6  Na  -0.373419   0.095543
     7  Na   0.574656   0.224737
 Sum of Mulliken charges =  -0.00000   1.00000

 Dipole moment (field-independent basis, Debye):
    X=              1.3763    Y=              0.3449    Z=             -0.4335  Tot=              1.4836
 Quadrupole moment (field-independent basis, Debye-Ang):
   XX=            -58.6287   YY=            -68.9693   ZZ=            -69.3993
   XY=              1.6740   XZ=             -0.3897   YZ=             -3.8905

 Normal termination of Gaussian 16 at Sun Dec  3 18:55:46 2023.
