 Gaussian 16, Revision B.01,
 Gaussian 16:  ES64L-G16RevB.01 20-Dec-2017

 -------------------------
 #P B3LYP/6-311+g(d) force
 -------------------------

 -----
 DPGEN
 -----
 Symbolic Z-matrix:
 Charge =  0 Multiplicity = 2

                         Standard orientation:
 ---------------------------------------------------------------------
 Center     Atomic      Atomic             Coordinates (Angstroms)
 Number     Number       Type             X           Y           Z
 ---------------------------------------------------------------------
      1         11           0        0.626383    0.691528   -0.939784
      2         11           0        2.405176    3.256955    0.298588
      3         11           0        3.712553   -0.439489    0.759690
      4         11           0       -0.400452   -1.647214    1.449503
      5         11           0       -2.600843    0.400611   -1.236719
      6         11           0        1.722261   -2.590240   -1.029088
      7         11           0       -5.465078    0.327849    0.697809
 ---------------------------------------------------------------------

 SCF Done:  E(UB3LYP) =  -1136.11455654     A.U. after   21 cycles

 The electronic state is 2-A.
 Alpha  occ. eigenvalues --  -38.46106 -38.44419 -38.44417 -38.44039 -38.43568
 Alpha  occ. eigenvalues --  -38.43343 -38.43114  -2.21884  -2.20256  -2.20231
 Alpha  occ. eigenvalues --   -2.19839  -2.19381  -2.19118  -2.19063  -1.15578
 Alpha  occ. eigenvalues --   -1.15539  -1.15492  -1.13950  -1.13928  -1.13909
 Alpha  occ. eigenvalues --   -1.13895  -1.13868  -1.13817  -1.13476  -1.13475
 Alpha  occ. eigenvalues --   -1.13453  -1.13077  -1.13050  -1.13035  -1.12805
 Alpha  occ. eigenvalues --   -1.12792  -1.12764  -1.12754  -1.12719  -1.12654
 Alpha  occ. eigenvalues --   -0.17499  -0.13536  -0.11737  -0.10762
 Alpha virt. eigenvalues --   -0.07153  -0.05525  -0.04448  -0.03444  -0.02791
 Alpha virt. eigenvalues --   -0.02407  -0.01974  -0.01328  -0.01306  -0.00878
 Alpha virt. eigenvalues --   -0.00408  -0.00009   0.00230   0.00450   0.00561

  Beta  occ. eigenvalues --  -38.46103 -38.44413 -38.44364 -38.43933 -38.43565
  Beta  occ. eigenvalues --  -38.43348 -38.43070  -2.21879  -2.20253  -2.20129
  Beta  occ. eigenvalues --   -2.19641  -2.19386  -2.19127  -2.18986  -1.15576
  Beta  occ. eigenvalues --   -1.15528  -1.15493  -1.13947  -1.13900  -1.13883
  Beta  occ. eigenvalues --   -1.13845  -1.13813  -1.13745  -1.13341  -1.13340
  Beta  occ. eigenvalues --   -1.13325  -1.13070  -1.13047  -1.13008  -1.12802
  Beta  occ. eigenvalues --   -1.12798  -1.12758  -1.12717  -1.12666  -1.12589
  Beta  occ. eigenvalues --   -0.17010  -0.12647  -0.11666
  Beta virt. eigenvalues --   -0.07261  -0.07044  -0.05123  -0.04074  -0.03170
  Beta virt. eigenvalues --   -0.02530  -0.02291  -0.01466  -0.01135  -0.00965
  Beta virt. eigenvalues --   -0.00709  -0.00097   0.00176   0.00336   0.00551

 Mulliken charges and spin densities:
               1          2
     1  Na  -1.061578   0.056601
     2  Na   0.465403  -0.035129
     3  Na   0.286431   0.356903
     4  Na  -0.019636  -0.092244
     5  Na  -0.148993   0.005225
     6  Na   0.450044   0.131509
     7  Na   0.028329   0.577135
 Sum of Mulliken charges =  -0.00000   1.00000

 Dipole moment (field-independent basis, Debye):
    X=              0.9178    Y=             -1.4953    Z=              0.8536  Tot=              1.9512
 Quadrupole moment (field-independent basis, Debye-Ang):
   XX=            -73.7322   YY=            -69.6372   ZZ=            -60.9943
   XY=             -0.2902   XZ=             -1.9140   YZ=              1.6733

 Normal termination of Gaussian 16 at Tue Nov 28 19:11:25 2023.
