 Gaussian 16, Revision B.01,
 Gaussian 16:  ES64L-G16RevB.01 20-Dec-2017

 -------------------------
 #P B3LYP/6-311+g(d) force
 -------------------------

 -----
 DPGEN
 -----
 Symbolic Z-matrix:
 Charge =  0 Multiplicity = 2

                         Standard orientation:
 ---------------------------------------------------------------------
 Center     Atomic      Atomic             Coordinates (Angstroms)
 Number     Number       Type             X           Y           Z
 ---------------------------------------------------------------------
      1         11           0        2.672667   -1.625454   -0.399834
      2         11           0       -0.616050   -2.716155    0.121554
      3         11           0       -0.670783   -0.103300    2.252804
      4         11           0        2.804751    1.769345    0.236031
      5         11           0       -1.400362    2.947946   -0.160149
      6         11           0        0.163683    0.308813   -1.375528
      7         11           0       -2.953905   -0.581194   -0.674878
 ---------------------------------------------------------------------

 SCF Done:  E(UB3LYP) =  -1136.13401434     A.U. after   20 cycles

 The electronic state is 2-A.
 Alpha  occ. eigenvalues --  -38.44378 -38.44079 -38.43835 -38.43782 -38.43717
 Alpha  occ. eigenvalues --  -38.43074 -38.42966  -2.20166  -2.19937  -2.19640
 Alpha  occ. eigenvalues --   -2.19627  -2.19554  -2.18969  -2.18963  -1.13841
 Alpha  occ. eigenvalues --   -1.13831  -1.13802  -1.13629  -1.13589  -1.13565
 Alpha  occ. eigenvalues --   -1.13316  -1.13298  -1.13287  -1.13263  -1.13260
 Alpha  occ. eigenvalues --   -1.13254  -1.13246  -1.13211  -1.13186  -1.12675
 Alpha  occ. eigenvalues --   -1.12641  -1.12634  -1.12610  -1.12599  -1.12588
 Alpha  occ. eigenvalues --   -0.18363  -0.13045  -0.12291  -0.10711
 Alpha virt. eigenvalues --   -0.05931  -0.05149  -0.04712  -0.03134  -0.02814
 Alpha virt. eigenvalues --   -0.02618  -0.01585  -0.01276  -0.00570  -0.00357
 Alpha virt. eigenvalues --   -0.00016   0.00330   0.00757   0.00811   0.00891

  Beta  occ. eigenvalues --  -38.44378 -38.44059 -38.43835 -38.43712 -38.43674
  Beta  occ. eigenvalues --  -38.43066 -38.42924  -2.20168  -2.19903  -2.19628
  Beta  occ. eigenvalues --   -2.19548  -2.19440  -2.18958  -2.18889  -1.13837
  Beta  occ. eigenvalues --   -1.13830  -1.13803  -1.13602  -1.13548  -1.13544
  Beta  occ. eigenvalues --   -1.13311  -1.13279  -1.13261  -1.13235  -1.13200
  Beta  occ. eigenvalues --   -1.13185  -1.13164  -1.13125  -1.13113  -1.12658
  Beta  occ. eigenvalues --   -1.12610  -1.12596  -1.12583  -1.12543  -1.12538
  Beta  occ. eigenvalues --   -0.17664  -0.12838  -0.12094
  Beta virt. eigenvalues --   -0.06740  -0.05895  -0.05074  -0.04647  -0.02482
  Beta virt. eigenvalues --   -0.02087  -0.01582  -0.01445  -0.01205  -0.00572
  Beta virt. eigenvalues --   -0.00366   0.00153   0.00385   0.00782   0.00872

 Mulliken charges and spin densities:
               1          2
     1  Na   0.130632  -0.013770
     2  Na   0.343262   0.143633
     3  Na  -0.617236   0.714238
     4  Na  -0.012356   0.016718
     5  Na  -0.067174  -0.029736
     6  Na  -0.047611   0.129886
     7  Na   0.270484   0.039031
 Sum of Mulliken charges =  -0.00000   1.00000

 Dipole moment (field-independent basis, Debye):
    X=              0.1315    Y=              0.3784    Z=              0.1774  Tot=              0.4381
 Quadrupole moment (field-independent basis, Debye-Ang):
   XX=            -56.7483   YY=            -61.6831   ZZ=            -74.6902
   XY=              0.2713   XZ=              1.8655   YZ=              1.5303

 Normal termination of Gaussian 16 at Thu Dec  7 08:04:01 2023.
