 Gaussian 16, Revision B.01,
 Gaussian 16:  ES64L-G16RevB.01 20-Dec-2017

 -------------------------
 #P B3LYP/6-311+g(d) force
 -------------------------

 -----
 DPGEN
 -----
 Symbolic Z-matrix:
 Charge =  0 Multiplicity = 2

                         Standard orientation:
 ---------------------------------------------------------------------
 Center     Atomic      Atomic             Coordinates (Angstroms)
 Number     Number       Type             X           Y           Z
 ---------------------------------------------------------------------
      1         11           0        0.933760    2.352470    0.218631
      2         11           0        3.067334    0.083716   -0.185850
      3         11           0       -2.462804   -1.552744    0.202365
      4         11           0       -0.117329    0.064149   -1.739663
      5         11           0        0.058492   -0.223689    2.384061
      6         11           0       -2.502301    1.564892   -0.402928
      7         11           0        1.022849   -2.288794   -0.476617
 ---------------------------------------------------------------------

 SCF Done:  E(UB3LYP) =  -1136.13044326     A.U. after   20 cycles

 The electronic state is 2-A.
 Alpha  occ. eigenvalues --  -38.44603 -38.44053 -38.43702 -38.43614 -38.43560
 Alpha  occ. eigenvalues --  -38.42915 -38.42764  -2.20464  -2.19946  -2.19761
 Alpha  occ. eigenvalues --   -2.19490  -2.19449  -2.18857  -2.18683  -1.14113
 Alpha  occ. eigenvalues --   -1.14088  -1.14084  -1.13627  -1.13619  -1.13593
 Alpha  occ. eigenvalues --   -1.13495  -1.13444  -1.13376  -1.13211  -1.13154
 Alpha  occ. eigenvalues --   -1.13133  -1.13118  -1.13077  -1.13045  -1.12571
 Alpha  occ. eigenvalues --   -1.12494  -1.12458  -1.12377  -1.12345  -1.12308
 Alpha  occ. eigenvalues --   -0.19258  -0.13418  -0.12042  -0.11770
 Alpha virt. eigenvalues --   -0.05630  -0.04823  -0.03800  -0.03656  -0.03456
 Alpha virt. eigenvalues --   -0.03010  -0.01496  -0.00735  -0.00159   0.00170
 Alpha virt. eigenvalues --    0.00210   0.00382   0.00807   0.00936   0.00975

  Beta  occ. eigenvalues --  -38.44492 -38.44051 -38.43636 -38.43609 -38.43553
  Beta  occ. eigenvalues --  -38.42903 -38.42757  -2.20260  -2.19945  -2.19642
  Beta  occ. eigenvalues --   -2.19485  -2.19439  -2.18839  -2.18673  -1.13978
  Beta  occ. eigenvalues --   -1.13947  -1.13935  -1.13626  -1.13622  -1.13570
  Beta  occ. eigenvalues --   -1.13410  -1.13369  -1.13299  -1.13205  -1.13133
  Beta  occ. eigenvalues --   -1.13122  -1.13091  -1.13066  -1.13043  -1.12548
  Beta  occ. eigenvalues --   -1.12474  -1.12436  -1.12373  -1.12316  -1.12298
  Beta  occ. eigenvalues --   -0.18489  -0.13183  -0.11782
  Beta virt. eigenvalues --   -0.07711  -0.05566  -0.04820  -0.03797  -0.02826
  Beta virt. eigenvalues --   -0.02345  -0.02161  -0.01409  -0.00682   0.00024
  Beta virt. eigenvalues --    0.00132   0.00180   0.00401   0.00904   0.00969

 Mulliken charges and spin densities:
               1          2
     1  Na   0.288790   0.140134
     2  Na   0.118281  -0.043328
     3  Na   0.174616   0.083078
     4  Na  -0.543321   0.147256
     5  Na  -0.807819   0.581240
     6  Na   0.287782  -0.001869
     7  Na   0.481670   0.093490
 Sum of Mulliken charges =  -0.00000   1.00000

 Dipole moment (field-independent basis, Debye):
    X=             -0.0300    Y=             -0.0605    Z=              0.4827  Tot=              0.4874
 Quadrupole moment (field-independent basis, Debye-Ang):
   XX=            -56.8129   YY=            -70.3002   ZZ=            -68.8387
   XY=              0.0376   XZ=             -0.2814   YZ=             -0.2472

 Normal termination of Gaussian 16 at Thu Dec  7 18:47:26 2023.
