 Gaussian 16, Revision B.01,
 Gaussian 16:  ES64L-G16RevB.01 20-Dec-2017

 -------------------------
 #P B3LYP/6-311+g(d) force
 -------------------------

 -----
 DPGEN
 -----
 Symbolic Z-matrix:
 Charge =  0 Multiplicity = 2

                         Standard orientation:
 ---------------------------------------------------------------------
 Center     Atomic      Atomic             Coordinates (Angstroms)
 Number     Number       Type             X           Y           Z
 ---------------------------------------------------------------------
      1         11           0       -1.335196   -1.593766   -0.668806
      2         11           0        0.555329   -0.125393    2.175319
      3         11           0        1.985662   -2.007852   -0.682652
      4         11           0       -4.951763   -0.481945    0.177502
      5         11           0       -2.210143    2.195546   -0.287932
      6         11           0        4.313739    0.407203    0.250361
      7         11           0        1.642372    1.606207   -0.963792
 ---------------------------------------------------------------------

 SCF Done:  E(UB3LYP) =  -1136.11269664     A.U. after   27 cycles

 The electronic state is 2-A.
 Alpha  occ. eigenvalues --  -38.46384 -38.44681 -38.43977 -38.43928 -38.43908
 Alpha  occ. eigenvalues --  -38.43366 -38.43239  -2.22160  -2.20460  -2.19813
 Alpha  occ. eigenvalues --   -2.19761  -2.19678  -2.19235  -2.19062  -1.15820
 Alpha  occ. eigenvalues --   -1.15810  -1.15776  -1.14112  -1.14101  -1.14062
 Alpha  occ. eigenvalues --   -1.13531  -1.13498  -1.13477  -1.13409  -1.13398
 Alpha  occ. eigenvalues --   -1.13382  -1.13353  -1.13348  -1.13307  -1.12946
 Alpha  occ. eigenvalues --   -1.12887  -1.12855  -1.12771  -1.12737  -1.12661
 Alpha  occ. eigenvalues --   -0.17608  -0.14010  -0.10953  -0.10906
 Alpha virt. eigenvalues --   -0.07709  -0.05374  -0.04584  -0.03214  -0.03062
 Alpha virt. eigenvalues --   -0.02197  -0.02026  -0.01931  -0.01326  -0.00737
 Alpha virt. eigenvalues --   -0.00537   0.00078   0.00264   0.00522   0.00608

  Beta  occ. eigenvalues --  -38.46339 -38.44592 -38.43978 -38.43935 -38.43861
  Beta  occ. eigenvalues --  -38.43346 -38.43236  -2.22077  -2.20293  -2.19819
  Beta  occ. eigenvalues --   -2.19695  -2.19675  -2.19199  -2.19058  -1.15766
  Beta  occ. eigenvalues --   -1.15748  -1.15714  -1.13998  -1.13986  -1.13954
  Beta  occ. eigenvalues --   -1.13530  -1.13501  -1.13448  -1.13397  -1.13360
  Beta  occ. eigenvalues --   -1.13348  -1.13335  -1.13312  -1.13296  -1.12922
  Beta  occ. eigenvalues --   -1.12867  -1.12816  -1.12769  -1.12725  -1.12652
  Beta  occ. eigenvalues --   -0.17105  -0.13293  -0.10770
  Beta virt. eigenvalues --   -0.07535  -0.07323  -0.05178  -0.03991  -0.03002
  Beta virt. eigenvalues --   -0.02875  -0.01994  -0.01757  -0.01389  -0.00931
  Beta virt. eigenvalues --   -0.00406  -0.00350   0.00142   0.00378   0.00601

 Mulliken charges and spin densities:
               1          2
     1  Na  -0.535466  -0.008168
     2  Na  -0.047681   0.147172
     3  Na  -0.068932   0.194183
     4  Na   0.575729   0.408173
     5  Na  -0.099936   0.013208
     6  Na   0.589321   0.239013
     7  Na  -0.413034   0.006419
 Sum of Mulliken charges =  -0.00000   1.00000

 Dipole moment (field-independent basis, Debye):
    X=              0.3327    Y=             -0.2273    Z=              1.6359  Tot=              1.6848
 Quadrupole moment (field-independent basis, Debye-Ang):
   XX=            -63.3263   YY=            -79.3335   ZZ=            -60.5995
   XY=             -2.2954   XZ=              1.8594   YZ=              0.2503

 Normal termination of Gaussian 16 at Thu Dec  7 05:07:58 2023.
