 Gaussian 16, Revision B.01,
 Gaussian 16:  ES64L-G16RevB.01 20-Dec-2017

 -------------------------
 #P B3LYP/6-311+g(d) force
 -------------------------

 -----
 DPGEN
 -----
 Symbolic Z-matrix:
 Charge =  0 Multiplicity = 2

                         Standard orientation:
 ---------------------------------------------------------------------
 Center     Atomic      Atomic             Coordinates (Angstroms)
 Number     Number       Type             X           Y           Z
 ---------------------------------------------------------------------
      1         11           0       -2.746907    0.203870   -0.621995
      2         11           0        0.371209   -1.524526   -1.425432
      3         11           0        1.636665    1.550774   -0.644350
      4         11           0       -1.219190    3.432475    0.211059
      5         11           0        3.457491   -0.767547    0.118072
      6         11           0        0.433557   -0.071483    1.813244
      7         11           0       -1.932824   -2.823563    0.549403
 ---------------------------------------------------------------------

 SCF Done:  E(UB3LYP) =  -1136.13153854     A.U. after   20 cycles

 The electronic state is 2-A.
 Alpha  occ. eigenvalues --  -38.44319 -38.44290 -38.43847 -38.43613 -38.43502
 Alpha  occ. eigenvalues --  -38.43461 -38.43365  -2.20182  -2.20106  -2.19685
 Alpha  occ. eigenvalues --   -2.19555  -2.19406  -2.19375  -2.19148  -1.13892
 Alpha  occ. eigenvalues --   -1.13825  -1.13823  -1.13796  -1.13783  -1.13724
 Alpha  occ. eigenvalues --   -1.13364  -1.13333  -1.13328  -1.13295  -1.13230
 Alpha  occ. eigenvalues --   -1.13159  -1.13092  -1.13064  -1.13040  -1.13017
 Alpha  occ. eigenvalues --   -1.13011  -1.12963  -1.12821  -1.12810  -1.12788
 Alpha  occ. eigenvalues --   -0.18390  -0.13480  -0.12324  -0.10288
 Alpha virt. eigenvalues --   -0.05855  -0.05350  -0.05059  -0.03424  -0.02595
 Alpha virt. eigenvalues --   -0.02173  -0.01844  -0.01355  -0.00534  -0.00377
 Alpha virt. eigenvalues --    0.00088   0.00287   0.00707   0.00761   0.00827

  Beta  occ. eigenvalues --  -38.44316 -38.44280 -38.43840 -38.43596 -38.43415
  Beta  occ. eigenvalues --  -38.43411 -38.43369  -2.20181  -2.20089  -2.19675
  Beta  occ. eigenvalues --   -2.19529  -2.19286  -2.19246  -2.19156  -1.13894
  Beta  occ. eigenvalues --   -1.13827  -1.13793  -1.13775  -1.13765  -1.13716
  Beta  occ. eigenvalues --   -1.13358  -1.13328  -1.13303  -1.13270  -1.13182
  Beta  occ. eigenvalues --   -1.13140  -1.13019  -1.12980  -1.12954  -1.12907
  Beta  occ. eigenvalues --   -1.12901  -1.12897  -1.12827  -1.12809  -1.12793
  Beta  occ. eigenvalues --   -0.17674  -0.13258  -0.12189
  Beta virt. eigenvalues --   -0.06430  -0.05754  -0.05251  -0.04995  -0.02654
  Beta virt. eigenvalues --   -0.02061  -0.01757  -0.01354  -0.01174  -0.00585
  Beta virt. eigenvalues --   -0.00168   0.00198   0.00346   0.00730   0.00816

 Mulliken charges and spin densities:
               1          2
     1  Na  -0.260846   0.024726
     2  Na  -0.156096   0.248632
     3  Na  -0.229720   0.154203
     4  Na   0.149631  -0.067078
     5  Na   0.673526   0.052590
     6  Na  -0.466917   0.612638
     7  Na   0.290423  -0.025712
 Sum of Mulliken charges =  -0.00000   1.00000

 Dipole moment (field-independent basis, Debye):
    X=              0.2054    Y=             -0.5911    Z=              0.1080  Tot=              0.6350
 Quadrupole moment (field-independent basis, Debye-Ang):
   XX=            -55.0163   YY=            -61.8573   ZZ=            -75.7592
   XY=             -0.4184   XZ=             -0.1808   YZ=             -1.1479

 Normal termination of Gaussian 16 at Thu Dec  7 07:57:31 2023.
