 Gaussian 16, Revision B.01,
 Gaussian 16:  ES64L-G16RevB.01 20-Dec-2017

 -------------------------
 #P B3LYP/6-311+g(d) force
 -------------------------

 -----
 DPGEN
 -----
 Symbolic Z-matrix:
 Charge =  0 Multiplicity = 2

                         Standard orientation:
 ---------------------------------------------------------------------
 Center     Atomic      Atomic             Coordinates (Angstroms)
 Number     Number       Type             X           Y           Z
 ---------------------------------------------------------------------
      1         11           0       -3.259041   -0.439473   -0.086226
      2         11           0        0.122820    0.280526    2.078992
      3         11           0        0.068824   -0.369660   -1.596325
      4         11           0       -0.494898   -2.826890    0.184299
      5         11           0       -1.512891    2.630160   -0.286383
      6         11           0        2.326362    2.023776   -0.096075
      7         11           0        2.748824   -1.298440   -0.198282
 ---------------------------------------------------------------------

 SCF Done:  E(UB3LYP) =  -1136.13780051     A.U. after   20 cycles

 The electronic state is 2-A.
 Alpha  occ. eigenvalues --  -38.44255 -38.43823 -38.43715 -38.43607 -38.43533
 Alpha  occ. eigenvalues --  -38.43273 -38.43207  -2.20053  -2.19697  -2.19550
 Alpha  occ. eigenvalues --   -2.19417  -2.19408  -2.19195  -2.19142  -1.13729
 Alpha  occ. eigenvalues --   -1.13708  -1.13698  -1.13410  -1.13352  -1.13336
 Alpha  occ. eigenvalues --   -1.13221  -1.13213  -1.13185  -1.13096  -1.13090
 Alpha  occ. eigenvalues --   -1.13070  -1.13049  -1.13028  -1.13026  -1.12961
 Alpha  occ. eigenvalues --   -1.12854  -1.12815  -1.12796  -1.12757  -1.12753
 Alpha  occ. eigenvalues --   -0.18561  -0.13062  -0.12383  -0.10638
 Alpha virt. eigenvalues --   -0.05734  -0.05286  -0.04671  -0.03117  -0.02919
 Alpha virt. eigenvalues --   -0.02468  -0.01613  -0.01123  -0.00491  -0.00397
 Alpha virt. eigenvalues --   -0.00014   0.00350   0.00774   0.00865   0.00879

  Beta  occ. eigenvalues --  -38.44254 -38.43815 -38.43711 -38.43602 -38.43434
  Beta  occ. eigenvalues --  -38.43266 -38.43150  -2.20054  -2.19686  -2.19546
  Beta  occ. eigenvalues --   -2.19410  -2.19227  -2.19134  -2.19090  -1.13715
  Beta  occ. eigenvalues --   -1.13710  -1.13700  -1.13397  -1.13338  -1.13319
  Beta  occ. eigenvalues --   -1.13212  -1.13194  -1.13182  -1.13084  -1.13070
  Beta  occ. eigenvalues --   -1.13046  -1.12957  -1.12920  -1.12903  -1.12896
  Beta  occ. eigenvalues --   -1.12788  -1.12767  -1.12761  -1.12729  -1.12704
  Beta  occ. eigenvalues --   -0.17837  -0.12837  -0.12160
  Beta virt. eigenvalues --   -0.06718  -0.05706  -0.05283  -0.04606  -0.02364
  Beta virt. eigenvalues --   -0.02126  -0.01531  -0.01421  -0.01056  -0.00538
  Beta virt. eigenvalues --   -0.00441   0.00136   0.00383   0.00832   0.00859

 Mulliken charges and spin densities:
               1          2
     1  Na   0.048504  -0.063549
     2  Na  -0.508937   0.776880
     3  Na  -0.244022   0.431396
     4  Na   0.173002  -0.018289
     5  Na   0.003445  -0.083114
     6  Na   0.130594  -0.060458
     7  Na   0.397415   0.017134
 Sum of Mulliken charges =  -0.00000   1.00000

 Dipole moment (field-independent basis, Debye):
    X=             -0.1240    Y=              0.0444    Z=              0.1164  Tot=              0.1757
 Quadrupole moment (field-independent basis, Debye-Ang):
   XX=            -55.4499   YY=            -62.7697   ZZ=            -74.9422
   XY=              0.4752   XZ=             -0.2302   YZ=             -1.4249

 Normal termination of Gaussian 16 at Thu Dec  7 05:02:26 2023.
