 Gaussian 16, Revision B.01,
 Gaussian 16:  ES64L-G16RevB.01 20-Dec-2017

 -------------------------
 #P B3LYP/6-311+g(d) force
 -------------------------

 -----
 DPGEN
 -----
 Symbolic Z-matrix:
 Charge =  0 Multiplicity = 2

                         Standard orientation:
 ---------------------------------------------------------------------
 Center     Atomic      Atomic             Coordinates (Angstroms)
 Number     Number       Type             X           Y           Z
 ---------------------------------------------------------------------
      1         11           0       -2.213769    2.001890   -0.136342
      2         11           0       -0.046762    0.079157   -1.617645
      3         11           0        0.597715   -2.345200    0.072805
      4         11           0       -2.759291   -1.540050   -0.307404
      5         11           0       -0.419264    0.020180    2.106842
      6         11           0        1.503717    2.376446   -0.004802
      7         11           0        3.337654   -0.592423   -0.113452
 ---------------------------------------------------------------------

 SCF Done:  E(UB3LYP) =  -1136.13521930     A.U. after   19 cycles

 The electronic state is 2-A.
 Alpha  occ. eigenvalues --  -38.44269 -38.43908 -38.43646 -38.43641 -38.43352
 Alpha  occ. eigenvalues --  -38.43306 -38.42864  -2.20091  -2.19755  -2.19555
 Alpha  occ. eigenvalues --   -2.19499  -2.19333  -2.19206  -2.18810  -1.13763
 Alpha  occ. eigenvalues --   -1.13752  -1.13735  -1.13431  -1.13410  -1.13401
 Alpha  occ. eigenvalues --   -1.13232  -1.13209  -1.13198  -1.13165  -1.13142
 Alpha  occ. eigenvalues --   -1.13120  -1.13054  -1.13018  -1.12941  -1.12872
 Alpha  occ. eigenvalues --   -1.12861  -1.12819  -1.12510  -1.12475  -1.12407
 Alpha  occ. eigenvalues --   -0.18973  -0.13254  -0.12226  -0.10930
 Alpha virt. eigenvalues --   -0.05868  -0.05290  -0.04019  -0.03227  -0.02798
 Alpha virt. eigenvalues --   -0.02681  -0.01807  -0.01140  -0.00221  -0.00066
 Alpha virt. eigenvalues --    0.00045   0.00324   0.00744   0.00881   0.00946

  Beta  occ. eigenvalues --  -38.44271 -38.43900 -38.43634 -38.43543 -38.43348
  Beta  occ. eigenvalues --  -38.43243 -38.42852  -2.20096  -2.19744  -2.19490
  Beta  occ. eigenvalues --   -2.19366  -2.19220  -2.19202  -2.18794  -1.13769
  Beta  occ. eigenvalues --   -1.13744  -1.13738  -1.13416  -1.13399  -1.13385
  Beta  occ. eigenvalues --   -1.13193  -1.13147  -1.13117  -1.13103  -1.13038
  Beta  occ. eigenvalues --   -1.13031  -1.12977  -1.12965  -1.12870  -1.12852
  Beta  occ. eigenvalues --   -1.12819  -1.12815  -1.12499  -1.12422  -1.12404
  Beta  occ. eigenvalues --   -0.18224  -0.13036  -0.11968
  Beta virt. eigenvalues --   -0.06942  -0.05805  -0.05303  -0.04019  -0.02478
  Beta virt. eigenvalues --   -0.01975  -0.01725  -0.01564  -0.01100  -0.00266
  Beta virt. eigenvalues --   -0.00010   0.00107   0.00347   0.00805   0.00871

 Mulliken charges and spin densities:
               1          2
     1  Na   0.253279  -0.053349
     2  Na  -0.656020   0.436613
     3  Na   0.508812   0.049818
     4  Na   0.339637  -0.014340
     5  Na  -0.660119   0.699783
     6  Na   0.247171  -0.055888
     7  Na  -0.032760  -0.062638
 Sum of Mulliken charges =  -0.00000   1.00000

 Dipole moment (field-independent basis, Debye):
    X=             -0.0410    Y=              0.1118    Z=              0.1581  Tot=              0.1980
 Quadrupole moment (field-independent basis, Debye-Ang):
   XX=            -52.1503   YY=            -67.2402   ZZ=            -73.4710
   XY=              0.3521   XZ=              0.6915   YZ=              0.3882

 Normal termination of Gaussian 16 at Fri Dec  8 02:40:23 2023.
