 Gaussian 16, Revision B.01,
 Gaussian 16:  ES64L-G16RevB.01 20-Dec-2017

 -------------------------
 #P B3LYP/6-311+g(d) force
 -------------------------

 -----
 DPGEN
 -----
 Symbolic Z-matrix:
 Charge =  0 Multiplicity = 2

                         Standard orientation:
 ---------------------------------------------------------------------
 Center     Atomic      Atomic             Coordinates (Angstroms)
 Number     Number       Type             X           Y           Z
 ---------------------------------------------------------------------
      1         11           0       -1.900744   -1.482682    0.803806
      2         11           0       -4.988300   -1.044660   -0.590533
      3         11           0       -5.391442    1.798450    0.399495
      4         11           0       -0.933849    1.083959   -0.801931
      5         11           0        1.514650   -1.136662   -0.315646
      6         11           0        4.728784    0.467225    1.362032
      7         11           0        6.970901    0.314371   -0.857223
 ---------------------------------------------------------------------

 SCF Done:  E(UB3LYP) =  -1136.10945784     A.U. after   20 cycles

 The electronic state is 2-A.
 Alpha  occ. eigenvalues --  -38.44917 -38.44886 -38.44685 -38.44545 -38.43623
 Alpha  occ. eigenvalues --  -38.43609 -38.43577  -2.20713  -2.20692  -2.20471
 Alpha  occ. eigenvalues --   -2.20345  -2.19465  -2.19461  -2.19441  -1.14410
 Alpha  occ. eigenvalues --   -1.14383  -1.14369  -1.14350  -1.14347  -1.14314
 Alpha  occ. eigenvalues --   -1.14138  -1.14124  -1.14096  -1.14031  -1.14015
 Alpha  occ. eigenvalues --   -1.13955  -1.13242  -1.13162  -1.13134  -1.13122
 Alpha  occ. eigenvalues --   -1.13111  -1.13082  -1.13071  -1.13033  -1.13005
 Alpha  occ. eigenvalues --   -0.16412  -0.14163  -0.12396  -0.09811
 Alpha virt. eigenvalues --   -0.06969  -0.05447  -0.05165  -0.03411  -0.02995
 Alpha virt. eigenvalues --   -0.02508  -0.02042  -0.01955  -0.01068  -0.00786
 Alpha virt. eigenvalues --   -0.00528  -0.00131   0.00192   0.00316   0.00481

  Beta  occ. eigenvalues --  -38.44911 -38.44854 -38.44687 -38.44544 -38.43592
  Beta  occ. eigenvalues --  -38.43575 -38.43506  -2.20681  -2.20653  -2.20474
  Beta  occ. eigenvalues --   -2.20345  -2.19433  -2.19353  -2.19335  -1.14365
  Beta  occ. eigenvalues --   -1.14362  -1.14342  -1.14339  -1.14337  -1.14272
  Beta  occ. eigenvalues --   -1.14140  -1.14125  -1.14094  -1.14030  -1.14002
  Beta  occ. eigenvalues --   -1.13958  -1.13201  -1.13110  -1.13092  -1.13056
  Beta  occ. eigenvalues --   -1.13033  -1.13019  -1.13008  -1.12958  -1.12941
  Beta  occ. eigenvalues --   -0.15873  -0.13965  -0.12180
  Beta virt. eigenvalues --   -0.06861  -0.06153  -0.05290  -0.04686  -0.03162
  Beta virt. eigenvalues --   -0.02855  -0.02291  -0.01799  -0.01466  -0.01025
  Beta virt. eigenvalues --   -0.00485  -0.00236   0.00111   0.00293   0.00491

 Mulliken charges and spin densities:
               1          2
     1  Na  -0.106031   0.582545
     2  Na   0.345476  -0.003038
     3  Na  -0.051560   0.241684
     4  Na  -0.041558   0.166588
     5  Na  -0.266575  -0.013437
     6  Na  -0.067058  -0.003438
     7  Na   0.187308   0.029097
 Sum of Mulliken charges =  -0.00000   1.00000

 Dipole moment (field-independent basis, Debye):
    X=              2.4719    Y=             -0.0310    Z=             -0.3837  Tot=              2.5017
 Quadrupole moment (field-independent basis, Debye-Ang):
   XX=            -62.7814   YY=            -72.9424   ZZ=            -65.2009
   XY=             -0.7873   XZ=             -4.5055   YZ=              2.8624

 Normal termination of Gaussian 16 at Tue Nov 28 23:19:11 2023.
