 Gaussian 16, Revision B.01,
 Gaussian 16:  ES64L-G16RevB.01 20-Dec-2017

 -------------------------
 #P B3LYP/6-311+g(d) force
 -------------------------

 -----
 DPGEN
 -----
 Symbolic Z-matrix:
 Charge =  0 Multiplicity = 2

                         Standard orientation:
 ---------------------------------------------------------------------
 Center     Atomic      Atomic             Coordinates (Angstroms)
 Number     Number       Type             X           Y           Z
 ---------------------------------------------------------------------
      1         11           0        2.376108   -2.139522   -0.525491
      2         11           0       -4.010539    0.145602   -0.019677
      3         11           0       -1.097820   -2.398881    0.447714
      4         11           0        1.144330   -0.082281    1.733904
      5         11           0       -0.456100    2.705224    0.284898
      6         11           0       -0.463193    0.025340   -1.556768
      7         11           0        2.507215    1.744519   -0.364581
 ---------------------------------------------------------------------

 SCF Done:  E(UB3LYP) =  -1136.12943336     A.U. after   22 cycles

 The electronic state is 2-A.
 Alpha  occ. eigenvalues --  -38.44974 -38.43918 -38.43732 -38.43721 -38.43593
 Alpha  occ. eigenvalues --  -38.43289 -38.43014  -2.20704  -2.19816  -2.19573
 Alpha  occ. eigenvalues --   -2.19569  -2.19462  -2.19229  -2.18987  -1.14384
 Alpha  occ. eigenvalues --   -1.14369  -1.14332  -1.13528  -1.13479  -1.13450
 Alpha  occ. eigenvalues --   -1.13301  -1.13254  -1.13248  -1.13225  -1.13215
 Alpha  occ. eigenvalues --   -1.13171  -1.13152  -1.13124  -1.13074  -1.12925
 Alpha  occ. eigenvalues --   -1.12879  -1.12819  -1.12651  -1.12648  -1.12581
 Alpha  occ. eigenvalues --   -0.18555  -0.12944  -0.12514  -0.10230
 Alpha virt. eigenvalues --   -0.06492  -0.05104  -0.04620  -0.03020  -0.02847
 Alpha virt. eigenvalues --   -0.02149  -0.01945  -0.01284  -0.00517  -0.00276
 Alpha virt. eigenvalues --   -0.00087   0.00254   0.00679   0.00747   0.00809

  Beta  occ. eigenvalues --  -38.44981 -38.43907 -38.43718 -38.43708 -38.43585
  Beta  occ. eigenvalues --  -38.43230 -38.42941  -2.20718  -2.19801  -2.19551
  Beta  occ. eigenvalues --   -2.19547  -2.19451  -2.19123  -2.18853  -1.14388
  Beta  occ. eigenvalues --   -1.14379  -1.14341  -1.13514  -1.13467  -1.13414
  Beta  occ. eigenvalues --   -1.13286  -1.13233  -1.13213  -1.13204  -1.13185
  Beta  occ. eigenvalues --   -1.13161  -1.13142  -1.13092  -1.13069  -1.12852
  Beta  occ. eigenvalues --   -1.12806  -1.12734  -1.12561  -1.12552  -1.12482
  Beta  occ. eigenvalues --   -0.17824  -0.12783  -0.12283
  Beta virt. eigenvalues --   -0.06407  -0.06336  -0.05069  -0.04559  -0.02414
  Beta virt. eigenvalues --   -0.02101  -0.02064  -0.01235  -0.01002  -0.00470
  Beta virt. eigenvalues --   -0.00287   0.00103   0.00307   0.00763   0.00801

 Mulliken charges and spin densities:
               1          2
     1  Na   0.053942   0.057041
     2  Na   0.045481  -0.072203
     3  Na  -0.192308  -0.116089
     4  Na  -0.044302   0.507120
     5  Na  -0.224728  -0.142004
     6  Na   0.022947   0.645914
     7  Na   0.338968   0.120219
 Sum of Mulliken charges =  -0.00000   1.00000

 Dipole moment (field-independent basis, Debye):
    X=             -0.4503    Y=              0.0654    Z=             -0.0483  Tot=              0.4576
 Quadrupole moment (field-independent basis, Debye-Ang):
   XX=            -50.6027   YY=            -64.0185   ZZ=            -76.4272
   XY=             -1.1538   XZ=             -2.9673   YZ=              0.3661

 Normal termination of Gaussian 16 at Tue Dec  5 13:16:45 2023.
