 Gaussian 16, Revision B.01,
 Gaussian 16:  ES64L-G16RevB.01 20-Dec-2017

 -------------------------
 #P B3LYP/6-311+g(d) force
 -------------------------

 -----
 DPGEN
 -----
 Symbolic Z-matrix:
 Charge =  0 Multiplicity = 2

                         Standard orientation:
 ---------------------------------------------------------------------
 Center     Atomic      Atomic             Coordinates (Angstroms)
 Number     Number       Type             X           Y           Z
 ---------------------------------------------------------------------
      1         11           0        4.238774    1.520709    0.415890
      2         11           0       -2.595904    0.153438    1.422338
      3         11           0        0.317384    1.009915   -0.051113
      4         11           0       -2.350665    2.985689   -0.623691
      5         11           0       -1.717004   -1.900041   -1.585321
      6         11           0        2.312075   -1.344478   -0.856719
      7         11           0       -0.204660   -2.425232    1.278614
 ---------------------------------------------------------------------

 SCF Done:  E(UB3LYP) =  -1136.12482455     A.U. after   22 cycles

 The electronic state is 2-A.
 Alpha  occ. eigenvalues --  -38.44708 -38.44335 -38.44184 -38.43650 -38.43632
 Alpha  occ. eigenvalues --  -38.43572 -38.43440  -2.20453  -2.20162  -2.20026
 Alpha  occ. eigenvalues --   -2.19524  -2.19480  -2.19439  -2.19322  -1.14126
 Alpha  occ. eigenvalues --   -1.14123  -1.14070  -1.13820  -1.13813  -1.13797
 Alpha  occ. eigenvalues --   -1.13759  -1.13712  -1.13597  -1.13241  -1.13192
 Alpha  occ. eigenvalues --   -1.13185  -1.13177  -1.13139  -1.13113  -1.13090
 Alpha  occ. eigenvalues --   -1.13070  -1.13042  -1.12993  -1.12974  -1.12954
 Alpha  occ. eigenvalues --   -0.17899  -0.13242  -0.12217  -0.10149
 Alpha virt. eigenvalues --   -0.06739  -0.05430  -0.04651  -0.02936  -0.02797
 Alpha virt. eigenvalues --   -0.02333  -0.01812  -0.01553  -0.00995  -0.00357
 Alpha virt. eigenvalues --   -0.00140   0.00146   0.00260   0.00511   0.00723

  Beta  occ. eigenvalues --  -38.44702 -38.44289 -38.44172 -38.43620 -38.43602
  Beta  occ. eigenvalues --  -38.43560 -38.43410  -2.20442  -2.20077  -2.20005
  Beta  occ. eigenvalues --   -2.19462  -2.19438  -2.19417  -2.19271  -1.14117
  Beta  occ. eigenvalues --   -1.14115  -1.14063  -1.13758  -1.13749  -1.13747
  Beta  occ. eigenvalues --   -1.13733  -1.13694  -1.13573  -1.13193  -1.13168
  Beta  occ. eigenvalues --   -1.13136  -1.13132  -1.13098  -1.13089  -1.13072
  Beta  occ. eigenvalues --   -1.13037  -1.13019  -1.12961  -1.12943  -1.12885
  Beta  occ. eigenvalues --   -0.17271  -0.13065  -0.11989
  Beta virt. eigenvalues --   -0.06656  -0.06256  -0.05301  -0.04434  -0.02607
  Beta virt. eigenvalues --   -0.02305  -0.02142  -0.01523  -0.01016  -0.00790
  Beta virt. eigenvalues --   -0.00156   0.00015   0.00251   0.00383   0.00558

 Mulliken charges and spin densities:
               1          2
     1  Na   0.347689   0.001051
     2  Na   0.450751   0.190249
     3  Na  -2.513035   0.223791
     4  Na   0.862735  -0.061265
     5  Na  -0.037711   0.284105
     6  Na   0.523661   0.094303
     7  Na   0.365910   0.267767
 Sum of Mulliken charges =  -0.00000   1.00000

 Dipole moment (field-independent basis, Debye):
    X=              0.3622    Y=              0.0066    Z=             -0.2467  Tot=              0.4383
 Quadrupole moment (field-independent basis, Debye-Ang):
   XX=            -53.9969   YY=            -63.8523   ZZ=            -73.2575
   XY=              0.5341   XZ=              3.1872   YZ=              0.1726

 Normal termination of Gaussian 16 at Wed Dec  6 01:17:31 2023.
