 Gaussian 16, Revision B.01,
 Gaussian 16:  ES64L-G16RevB.01 20-Dec-2017

 -------------------------
 #P B3LYP/6-311+g(d) force
 -------------------------

 -----
 DPGEN
 -----
 Symbolic Z-matrix:
 Charge =  0 Multiplicity = 2

                         Standard orientation:
 ---------------------------------------------------------------------
 Center     Atomic      Atomic             Coordinates (Angstroms)
 Number     Number       Type             X           Y           Z
 ---------------------------------------------------------------------
      1         11           0        2.854297    0.594963    1.401968
      2         11           0       -1.403688   -2.602704    0.585513
      3         11           0        0.053849   -0.444555   -1.580388
      4         11           0       -0.549484    2.788926   -0.944564
      5         11           0       -0.238636    0.577350    1.978146
      6         11           0       -3.337303    0.211789   -0.106464
      7         11           0        2.620964   -1.125768   -1.334211
 ---------------------------------------------------------------------

 SCF Done:  E(UB3LYP) =  -1136.11896256     A.U. after   23 cycles

 The electronic state is 2-A.
 Alpha  occ. eigenvalues --  -38.44841 -38.44373 -38.44125 -38.44087 -38.43813
 Alpha  occ. eigenvalues --  -38.43331 -38.43308  -2.20637  -2.20224  -2.20044
 Alpha  occ. eigenvalues --   -2.19980  -2.19827  -2.19148  -2.19138  -1.14329
 Alpha  occ. eigenvalues --   -1.14291  -1.14259  -1.14077  -1.13942  -1.13877
 Alpha  occ. eigenvalues --   -1.13849  -1.13654  -1.13635  -1.13622  -1.13606
 Alpha  occ. eigenvalues --   -1.13599  -1.13452  -1.13420  -1.13340  -1.12838
 Alpha  occ. eigenvalues --   -1.12813  -1.12799  -1.12782  -1.12773  -1.12764
 Alpha  occ. eigenvalues --   -0.18381  -0.13373  -0.11959  -0.11530
 Alpha virt. eigenvalues --   -0.06099  -0.04736  -0.04280  -0.03555  -0.03483
 Alpha virt. eigenvalues --   -0.02648  -0.01877  -0.00774  -0.00577   0.00056
 Alpha virt. eigenvalues --    0.00235   0.00280   0.00408   0.00817   0.00866

  Beta  occ. eigenvalues --  -38.44841 -38.44334 -38.44098 -38.44023 -38.43752
  Beta  occ. eigenvalues --  -38.43301 -38.43298  -2.20639  -2.20155  -2.19996
  Beta  occ. eigenvalues --   -2.19865  -2.19720  -2.19121  -2.19094  -1.14324
  Beta  occ. eigenvalues --   -1.14293  -1.14257  -1.14014  -1.13873  -1.13834
  Beta  occ. eigenvalues --   -1.13804  -1.13596  -1.13591  -1.13583  -1.13518
  Beta  occ. eigenvalues --   -1.13510  -1.13377  -1.13341  -1.13272  -1.12799
  Beta  occ. eigenvalues --   -1.12791  -1.12784  -1.12751  -1.12746  -1.12737
  Beta  occ. eigenvalues --   -0.17673  -0.13122  -0.11250
  Beta virt. eigenvalues --   -0.07977  -0.06034  -0.04398  -0.03991  -0.03159
  Beta virt. eigenvalues --   -0.02731  -0.01884  -0.01789  -0.00683  -0.00347
  Beta virt. eigenvalues --    0.00120   0.00243   0.00355   0.00526   0.00848

 Mulliken charges and spin densities:
               1          2
     1  Na  -0.156319  -0.017984
     2  Na  -0.423159   0.054312
     3  Na   0.446296   0.145735
     4  Na  -0.420702   0.139455
     5  Na  -0.014298   0.511400
     6  Na   0.711606  -0.048855
     7  Na  -0.143423   0.215937
 Sum of Mulliken charges =  -0.00000   1.00000

 Dipole moment (field-independent basis, Debye):
    X=             -0.4376    Y=              0.1764    Z=              0.4038  Tot=              0.6211
 Quadrupole moment (field-independent basis, Debye-Ang):
   XX=            -54.4812   YY=            -71.4647   ZZ=            -69.1774
   XY=             -0.4809   XZ=              0.8378   YZ=             -2.4535

 Normal termination of Gaussian 16 at Thu Dec  7 18:02:07 2023.
