 Gaussian 16, Revision B.01,
 Gaussian 16:  ES64L-G16RevB.01 20-Dec-2017

 -------------------------
 #P B3LYP/6-311+g(d) force
 -------------------------

 -----
 DPGEN
 -----
 Symbolic Z-matrix:
 Charge =  0 Multiplicity = 2

                         Standard orientation:
 ---------------------------------------------------------------------
 Center     Atomic      Atomic             Coordinates (Angstroms)
 Number     Number       Type             X           Y           Z
 ---------------------------------------------------------------------
      1         11           0       -4.724324    0.837963   -0.102247
      2         11           0        2.031750    3.326694   -0.346898
      3         11           0       -0.172379   -2.797572    1.200368
      4         11           0       -1.448972    2.268963    0.613333
      5         11           0       -3.399278   -1.690677   -0.811627
      6         11           0        3.171605   -2.257842   -0.780746
      7         11           0        4.541598    0.312472    0.227818
 ---------------------------------------------------------------------

 SCF Done:  E(UB3LYP) =  -1136.10411000     A.U. after   22 cycles

 The electronic state is 2-A.
 Alpha  occ. eigenvalues --  -38.45392 -38.44884 -38.44477 -38.44474 -38.44400
 Alpha  occ. eigenvalues --  -38.44284 -38.44146  -2.21199  -2.20629  -2.20335
 Alpha  occ. eigenvalues --   -2.20284  -2.20186  -2.20053  -2.19878  -1.14921
 Alpha  occ. eigenvalues --   -1.14861  -1.14834  -1.14316  -1.14308  -1.14231
 Alpha  occ. eigenvalues --   -1.14027  -1.14004  -1.13966  -1.13948  -1.13936
 Alpha  occ. eigenvalues --   -1.13906  -1.13851  -1.13831  -1.13799  -1.13706
 Alpha  occ. eigenvalues --   -1.13695  -1.13668  -1.13563  -1.13542  -1.13517
 Alpha  occ. eigenvalues --   -0.15839  -0.14232  -0.12352  -0.10929
 Alpha virt. eigenvalues --   -0.07227  -0.05150  -0.04811  -0.03333  -0.03172
 Alpha virt. eigenvalues --   -0.03008  -0.02032  -0.01828  -0.01040  -0.00765
 Alpha virt. eigenvalues --   -0.00561  -0.00226   0.00010   0.00448   0.00480

  Beta  occ. eigenvalues --  -38.45377 -38.44854 -38.44431 -38.44424 -38.44401
  Beta  occ. eigenvalues --  -38.44200 -38.44149  -2.21177  -2.20575  -2.20249
  Beta  occ. eigenvalues --   -2.20197  -2.20189  -2.19896  -2.19887  -1.14889
  Beta  occ. eigenvalues --   -1.14851  -1.14798  -1.14281  -1.14272  -1.14185
  Beta  occ. eigenvalues --   -1.13979  -1.13943  -1.13908  -1.13891  -1.13879
  Beta  occ. eigenvalues --   -1.13861  -1.13842  -1.13831  -1.13761  -1.13599
  Beta  occ. eigenvalues --   -1.13589  -1.13570  -1.13565  -1.13551  -1.13511
  Beta  occ. eigenvalues --   -0.15248  -0.13692  -0.11664
  Beta virt. eigenvalues --   -0.07697  -0.07344  -0.04820  -0.04276  -0.03045
  Beta virt. eigenvalues --   -0.02935  -0.02653  -0.01863  -0.01695  -0.00773
  Beta virt. eigenvalues --   -0.00538  -0.00248  -0.00043   0.00191   0.00453

 Mulliken charges and spin densities:
               1          2
     1  Na   0.651999   0.202132
     2  Na   0.147763  -0.135869
     3  Na  -0.091508   0.410772
     4  Na  -0.490951   0.218038
     5  Na  -0.202826   0.103360
     6  Na  -0.009955  -0.000206
     7  Na  -0.004522   0.201772
 Sum of Mulliken charges =  -0.00000   1.00000

 Dipole moment (field-independent basis, Debye):
    X=             -0.8716    Y=             -0.1285    Z=             -0.1854  Tot=              0.9003
 Quadrupole moment (field-independent basis, Debye-Ang):
   XX=            -59.5884   YY=            -70.9072   ZZ=            -69.7218
   XY=              1.5326   XZ=              0.0589   YZ=              2.7348

 Normal termination of Gaussian 16 at Sun Dec  3 17:30:17 2023.
