 Gaussian 16, Revision B.01,
 Gaussian 16:  ES64L-G16RevB.01 20-Dec-2017

 -------------------------
 #P B3LYP/6-311+g(d) force
 -------------------------

 -----
 DPGEN
 -----
 Symbolic Z-matrix:
 Charge =  0 Multiplicity = 2

                         Standard orientation:
 ---------------------------------------------------------------------
 Center     Atomic      Atomic             Coordinates (Angstroms)
 Number     Number       Type             X           Y           Z
 ---------------------------------------------------------------------
      1         11           0        1.229387    2.131835   -0.252880
      2         11           0       -2.266372    2.749955    0.432420
      3         11           0       -4.041380   -0.020350   -0.719032
      4         11           0        4.434339    0.170143   -1.435490
      5         11           0       -0.411417   -0.909618    1.859476
      6         11           0       -2.348029   -2.856579   -0.890617
      7         11           0        3.403471   -1.265387    1.006122
 ---------------------------------------------------------------------

 SCF Done:  E(UB3LYP) =  -1136.11367247     A.U. after   21 cycles

 The electronic state is 2-A.
 Alpha  occ. eigenvalues --  -38.45021 -38.44846 -38.44743 -38.44406 -38.44404
 Alpha  occ. eigenvalues --  -38.43809 -38.43278  -2.20828  -2.20594  -2.20529
 Alpha  occ. eigenvalues --   -2.20245  -2.20217  -2.19581  -2.19063  -1.14543
 Alpha  occ. eigenvalues --   -1.14493  -1.14472  -1.14298  -1.14280  -1.14197
 Alpha  occ. eigenvalues --   -1.14191  -1.14157  -1.14145  -1.13897  -1.13888
 Alpha  occ. eigenvalues --   -1.13879  -1.13862  -1.13860  -1.13848  -1.13256
 Alpha  occ. eigenvalues --   -1.13240  -1.13232  -1.12740  -1.12731  -1.12702
 Alpha  occ. eigenvalues --   -0.16460  -0.14292  -0.11530  -0.11141
 Alpha virt. eigenvalues --   -0.07067  -0.05226  -0.04669  -0.03797  -0.03117
 Alpha virt. eigenvalues --   -0.02358  -0.02173  -0.01841  -0.00715  -0.00546
 Alpha virt. eigenvalues --   -0.00538  -0.00148   0.00218   0.00401   0.00530

  Beta  occ. eigenvalues --  -38.45016 -38.44842 -38.44650 -38.44359 -38.44348
  Beta  occ. eigenvalues --  -38.43818 -38.43276  -2.20826  -2.20588  -2.20357
  Beta  occ. eigenvalues --   -2.20141  -2.20129  -2.19600  -2.19061  -1.14522
  Beta  occ. eigenvalues --   -1.14495  -1.14448  -1.14295  -1.14264  -1.14189
  Beta  occ. eigenvalues --   -1.14082  -1.14037  -1.14021  -1.13831  -1.13828
  Beta  occ. eigenvalues --   -1.13808  -1.13805  -1.13791  -1.13786  -1.13270
  Beta  occ. eigenvalues --   -1.13249  -1.13237  -1.12736  -1.12731  -1.12695
  Beta  occ. eigenvalues --   -0.15771  -0.13812  -0.11411
  Beta virt. eigenvalues --   -0.07591  -0.06837  -0.04628  -0.04425  -0.03628
  Beta virt. eigenvalues --   -0.02558  -0.02189  -0.01711  -0.01651  -0.00564
  Beta virt. eigenvalues --   -0.00478  -0.00264   0.00096   0.00328   0.00464

 Mulliken charges and spin densities:
               1          2
     1  Na  -0.318259  -0.003910
     2  Na   0.135958   0.024348
     3  Na  -0.133814   0.282703
     4  Na   0.360260   0.248712
     5  Na  -0.343502   0.460889
     6  Na   0.268736  -0.077278
     7  Na   0.030622   0.064536
 Sum of Mulliken charges =  -0.00000   1.00000

 Dipole moment (field-independent basis, Debye):
    X=              1.0069    Y=             -0.2615    Z=             -0.2283  Tot=              1.0651
 Quadrupole moment (field-independent basis, Debye-Ang):
   XX=            -61.9635   YY=            -71.3290   ZZ=            -67.3809
   XY=             -3.3614   XZ=             -1.7486   YZ=             -0.9786

 Normal termination of Gaussian 16 at Sun Dec  3 12:49:55 2023.
