 Gaussian 16, Revision B.01,
 Gaussian 16:  ES64L-G16RevB.01 20-Dec-2017

 -------------------------
 #P B3LYP/6-311+g(d) force
 -------------------------

 -----
 DPGEN
 -----
 Symbolic Z-matrix:
 Charge =  0 Multiplicity = 2

                         Standard orientation:
 ---------------------------------------------------------------------
 Center     Atomic      Atomic             Coordinates (Angstroms)
 Number     Number       Type             X           Y           Z
 ---------------------------------------------------------------------
      1         11           0       -0.777094   -2.633232   -0.466268
      2         11           0        0.330786    0.360999   -1.459509
      3         11           0        2.891699   -1.385982    0.398710
      4         11           0       -2.150588    2.611162   -0.087772
      5         11           0       -3.375374   -0.705734    0.068722
      6         11           0       -0.267196    0.219184    1.705506
      7         11           0        3.347767    1.533603   -0.159388
 ---------------------------------------------------------------------

 SCF Done:  E(UB3LYP) =  -1136.12374531     A.U. after   25 cycles

 The electronic state is 2-A.
 Alpha  occ. eigenvalues --  -38.45359 -38.44962 -38.44508 -38.43704 -38.43330
 Alpha  occ. eigenvalues --  -38.43288 -38.42458  -2.21176  -2.20792  -2.20366
 Alpha  occ. eigenvalues --   -2.19605  -2.19233  -2.19142  -2.18328  -1.14854
 Alpha  occ. eigenvalues --   -1.14837  -1.14808  -1.14520  -1.14440  -1.14427
 Alpha  occ. eigenvalues --   -1.14018  -1.14017  -1.14003  -1.13341  -1.13231
 Alpha  occ. eigenvalues --   -1.13205  -1.12947  -1.12867  -1.12843  -1.12809
 Alpha  occ. eigenvalues --   -1.12796  -1.12790  -1.12012  -1.11983  -1.11971
 Alpha  occ. eigenvalues --   -0.18425  -0.14095  -0.11597  -0.09993
 Alpha virt. eigenvalues --   -0.07029  -0.05742  -0.03967  -0.03515  -0.02670
 Alpha virt. eigenvalues --   -0.02169  -0.01922  -0.01523  -0.00780  -0.00251
 Alpha virt. eigenvalues --   -0.00079   0.00203   0.00578   0.00661   0.00686

  Beta  occ. eigenvalues --  -38.45358 -38.44958 -38.44494 -38.43635 -38.43332
  Beta  occ. eigenvalues --  -38.43220 -38.42446  -2.21177  -2.20788  -2.20343
  Beta  occ. eigenvalues --   -2.19479  -2.19148  -2.19109  -2.18310  -1.14846
  Beta  occ. eigenvalues --   -1.14830  -1.14811  -1.14519  -1.14427  -1.14416
  Beta  occ. eigenvalues --   -1.14007  -1.13991  -1.13975  -1.13250  -1.13144
  Beta  occ. eigenvalues --   -1.13109  -1.12854  -1.12814  -1.12810  -1.12786
  Beta  occ. eigenvalues --   -1.12766  -1.12746  -1.12000  -1.11972  -1.11938
  Beta  occ. eigenvalues --   -0.17742  -0.13896  -0.11374
  Beta virt. eigenvalues --   -0.06934  -0.06224  -0.05640  -0.03963  -0.02783
  Beta virt. eigenvalues --   -0.02519  -0.01569  -0.01493  -0.01021  -0.00711
  Beta virt. eigenvalues --   -0.00219   0.00111   0.00244   0.00670   0.00698

 Mulliken charges and spin densities:
               1          2
     1  Na  -0.166063   0.022005
     2  Na  -0.106929   0.346876
     3  Na   0.146978   0.174114
     4  Na  -0.037467  -0.018050
     5  Na   0.200468  -0.010429
     6  Na  -0.211442   0.465151
     7  Na   0.174455   0.020333
 Sum of Mulliken charges =  -0.00000   1.00000

 Dipole moment (field-independent basis, Debye):
    X=              0.2130    Y=              0.1995    Z=              0.1179  Tot=              0.3147
 Quadrupole moment (field-independent basis, Debye-Ang):
   XX=            -45.7157   YY=            -66.9763   ZZ=            -78.4055
   XY=              1.6319   XZ=              0.7528   YZ=             -0.4013

 Normal termination of Gaussian 16 at Thu Dec  7 15:45:39 2023.
