 Gaussian 16, Revision B.01,
 Gaussian 16:  ES64L-G16RevB.01 20-Dec-2017

 -------------------------
 #P B3LYP/6-311+g(d) force
 -------------------------

 -----
 DPGEN
 -----
 Symbolic Z-matrix:
 Charge =  0 Multiplicity = 2

                         Standard orientation:
 ---------------------------------------------------------------------
 Center     Atomic      Atomic             Coordinates (Angstroms)
 Number     Number       Type             X           Y           Z
 ---------------------------------------------------------------------
      1         11           0       -1.346824    2.605025   -0.450449
      2         11           0        0.686834   -0.412001   -1.657173
      3         11           0        2.737393    2.069641    0.054886
      4         11           0       -0.177414    0.118466    2.037510
      5         11           0       -3.240645    0.154949    0.008774
      6         11           0       -1.415217   -2.673181   -0.180629
      7         11           0        2.755872   -1.862900    0.187080
 ---------------------------------------------------------------------

 SCF Done:  E(UB3LYP) =  -1136.13034497     A.U. after   19 cycles

 The electronic state is 2-A.
 Alpha  occ. eigenvalues --  -38.44689 -38.44564 -38.44105 -38.43614 -38.43583
 Alpha  occ. eigenvalues --  -38.43489 -38.43371  -2.20489  -2.20322  -2.19957
 Alpha  occ. eigenvalues --   -2.19468  -2.19405  -2.19320  -2.19286  -1.14195
 Alpha  occ. eigenvalues --   -1.14144  -1.14110  -1.14001  -1.13974  -1.13965
 Alpha  occ. eigenvalues --   -1.13650  -1.13613  -1.13607  -1.13140  -1.13100
 Alpha  occ. eigenvalues --   -1.13094  -1.13087  -1.13061  -1.13045  -1.12996
 Alpha  occ. eigenvalues --   -1.12977  -1.12964  -1.12957  -1.12934  -1.12896
 Alpha  occ. eigenvalues --   -0.18079  -0.13288  -0.12041  -0.10394
 Alpha virt. eigenvalues --   -0.06136  -0.05843  -0.04422  -0.03340  -0.02701
 Alpha virt. eigenvalues --   -0.02391  -0.01772  -0.01530  -0.00729  -0.00408
 Alpha virt. eigenvalues --   -0.00037   0.00331   0.00691   0.00726   0.00837

  Beta  occ. eigenvalues --  -38.44687 -38.44564 -38.44102 -38.43579 -38.43520
  Beta  occ. eigenvalues --  -38.43479 -38.43316  -2.20488  -2.20324  -2.19955
  Beta  occ. eigenvalues --   -2.19400  -2.19303  -2.19294  -2.19184  -1.14187
  Beta  occ. eigenvalues --   -1.14130  -1.14113  -1.13987  -1.13977  -1.13970
  Beta  occ. eigenvalues --   -1.13651  -1.13609  -1.13590  -1.13087  -1.13046
  Beta  occ. eigenvalues --   -1.13043  -1.13021  -1.12988  -1.12971  -1.12960
  Beta  occ. eigenvalues --   -1.12950  -1.12940  -1.12891  -1.12862  -1.12823
  Beta  occ. eigenvalues --   -0.17382  -0.13105  -0.11830
  Beta virt. eigenvalues --   -0.06560  -0.06145  -0.05713  -0.04356  -0.02605
  Beta virt. eigenvalues --   -0.02009  -0.01682  -0.01459  -0.01357  -0.00782
  Beta virt. eigenvalues --   -0.00425   0.00125   0.00374   0.00727   0.00780

 Mulliken charges and spin densities:
               1          2
     1  Na  -0.032092  -0.030383
     2  Na   0.057691   0.518017
     3  Na  -0.039269  -0.078110
     4  Na  -0.346872   0.768444
     5  Na   0.140641   0.041992
     6  Na   0.114766  -0.092463
     7  Na   0.105136  -0.127496
 Sum of Mulliken charges =  -0.00000   1.00000

 Dipole moment (field-independent basis, Debye):
    X=              0.6589    Y=             -0.1318    Z=              0.1532  Tot=              0.6892
 Quadrupole moment (field-independent basis, Debye-Ang):
   XX=            -53.4089   YY=            -63.6607   ZZ=            -76.1681
   XY=              0.5530   XZ=              1.5905   YZ=             -1.1779

 Normal termination of Gaussian 16 at Fri Dec  8 01:24:14 2023.
