 Gaussian 16, Revision B.01,
 Gaussian 16:  ES64L-G16RevB.01 20-Dec-2017

 -------------------------
 #P B3LYP/6-311+g(d) force
 -------------------------

 -----
 DPGEN
 -----
 Symbolic Z-matrix:
 Charge =  0 Multiplicity = 2

                         Standard orientation:
 ---------------------------------------------------------------------
 Center     Atomic      Atomic             Coordinates (Angstroms)
 Number     Number       Type             X           Y           Z
 ---------------------------------------------------------------------
      1         11           0       -2.371937   -2.135827   -0.600899
      2         11           0       -1.951035    1.201894   -0.557560
      3         11           0        0.819804    2.852365    0.162510
      4         11           0       -4.740653   -0.028844    0.735786
      5         11           0        3.581260   -2.207449    0.420612
      6         11           0        4.008524    0.745667   -0.166826
      7         11           0        0.654038   -0.427806    0.006377
 ---------------------------------------------------------------------

 SCF Done:  E(UB3LYP) =  -1136.12411710     A.U. after   21 cycles

 The electronic state is 2-A.
 Alpha  occ. eigenvalues --  -38.44604 -38.44187 -38.43934 -38.43857 -38.43708
 Alpha  occ. eigenvalues --  -38.43198 -38.42713  -2.20457  -2.20031  -2.19771
 Alpha  occ. eigenvalues --   -2.19707  -2.19649  -2.19181  -2.18566  -1.14134
 Alpha  occ. eigenvalues --   -1.14119  -1.14087  -1.13715  -1.13701  -1.13662
 Alpha  occ. eigenvalues --   -1.13430  -1.13427  -1.13420  -1.13404  -1.13370
 Alpha  occ. eigenvalues --   -1.13344  -1.13330  -1.13314  -1.13226  -1.12871
 Alpha  occ. eigenvalues --   -1.12828  -1.12813  -1.12232  -1.12219  -1.12217
 Alpha  occ. eigenvalues --   -0.17563  -0.14754  -0.11815  -0.10738
 Alpha virt. eigenvalues --   -0.06384  -0.05144  -0.04352  -0.03894  -0.02809
 Alpha virt. eigenvalues --   -0.02292  -0.01433  -0.01394  -0.00997  -0.00586
 Alpha virt. eigenvalues --   -0.00225   0.00175   0.00474   0.00508   0.00701

  Beta  occ. eigenvalues --  -38.44573 -38.44163 -38.43937 -38.43773 -38.43696
  Beta  occ. eigenvalues --  -38.43144 -38.42711  -2.20398  -2.19993  -2.19779
  Beta  occ. eigenvalues --   -2.19633  -2.19549  -2.19088  -2.18563  -1.14097
  Beta  occ. eigenvalues --   -1.14077  -1.14044  -1.13691  -1.13677  -1.13600
  Beta  occ. eigenvalues --   -1.13435  -1.13429  -1.13415  -1.13345  -1.13326
  Beta  occ. eigenvalues --   -1.13283  -1.13235  -1.13225  -1.13189  -1.12813
  Beta  occ. eigenvalues --   -1.12766  -1.12719  -1.12230  -1.12216  -1.12212
  Beta  occ. eigenvalues --   -0.16941  -0.14314  -0.11659
  Beta virt. eigenvalues --   -0.07057  -0.06047  -0.04772  -0.04223  -0.03474
  Beta virt. eigenvalues --   -0.02619  -0.01670  -0.01339  -0.01101  -0.00855
  Beta virt. eigenvalues --   -0.00326   0.00143   0.00324   0.00570   0.00640

 Mulliken charges and spin densities:
               1          2
     1  Na   0.185990  -0.034548
     2  Na   0.358433   0.313491
     3  Na   0.396318   0.014077
     4  Na   0.736095   0.374972
     5  Na   0.942677   0.004555
     6  Na   0.746367   0.198324
     7  Na  -3.365880   0.129129
 Sum of Mulliken charges =  -0.00000   1.00000

 Dipole moment (field-independent basis, Debye):
    X=              0.6642    Y=             -0.4878    Z=              0.0213  Tot=              0.8244
 Quadrupole moment (field-independent basis, Debye-Ang):
   XX=            -62.8264   YY=            -63.1546   ZZ=            -70.4217
   XY=              3.9256   XZ=             -0.3384   YZ=             -0.4608

 Normal termination of Gaussian 16 at Wed Nov 29 16:36:54 2023.
