 Gaussian 16, Revision B.01,
 Gaussian 16:  ES64L-G16RevB.01 20-Dec-2017

 -------------------------
 #P B3LYP/6-311+g(d) force
 -------------------------

 -----
 DPGEN
 -----
 Symbolic Z-matrix:
 Charge =  0 Multiplicity = 2

                         Standard orientation:
 ---------------------------------------------------------------------
 Center     Atomic      Atomic             Coordinates (Angstroms)
 Number     Number       Type             X           Y           Z
 ---------------------------------------------------------------------
      1         11           0        0.295840    0.162610   -1.734933
      2         11           0       -2.743245   -1.425617    0.272774
      3         11           0        0.853923    2.495162    0.472234
      4         11           0        3.356727    0.051309    0.017815
      5         11           0        0.796377   -2.575243   -0.420661
      6         11           0       -0.056296   -0.399351    1.888029
      7         11           0       -2.503326    1.691129   -0.495257
 ---------------------------------------------------------------------

 SCF Done:  E(UB3LYP) =  -1136.13548950     A.U. after   20 cycles

 The electronic state is 2-A.
 Alpha  occ. eigenvalues --  -38.44650 -38.43902 -38.43560 -38.43488 -38.43370
 Alpha  occ. eigenvalues --  -38.43112 -38.43002  -2.20458  -2.19754  -2.19434
 Alpha  occ. eigenvalues --   -2.19417  -2.19358  -2.19003  -2.18889  -1.14134
 Alpha  occ. eigenvalues --   -1.14109  -1.14100  -1.13450  -1.13428  -1.13388
 Alpha  occ. eigenvalues --   -1.13120  -1.13104  -1.13078  -1.13068  -1.13059
 Alpha  occ. eigenvalues --   -1.13056  -1.13047  -1.13019  -1.12957  -1.12691
 Alpha  occ. eigenvalues --   -1.12665  -1.12596  -1.12580  -1.12558  -1.12499
 Alpha  occ. eigenvalues --   -0.18903  -0.13275  -0.12203  -0.10961
 Alpha virt. eigenvalues --   -0.06099  -0.04857  -0.04176  -0.03345  -0.02925
 Alpha virt. eigenvalues --   -0.02579  -0.01910  -0.00913  -0.00210  -0.00083
 Alpha virt. eigenvalues --    0.00036   0.00342   0.00817   0.00868   0.00893

  Beta  occ. eigenvalues --  -38.44649 -38.43896 -38.43550 -38.43405 -38.43298
  Beta  occ. eigenvalues --  -38.43099 -38.42989  -2.20459  -2.19748  -2.19402
  Beta  occ. eigenvalues --   -2.19281  -2.19226  -2.18983  -2.18869  -1.14125
  Beta  occ. eigenvalues --   -1.14107  -1.14098  -1.13444  -1.13404  -1.13384
  Beta  occ. eigenvalues --   -1.13080  -1.13054  -1.13044  -1.13022  -1.12973
  Beta  occ. eigenvalues --   -1.12964  -1.12937  -1.12929  -1.12865  -1.12669
  Beta  occ. eigenvalues --   -1.12629  -1.12582  -1.12566  -1.12520  -1.12484
  Beta  occ. eigenvalues --   -0.18169  -0.13038  -0.11922
  Beta virt. eigenvalues --   -0.07036  -0.06056  -0.04830  -0.04146  -0.02590
  Beta virt. eigenvalues --   -0.02142  -0.01830  -0.01515  -0.00851  -0.00200
  Beta virt. eigenvalues --   -0.00087   0.00113   0.00364   0.00870   0.00889

 Mulliken charges and spin densities:
               1          2
     1  Na  -0.168752   0.560273
     2  Na   0.169600  -0.026502
     3  Na   0.064213   0.053520
     4  Na   0.066302  -0.104344
     5  Na   0.083824  -0.102713
     6  Na  -0.262247   0.622377
     7  Na   0.047060  -0.002612
 Sum of Mulliken charges =  -0.00000   1.00000

 Dipole moment (field-independent basis, Debye):
    X=              0.3889    Y=             -0.1060    Z=              0.0806  Tot=              0.4111
 Quadrupole moment (field-independent basis, Debye-Ang):
   XX=            -52.5025   YY=            -67.2547   ZZ=            -73.2953
   XY=              0.1478   XZ=              0.7671   YZ=              0.6264

 Normal termination of Gaussian 16 at Thu Dec  7 09:32:03 2023.
