 Gaussian 16, Revision B.01,
 Gaussian 16:  ES64L-G16RevB.01 20-Dec-2017

 -------------------------
 #P B3LYP/6-311+g(d) force
 -------------------------

 -----
 DPGEN
 -----
 Symbolic Z-matrix:
 Charge =  0 Multiplicity = 2

                         Standard orientation:
 ---------------------------------------------------------------------
 Center     Atomic      Atomic             Coordinates (Angstroms)
 Number     Number       Type             X           Y           Z
 ---------------------------------------------------------------------
      1         11           0        3.244605   -1.401137    1.003748
      2         11           0        0.017529   -0.042098    1.512436
      3         11           0        1.671036   -0.832772   -1.441223
      4         11           0       -1.695604   -1.721017   -0.954260
      5         11           0       -1.625382    1.410375   -1.077076
      6         11           0       -4.238535    0.215699    0.984056
      7         11           0        2.626352    2.370949   -0.027680
 ---------------------------------------------------------------------

 SCF Done:  E(UB3LYP) =  -1136.11415084     A.U. after   33 cycles

 The electronic state is 2-A.
 Alpha  occ. eigenvalues --  -38.45313 -38.44980 -38.44466 -38.44250 -38.43654
 Alpha  occ. eigenvalues --  -38.43350 -38.43148  -2.21172  -2.20783  -2.20327
 Alpha  occ. eigenvalues --   -2.20129  -2.19580  -2.19247  -2.18935  -1.14899
 Alpha  occ. eigenvalues --   -1.14814  -1.14797  -1.14441  -1.14430  -1.14389
 Alpha  occ. eigenvalues --   -1.14056  -1.13974  -1.13922  -1.13839  -1.13791
 Alpha  occ. eigenvalues --   -1.13737  -1.13270  -1.13260  -1.13191  -1.12942
 Alpha  occ. eigenvalues --   -1.12920  -1.12847  -1.12616  -1.12580  -1.12574
 Alpha  occ. eigenvalues --   -0.18431  -0.14508  -0.11023  -0.10589
 Alpha virt. eigenvalues --   -0.07096  -0.05572  -0.04885  -0.03087  -0.02913
 Alpha virt. eigenvalues --   -0.02141  -0.02048  -0.01353  -0.01139  -0.00292
 Alpha virt. eigenvalues --   -0.00026   0.00071   0.00240   0.00464   0.00547

  Beta  occ. eigenvalues --  -38.45304 -38.44910 -38.44433 -38.44221 -38.43647
  Beta  occ. eigenvalues --  -38.43328 -38.43131  -2.21158  -2.20651  -2.20263
  Beta  occ. eigenvalues --   -2.20080  -2.19574  -2.19213  -2.18904  -1.14869
  Beta  occ. eigenvalues --   -1.14805  -1.14791  -1.14347  -1.14341  -1.14304
  Beta  occ. eigenvalues --   -1.14026  -1.13923  -1.13876  -1.13805  -1.13758
  Beta  occ. eigenvalues --   -1.13681  -1.13262  -1.13226  -1.13181  -1.12913
  Beta  occ. eigenvalues --   -1.12886  -1.12813  -1.12593  -1.12559  -1.12550
  Beta  occ. eigenvalues --   -0.17794  -0.14058  -0.10427
  Beta virt. eigenvalues --   -0.07401  -0.06816  -0.05292  -0.04380  -0.02791
  Beta virt. eigenvalues --   -0.02732  -0.01706  -0.01481  -0.01085  -0.00857
  Beta virt. eigenvalues --   -0.00167   0.00064   0.00199   0.00364   0.00578

 Mulliken charges and spin densities:
               1          2
     1  Na   0.159681   0.188820
     2  Na  -0.246354  -0.044653
     3  Na   0.454692   0.036891
     4  Na  -0.043596   0.038901
     5  Na  -0.289192   0.195578
     6  Na   0.339907   0.432862
     7  Na  -0.375138   0.151602
 Sum of Mulliken charges =  -0.00000   1.00000

 Dipole moment (field-independent basis, Debye):
    X=             -0.6919    Y=             -0.4462    Z=              0.2388  Tot=              0.8573
 Quadrupole moment (field-independent basis, Debye-Ang):
   XX=            -52.6597   YY=            -77.4230   ZZ=            -67.0945
   XY=             -0.8639   XZ=              0.3514   YZ=             -2.6898

 Normal termination of Gaussian 16 at Tue Dec  5 20:12:08 2023.
