 Gaussian 16, Revision B.01,
 Gaussian 16:  ES64L-G16RevB.01 20-Dec-2017

 -------------------------
 #P B3LYP/6-311+g(d) force
 -------------------------

 -----
 DPGEN
 -----
 Symbolic Z-matrix:
 Charge =  0 Multiplicity = 2

                         Standard orientation:
 ---------------------------------------------------------------------
 Center     Atomic      Atomic             Coordinates (Angstroms)
 Number     Number       Type             X           Y           Z
 ---------------------------------------------------------------------
      1         11           0        0.757590   -2.071238    0.278177
      2         11           0        3.781919   -0.300700   -0.943126
      3         11           0        0.117098   -0.061974   -1.575417
      4         11           0       -1.540856   -0.158962    1.670135
      5         11           0       -1.555581    2.957075   -0.712002
      6         11           0       -3.478028   -1.439457   -0.472078
      7         11           0        1.917859    1.075256    1.754310
 ---------------------------------------------------------------------

 SCF Done:  E(UB3LYP) =  -1136.11632677     A.U. after   25 cycles

 The electronic state is 2-A.
 Alpha  occ. eigenvalues --  -38.45035 -38.45019 -38.44184 -38.44153 -38.43996
 Alpha  occ. eigenvalues --  -38.43613 -38.42654  -2.20824  -2.20798  -2.20125
 Alpha  occ. eigenvalues --   -2.19976  -2.19913  -2.19531  -2.18428  -1.14502
 Alpha  occ. eigenvalues --   -1.14493  -1.14486  -1.14445  -1.14444  -1.14420
 Alpha  occ. eigenvalues --   -1.14051  -1.13750  -1.13708  -1.13656  -1.13619
 Alpha  occ. eigenvalues --   -1.13598  -1.13584  -1.13551  -1.13452  -1.13234
 Alpha  occ. eigenvalues --   -1.13184  -1.13124  -1.12104  -1.12084  -1.12063
 Alpha  occ. eigenvalues --   -0.18322  -0.13488  -0.11267  -0.10921
 Alpha virt. eigenvalues --   -0.07047  -0.05001  -0.04334  -0.03045  -0.02784
 Alpha virt. eigenvalues --   -0.02709  -0.02251  -0.01336  -0.00711   0.00022
 Alpha virt. eigenvalues --    0.00092   0.00139   0.00354   0.00611   0.00760

  Beta  occ. eigenvalues --  -38.45021 -38.45020 -38.44131 -38.44099 -38.43979
  Beta  occ. eigenvalues --  -38.43570 -38.42641  -2.20801  -2.20798  -2.20030
  Beta  occ. eigenvalues --   -2.19886  -2.19878  -2.19454  -2.18404  -1.14503
  Beta  occ. eigenvalues --   -1.14471  -1.14465  -1.14440  -1.14429  -1.14422
  Beta  occ. eigenvalues --   -1.13996  -1.13683  -1.13637  -1.13580  -1.13548
  Beta  occ. eigenvalues --   -1.13545  -1.13534  -1.13488  -1.13438  -1.13178
  Beta  occ. eigenvalues --   -1.13112  -1.13076  -1.12080  -1.12067  -1.12050
  Beta  occ. eigenvalues --   -0.17552  -0.13327  -0.10671
  Beta virt. eigenvalues --   -0.07364  -0.06923  -0.04677  -0.04017  -0.02833
  Beta virt. eigenvalues --   -0.02561  -0.02134  -0.01542  -0.00997  -0.00525
  Beta virt. eigenvalues --    0.00064   0.00123   0.00156   0.00452   0.00706

 Mulliken charges and spin densities:
               1          2
     1  Na   0.192013   0.287555
     2  Na   0.354141   0.041991
     3  Na  -0.499688   0.334442
     4  Na   0.177668   0.052082
     5  Na  -0.247776   0.105303
     6  Na   0.275757   0.022364
     7  Na  -0.252114   0.156263
 Sum of Mulliken charges =  -0.00000   1.00000

 Dipole moment (field-independent basis, Debye):
    X=              0.6388    Y=             -0.6295    Z=             -0.1250  Tot=              0.9055
 Quadrupole moment (field-independent basis, Debye-Ang):
   XX=            -46.2337   YY=            -75.7701   ZZ=            -69.5517
   XY=              2.9707   XZ=              0.2584   YZ=              1.0759

 Normal termination of Gaussian 16 at Tue Dec  5 11:02:37 2023.
