 Gaussian 16, Revision B.01,
 Gaussian 16:  ES64L-G16RevB.01 20-Dec-2017

 -------------------------
 #P B3LYP/6-311+g(d) force
 -------------------------

 -----
 DPGEN
 -----
 Symbolic Z-matrix:
 Charge =  0 Multiplicity = 2

                         Standard orientation:
 ---------------------------------------------------------------------
 Center     Atomic      Atomic             Coordinates (Angstroms)
 Number     Number       Type             X           Y           Z
 ---------------------------------------------------------------------
      1         11           0       -0.136314    0.132224    2.027009
      2         11           0        0.938304    2.534209    0.322417
      3         11           0        3.169688    0.105558   -0.604422
      4         11           0       -2.701677    1.787264   -0.258847
      5         11           0        1.297487   -2.377848    0.571000
      6         11           0        0.070788   -0.197757   -1.837507
      7         11           0       -2.638275   -1.983651   -0.219651
 ---------------------------------------------------------------------

 SCF Done:  E(UB3LYP) =  -1136.13517394     A.U. after   19 cycles

 The electronic state is 2-A.
 Alpha  occ. eigenvalues --  -38.44128 -38.43981 -38.43941 -38.43800 -38.43797
 Alpha  occ. eigenvalues --  -38.43296 -38.43007  -2.19914  -2.19804  -2.19759
 Alpha  occ. eigenvalues --   -2.19724  -2.19707  -2.19172  -2.18885  -1.13599
 Alpha  occ. eigenvalues --   -1.13571  -1.13548  -1.13495  -1.13460  -1.13449
 Alpha  occ. eigenvalues --   -1.13443  -1.13417  -1.13404  -1.13399  -1.13381
 Alpha  occ. eigenvalues --   -1.13373  -1.13343  -1.13330  -1.13316  -1.12863
 Alpha  occ. eigenvalues --   -1.12827  -1.12789  -1.12589  -1.12544  -1.12498
 Alpha  occ. eigenvalues --   -0.18545  -0.13035  -0.12053  -0.11205
 Alpha virt. eigenvalues --   -0.05607  -0.05485  -0.04107  -0.03390  -0.03009
 Alpha virt. eigenvalues --   -0.02864  -0.01661  -0.01132  -0.00367  -0.00063
 Alpha virt. eigenvalues --   -0.00010   0.00346   0.00729   0.00845   0.00913

  Beta  occ. eigenvalues --  -38.44127 -38.43981 -38.43927 -38.43732 -38.43704
  Beta  occ. eigenvalues --  -38.43278 -38.42997  -2.19913  -2.19781  -2.19761
  Beta  occ. eigenvalues --   -2.19590  -2.19549  -2.19143  -2.18872  -1.13588
  Beta  occ. eigenvalues --   -1.13572  -1.13546  -1.13466  -1.13442  -1.13434
  Beta  occ. eigenvalues --   -1.13426  -1.13417  -1.13398  -1.13315  -1.13286
  Beta  occ. eigenvalues --   -1.13263  -1.13243  -1.13228  -1.13209  -1.12836
  Beta  occ. eigenvalues --   -1.12784  -1.12774  -1.12572  -1.12516  -1.12492
  Beta  occ. eigenvalues --   -0.17790  -0.12794  -0.11804
  Beta virt. eigenvalues --   -0.07276  -0.05526  -0.05467  -0.04039  -0.02690
  Beta virt. eigenvalues --   -0.02234  -0.01846  -0.01515  -0.01090  -0.00346
  Beta virt. eigenvalues --   -0.00085   0.00089   0.00377   0.00820   0.00841

 Mulliken charges and spin densities:
               1          2
     1  Na  -0.014148   0.532222
     2  Na   0.077529  -0.016075
     3  Na   0.212206   0.083446
     4  Na  -0.081175  -0.093302
     5  Na   0.064042   0.016836
     6  Na  -0.177268   0.582973
     7  Na  -0.081186  -0.106099
 Sum of Mulliken charges =  -0.00000   1.00000

 Dipole moment (field-independent basis, Debye):
    X=             -0.3035    Y=             -0.0312    Z=             -0.1620  Tot=              0.3454
 Quadrupole moment (field-independent basis, Debye-Ang):
   XX=            -55.3774   YY=            -66.7226   ZZ=            -71.9788
   XY=             -0.1289   XZ=             -0.2065   YZ=             -0.9974

 Normal termination of Gaussian 16 at Tue Dec  5 10:19:20 2023.
