 Gaussian 16, Revision B.01,
 Gaussian 16:  ES64L-G16RevB.01 20-Dec-2017

 -------------------------
 #P B3LYP/6-311+g(d) force
 -------------------------

 -----
 DPGEN
 -----
 Symbolic Z-matrix:
 Charge =  0 Multiplicity = 2

                         Standard orientation:
 ---------------------------------------------------------------------
 Center     Atomic      Atomic             Coordinates (Angstroms)
 Number     Number       Type             X           Y           Z
 ---------------------------------------------------------------------
      1         11           0        2.616697   -1.988141   -0.670066
      2         11           0       -2.874486    1.604133    0.902447
      3         11           0        4.534231    0.655073    0.222684
      4         11           0       -3.458446   -1.633020   -1.271476
      5         11           0       -0.075840    3.559055   -0.368511
      6         11           0       -0.074173   -0.003783   -0.498549
      7         11           0       -0.667982   -2.193317    1.683471
 ---------------------------------------------------------------------

 SCF Done:  E(UB3LYP) =  -1136.11504687     A.U. after   21 cycles

 The electronic state is 2-A.
 Alpha  occ. eigenvalues --  -38.45026 -38.44304 -38.44266 -38.44109 -38.43890
 Alpha  occ. eigenvalues --  -38.43737 -38.43524  -2.20800  -2.20085  -2.20081
 Alpha  occ. eigenvalues --   -2.19914  -2.19687  -2.19659  -2.19299  -1.14493
 Alpha  occ. eigenvalues --   -1.14472  -1.14407  -1.13789  -1.13739  -1.13732
 Alpha  occ. eigenvalues --   -1.13726  -1.13710  -1.13689  -1.13623  -1.13577
 Alpha  occ. eigenvalues --   -1.13532  -1.13389  -1.13353  -1.13324  -1.13297
 Alpha  occ. eigenvalues --   -1.13283  -1.13275  -1.12976  -1.12964  -1.12925
 Alpha  occ. eigenvalues --   -0.16929  -0.13469  -0.12033  -0.10190
 Alpha virt. eigenvalues --   -0.06711  -0.05671  -0.04920  -0.02950  -0.02766
 Alpha virt. eigenvalues --   -0.02364  -0.01991  -0.01554  -0.00943  -0.00869
 Alpha virt. eigenvalues --   -0.00417  -0.00177   0.00260   0.00524   0.00573

  Beta  occ. eigenvalues --  -38.45023 -38.44237 -38.44226 -38.44115 -38.43803
  Beta  occ. eigenvalues --  -38.43728 -38.43522  -2.20796  -2.20010  -2.19959
  Beta  occ. eigenvalues --   -2.19931  -2.19644  -2.19523  -2.19298  -1.14488
  Beta  occ. eigenvalues --   -1.14471  -1.14392  -1.13738  -1.13679  -1.13656
  Beta  occ. eigenvalues --   -1.13648  -1.13642  -1.13637  -1.13629  -1.13583
  Beta  occ. eigenvalues --   -1.13510  -1.13368  -1.13292  -1.13262  -1.13239
  Beta  occ. eigenvalues --   -1.13206  -1.13182  -1.12975  -1.12962  -1.12923
  Beta  occ. eigenvalues --   -0.16567  -0.12878  -0.11666
  Beta virt. eigenvalues --   -0.06785  -0.06331  -0.05551  -0.04734  -0.02607
  Beta virt. eigenvalues --   -0.02418  -0.02101  -0.01700  -0.01296  -0.00782
  Beta virt. eigenvalues --   -0.00657  -0.00112   0.00130   0.00376   0.00591

 Mulliken charges and spin densities:
               1          2
     1  Na   0.349840   0.148882
     2  Na   0.337512   0.010816
     3  Na   0.034301   0.339387
     4  Na   0.188996   0.515851
     5  Na   0.416266  -0.092293
     6  Na  -1.662756   0.049130
     7  Na   0.335841   0.028228
 Sum of Mulliken charges =  -0.00000   1.00000

 Dipole moment (field-independent basis, Debye):
    X=             -0.1920    Y=             -0.1035    Z=              1.0417  Tot=              1.0643
 Quadrupole moment (field-independent basis, Debye-Ang):
   XX=            -70.7178   YY=            -64.8040   ZZ=            -65.5780
   XY=             -0.2939   XZ=             -3.6799   YZ=              1.2625

 Normal termination of Gaussian 16 at Wed Dec  6 01:13:06 2023.
