 Gaussian 16, Revision B.01,
 Gaussian 16:  ES64L-G16RevB.01 20-Dec-2017

 -------------------------
 #P B3LYP/6-311+g(d) force
 -------------------------

 -----
 DPGEN
 -----
 Symbolic Z-matrix:
 Charge =  0 Multiplicity = 2

                         Standard orientation:
 ---------------------------------------------------------------------
 Center     Atomic      Atomic             Coordinates (Angstroms)
 Number     Number       Type             X           Y           Z
 ---------------------------------------------------------------------
      1         11           0        3.785950   -0.049288    0.390474
      2         11           0       -0.806308    0.942320   -1.436714
      3         11           0       -3.690137    1.041049    0.729648
      4         11           0        0.193628   -0.299819    1.908790
      5         11           0        1.319233    3.183331   -0.479265
      6         11           0        1.239045   -2.800883   -0.595506
      7         11           0       -2.041411   -2.016710   -0.517426
 ---------------------------------------------------------------------

 SCF Done:  E(UB3LYP) =  -1136.12322834     A.U. after   21 cycles

 The electronic state is 2-A.
 Alpha  occ. eigenvalues --  -38.45135 -38.45038 -38.44606 -38.43591 -38.43500
 Alpha  occ. eigenvalues --  -38.43492 -38.43315  -2.20928  -2.20777  -2.20390
 Alpha  occ. eigenvalues --   -2.19461  -2.19301  -2.19290  -2.19204  -1.14620
 Alpha  occ. eigenvalues --   -1.14578  -1.14536  -1.14458  -1.14418  -1.14414
 Alpha  occ. eigenvalues --   -1.14047  -1.14045  -1.14012  -1.13166  -1.13131
 Alpha  occ. eigenvalues --   -1.13085  -1.13000  -1.12975  -1.12959  -1.12949
 Alpha  occ. eigenvalues --   -1.12933  -1.12917  -1.12882  -1.12842  -1.12813
 Alpha  occ. eigenvalues --   -0.17549  -0.13059  -0.12163  -0.10387
 Alpha virt. eigenvalues --   -0.06848  -0.05139  -0.05062  -0.03170  -0.02732
 Alpha virt. eigenvalues --   -0.02430  -0.02115  -0.01303  -0.01046  -0.00487
 Alpha virt. eigenvalues --   -0.00245   0.00159   0.00371   0.00623   0.00739

  Beta  occ. eigenvalues --  -38.45091 -38.45025 -38.44565 -38.43571 -38.43483
  Beta  occ. eigenvalues --  -38.43481 -38.43273  -2.20844  -2.20753  -2.20314
  Beta  occ. eigenvalues --   -2.19428  -2.19287  -2.19257  -2.19129  -1.14558
  Beta  occ. eigenvalues --   -1.14526  -1.14470  -1.14437  -1.14402  -1.14398
  Beta  occ. eigenvalues --   -1.13995  -1.13989  -1.13963  -1.13138  -1.13110
  Beta  occ. eigenvalues --   -1.13044  -1.12967  -1.12966  -1.12952  -1.12925
  Beta  occ. eigenvalues --   -1.12903  -1.12894  -1.12835  -1.12783  -1.12760
  Beta  occ. eigenvalues --   -0.17002  -0.12760  -0.11739
  Beta virt. eigenvalues --   -0.07059  -0.06454  -0.05128  -0.04695  -0.02734
  Beta virt. eigenvalues --   -0.02249  -0.02105  -0.01451  -0.01193  -0.00902
  Beta virt. eigenvalues --   -0.00455  -0.00061   0.00235   0.00518   0.00725

 Mulliken charges and spin densities:
               1          2
     1  Na   0.064679   0.062138
     2  Na   0.232956   0.109264
     3  Na  -0.032520   0.308030
     4  Na  -0.063062   0.364552
     5  Na  -0.232998  -0.015785
     6  Na  -0.280184  -0.031827
     7  Na   0.311130   0.203628
 Sum of Mulliken charges =  -0.00000   1.00000

 Dipole moment (field-independent basis, Debye):
    X=              0.1590    Y=             -0.0989    Z=              0.3840  Tot=              0.4272
 Quadrupole moment (field-independent basis, Debye-Ang):
   XX=            -53.1355   YY=            -68.4890   ZZ=            -73.2765
   XY=             -0.6819   XZ=             -1.3394   YZ=              2.7868

 Normal termination of Gaussian 16 at Thu Dec  7 23:04:22 2023.
