 Gaussian 16, Revision B.01,
 Gaussian 16:  ES64L-G16RevB.01 20-Dec-2017

 -------------------------
 #P B3LYP/6-311+g(d) force
 -------------------------

 -----
 DPGEN
 -----
 Symbolic Z-matrix:
 Charge =  0 Multiplicity = 2

                         Standard orientation:
 ---------------------------------------------------------------------
 Center     Atomic      Atomic             Coordinates (Angstroms)
 Number     Number       Type             X           Y           Z
 ---------------------------------------------------------------------
      1         11           0        1.046160    2.623087   -0.616793
      2         11           0       -3.055025   -1.429723   -0.986955
      3         11           0        0.270924   -0.722182   -1.181438
      4         11           0       -1.660307   -0.816019    2.058565
      5         11           0        3.567018   -1.720849   -0.475424
      6         11           0       -1.822366    1.596307   -0.309604
      7         11           0        1.653595    0.469378    1.511648
 ---------------------------------------------------------------------

 SCF Done:  E(UB3LYP) =  -1136.12718341     A.U. after   21 cycles

 The electronic state is 2-A.
 Alpha  occ. eigenvalues --  -38.44248 -38.44029 -38.43862 -38.43670 -38.43581
 Alpha  occ. eigenvalues --  -38.43441 -38.42923  -2.20127  -2.19893  -2.19789
 Alpha  occ. eigenvalues --   -2.19547  -2.19457  -2.19407  -2.18840  -1.13794
 Alpha  occ. eigenvalues --   -1.13777  -1.13739  -1.13564  -1.13554  -1.13520
 Alpha  occ. eigenvalues --   -1.13509  -1.13476  -1.13382  -1.13266  -1.13216
 Alpha  occ. eigenvalues --   -1.13175  -1.13127  -1.13117  -1.13096  -1.13077
 Alpha  occ. eigenvalues --   -1.13070  -1.13030  -1.12507  -1.12493  -1.12463
 Alpha  occ. eigenvalues --   -0.18887  -0.13654  -0.11658  -0.11443
 Alpha virt. eigenvalues --   -0.05879  -0.05370  -0.04490  -0.03318  -0.02702
 Alpha virt. eigenvalues --   -0.02475  -0.01843  -0.01173  -0.00557   0.00061
 Alpha virt. eigenvalues --    0.00232   0.00315   0.00506   0.00618   0.00750

  Beta  occ. eigenvalues --  -38.44165 -38.44011 -38.43826 -38.43669 -38.43543
  Beta  occ. eigenvalues --  -38.43426 -38.42919  -2.19974  -2.19862  -2.19725
  Beta  occ. eigenvalues --   -2.19481  -2.19454  -2.19384  -2.18833  -1.13691
  Beta  occ. eigenvalues --   -1.13674  -1.13629  -1.13533  -1.13529  -1.13491
  Beta  occ. eigenvalues --   -1.13470  -1.13420  -1.13327  -1.13222  -1.13160
  Beta  occ. eigenvalues --   -1.13135  -1.13117  -1.13114  -1.13087  -1.13053
  Beta  occ. eigenvalues --   -1.13034  -1.13008  -1.12500  -1.12482  -1.12456
  Beta  occ. eigenvalues --   -0.18124  -0.13512  -0.11427
  Beta virt. eigenvalues --   -0.07430  -0.05702  -0.05197  -0.03958  -0.02962
  Beta virt. eigenvalues --   -0.02097  -0.01905  -0.01624  -0.01062  -0.00183
  Beta virt. eigenvalues --    0.00072   0.00274   0.00408   0.00692   0.00731

 Mulliken charges and spin densities:
               1          2
     1  Na  -0.088338  -0.038906
     2  Na   1.023096   0.024346
     3  Na  -1.215226   0.309524
     4  Na  -0.407419   0.266914
     5  Na   0.014731   0.008361
     6  Na   0.131207   0.289954
     7  Na   0.541947   0.139807
 Sum of Mulliken charges =  -0.00000   1.00000

 Dipole moment (field-independent basis, Debye):
    X=             -0.4712    Y=             -0.1870    Z=              0.0338  Tot=              0.5081
 Quadrupole moment (field-independent basis, Debye-Ang):
   XX=            -55.1918   YY=            -70.6372   ZZ=            -68.3018
   XY=              2.5879   XZ=              0.7544   YZ=              0.8029

 Normal termination of Gaussian 16 at Wed Nov 29 00:30:35 2023.
