 Gaussian 16, Revision B.01,
 Gaussian 16:  ES64L-G16RevB.01 20-Dec-2017

 -------------------------
 #P B3LYP/6-311+g(d) force
 -------------------------

 -----
 DPGEN
 -----
 Symbolic Z-matrix:
 Charge =  0 Multiplicity = 2

                         Standard orientation:
 ---------------------------------------------------------------------
 Center     Atomic      Atomic             Coordinates (Angstroms)
 Number     Number       Type             X           Y           Z
 ---------------------------------------------------------------------
      1         11           0       -0.144151   -0.160616   -1.818273
      2         11           0        3.240305    0.183662    0.063588
      3         11           0        1.256449   -2.209246   -0.239747
      4         11           0        0.969009    2.436316    0.136301
      5         11           0       -2.427320   -1.875504    0.235537
      6         11           0       -0.205304   -0.155046    1.866526
      7         11           0       -2.688986    1.780433   -0.243933
 ---------------------------------------------------------------------

 SCF Done:  E(UB3LYP) =  -1136.13335047     A.U. after   21 cycles

 The electronic state is 2-A.
 Alpha  occ. eigenvalues --  -38.44236 -38.44010 -38.43842 -38.43511 -38.43496
 Alpha  occ. eigenvalues --  -38.43104 -38.43032  -2.20105  -2.19815  -2.19693
 Alpha  occ. eigenvalues --   -2.19495  -2.19456  -2.19063  -2.18920  -1.13793
 Alpha  occ. eigenvalues --   -1.13766  -1.13750  -1.13493  -1.13470  -1.13458
 Alpha  occ. eigenvalues --   -1.13395  -1.13356  -1.13317  -1.13247  -1.13148
 Alpha  occ. eigenvalues --   -1.13124  -1.13092  -1.13091  -1.13067  -1.12741
 Alpha  occ. eigenvalues --   -1.12715  -1.12661  -1.12608  -1.12590  -1.12541
 Alpha  occ. eigenvalues --   -0.19101  -0.13390  -0.12194  -0.10962
 Alpha virt. eigenvalues --   -0.05873  -0.05336  -0.03959  -0.03386  -0.02781
 Alpha virt. eigenvalues --   -0.02610  -0.01781  -0.01163  -0.00121  -0.00057
 Alpha virt. eigenvalues --    0.00033   0.00328   0.00749   0.00893   0.00949

  Beta  occ. eigenvalues --  -38.44235 -38.44006 -38.43834 -38.43430 -38.43413
  Beta  occ. eigenvalues --  -38.43090 -38.43025  -2.20107  -2.19810  -2.19682
  Beta  occ. eigenvalues --   -2.19346  -2.19304  -2.19044  -2.18911  -1.13798
  Beta  occ. eigenvalues --   -1.13769  -1.13729  -1.13475  -1.13464  -1.13458
  Beta  occ. eigenvalues --   -1.13374  -1.13331  -1.13314  -1.13153  -1.13045
  Beta  occ. eigenvalues --   -1.13020  -1.12988  -1.12981  -1.12959  -1.12720
  Beta  occ. eigenvalues --   -1.12669  -1.12643  -1.12603  -1.12560  -1.12533
  Beta  occ. eigenvalues --   -0.18352  -0.13148  -0.11911
  Beta virt. eigenvalues --   -0.07019  -0.05820  -0.05333  -0.03960  -0.02584
  Beta virt. eigenvalues --   -0.01987  -0.01691  -0.01529  -0.01108  -0.00170
  Beta virt. eigenvalues --   -0.00034   0.00106   0.00351   0.00810   0.00886

 Mulliken charges and spin densities:
               1          2
     1  Na  -0.557875   0.604881
     2  Na  -0.109738  -0.064408
     3  Na   0.731061   0.032191
     4  Na   0.237982  -0.054684
     5  Na   0.270935  -0.084810
     6  Na  -0.547570   0.669794
     7  Na  -0.024794  -0.102964
 Sum of Mulliken charges =  -0.00000   1.00000

 Dipole moment (field-independent basis, Debye):
    X=             -0.2897    Y=              0.0329    Z=              0.0588  Tot=              0.2974
 Quadrupole moment (field-independent basis, Debye-Ang):
   XX=            -52.4672   YY=            -67.4115   ZZ=            -73.4669
   XY=              0.2050   XZ=              0.3411   YZ=             -0.3380

 Normal termination of Gaussian 16 at Fri Dec  8 01:23:14 2023.
