 Gaussian 16, Revision B.01,
 Gaussian 16:  ES64L-G16RevB.01 20-Dec-2017

 -------------------------
 #P B3LYP/6-311+g(d) force
 -------------------------

 -----
 DPGEN
 -----
 Symbolic Z-matrix:
 Charge =  0 Multiplicity = 2

                         Standard orientation:
 ---------------------------------------------------------------------
 Center     Atomic      Atomic             Coordinates (Angstroms)
 Number     Number       Type             X           Y           Z
 ---------------------------------------------------------------------
      1         11           0       -0.582925    1.849574   -0.461731
      2         11           0       -4.076445    0.668744   -0.144710
      3         11           0       -1.838483   -0.685268    1.944325
      4         11           0       -1.381817   -1.706635   -1.574526
      5         11           0        0.907235   -1.301084    0.175094
      6         11           0        4.520342   -0.731952    0.111240
      7         11           0        2.452092    1.906621   -0.049692
 ---------------------------------------------------------------------

 SCF Done:  E(UB3LYP) =  -1136.11055726     A.U. after   33 cycles

 The electronic state is 2-A.
 Alpha  occ. eigenvalues --  -38.46310 -38.44763 -38.44275 -38.43943 -38.43325
 Alpha  occ. eigenvalues --  -38.42946 -38.42669  -2.22153  -2.20627  -2.20099
 Alpha  occ. eigenvalues --   -2.19777  -2.19200  -2.18858  -2.18645  -1.15854
 Alpha  occ. eigenvalues --   -1.15789  -1.15763  -1.14365  -1.14272  -1.14242
 Alpha  occ. eigenvalues --   -1.13741  -1.13738  -1.13716  -1.13443  -1.13424
 Alpha  occ. eigenvalues --   -1.13397  -1.12932  -1.12864  -1.12834  -1.12539
 Alpha  occ. eigenvalues --   -1.12514  -1.12463  -1.12364  -1.12329  -1.12229
 Alpha  occ. eigenvalues --   -0.18401  -0.14404  -0.11273  -0.10856
 Alpha virt. eigenvalues --   -0.07938  -0.05043  -0.04117  -0.03394  -0.03190
 Alpha virt. eigenvalues --   -0.02244  -0.01976  -0.01662  -0.00959  -0.00828
 Alpha virt. eigenvalues --   -0.00124   0.00153   0.00208   0.00558   0.00852

  Beta  occ. eigenvalues --  -38.46283 -38.44774 -38.44187 -38.43894 -38.43311
  Beta  occ. eigenvalues --  -38.42898 -38.42655  -2.22105  -2.20649  -2.19934
  Beta  occ. eigenvalues --   -2.19687  -2.19184  -2.18774  -2.18623  -1.15804
  Beta  occ. eigenvalues --   -1.15762  -1.15724  -1.14364  -1.14288  -1.14260
  Beta  occ. eigenvalues --   -1.13628  -1.13624  -1.13611  -1.13379  -1.13358
  Beta  occ. eigenvalues --   -1.13342  -1.12887  -1.12859  -1.12809  -1.12487
  Beta  occ. eigenvalues --   -1.12450  -1.12396  -1.12352  -1.12283  -1.12222
  Beta  occ. eigenvalues --   -0.17892  -0.13615  -0.10972
  Beta virt. eigenvalues --   -0.07773  -0.07361  -0.04853  -0.03455  -0.03124
  Beta virt. eigenvalues --   -0.02909  -0.02154  -0.01821  -0.01138  -0.00550
  Beta virt. eigenvalues --   -0.00421   0.00017   0.00216   0.00387   0.00658

 Mulliken charges and spin densities:
               1          2
     1  Na  -0.625680   0.163759
     2  Na   0.283156   0.471627
     3  Na   0.430330   0.011818
     4  Na   0.189459  -0.131046
     5  Na  -0.434146   0.153224
     6  Na   0.168183   0.462798
     7  Na  -0.011302  -0.132179
 Sum of Mulliken charges =  -0.00000   1.00000

 Dipole moment (field-independent basis, Debye):
    X=             -0.8167    Y=             -0.8636    Z=              0.0537  Tot=              1.1898
 Quadrupole moment (field-independent basis, Debye-Ang):
   XX=            -64.0344   YY=            -79.0398   ZZ=            -59.6761
   XY=              2.7247   XZ=              3.1508   YZ=             -0.4283

 Normal termination of Gaussian 16 at Fri Dec  8 19:22:26 2023.
