 Gaussian 16, Revision B.01,
 Gaussian 16:  ES64L-G16RevB.01 20-Dec-2017

 -------------------------
 #P B3LYP/6-311+g(d) force
 -------------------------

 -----
 DPGEN
 -----
 Symbolic Z-matrix:
 Charge =  0 Multiplicity = 2

                         Standard orientation:
 ---------------------------------------------------------------------
 Center     Atomic      Atomic             Coordinates (Angstroms)
 Number     Number       Type             X           Y           Z
 ---------------------------------------------------------------------
      1         11           0        3.396082   -0.624413    0.296953
      2         11           0       -1.784531    2.244310   -1.190710
      3         11           0       -2.203622   -1.967360   -0.850280
      4         11           0        0.484764   -0.837825   -1.918315
      5         11           0        1.738315    2.248988    0.155453
      6         11           0       -2.140432    0.441965    2.314777
      7         11           0        0.509424   -1.505666    1.192122
 ---------------------------------------------------------------------

 SCF Done:  E(UB3LYP) =  -1136.12736833     A.U. after   21 cycles

 The electronic state is 2-A.
 Alpha  occ. eigenvalues --  -38.44829 -38.44162 -38.43796 -38.43737 -38.43624
 Alpha  occ. eigenvalues --  -38.43490 -38.43414  -2.20627  -2.20085  -2.19661
 Alpha  occ. eigenvalues --   -2.19587  -2.19421  -2.19358  -2.19259  -1.14298
 Alpha  occ. eigenvalues --   -1.14252  -1.14235  -1.13801  -1.13729  -1.13700
 Alpha  occ. eigenvalues --   -1.13366  -1.13313  -1.13305  -1.13273  -1.13236
 Alpha  occ. eigenvalues --   -1.13212  -1.13104  -1.13093  -1.13047  -1.13043
 Alpha  occ. eigenvalues --   -1.13010  -1.12967  -1.12934  -1.12909  -1.12904
 Alpha  occ. eigenvalues --   -0.18155  -0.13201  -0.11896  -0.11549
 Alpha virt. eigenvalues --   -0.05316  -0.05238  -0.04866  -0.03423  -0.03245
 Alpha virt. eigenvalues --   -0.03041  -0.01506  -0.00835  -0.00654  -0.00026
 Alpha virt. eigenvalues --    0.00224   0.00303   0.00497   0.00678   0.00785

  Beta  occ. eigenvalues --  -38.44744 -38.44101 -38.43793 -38.43724 -38.43625
  Beta  occ. eigenvalues --  -38.43476 -38.43382  -2.20470  -2.19976  -2.19657
  Beta  occ. eigenvalues --   -2.19567  -2.19424  -2.19302  -2.19236  -1.14184
  Beta  occ. eigenvalues --   -1.14150  -1.14127  -1.13735  -1.13642  -1.13619
  Beta  occ. eigenvalues --   -1.13357  -1.13312  -1.13299  -1.13248  -1.13212
  Beta  occ. eigenvalues --   -1.13196  -1.13099  -1.13096  -1.13046  -1.13011
  Beta  occ. eigenvalues --   -1.12946  -1.12932  -1.12906  -1.12895  -1.12890
  Beta  occ. eigenvalues --   -0.17460  -0.12890  -0.11395
  Beta virt. eigenvalues --   -0.07918  -0.05238  -0.05160  -0.04178  -0.03260
  Beta virt. eigenvalues --   -0.02534  -0.02201  -0.01434  -0.00805  -0.00247
  Beta virt. eigenvalues --    0.00054   0.00240   0.00370   0.00623   0.00843

 Mulliken charges and spin densities:
               1          2
     1  Na   0.627528  -0.137028
     2  Na  -0.343118  -0.036655
     3  Na   0.263497  -0.095431
     4  Na   0.097768   0.612423
     5  Na  -0.366037  -0.014062
     6  Na   0.130287   0.238940
     7  Na  -0.409925   0.431814
 Sum of Mulliken charges =  -0.00000   1.00000

 Dipole moment (field-independent basis, Debye):
    X=             -0.0155    Y=             -0.2673    Z=              0.1262  Tot=              0.2960
 Quadrupole moment (field-independent basis, Debye-Ang):
   XX=            -56.7391   YY=            -73.8624   ZZ=            -65.6093
   XY=              0.4840   XZ=             -0.2161   YZ=              0.8879

 Normal termination of Gaussian 16 at Sun Dec  3 14:53:00 2023.
