 Gaussian 16, Revision B.01,
 Gaussian 16:  ES64L-G16RevB.01 20-Dec-2017

 -------------------------
 #P B3LYP/6-311+g(d) force
 -------------------------

 -----
 DPGEN
 -----
 Symbolic Z-matrix:
 Charge =  0 Multiplicity = 2

                         Standard orientation:
 ---------------------------------------------------------------------
 Center     Atomic      Atomic             Coordinates (Angstroms)
 Number     Number       Type             X           Y           Z
 ---------------------------------------------------------------------
      1         11           0       -4.307583    1.066552   -0.310367
      2         11           0       -3.234114   -2.592188   -0.145411
      3         11           0        3.408371    0.473050   -1.198458
      4         11           0        3.767746   -2.053415    0.978830
      5         11           0        1.461384    3.215006    0.029527
      6         11           0       -1.282115    1.595451    1.071820
      7         11           0        0.186311   -1.704456   -0.425940
 ---------------------------------------------------------------------

 SCF Done:  E(UB3LYP) =  -1136.11482024     A.U. after   23 cycles

 The electronic state is 2-A.
 Alpha  occ. eigenvalues --  -38.45170 -38.44594 -38.44436 -38.44375 -38.44141
 Alpha  occ. eigenvalues --  -38.44114 -38.43246  -2.20961  -2.20362  -2.20221
 Alpha  occ. eigenvalues --   -2.20175  -2.19941  -2.19930  -2.19048  -1.14656
 Alpha  occ. eigenvalues --   -1.14619  -1.14588  -1.14039  -1.14017  -1.13996
 Alpha  occ. eigenvalues --   -1.13929  -1.13902  -1.13875  -1.13859  -1.13805
 Alpha  occ. eigenvalues --   -1.13800  -1.13598  -1.13596  -1.13575  -1.13573
 Alpha  occ. eigenvalues --   -1.13558  -1.13536  -1.12711  -1.12706  -1.12695
 Alpha  occ. eigenvalues --   -0.16413  -0.14095  -0.12261  -0.10370
 Alpha virt. eigenvalues --   -0.07163  -0.05749  -0.04210  -0.03464  -0.03042
 Alpha virt. eigenvalues --   -0.02641  -0.02104  -0.01613  -0.00932  -0.00576
 Alpha virt. eigenvalues --   -0.00378  -0.00286   0.00237   0.00281   0.00541

  Beta  occ. eigenvalues --  -38.45164 -38.44571 -38.44400 -38.44375 -38.44096
  Beta  occ. eigenvalues --  -38.44025 -38.43235  -2.20953  -2.20324  -2.20180
  Beta  occ. eigenvalues --   -2.20155  -2.19858  -2.19764  -2.19027  -1.14650
  Beta  occ. eigenvalues --   -1.14617  -1.14562  -1.14016  -1.13977  -1.13962
  Beta  occ. eigenvalues --   -1.13888  -1.13874  -1.13864  -1.13849  -1.13793
  Beta  occ. eigenvalues --   -1.13743  -1.13541  -1.13534  -1.13507  -1.13463
  Beta  occ. eigenvalues --   -1.13457  -1.13429  -1.12697  -1.12694  -1.12678
  Beta  occ. eigenvalues --   -0.16029  -0.13404  -0.11788
  Beta virt. eigenvalues --   -0.07153  -0.06957  -0.05450  -0.03937  -0.03156
  Beta virt. eigenvalues --   -0.02661  -0.02487  -0.01777  -0.01271  -0.00794
  Beta virt. eigenvalues --   -0.00264  -0.00122  -0.00060   0.00304   0.00428

 Mulliken charges and spin densities:
               1          2
     1  Na   0.167793   0.379515
     2  Na  -0.055360   0.013866
     3  Na   0.808266   0.172632
     4  Na   0.489743   0.289243
     5  Na  -0.200829  -0.017164
     6  Na  -0.065082   0.108878
     7  Na  -1.144530   0.053030
 Sum of Mulliken charges =  -0.00000   1.00000

 Dipole moment (field-independent basis, Debye):
    X=              0.4272    Y=             -0.5950    Z=             -0.1828  Tot=              0.7549
 Quadrupole moment (field-independent basis, Debye-Ang):
   XX=            -60.6652   YY=            -71.9327   ZZ=            -66.7548
   XY=              7.3550   XZ=              0.3986   YZ=             -3.8708

 Normal termination of Gaussian 16 at Sun Dec  3 18:57:11 2023.
