 Gaussian 16, Revision B.01,
 Gaussian 16:  ES64L-G16RevB.01 20-Dec-2017

 -------------------------
 #P B3LYP/6-311+g(d) force
 -------------------------

 -----
 DPGEN
 -----
 Symbolic Z-matrix:
 Charge =  0 Multiplicity = 2

                         Standard orientation:
 ---------------------------------------------------------------------
 Center     Atomic      Atomic             Coordinates (Angstroms)
 Number     Number       Type             X           Y           Z
 ---------------------------------------------------------------------
      1         11           0        1.067230   -2.720608    0.274172
      2         11           0       -2.912423   -1.606871   -0.563625
      3         11           0        3.282835   -0.120509   -0.438230
      4         11           0       -0.726430   -0.130284    2.220036
      5         11           0       -2.224912    2.190740   -0.348555
      6         11           0        1.416907    2.399565    0.342718
      7         11           0        0.096794   -0.012032   -1.486517
 ---------------------------------------------------------------------

 SCF Done:  E(UB3LYP) =  -1136.13522264     A.U. after   20 cycles

 The electronic state is 2-A.
 Alpha  occ. eigenvalues --  -38.44368 -38.43910 -38.43890 -38.43764 -38.43529
 Alpha  occ. eigenvalues --  -38.43278 -38.43217  -2.20151  -2.19745  -2.19723
 Alpha  occ. eigenvalues --   -2.19613  -2.19350  -2.19196  -2.19143  -1.13830
 Alpha  occ. eigenvalues --   -1.13798  -1.13787  -1.13426  -1.13414  -1.13412
 Alpha  occ. eigenvalues --   -1.13384  -1.13384  -1.13351  -1.13274  -1.13239
 Alpha  occ. eigenvalues --   -1.13226  -1.13043  -1.13020  -1.12975  -1.12912
 Alpha  occ. eigenvalues --   -1.12856  -1.12825  -1.12805  -1.12785  -1.12768
 Alpha  occ. eigenvalues --   -0.18308  -0.13136  -0.12106  -0.10787
 Alpha virt. eigenvalues --   -0.05886  -0.05364  -0.04435  -0.03241  -0.02876
 Alpha virt. eigenvalues --   -0.02600  -0.01729  -0.01232  -0.00543  -0.00197
 Alpha virt. eigenvalues --   -0.00048   0.00325   0.00710   0.00808   0.00847

  Beta  occ. eigenvalues --  -38.44355 -38.43904 -38.43885 -38.43662 -38.43524
  Beta  occ. eigenvalues --  -38.43272 -38.43172  -2.20128  -2.19739  -2.19715
  Beta  occ. eigenvalues --   -2.19424  -2.19343  -2.19135  -2.19116  -1.13802
  Beta  occ. eigenvalues --   -1.13787  -1.13768  -1.13421  -1.13400  -1.13398
  Beta  occ. eigenvalues --   -1.13380  -1.13372  -1.13341  -1.13147  -1.13110
  Beta  occ. eigenvalues --   -1.13090  -1.13036  -1.12997  -1.12970  -1.12871
  Beta  occ. eigenvalues --   -1.12810  -1.12790  -1.12766  -1.12759  -1.12743
  Beta  occ. eigenvalues --   -0.17631  -0.12885  -0.11909
  Beta virt. eigenvalues --   -0.06874  -0.05840  -0.05303  -0.04329  -0.02597
  Beta virt. eigenvalues --   -0.02124  -0.01621  -0.01564  -0.01193  -0.00518
  Beta virt. eigenvalues --   -0.00225   0.00114   0.00375   0.00793   0.00841

 Mulliken charges and spin densities:
               1          2
     1  Na   0.010291   0.016557
     2  Na   0.031380  -0.001375
     3  Na   0.255146   0.025853
     4  Na  -0.429448   0.668550
     5  Na   0.112445   0.023816
     6  Na   0.078507   0.094382
     7  Na  -0.058321   0.172216
 Sum of Mulliken charges =  -0.00000   1.00000

 Dipole moment (field-independent basis, Debye):
    X=             -0.3345    Y=             -0.1216    Z=              0.0609  Tot=              0.3611
 Quadrupole moment (field-independent basis, Debye-Ang):
   XX=            -54.6896   YY=            -64.5994   ZZ=            -73.8649
   XY=             -0.1304   XZ=              0.9697   YZ=              0.3572

 Normal termination of Gaussian 16 at Fri Dec  8 00:59:55 2023.
