 Gaussian 16, Revision B.01,
 Gaussian 16:  ES64L-G16RevB.01 20-Dec-2017

 -------------------------
 #P B3LYP/6-311+g(d) force
 -------------------------

 -----
 DPGEN
 -----
 Symbolic Z-matrix:
 Charge =  0 Multiplicity = 2

                         Standard orientation:
 ---------------------------------------------------------------------
 Center     Atomic      Atomic             Coordinates (Angstroms)
 Number     Number       Type             X           Y           Z
 ---------------------------------------------------------------------
      1         11           0        0.152819   -0.123908    1.753629
      2         11           0       -1.340430    2.020736    0.234939
      3         11           0       -0.372560   -2.253159    0.155817
      4         11           0       -2.558997   -0.517401   -0.225468
      5         11           0        2.372801   -1.187708   -0.142594
      6         11           0        0.045896    0.074397   -1.744825
      7         11           0        1.700472    1.987043   -0.031499
 ---------------------------------------------------------------------

 SCF Done:  E(UB3LYP) =  -1136.10511198     A.U. after   20 cycles

 The electronic state is 2-A.
 Alpha  occ. eigenvalues --  -38.43812 -38.43654 -38.43567 -38.43449 -38.43444
 Alpha  occ. eigenvalues --  -38.43332 -38.43269  -2.20005  -2.19750  -2.19720
 Alpha  occ. eigenvalues --   -2.19590  -2.19463  -2.19399  -2.19272  -1.13922
 Alpha  occ. eigenvalues --   -1.13705  -1.13639  -1.13582  -1.13544  -1.13469
 Alpha  occ. eigenvalues --   -1.13433  -1.13388  -1.13284  -1.13248  -1.13158
 Alpha  occ. eigenvalues --   -1.13130  -1.13113  -1.13096  -1.13091  -1.13021
 Alpha  occ. eigenvalues --   -1.13017  -1.12992  -1.12921  -1.12914  -1.12843
 Alpha  occ. eigenvalues --   -0.21069  -0.13564  -0.13118  -0.11855
 Alpha virt. eigenvalues --   -0.04960  -0.04618  -0.04260  -0.03446  -0.03244
 Alpha virt. eigenvalues --   -0.02738  -0.01025  -0.00702  -0.00045   0.00337
 Alpha virt. eigenvalues --    0.00595   0.00694   0.00998   0.01090   0.01112

  Beta  occ. eigenvalues --  -38.43720 -38.43643 -38.43479 -38.43435 -38.43433
  Beta  occ. eigenvalues --  -38.43319 -38.43261  -2.19841  -2.19709  -2.19589
  Beta  occ. eigenvalues --   -2.19564  -2.19451  -2.19382  -2.19262  -1.13834
  Beta  occ. eigenvalues --   -1.13621  -1.13574  -1.13524  -1.13485  -1.13387
  Beta  occ. eigenvalues --   -1.13337  -1.13321  -1.13215  -1.13211  -1.13112
  Beta  occ. eigenvalues --   -1.13099  -1.13082  -1.13066  -1.13042  -1.13011
  Beta  occ. eigenvalues --   -1.12992  -1.12953  -1.12912  -1.12871  -1.12840
  Beta  occ. eigenvalues --   -0.20267  -0.13220  -0.12765
  Beta virt. eigenvalues --   -0.07716  -0.04993  -0.04609  -0.04254  -0.02521
  Beta virt. eigenvalues --   -0.02321  -0.01625  -0.00958  -0.00654   0.00088
  Beta virt. eigenvalues --    0.00351   0.00551   0.00650   0.01042   0.01082

 Mulliken charges and spin densities:
               1          2
     1  Na  -1.123760   0.427232
     2  Na   0.516078   0.051542
     3  Na   0.885727   0.114337
     4  Na   0.189271   0.004167
     5  Na   0.317434  -0.049768
     6  Na  -1.088012   0.496987
     7  Na   0.303262  -0.044497
 Sum of Mulliken charges =  -0.00000   1.00000

 Dipole moment (field-independent basis, Debye):
    X=              0.2332    Y=              0.1836    Z=             -0.0687  Tot=              0.3046
 Quadrupole moment (field-independent basis, Debye-Ang):
   XX=            -60.4260   YY=            -66.0776   ZZ=            -70.1461
   XY=              0.0663   XZ=             -0.1552   YZ=              0.5105

 Normal termination of Gaussian 16 at Fri Dec  8 19:26:28 2023.
