 Gaussian 16, Revision B.01,
 Gaussian 16:  ES64L-G16RevB.01 20-Dec-2017

 -------------------------
 #P B3LYP/6-311+g(d) force
 -------------------------

 -----
 DPGEN
 -----
 Symbolic Z-matrix:
 Charge =  0 Multiplicity = 2

                         Standard orientation:
 ---------------------------------------------------------------------
 Center     Atomic      Atomic             Coordinates (Angstroms)
 Number     Number       Type             X           Y           Z
 ---------------------------------------------------------------------
      1         11           0        1.003334    3.177550   -0.227246
      2         11           0       -4.779564   -0.232883    1.106686
      3         11           0        0.389483   -2.596574   -0.606986
      4         11           0       -3.072477   -2.115057   -0.523761
      5         11           0       -2.118219    2.756935   -0.478884
      6         11           0        4.382079    1.096414    0.358067
      7         11           0        4.195364   -2.086386    0.372123
 ---------------------------------------------------------------------

 SCF Done:  E(UB3LYP) =  -1136.10766412     A.U. after   21 cycles

 The electronic state is 2-A.
 Alpha  occ. eigenvalues --  -38.45066 -38.44835 -38.44655 -38.44631 -38.44449
 Alpha  occ. eigenvalues --  -38.44255 -38.43610  -2.20854  -2.20611  -2.20429
 Alpha  occ. eigenvalues --   -2.20415  -2.20282  -2.20076  -2.19394  -1.14525
 Alpha  occ. eigenvalues --   -1.14514  -1.14493  -1.14281  -1.14261  -1.14258
 Alpha  occ. eigenvalues --   -1.14103  -1.14099  -1.14069  -1.14062  -1.14058
 Alpha  occ. eigenvalues --   -1.14030  -1.14009  -1.13912  -1.13900  -1.13741
 Alpha  occ. eigenvalues --   -1.13733  -1.13702  -1.13063  -1.13060  -1.13039
 Alpha  occ. eigenvalues --   -0.15630  -0.14206  -0.12836  -0.11211
 Alpha virt. eigenvalues --   -0.07353  -0.05157  -0.04333  -0.03623  -0.03388
 Alpha virt. eigenvalues --   -0.02600  -0.01997  -0.01719  -0.01466  -0.00771
 Alpha virt. eigenvalues --   -0.00618  -0.00260   0.00015   0.00386   0.00579

  Beta  occ. eigenvalues --  -38.45025 -38.44841 -38.44640 -38.44536 -38.44377
  Beta  occ. eigenvalues --  -38.44251 -38.43605  -2.20780  -2.20625  -2.20405
  Beta  occ. eigenvalues --   -2.20239  -2.20148  -2.20077  -2.19387  -1.14479
  Beta  occ. eigenvalues --   -1.14464  -1.14441  -1.14293  -1.14273  -1.14241
  Beta  occ. eigenvalues --   -1.14085  -1.14083  -1.14035  -1.13950  -1.13944
  Beta  occ. eigenvalues --   -1.13937  -1.13903  -1.13822  -1.13810  -1.13747
  Beta  occ. eigenvalues --   -1.13733  -1.13639  -1.13056  -1.13055  -1.13028
  Beta  occ. eigenvalues --   -0.15002  -0.13628  -0.12268
  Beta virt. eigenvalues --   -0.07912  -0.07341  -0.04591  -0.04052  -0.03410
  Beta virt. eigenvalues --   -0.02942  -0.02409  -0.01938  -0.01584  -0.01075
  Beta virt. eigenvalues --   -0.00646  -0.00321   0.00079   0.00236   0.00374

 Mulliken charges and spin densities:
               1          2
     1  Na   0.274152   0.021021
     2  Na   0.041948   0.290782
     3  Na  -0.192577   0.456633
     4  Na  -0.323676  -0.058235
     5  Na  -0.185797   0.032094
     6  Na  -0.334411   0.215578
     7  Na   0.720362   0.042128
 Sum of Mulliken charges =  -0.00000   1.00000

 Dipole moment (field-independent basis, Debye):
    X=              0.4716    Y=             -0.2042    Z=              0.3255  Tot=              0.6083
 Quadrupole moment (field-independent basis, Debye-Ang):
   XX=            -57.0826   YY=            -69.1843   ZZ=            -72.4850
   XY=             -3.0993   XZ=             -0.2876   YZ=              0.8451

 Normal termination of Gaussian 16 at Sun Dec  3 12:59:25 2023.
