 Gaussian 16, Revision B.01,
 Gaussian 16:  ES64L-G16RevB.01 20-Dec-2017

 -------------------------
 #P B3LYP/6-311+g(d) force
 -------------------------

 -----
 DPGEN
 -----
 Symbolic Z-matrix:
 Charge =  0 Multiplicity = 2

                         Standard orientation:
 ---------------------------------------------------------------------
 Center     Atomic      Atomic             Coordinates (Angstroms)
 Number     Number       Type             X           Y           Z
 ---------------------------------------------------------------------
      1         11           0        1.390380   -2.285529   -0.714314
      2         11           0        0.951428    1.943810   -0.827711
      3         11           0        3.474424   -0.031189    0.484590
      4         11           0        0.045527    0.251777    2.086401
      5         11           0       -1.938930    2.539484   -0.059786
      6         11           0       -2.981715   -1.996076    0.502799
      7         11           0       -0.941114   -0.422278   -1.471980
 ---------------------------------------------------------------------

 SCF Done:  E(UB3LYP) =  -1136.12726284     A.U. after   20 cycles

 The electronic state is 2-A.
 Alpha  occ. eigenvalues --  -38.44239 -38.44135 -38.44098 -38.43985 -38.43752
 Alpha  occ. eigenvalues --  -38.43179 -38.42993  -2.20090  -2.19923  -2.19913
 Alpha  occ. eigenvalues --   -2.19839  -2.19614  -2.19140  -2.19001  -1.13767
 Alpha  occ. eigenvalues --   -1.13722  -1.13702  -1.13605  -1.13595  -1.13589
 Alpha  occ. eigenvalues --   -1.13571  -1.13564  -1.13561  -1.13553  -1.13484
 Alpha  occ. eigenvalues --   -1.13430  -1.13324  -1.13267  -1.13253  -1.12897
 Alpha  occ. eigenvalues --   -1.12787  -1.12741  -1.12681  -1.12634  -1.12601
 Alpha  occ. eigenvalues --   -0.18585  -0.13043  -0.12164  -0.11052
 Alpha virt. eigenvalues --   -0.06018  -0.05383  -0.04004  -0.03346  -0.02943
 Alpha virt. eigenvalues --   -0.02731  -0.01783  -0.01309  -0.00391   0.00063
 Alpha virt. eigenvalues --    0.00085   0.00291   0.00616   0.00733   0.00824

  Beta  occ. eigenvalues --  -38.44152 -38.44130 -38.44095 -38.43964 -38.43750
  Beta  occ. eigenvalues --  -38.43155 -38.42941  -2.19929  -2.19918  -2.19904
  Beta  occ. eigenvalues --   -2.19803  -2.19614  -2.19101  -2.18910  -1.13660
  Beta  occ. eigenvalues --   -1.13611  -1.13602  -1.13589  -1.13587  -1.13579
  Beta  occ. eigenvalues --   -1.13552  -1.13549  -1.13546  -1.13531  -1.13448
  Beta  occ. eigenvalues --   -1.13412  -1.13321  -1.13264  -1.13240  -1.12858
  Beta  occ. eigenvalues --   -1.12738  -1.12716  -1.12623  -1.12558  -1.12530
  Beta  occ. eigenvalues --   -0.17824  -0.12864  -0.11944
  Beta virt. eigenvalues --   -0.07134  -0.05815  -0.05336  -0.03916  -0.02761
  Beta virt. eigenvalues --   -0.02283  -0.01706  -0.01600  -0.01242  -0.00221
  Beta virt. eigenvalues --    0.00055   0.00137   0.00316   0.00732   0.00793

 Mulliken charges and spin densities:
               1          2
     1  Na  -0.142217   0.135092
     2  Na   0.000326   0.244514
     3  Na   0.334649   0.007339
     4  Na  -0.607447   0.699431
     5  Na   0.256690  -0.015592
     6  Na  -0.086787   0.072264
     7  Na   0.244786  -0.143050
 Sum of Mulliken charges =  -0.00000   1.00000

 Dipole moment (field-independent basis, Debye):
    X=             -0.0158    Y=              0.0297    Z=              0.5409  Tot=              0.5420
 Quadrupole moment (field-independent basis, Debye-Ang):
   XX=            -54.4148   YY=            -66.6281   ZZ=            -72.3550
   XY=             -1.3791   XZ=             -1.3314   YZ=             -0.6963

 Normal termination of Gaussian 16 at Fri Dec  8 04:29:29 2023.
