 Gaussian 16, Revision B.01,
 Gaussian 16:  ES64L-G16RevB.01 20-Dec-2017

 -------------------------
 #P B3LYP/6-311+g(d) force
 -------------------------

 -----
 DPGEN
 -----
 Symbolic Z-matrix:
 Charge =  0 Multiplicity = 2

                         Standard orientation:
 ---------------------------------------------------------------------
 Center     Atomic      Atomic             Coordinates (Angstroms)
 Number     Number       Type             X           Y           Z
 ---------------------------------------------------------------------
      1         11           0        0.066592    1.679177    0.367407
      2         11           0        2.447566    3.837943    0.087010
      3         11           0        2.852550    0.224636   -0.998625
      4         11           0        0.669106   -1.652281    1.493136
      5         11           0       -2.266583   -1.008379    0.548212
      6         11           0        2.776617   -3.378359   -0.745011
      7         11           0       -6.545848    0.297263   -0.752128
 ---------------------------------------------------------------------

 SCF Done:  E(UB3LYP) =  -1136.11795685     A.U. after   20 cycles

 The electronic state is 2-A.
 Alpha  occ. eigenvalues --  -38.45485 -38.44381 -38.44196 -38.44049 -38.43715
 Alpha  occ. eigenvalues --  -38.43517 -38.43347  -2.21263  -2.20188  -2.19996
 Alpha  occ. eigenvalues --   -2.19921  -2.19594  -2.19306  -2.19163  -1.14884
 Alpha  occ. eigenvalues --   -1.14884  -1.14865  -1.13910  -1.13891  -1.13754
 Alpha  occ. eigenvalues --   -1.13678  -1.13658  -1.13627  -1.13622  -1.13603
 Alpha  occ. eigenvalues --   -1.13522  -1.13304  -1.13294  -1.13167  -1.12974
 Alpha  occ. eigenvalues --   -1.12969  -1.12932  -1.12837  -1.12830  -1.12803
 Alpha  occ. eigenvalues --   -0.16831  -0.13174  -0.12641  -0.11451
 Alpha virt. eigenvalues --   -0.06051  -0.05420  -0.04940  -0.03515  -0.02453
 Alpha virt. eigenvalues --   -0.02265  -0.02200  -0.01844  -0.01529  -0.01044
 Alpha virt. eigenvalues --   -0.00466  -0.00162   0.00254   0.00352   0.00510

  Beta  occ. eigenvalues --  -38.45320 -38.44374 -38.44195 -38.44034 -38.43708
  Beta  occ. eigenvalues --  -38.43507 -38.43353  -2.20956  -2.20174  -2.19994
  Beta  occ. eigenvalues --   -2.19894  -2.19583  -2.19287  -2.19179  -1.14675
  Beta  occ. eigenvalues --   -1.14675  -1.14657  -1.13899  -1.13883  -1.13742
  Beta  occ. eigenvalues --   -1.13676  -1.13657  -1.13620  -1.13611  -1.13583
  Beta  occ. eigenvalues --   -1.13497  -1.13298  -1.13287  -1.13155  -1.12961
  Beta  occ. eigenvalues --   -1.12955  -1.12920  -1.12849  -1.12842  -1.12793
  Beta  occ. eigenvalues --   -0.16654  -0.12769  -0.11877
  Beta virt. eigenvalues --   -0.07408  -0.06014  -0.05054  -0.04810  -0.03344
  Beta virt. eigenvalues --   -0.02245  -0.01996  -0.01805  -0.01364  -0.00879
  Beta virt. eigenvalues --   -0.00548  -0.00093  -0.00008   0.00369   0.00472

 Mulliken charges and spin densities:
               1          2
     1  Na  -1.337304  -0.031161
     2  Na   0.992641   0.022985
     3  Na  -0.371326   0.080447
     4  Na   1.030227   0.106740
     5  Na  -0.569004   0.012609
     6  Na   0.302808   0.046923
     7  Na  -0.048042   0.761458
 Sum of Mulliken charges =  -0.00000   1.00000

 Dipole moment (field-independent basis, Debye):
    X=              0.6973    Y=              0.5641    Z=             -0.0401  Tot=              0.8978
 Quadrupole moment (field-independent basis, Debye-Ang):
   XX=            -69.4118   YY=            -59.0260   ZZ=            -69.9953
   XY=              3.3493   XZ=              1.1335   YZ=              0.4725

 Normal termination of Gaussian 16 at Tue Nov 28 19:22:26 2023.
