 Gaussian 16, Revision B.01,
 Gaussian 16:  ES64L-G16RevB.01 20-Dec-2017

 -------------------------
 #P B3LYP/6-311+g(d) force
 -------------------------

 -----
 DPGEN
 -----
 Symbolic Z-matrix:
 Charge =  0 Multiplicity = 2

                         Standard orientation:
 ---------------------------------------------------------------------
 Center     Atomic      Atomic             Coordinates (Angstroms)
 Number     Number       Type             X           Y           Z
 ---------------------------------------------------------------------
      1         11           0       -2.997958    0.000324   -0.145668
      2         11           0       -1.369487    2.501706    0.343111
      3         11           0        2.728710   -1.493933   -0.348695
      4         11           0        0.100385    0.124710   -1.795893
      5         11           0       -1.344547   -2.563553    0.091848
      6         11           0        0.659684   -0.552175    1.814024
      7         11           0        2.223213    1.982922    0.041273
 ---------------------------------------------------------------------

 SCF Done:  E(UB3LYP) =  -1136.13385800     A.U. after   19 cycles

 The electronic state is 2-A.
 Alpha  occ. eigenvalues --  -38.44229 -38.43912 -38.43898 -38.43444 -38.43356
 Alpha  occ. eigenvalues --  -38.43332 -38.43306  -2.20091  -2.19822  -2.19753
 Alpha  occ. eigenvalues --   -2.19321  -2.19300  -2.19287  -2.19175  -1.13789
 Alpha  occ. eigenvalues --   -1.13759  -1.13715  -1.13542  -1.13501  -1.13463
 Alpha  occ. eigenvalues --   -1.13436  -1.13428  -1.13377  -1.13027  -1.12985
 Alpha  occ. eigenvalues --   -1.12974  -1.12958  -1.12947  -1.12932  -1.12917
 Alpha  occ. eigenvalues --   -1.12910  -1.12896  -1.12851  -1.12821  -1.12807
 Alpha  occ. eigenvalues --   -0.18931  -0.13558  -0.12335  -0.10753
 Alpha virt. eigenvalues --   -0.05768  -0.05442  -0.04349  -0.03456  -0.02843
 Alpha virt. eigenvalues --   -0.02420  -0.01531  -0.01136  -0.00301  -0.00145
 Alpha virt. eigenvalues --   -0.00003   0.00368   0.00792   0.00855   0.00929

  Beta  occ. eigenvalues --  -38.44219 -38.43910 -38.43891 -38.43440 -38.43301
  Beta  occ. eigenvalues --  -38.43282 -38.43254  -2.20077  -2.19821  -2.19744
  Beta  occ. eigenvalues --   -2.19316  -2.19169  -2.19161  -2.19144  -1.13776
  Beta  occ. eigenvalues --   -1.13722  -1.13709  -1.13547  -1.13501  -1.13440
  Beta  occ. eigenvalues --   -1.13431  -1.13395  -1.13374  -1.13006  -1.12965
  Beta  occ. eigenvalues --   -1.12947  -1.12885  -1.12861  -1.12849  -1.12837
  Beta  occ. eigenvalues --   -1.12824  -1.12809  -1.12808  -1.12796  -1.12784
  Beta  occ. eigenvalues --   -0.18208  -0.13316  -0.12098
  Beta virt. eigenvalues --   -0.06855  -0.05738  -0.05395  -0.04288  -0.02657
  Beta virt. eigenvalues --   -0.02086  -0.01450  -0.01387  -0.01077  -0.00341
  Beta virt. eigenvalues --   -0.00181   0.00141   0.00400   0.00841   0.00879

 Mulliken charges and spin densities:
               1          2
     1  Na   0.017763   0.014851
     2  Na  -0.039374  -0.017696
     3  Na   0.277271  -0.123894
     4  Na  -0.257711   0.565261
     5  Na   0.225187  -0.086850
     6  Na  -0.339910   0.656069
     7  Na   0.116774  -0.007740
 Sum of Mulliken charges =  -0.00000   1.00000

 Dipole moment (field-independent basis, Debye):
    X=              0.5049    Y=             -0.0995    Z=             -0.0458  Tot=              0.5166
 Quadrupole moment (field-independent basis, Debye-Ang):
   XX=            -56.0291   YY=            -64.3285   ZZ=            -74.1536
   XY=              0.0241   XZ=             -0.8683   YZ=              1.4912

 Normal termination of Gaussian 16 at Thu Dec  7 19:01:51 2023.
