 Gaussian 16, Revision B.01,
 Gaussian 16:  ES64L-G16RevB.01 20-Dec-2017

 -------------------------
 #P B3LYP/6-311+g(d) force
 -------------------------

 -----
 DPGEN
 -----
 Symbolic Z-matrix:
 Charge =  0 Multiplicity = 2

                         Standard orientation:
 ---------------------------------------------------------------------
 Center     Atomic      Atomic             Coordinates (Angstroms)
 Number     Number       Type             X           Y           Z
 ---------------------------------------------------------------------
      1         11           0        2.001040   -1.216535   -0.917908
      2         11           0       -1.827650   -2.727612    0.613906
      3         11           0       -2.064843    0.047690    2.285352
      4         11           0       -1.263812   -0.753916   -2.064631
      5         11           0        0.814821    2.247822    0.586666
      6         11           0        4.552681    0.011578    0.513935
      7         11           0       -2.212238    2.390974   -1.017321
 ---------------------------------------------------------------------

 SCF Done:  E(UB3LYP) =  -1136.12204166     A.U. after   21 cycles

 The electronic state is 2-A.
 Alpha  occ. eigenvalues --  -38.44903 -38.44415 -38.44382 -38.44034 -38.43879
 Alpha  occ. eigenvalues --  -38.43772 -38.43473  -2.20721  -2.20197  -2.20150
 Alpha  occ. eigenvalues --   -2.19900  -2.19700  -2.19586  -2.19296  -1.14385
 Alpha  occ. eigenvalues --   -1.14367  -1.14322  -1.13878  -1.13857  -1.13847
 Alpha  occ. eigenvalues --   -1.13841  -1.13833  -1.13749  -1.13581  -1.13541
 Alpha  occ. eigenvalues --   -1.13519  -1.13389  -1.13374  -1.13308  -1.13256
 Alpha  occ. eigenvalues --   -1.13245  -1.13212  -1.12977  -1.12961  -1.12930
 Alpha  occ. eigenvalues --   -0.17297  -0.13221  -0.11971  -0.11669
 Alpha virt. eigenvalues --   -0.06468  -0.05139  -0.04295  -0.03555  -0.03418
 Alpha virt. eigenvalues --   -0.02820  -0.02093  -0.01182  -0.00708  -0.00349
 Alpha virt. eigenvalues --    0.00038   0.00086   0.00277   0.00625   0.00778

  Beta  occ. eigenvalues --  -38.44811 -38.44414 -38.44379 -38.43961 -38.43868
  Beta  occ. eigenvalues --  -38.43755 -38.43465  -2.20551  -2.20195  -2.20144
  Beta  occ. eigenvalues --   -2.19766  -2.19681  -2.19556  -2.19287  -1.14269
  Beta  occ. eigenvalues --   -1.14255  -1.14198  -1.13878  -1.13856  -1.13841
  Beta  occ. eigenvalues --   -1.13830  -1.13829  -1.13748  -1.13487  -1.13456
  Beta  occ. eigenvalues --   -1.13423  -1.13370  -1.13360  -1.13288  -1.13230
  Beta  occ. eigenvalues --   -1.13221  -1.13189  -1.12965  -1.12954  -1.12906
  Beta  occ. eigenvalues --   -0.16570  -0.12964  -0.11783
  Beta virt. eigenvalues --   -0.07874  -0.06152  -0.04852  -0.04015  -0.03035
  Beta virt. eigenvalues --   -0.02900  -0.02278  -0.01941  -0.01077  -0.00382
  Beta virt. eigenvalues --   -0.00254   0.00107   0.00263   0.00387   0.00758

 Mulliken charges and spin densities:
               1          2
     1  Na  -0.375770  -0.002986
     2  Na   0.305525   0.035686
     3  Na  -0.042124   0.395390
     4  Na  -0.152713   0.378630
     5  Na  -0.533437   0.135872
     6  Na   0.475886  -0.005631
     7  Na   0.322633   0.063039
 Sum of Mulliken charges =  -0.00000   1.00000

 Dipole moment (field-independent basis, Debye):
    X=              0.2736    Y=              0.3616    Z=              0.4799  Tot=              0.6602
 Quadrupole moment (field-independent basis, Debye-Ang):
   XX=            -57.4378   YY=            -71.1750   ZZ=            -67.8881
   XY=             -0.1435   XZ=              3.6644   YZ=              0.3164

 Normal termination of Gaussian 16 at Sun Dec  3 22:31:05 2023.
