 Gaussian 16, Revision B.01,
 Gaussian 16:  ES64L-G16RevB.01 20-Dec-2017

 -------------------------
 #P B3LYP/6-311+g(d) force
 -------------------------

 -----
 DPGEN
 -----
 Symbolic Z-matrix:
 Charge =  0 Multiplicity = 2

                         Standard orientation:
 ---------------------------------------------------------------------
 Center     Atomic      Atomic             Coordinates (Angstroms)
 Number     Number       Type             X           Y           Z
 ---------------------------------------------------------------------
      1         11           0        4.451970   -0.427069    0.145705
      2         11           0        1.285027   -2.049228    0.561168
      3         11           0       -1.770718   -0.010934    2.325577
      4         11           0        1.579915    2.104844   -0.360055
      5         11           0       -0.731622   -0.510927   -2.183249
      6         11           0       -1.551672    2.180166    0.072263
      7         11           0       -3.262900   -1.286853   -0.561408
 ---------------------------------------------------------------------

 SCF Done:  E(UB3LYP) =  -1136.11811285     A.U. after   23 cycles

 The electronic state is 2-A.
 Alpha  occ. eigenvalues --  -38.45099 -38.44755 -38.44580 -38.44437 -38.44424
 Alpha  occ. eigenvalues --  -38.43142 -38.42738  -2.20845  -2.20615  -2.20458
 Alpha  occ. eigenvalues --   -2.20258  -2.20197  -2.18958  -2.18640  -1.14520
 Alpha  occ. eigenvalues --   -1.14506  -1.14477  -1.14274  -1.14253  -1.14222
 Alpha  occ. eigenvalues --   -1.14165  -1.14105  -1.14065  -1.13919  -1.13901
 Alpha  occ. eigenvalues --   -1.13892  -1.13888  -1.13884  -1.13797  -1.12658
 Alpha  occ. eigenvalues --   -1.12636  -1.12590  -1.12331  -1.12294  -1.12264
 Alpha  occ. eigenvalues --   -0.17906  -0.13440  -0.11770  -0.11340
 Alpha virt. eigenvalues --   -0.07069  -0.05033  -0.04200  -0.03423  -0.03294
 Alpha virt. eigenvalues --   -0.02798  -0.02460  -0.01096  -0.00660  -0.00245
 Alpha virt. eigenvalues --   -0.00064   0.00019   0.00131   0.00775   0.00787

  Beta  occ. eigenvalues --  -38.45102 -38.44657 -38.44493 -38.44430 -38.44413
  Beta  occ. eigenvalues --  -38.43140 -38.42730  -2.20850  -2.20433  -2.20298
  Beta  occ. eigenvalues --   -2.20244  -2.20185  -2.18955  -2.18630  -1.14523
  Beta  occ. eigenvalues --   -1.14510  -1.14480  -1.14151  -1.14127  -1.14098
  Beta  occ. eigenvalues --   -1.14072  -1.13997  -1.13952  -1.13899  -1.13878
  Beta  occ. eigenvalues --   -1.13877  -1.13871  -1.13852  -1.13792  -1.12657
  Beta  occ. eigenvalues --   -1.12626  -1.12590  -1.12316  -1.12268  -1.12258
  Beta  occ. eigenvalues --   -0.17125  -0.13259  -0.11164
  Beta virt. eigenvalues --   -0.07793  -0.06899  -0.04917  -0.03621  -0.03045
  Beta virt. eigenvalues --   -0.02686  -0.02342  -0.02058  -0.01072  -0.00360
  Beta virt. eigenvalues --   -0.00197   0.00061   0.00133   0.00257   0.00834

 Mulliken charges and spin densities:
               1          2
     1  Na   0.333015  -0.081417
     2  Na  -0.415641   0.028023
     3  Na   0.202411   0.615707
     4  Na  -0.249537  -0.044758
     5  Na   0.068552   0.659968
     6  Na  -0.066767  -0.073677
     7  Na   0.127966  -0.103847
 Sum of Mulliken charges =  -0.00000   1.00000

 Dipole moment (field-independent basis, Debye):
    X=              0.5098    Y=             -0.5164    Z=              0.0933  Tot=              0.7316
 Quadrupole moment (field-independent basis, Debye-Ang):
   XX=            -50.1067   YY=            -77.5874   ZZ=            -68.4950
   XY=              1.5267   XZ=             -0.7411   YZ=             -0.9321

 Normal termination of Gaussian 16 at Sun Dec  3 22:44:03 2023.
