 Gaussian 16, Revision B.01,
 Gaussian 16:  ES64L-G16RevB.01 20-Dec-2017

 -------------------------
 #P B3LYP/6-311+g(d) force
 -------------------------

 -----
 DPGEN
 -----
 Symbolic Z-matrix:
 Charge =  0 Multiplicity = 2

                         Standard orientation:
 ---------------------------------------------------------------------
 Center     Atomic      Atomic             Coordinates (Angstroms)
 Number     Number       Type             X           Y           Z
 ---------------------------------------------------------------------
      1         11           0       -2.488509    2.745769    0.936535
      2         11           0        4.935688    1.892616   -1.111034
      3         11           0        4.306804   -1.797405    1.965083
      4         11           0        2.585196   -0.487683   -0.970753
      5         11           0       -0.955535   -0.093717   -0.057896
      6         11           0       -3.080166   -2.509701   -1.005511
      7         11           0       -5.303478    0.250121    0.243577
 ---------------------------------------------------------------------

 SCF Done:  E(UB3LYP) =  -1136.08582652     A.U. after   46 cycles

 The electronic state is 2-A.
 Alpha  occ. eigenvalues --  -38.47261 -38.45239 -38.44737 -38.44736 -38.43722
 Alpha  occ. eigenvalues --  -38.43698 -38.43415  -2.22943  -2.21004  -2.20548
 Alpha  occ. eigenvalues --   -2.20520  -2.19573  -2.19470  -2.19203  -1.16633
 Alpha  occ. eigenvalues --   -1.16618  -1.16582  -1.14680  -1.14629  -1.14622
 Alpha  occ. eigenvalues --   -1.14234  -1.14228  -1.14203  -1.14166  -1.14161
 Alpha  occ. eigenvalues --   -1.14121  -1.13263  -1.13244  -1.13210  -1.13146
 Alpha  occ. eigenvalues --   -1.13130  -1.13109  -1.12868  -1.12863  -1.12840
 Alpha  occ. eigenvalues --   -0.15945  -0.14438  -0.10870  -0.10524
 Alpha virt. eigenvalues --   -0.08691  -0.05985  -0.04016  -0.03368  -0.03276
 Alpha virt. eigenvalues --   -0.02929  -0.02419  -0.01657  -0.01578  -0.00783
 Alpha virt. eigenvalues --   -0.00475  -0.00362  -0.00066  -0.00057   0.00320

  Beta  occ. eigenvalues --  -38.47295 -38.45168 -38.44715 -38.44672 -38.43706
  Beta  occ. eigenvalues --  -38.43669 -38.43388  -2.23007  -2.20872  -2.20515
  Beta  occ. eigenvalues --   -2.20400  -2.19486  -2.19478  -2.19155  -1.16678
  Beta  occ. eigenvalues --   -1.16657  -1.16628  -1.14591  -1.14544  -1.14522
  Beta  occ. eigenvalues --   -1.14213  -1.14194  -1.14153  -1.14085  -1.14083
  Beta  occ. eigenvalues --   -1.14044  -1.13210  -1.13199  -1.13158  -1.13129
  Beta  occ. eigenvalues --   -1.13115  -1.13100  -1.12835  -1.12825  -1.12804
  Beta  occ. eigenvalues --   -0.15274  -0.14069  -0.10190
  Beta virt. eigenvalues --   -0.08791  -0.07331  -0.05283  -0.03739  -0.03235
  Beta virt. eigenvalues --   -0.03020  -0.02731  -0.02020  -0.01547  -0.01164
  Beta virt. eigenvalues --   -0.00637  -0.00318  -0.00289  -0.00011   0.00050

 Mulliken charges and spin densities:
               1          2
     1  Na   0.591518  -0.021516
     2  Na   0.137182   0.370269
     3  Na   0.332018  -0.111155
     4  Na  -0.758449  -0.155233
     5  Na  -1.082129   0.386534
     6  Na   0.465718   0.152824
     7  Na   0.314143   0.378277
 Sum of Mulliken charges =  -0.00000   1.00000

 Dipole moment (field-independent basis, Debye):
    X=              2.0015    Y=             -0.6028    Z=              1.2605  Tot=              2.4409
 Quadrupole moment (field-independent basis, Debye-Ang):
   XX=            -53.9472   YY=            -71.9477   ZZ=            -67.5747
   XY=             -5.9912   XZ=              6.4351   YZ=             -2.5310

 Normal termination of Gaussian 16 at Fri Dec  8 20:24:48 2023.
