 Gaussian 16, Revision B.01,
 Gaussian 16:  ES64L-G16RevB.01 20-Dec-2017

 -------------------------
 #P B3LYP/6-311+g(d) force
 -------------------------

 -----
 DPGEN
 -----
 Symbolic Z-matrix:
 Charge =  0 Multiplicity = 2

                         Standard orientation:
 ---------------------------------------------------------------------
 Center     Atomic      Atomic             Coordinates (Angstroms)
 Number     Number       Type             X           Y           Z
 ---------------------------------------------------------------------
      1         11           0       -0.690893   -1.887652   -1.995362
      2         11           0        0.035829    0.287647    2.210402
      3         11           0        0.280110   -2.762316    0.674835
      4         11           0        2.325858    2.590088   -0.342015
      5         11           0       -1.890810    2.491165   -0.703990
      6         11           0       -3.631913   -0.099020    0.380373
      7         11           0        3.571819   -0.619911   -0.224244
 ---------------------------------------------------------------------

 SCF Done:  E(UB3LYP) =  -1136.11689464     A.U. after   19 cycles

 The electronic state is 2-A.
 Alpha  occ. eigenvalues --  -38.45084 -38.45046 -38.44281 -38.44220 -38.44162
 Alpha  occ. eigenvalues --  -38.43864 -38.43324  -2.20830  -2.20809  -2.20099
 Alpha  occ. eigenvalues --   -2.19991  -2.19987  -2.19626  -2.19184  -1.14511
 Alpha  occ. eigenvalues --   -1.14482  -1.14482  -1.14471  -1.14467  -1.14453
 Alpha  occ. eigenvalues --   -1.13761  -1.13728  -1.13713  -1.13701  -1.13664
 Alpha  occ. eigenvalues --   -1.13650  -1.13631  -1.13625  -1.13594  -1.13303
 Alpha  occ. eigenvalues --   -1.13284  -1.13269  -1.12872  -1.12843  -1.12809
 Alpha  occ. eigenvalues --   -0.16941  -0.12931  -0.12250  -0.10740
 Alpha virt. eigenvalues --   -0.06675  -0.05588  -0.04471  -0.03431  -0.03306
 Alpha virt. eigenvalues --   -0.02636  -0.02127  -0.01214  -0.00777  -0.00651
 Alpha virt. eigenvalues --   -0.00133   0.00172   0.00359   0.00613   0.00713

  Beta  occ. eigenvalues --  -38.45079 -38.45049 -38.44213 -38.44177 -38.44107
  Beta  occ. eigenvalues --  -38.43860 -38.43313  -2.20821  -2.20815  -2.19979
  Beta  occ. eigenvalues --   -2.19909  -2.19883  -2.19618  -2.19171  -1.14497
  Beta  occ. eigenvalues --   -1.14481  -1.14477  -1.14466  -1.14461  -1.14459
  Beta  occ. eigenvalues --   -1.13652  -1.13641  -1.13637  -1.13633  -1.13624
  Beta  occ. eigenvalues --   -1.13587  -1.13582  -1.13552  -1.13521  -1.13294
  Beta  occ. eigenvalues --   -1.13279  -1.13263  -1.12861  -1.12809  -1.12792
  Beta  occ. eigenvalues --   -0.16268  -0.12790  -0.12014
  Beta virt. eigenvalues --   -0.06973  -0.06576  -0.05517  -0.04143  -0.02847
  Beta virt. eigenvalues --   -0.02744  -0.02125  -0.01726  -0.01186  -0.00744
  Beta virt. eigenvalues --   -0.00647   0.00080   0.00370   0.00470   0.00704

 Mulliken charges and spin densities:
               1          2
     1  Na  -0.006497   0.342233
     2  Na   0.199890   0.633193
     3  Na   0.060501  -0.032330
     4  Na  -0.051468   0.033563
     5  Na  -0.286089   0.021188
     6  Na   0.140952   0.008103
     7  Na  -0.057289  -0.005950
 Sum of Mulliken charges =  -0.00000   1.00000

 Dipole moment (field-independent basis, Debye):
    X=             -0.2803    Y=             -0.0155    Z=             -0.1273  Tot=              0.3082
 Quadrupole moment (field-independent basis, Debye-Ang):
   XX=            -57.8820   YY=            -68.6723   ZZ=            -71.9538
   XY=             -1.2605   XZ=             -1.2149   YZ=             -2.2085

 Normal termination of Gaussian 16 at Mon Dec  4 00:54:15 2023.
