 Gaussian 16, Revision B.01,
 Gaussian 16:  ES64L-G16RevB.01 20-Dec-2017

 -------------------------
 #P B3LYP/6-311+g(d) force
 -------------------------

 -----
 DPGEN
 -----
 Symbolic Z-matrix:
 Charge =  0 Multiplicity = 2

                         Standard orientation:
 ---------------------------------------------------------------------
 Center     Atomic      Atomic             Coordinates (Angstroms)
 Number     Number       Type             X           Y           Z
 ---------------------------------------------------------------------
      1         11           0       -0.172636   -1.118288    2.184898
      2         11           0        2.583805    1.574234    0.562348
      3         11           0       -1.286624    2.488374    0.372471
      4         11           0       -1.090531   -1.901970   -1.283341
      5         11           0       -3.482564   -0.334493    0.069842
      6         11           0        2.703631   -1.925105   -0.169955
      7         11           0        0.744920    1.217249   -1.736263
 ---------------------------------------------------------------------

 SCF Done:  E(UB3LYP) =  -1136.12783708     A.U. after   19 cycles

 The electronic state is 2-A.
 Alpha  occ. eigenvalues --  -38.44445 -38.44330 -38.44329 -38.43984 -38.43593
 Alpha  occ. eigenvalues --  -38.43546 -38.43522  -2.20256  -2.20175  -2.20130
 Alpha  occ. eigenvalues --   -2.19763  -2.19515  -2.19403  -2.19344  -1.13951
 Alpha  occ. eigenvalues --   -1.13926  -1.13903  -1.13899  -1.13826  -1.13794
 Alpha  occ. eigenvalues --   -1.13782  -1.13775  -1.13743  -1.13435  -1.13422
 Alpha  occ. eigenvalues --   -1.13415  -1.13203  -1.13175  -1.13138  -1.13070
 Alpha  occ. eigenvalues --   -1.13052  -1.13032  -1.13012  -1.13007  -1.12957
 Alpha  occ. eigenvalues --   -0.17985  -0.13217  -0.11924  -0.11032
 Alpha virt. eigenvalues --   -0.06108  -0.05527  -0.04111  -0.03601  -0.03270
 Alpha virt. eigenvalues --   -0.02738  -0.01712  -0.01128  -0.00396  -0.00164
 Alpha virt. eigenvalues --   -0.00024   0.00331   0.00515   0.00642   0.00806

  Beta  occ. eigenvalues --  -38.44446 -38.44323 -38.44254 -38.43987 -38.43549
  Beta  occ. eigenvalues --  -38.43514 -38.43503  -2.20260  -2.20166  -2.19989
  Beta  occ. eigenvalues --   -2.19772  -2.19435  -2.19330  -2.19326  -1.13947
  Beta  occ. eigenvalues --   -1.13914  -1.13906  -1.13897  -1.13809  -1.13780
  Beta  occ. eigenvalues --   -1.13699  -1.13674  -1.13642  -1.13431  -1.13422
  Beta  occ. eigenvalues --   -1.13420  -1.13157  -1.13119  -1.13079  -1.13019
  Beta  occ. eigenvalues --   -1.12993  -1.12989  -1.12984  -1.12975  -1.12946
  Beta  occ. eigenvalues --   -0.17273  -0.13080  -0.11751
  Beta virt. eigenvalues --   -0.07188  -0.05931  -0.05487  -0.03674  -0.03185
  Beta virt. eigenvalues --   -0.02595  -0.01815  -0.01637  -0.01041  -0.00371
  Beta virt. eigenvalues --   -0.00001   0.00048   0.00389   0.00658   0.00757

 Mulliken charges and spin densities:
               1          2
     1  Na  -0.481984   0.608052
     2  Na   0.118724  -0.023561
     3  Na  -0.155912   0.058592
     4  Na  -0.101184   0.215383
     5  Na   0.207542  -0.058695
     6  Na   0.038946  -0.066229
     7  Na   0.373868   0.266457
 Sum of Mulliken charges =  -0.00000   1.00000

 Dipole moment (field-independent basis, Debye):
    X=              0.0127    Y=             -0.0541    Z=              0.3782  Tot=              0.3823
 Quadrupole moment (field-independent basis, Debye-Ang):
   XX=            -54.8785   YY=            -70.7521   ZZ=            -70.1786
   XY=             -0.6499   XZ=             -0.0580   YZ=              2.5410

 Normal termination of Gaussian 16 at Fri Dec  8 06:39:58 2023.
