 Gaussian 16, Revision B.01,
 Gaussian 16:  ES64L-G16RevB.01 20-Dec-2017

 -------------------------
 #P B3LYP/6-311+g(d) force
 -------------------------

 -----
 DPGEN
 -----
 Symbolic Z-matrix:
 Charge =  0 Multiplicity = 2

                         Standard orientation:
 ---------------------------------------------------------------------
 Center     Atomic      Atomic             Coordinates (Angstroms)
 Number     Number       Type             X           Y           Z
 ---------------------------------------------------------------------
      1         11           0        2.476209   -1.872072    0.045723
      2         11           0        0.144639   -0.217604   -1.574611
      3         11           0       -3.203032    0.290347   -0.264464
      4         11           0        0.130794   -0.091541    2.199319
      5         11           0        2.930205    1.869901   -0.367121
      6         11           0       -1.267909   -2.724031   -0.148872
      7         11           0       -1.210907    2.744999    0.110025
 ---------------------------------------------------------------------

 SCF Done:  E(UB3LYP) =  -1136.13433343     A.U. after   21 cycles

 The electronic state is 2-A.
 Alpha  occ. eigenvalues --  -38.44232 -38.44224 -38.43989 -38.43794 -38.43534
 Alpha  occ. eigenvalues --  -38.43371 -38.43349  -2.20045  -2.19994  -2.19828
 Alpha  occ. eigenvalues --   -2.19642  -2.19359  -2.19297  -2.19214  -1.13740
 Alpha  occ. eigenvalues --   -1.13717  -1.13670  -1.13665  -1.13642  -1.13632
 Alpha  occ. eigenvalues --   -1.13513  -1.13491  -1.13472  -1.13299  -1.13266
 Alpha  occ. eigenvalues --   -1.13260  -1.13034  -1.13023  -1.13015  -1.12998
 Alpha  occ. eigenvalues --   -1.12959  -1.12931  -1.12874  -1.12854  -1.12837
 Alpha  occ. eigenvalues --   -0.18212  -0.13050  -0.12156  -0.10679
 Alpha virt. eigenvalues --   -0.05779  -0.05596  -0.04604  -0.03181  -0.02780
 Alpha virt. eigenvalues --   -0.02618  -0.01671  -0.01363  -0.00572  -0.00467
 Alpha virt. eigenvalues --   -0.00050   0.00321   0.00722   0.00792   0.00869

  Beta  occ. eigenvalues --  -38.44227 -38.44219 -38.43986 -38.43686 -38.43531
  Beta  occ. eigenvalues --  -38.43366 -38.43298  -2.20040  -2.19985  -2.19824
  Beta  occ. eigenvalues --   -2.19443  -2.19357  -2.19210  -2.19204  -1.13733
  Beta  occ. eigenvalues --   -1.13694  -1.13663  -1.13653  -1.13637  -1.13629
  Beta  occ. eigenvalues --   -1.13512  -1.13474  -1.13468  -1.13167  -1.13130
  Beta  occ. eigenvalues --   -1.13117  -1.13031  -1.13001  -1.12999  -1.12969
  Beta  occ. eigenvalues --   -1.12900  -1.12871  -1.12856  -1.12830  -1.12811
  Beta  occ. eigenvalues --   -0.17508  -0.12841  -0.11943
  Beta virt. eigenvalues --   -0.06762  -0.05750  -0.05522  -0.04559  -0.02440
  Beta virt. eigenvalues --   -0.02042  -0.01599  -0.01532  -0.01308  -0.00613
  Beta virt. eigenvalues --   -0.00501   0.00114   0.00363   0.00790   0.00808

 Mulliken charges and spin densities:
               1          2
     1  Na   0.258670  -0.011972
     2  Na  -0.182930   0.345540
     3  Na   0.105051  -0.012893
     4  Na  -0.475043   0.745444
     5  Na  -0.029488  -0.038743
     6  Na   0.265314  -0.004756
     7  Na   0.058426  -0.022620
 Sum of Mulliken charges =  -0.00000   1.00000

 Dipole moment (field-independent basis, Debye):
    X=              0.2882    Y=             -0.0982    Z=              0.1049  Tot=              0.3221
 Quadrupole moment (field-independent basis, Debye-Ang):
   XX=            -55.8026   YY=            -62.6353   ZZ=            -75.1562
   XY=              0.3830   XZ=              0.1998   YZ=             -0.4159

 Normal termination of Gaussian 16 at Fri Dec  8 06:31:50 2023.
