 Gaussian 16, Revision B.01,
 Gaussian 16:  ES64L-G16RevB.01 20-Dec-2017

 -------------------------
 #P B3LYP/6-311+g(d) force
 -------------------------

 -----
 DPGEN
 -----
 Symbolic Z-matrix:
 Charge =  0 Multiplicity = 2

                         Standard orientation:
 ---------------------------------------------------------------------
 Center     Atomic      Atomic             Coordinates (Angstroms)
 Number     Number       Type             X           Y           Z
 ---------------------------------------------------------------------
      1         11           0       -2.335010   -2.338373   -1.360241
      2         11           0       -5.256546   -1.155188    0.278526
      3         11           0       -2.910360    1.238633    1.683049
      4         11           0       -1.090733    3.069293   -1.128996
      5         11           0        0.934811    0.505875   -0.165132
      6         11           0        4.035268   -1.426471    0.958126
      7         11           0        6.622570    0.106230   -0.265331
 ---------------------------------------------------------------------

 SCF Done:  E(UB3LYP) =  -1136.10729313     A.U. after   21 cycles

 The electronic state is 2-A.
 Alpha  occ. eigenvalues --  -38.44953 -38.44852 -38.44517 -38.44390 -38.44369
 Alpha  occ. eigenvalues --  -38.44110 -38.43566  -2.20727  -2.20626  -2.20282
 Alpha  occ. eigenvalues --   -2.20167  -2.20134  -2.19893  -2.19334  -1.14381
 Alpha  occ. eigenvalues --   -1.14379  -1.14364  -1.14309  -1.14272  -1.14225
 Alpha  occ. eigenvalues --   -1.13949  -1.13926  -1.13890  -1.13839  -1.13829
 Alpha  occ. eigenvalues --   -1.13814  -1.13808  -1.13803  -1.13774  -1.13583
 Alpha  occ. eigenvalues --   -1.13557  -1.13495  -1.13013  -1.12995  -1.12981
 Alpha  occ. eigenvalues --   -0.15621  -0.13770  -0.11860  -0.10712
 Alpha virt. eigenvalues --   -0.07179  -0.05524  -0.04785  -0.03410  -0.02958
 Alpha virt. eigenvalues --   -0.02524  -0.02083  -0.01797  -0.01723  -0.00834
 Alpha virt. eigenvalues --   -0.00363  -0.00260   0.00142   0.00300   0.00457

  Beta  occ. eigenvalues --  -38.44917 -38.44784 -38.44445 -38.44400 -38.44377
  Beta  occ. eigenvalues --  -38.44077 -38.43574  -2.20660  -2.20501  -2.20188
  Beta  occ. eigenvalues --   -2.20151  -2.20148  -2.19831  -2.19350  -1.14335
  Beta  occ. eigenvalues --   -1.14333  -1.14323  -1.14220  -1.14190  -1.14137
  Beta  occ. eigenvalues --   -1.13858  -1.13856  -1.13843  -1.13834  -1.13820
  Beta  occ. eigenvalues --   -1.13810  -1.13805  -1.13798  -1.13784  -1.13541
  Beta  occ. eigenvalues --   -1.13507  -1.13459  -1.13026  -1.13000  -1.12983
  Beta  occ. eigenvalues --   -0.15012  -0.13436  -0.11757
  Beta virt. eigenvalues --   -0.07450  -0.06490  -0.05188  -0.04489  -0.03088
  Beta virt. eigenvalues --   -0.02607  -0.02328  -0.01924  -0.01570  -0.01358
  Beta virt. eigenvalues --   -0.00593  -0.00302  -0.00100   0.00341   0.00441

 Mulliken charges and spin densities:
               1          2
     1  Na   0.326963   0.408833
     2  Na  -0.117201  -0.085077
     3  Na   0.353365   0.430527
     4  Na   1.192994   0.085458
     5  Na  -1.692367   0.082350
     6  Na  -0.098802  -0.098828
     7  Na   0.035048   0.176737
 Sum of Mulliken charges =  -0.00000   1.00000

 Dipole moment (field-independent basis, Debye):
    X=              1.0378    Y=              0.8248    Z=             -0.3253  Tot=              1.3649
 Quadrupole moment (field-independent basis, Debye-Ang):
   XX=            -59.6782   YY=            -68.9203   ZZ=            -67.4486
   XY=              0.5059   XZ=             -1.9599   YZ=             -4.4206

 Normal termination of Gaussian 16 at Wed Nov 29 03:11:07 2023.
