 Gaussian 16, Revision B.01,
 Gaussian 16:  ES64L-G16RevB.01 20-Dec-2017

 -------------------------
 #P B3LYP/6-311+g(d) force
 -------------------------

 -----
 DPGEN
 -----
 Symbolic Z-matrix:
 Charge =  0 Multiplicity = 2

                         Standard orientation:
 ---------------------------------------------------------------------
 Center     Atomic      Atomic             Coordinates (Angstroms)
 Number     Number       Type             X           Y           Z
 ---------------------------------------------------------------------
      1         11           0        2.842642   -1.878295    0.108558
      2         11           0        0.410697    0.587975    1.921181
      3         11           0        3.336469    0.890606   -1.315848
      4         11           0        0.087976    3.128562   -0.007405
      5         11           0       -3.474625   -1.507764   -0.837761
      6         11           0       -0.285094   -2.639982    0.290732
      7         11           0       -2.918065    1.418898   -0.159457
 ---------------------------------------------------------------------

 SCF Done:  E(UB3LYP) =  -1136.12301878     A.U. after   19 cycles

 The electronic state is 2-A.
 Alpha  occ. eigenvalues --  -38.44623 -38.44407 -38.44331 -38.44080 -38.43874
 Alpha  occ. eigenvalues --  -38.43811 -38.43656  -2.20462  -2.20229  -2.20165
 Alpha  occ. eigenvalues --   -2.19931  -2.19699  -2.19633  -2.19492  -1.14133
 Alpha  occ. eigenvalues --   -1.14123  -1.14074  -1.13912  -1.13873  -1.13859
 Alpha  occ. eigenvalues --   -1.13841  -1.13836  -1.13802  -1.13619  -1.13590
 Alpha  occ. eigenvalues --   -1.13578  -1.13372  -1.13364  -1.13322  -1.13309
 Alpha  occ. eigenvalues --   -1.13295  -1.13267  -1.13162  -1.13137  -1.13114
 Alpha  occ. eigenvalues --   -0.17257  -0.13923  -0.12687  -0.10899
 Alpha virt. eigenvalues --   -0.06171  -0.05937  -0.04246  -0.03800  -0.03274
 Alpha virt. eigenvalues --   -0.01927  -0.01742  -0.01247  -0.01162  -0.00881
 Alpha virt. eigenvalues --   -0.00176   0.00314   0.00474   0.00621   0.00706

  Beta  occ. eigenvalues --  -38.44561 -38.44319 -38.44315 -38.44072 -38.43856
  Beta  occ. eigenvalues --  -38.43811 -38.43628  -2.20348  -2.20139  -2.20068
  Beta  occ. eigenvalues --   -2.19924  -2.19666  -2.19634  -2.19441  -1.14058
  Beta  occ. eigenvalues --   -1.14047  -1.13989  -1.13839  -1.13826  -1.13809
  Beta  occ. eigenvalues --   -1.13765  -1.13764  -1.13724  -1.13616  -1.13578
  Beta  occ. eigenvalues --   -1.13535  -1.13349  -1.13339  -1.13301  -1.13298
  Beta  occ. eigenvalues --   -1.13295  -1.13264  -1.13122  -1.13104  -1.13080
  Beta  occ. eigenvalues --   -0.16698  -0.13212  -0.12483
  Beta virt. eigenvalues --   -0.07387  -0.06115  -0.05646  -0.04005  -0.03265
  Beta virt. eigenvalues --   -0.02635  -0.01598  -0.01467  -0.01110  -0.00957
  Beta virt. eigenvalues --   -0.00868   0.00100   0.00466   0.00568   0.00732

 Mulliken charges and spin densities:
               1          2
     1  Na   0.202893   0.118956
     2  Na   0.099109   0.166604
     3  Na  -0.194372   0.398194
     4  Na   0.164642   0.074283
     5  Na   0.535129   0.169419
     6  Na  -0.374859  -0.027071
     7  Na  -0.432541   0.099615
 Sum of Mulliken charges =  -0.00000   1.00000

 Dipole moment (field-independent basis, Debye):
    X=              0.1374    Y=              0.3197    Z=              0.1560  Tot=              0.3813
 Quadrupole moment (field-independent basis, Debye-Ang):
   XX=            -68.3083   YY=            -63.3032   ZZ=            -70.0043
   XY=             -0.9584   XZ=              1.0708   YZ=             -1.3023

 Normal termination of Gaussian 16 at Sun Dec  3 19:18:12 2023.
