 Gaussian 16, Revision B.01,
 Gaussian 16:  ES64L-G16RevB.01 20-Dec-2017

 -------------------------
 #P B3LYP/6-311+g(d) force
 -------------------------

 -----
 DPGEN
 -----
 Symbolic Z-matrix:
 Charge =  0 Multiplicity = 2

                         Standard orientation:
 ---------------------------------------------------------------------
 Center     Atomic      Atomic             Coordinates (Angstroms)
 Number     Number       Type             X           Y           Z
 ---------------------------------------------------------------------
      1         11           0       -3.056857    0.380447    0.262805
      2         11           0       -1.426196   -2.599483   -0.097510
      3         11           0        0.050710   -0.011284   -1.572637
      4         11           0        2.197243   -2.167813   -0.248234
      5         11           0        2.892959    1.392793    0.378687
      6         11           0       -0.603049    3.000854   -0.481413
      7         11           0       -0.054811    0.004487    1.758302
 ---------------------------------------------------------------------

 SCF Done:  E(UB3LYP) =  -1136.13934522     A.U. after   19 cycles

 The electronic state is 2-A.
 Alpha  occ. eigenvalues --  -38.44012 -38.43791 -38.43729 -38.43540 -38.43448
 Alpha  occ. eigenvalues --  -38.43210 -38.42907  -2.19816  -2.19645  -2.19565
 Alpha  occ. eigenvalues --   -2.19371  -2.19319  -2.19159  -2.18910  -1.13494
 Alpha  occ. eigenvalues --   -1.13471  -1.13454  -1.13329  -1.13311  -1.13280
 Alpha  occ. eigenvalues --   -1.13256  -1.13228  -1.13192  -1.13068  -1.13022
 Alpha  occ. eigenvalues --   -1.13010  -1.12997  -1.12991  -1.12942  -1.12862
 Alpha  occ. eigenvalues --   -1.12779  -1.12768  -1.12599  -1.12531  -1.12527
 Alpha  occ. eigenvalues --   -0.18710  -0.12950  -0.12590  -0.10421
 Alpha virt. eigenvalues --   -0.05515  -0.05262  -0.04915  -0.03004  -0.02808
 Alpha virt. eigenvalues --   -0.02137  -0.01555  -0.01326  -0.00505  -0.00379
 Alpha virt. eigenvalues --    0.00033   0.00343   0.00805   0.00855   0.00869

  Beta  occ. eigenvalues --  -38.44002 -38.43784 -38.43723 -38.43526 -38.43443
  Beta  occ. eigenvalues --  -38.43134 -38.42840  -2.19801  -2.19635  -2.19557
  Beta  occ. eigenvalues --   -2.19347  -2.19313  -2.19020  -2.18788  -1.13468
  Beta  occ. eigenvalues --   -1.13460  -1.13444  -1.13316  -1.13298  -1.13264
  Beta  occ. eigenvalues --   -1.13243  -1.13217  -1.13181  -1.13042  -1.13005
  Beta  occ. eigenvalues --   -1.12997  -1.12983  -1.12971  -1.12929  -1.12769
  Beta  occ. eigenvalues --   -1.12687  -1.12662  -1.12512  -1.12447  -1.12436
  Beta  occ. eigenvalues --   -0.18023  -0.12684  -0.12294
  Beta virt. eigenvalues --   -0.06604  -0.05441  -0.05252  -0.04868  -0.02263
  Beta virt. eigenvalues --   -0.02083  -0.01440  -0.01229  -0.01148  -0.00525
  Beta virt. eigenvalues --   -0.00429   0.00154   0.00380   0.00838   0.00867

 Mulliken charges and spin densities:
               1          2
     1  Na   0.214439   0.000874
     2  Na   0.082990  -0.080916
     3  Na  -0.151898   0.529050
     4  Na   0.061676  -0.079123
     5  Na  -0.009187  -0.012069
     6  Na   0.013286  -0.019912
     7  Na  -0.211306   0.662097
 Sum of Mulliken charges =  -0.00000   1.00000

 Dipole moment (field-independent basis, Debye):
    X=              0.1251    Y=              0.0293    Z=              0.1037  Tot=              0.1651
 Quadrupole moment (field-independent basis, Debye-Ang):
   XX=            -55.8341   YY=            -59.6331   ZZ=            -76.0774
   XY=              0.0842   XZ=              0.1450   YZ=              0.1339

 Normal termination of Gaussian 16 at Thu Dec  7 12:06:40 2023.
