 Gaussian 16, Revision B.01,
 Gaussian 16:  ES64L-G16RevB.01 20-Dec-2017

 -------------------------
 #P B3LYP/6-311+g(d) force
 -------------------------

 -----
 DPGEN
 -----
 Symbolic Z-matrix:
 Charge =  0 Multiplicity = 2

                         Standard orientation:
 ---------------------------------------------------------------------
 Center     Atomic      Atomic             Coordinates (Angstroms)
 Number     Number       Type             X           Y           Z
 ---------------------------------------------------------------------
      1         11           0        0.237735   -2.244052   -0.963855
      2         11           0        0.807939    2.360142   -0.471381
      3         11           0        1.364777   -0.790390    1.965724
      4         11           0       -1.356525    1.556082    1.656492
      5         11           0        3.660373   -0.054186   -0.813880
      6         11           0       -2.325722    0.600908   -2.010406
      7         11           0       -2.388577   -1.428505    0.637306
 ---------------------------------------------------------------------

 SCF Done:  E(UB3LYP) =  -1136.12883356     A.U. after   21 cycles

 The electronic state is 2-A.
 Alpha  occ. eigenvalues --  -38.44698 -38.44521 -38.44482 -38.43605 -38.43366
 Alpha  occ. eigenvalues --  -38.43321 -38.43155  -2.20514  -2.20313  -2.20288
 Alpha  occ. eigenvalues --   -2.19494  -2.19214  -2.19201  -2.18981  -1.14182
 Alpha  occ. eigenvalues --   -1.14160  -1.14122  -1.13995  -1.13965  -1.13958
 Alpha  occ. eigenvalues --   -1.13944  -1.13936  -1.13907  -1.13186  -1.13172
 Alpha  occ. eigenvalues --   -1.13139  -1.12919  -1.12887  -1.12872  -1.12871
 Alpha  occ. eigenvalues --   -1.12835  -1.12811  -1.12655  -1.12652  -1.12594
 Alpha  occ. eigenvalues --   -0.18094  -0.13081  -0.11706  -0.11624
 Alpha virt. eigenvalues --   -0.05974  -0.05239  -0.04235  -0.03453  -0.03291
 Alpha virt. eigenvalues --   -0.03097  -0.01601  -0.00841  -0.00442  -0.00085
 Alpha virt. eigenvalues --    0.00181   0.00226   0.00381   0.00612   0.00822

  Beta  occ. eigenvalues --  -38.44635 -38.44505 -38.44435 -38.43598 -38.43358
  Beta  occ. eigenvalues --  -38.43282 -38.43147  -2.20397  -2.20259  -2.20228
  Beta  occ. eigenvalues --   -2.19486  -2.19188  -2.19146  -2.18968  -1.14098
  Beta  occ. eigenvalues --   -1.14084  -1.14040  -1.13941  -1.13940  -1.13918
  Beta  occ. eigenvalues --   -1.13905  -1.13896  -1.13855  -1.13184  -1.13163
  Beta  occ. eigenvalues --   -1.13105  -1.12882  -1.12879  -1.12847  -1.12821
  Beta  occ. eigenvalues --   -1.12803  -1.12772  -1.12646  -1.12625  -1.12585
  Beta  occ. eigenvalues --   -0.17329  -0.12830  -0.11492
  Beta virt. eigenvalues --   -0.07911  -0.05740  -0.04685  -0.04066  -0.03341
  Beta virt. eigenvalues --   -0.02659  -0.02196  -0.01508  -0.00497  -0.00371
  Beta virt. eigenvalues --    0.00051   0.00258   0.00390   0.00424   0.00693

 Mulliken charges and spin densities:
               1          2
     1  Na  -0.137266   0.212555
     2  Na  -0.499439   0.230541
     3  Na  -0.192682   0.041481
     4  Na   0.294691   0.272572
     5  Na   0.261941  -0.000264
     6  Na  -0.161613   0.145498
     7  Na   0.434368   0.097616
 Sum of Mulliken charges =  -0.00000   1.00000

 Dipole moment (field-independent basis, Debye):
    X=              0.2906    Y=             -0.1561    Z=             -0.3442  Tot=              0.4767
 Quadrupole moment (field-independent basis, Debye-Ang):
   XX=            -57.4156   YY=            -76.0358   ZZ=            -62.6749
   XY=             -0.4933   XZ=             -1.0813   YZ=             -2.1987

 Normal termination of Gaussian 16 at Mon Dec  4 01:35:45 2023.
