 Gaussian 16, Revision B.01,
 Gaussian 16:  ES64L-G16RevB.01 20-Dec-2017

 -------------------------
 #P B3LYP/6-311+g(d) force
 -------------------------

 -----
 DPGEN
 -----
 Symbolic Z-matrix:
 Charge =  0 Multiplicity = 2

                         Standard orientation:
 ---------------------------------------------------------------------
 Center     Atomic      Atomic             Coordinates (Angstroms)
 Number     Number       Type             X           Y           Z
 ---------------------------------------------------------------------
      1         11           0        3.705802    1.416871   -0.877349
      2         11           0        0.448783   -0.500840    2.613430
      3         11           0       -0.700966   -1.745622   -0.927959
      4         11           0       -3.930338   -1.031232   -0.367968
      5         11           0       -3.087329    2.202124   -0.273030
      6         11           0        2.633392   -1.871263   -0.414443
      7         11           0        0.930655    1.529961    0.247318
 ---------------------------------------------------------------------

 SCF Done:  E(UB3LYP) =  -1136.11258834     A.U. after   25 cycles

 The electronic state is 2-A.
 Alpha  occ. eigenvalues --  -38.45102 -38.44793 -38.44483 -38.44308 -38.43885
 Alpha  occ. eigenvalues --  -38.43562 -38.43396  -2.20941  -2.20598  -2.20241
 Alpha  occ. eigenvalues --   -2.20138  -2.19737  -2.19467  -2.19227  -1.14621
 Alpha  occ. eigenvalues --   -1.14568  -1.14520  -1.14265  -1.14253  -1.14238
 Alpha  occ. eigenvalues --   -1.13918  -1.13897  -1.13884  -1.13827  -1.13784
 Alpha  occ. eigenvalues --   -1.13768  -1.13474  -1.13375  -1.13366  -1.13161
 Alpha  occ. eigenvalues --   -1.13121  -1.13070  -1.12922  -1.12893  -1.12852
 Alpha  occ. eigenvalues --   -0.17635  -0.13996  -0.11556  -0.11132
 Alpha virt. eigenvalues --   -0.06621  -0.06365  -0.03756  -0.03299  -0.02867
 Alpha virt. eigenvalues --   -0.02666  -0.02438  -0.01594  -0.01036  -0.00671
 Alpha virt. eigenvalues --    0.00039   0.00103   0.00440   0.00464   0.00698

  Beta  occ. eigenvalues --  -38.44986 -38.44776 -38.44487 -38.44282 -38.43853
  Beta  occ. eigenvalues --  -38.43542 -38.43390  -2.20728  -2.20566  -2.20249
  Beta  occ. eigenvalues --   -2.20091  -2.19678  -2.19436  -2.19216  -1.14467
  Beta  occ. eigenvalues --   -1.14425  -1.14374  -1.14240  -1.14233  -1.14219
  Beta  occ. eigenvalues --   -1.13924  -1.13900  -1.13887  -1.13793  -1.13756
  Beta  occ. eigenvalues --   -1.13723  -1.13441  -1.13336  -1.13316  -1.13116
  Beta  occ. eigenvalues --   -1.13098  -1.13041  -1.12916  -1.12879  -1.12843
  Beta  occ. eigenvalues --   -0.16948  -0.13649  -0.11028
  Beta virt. eigenvalues --   -0.07703  -0.06307  -0.06070  -0.03387  -0.02977
  Beta virt. eigenvalues --   -0.02568  -0.02160  -0.01877  -0.01458  -0.00895
  Beta virt. eigenvalues --   -0.00338   0.00089   0.00155   0.00484   0.00630

 Mulliken charges and spin densities:
               1          2
     1  Na   0.487671   0.214916
     2  Na   0.415443   0.313404
     3  Na  -0.543276   0.028345
     4  Na   0.251609   0.093839
     5  Na   0.071912  -0.057502
     6  Na   0.305530   0.283551
     7  Na  -0.988890   0.123448
 Sum of Mulliken charges =  -0.00000   1.00000

 Dipole moment (field-independent basis, Debye):
    X=             -0.3781    Y=             -0.7050    Z=              0.7300  Tot=              1.0831
 Quadrupole moment (field-independent basis, Debye-Ang):
   XX=            -54.7773   YY=            -73.5405   ZZ=            -68.5252
   XY=             -1.7959   XZ=             -0.9333   YZ=             -2.0297

 Normal termination of Gaussian 16 at Mon Dec  4 00:57:48 2023.
