 Gaussian 16, Revision B.01,
 Gaussian 16:  ES64L-G16RevB.01 20-Dec-2017

 -------------------------
 #P B3LYP/6-311+g(d) force
 -------------------------

 -----
 DPGEN
 -----
 Symbolic Z-matrix:
 Charge =  0 Multiplicity = 2

                         Standard orientation:
 ---------------------------------------------------------------------
 Center     Atomic      Atomic             Coordinates (Angstroms)
 Number     Number       Type             X           Y           Z
 ---------------------------------------------------------------------
      1         11           0        1.250725   -3.079665    1.077246
      2         11           0       -2.650354   -2.434455    0.165604
      3         11           0       -4.622779   -0.370677   -0.980613
      4         11           0        4.105812   -1.640109   -0.687251
      5         11           0        3.420318    1.517253   -0.593254
      6         11           0        0.710127    3.601473    0.568932
      7         11           0       -2.213848    2.406181    0.449335
 ---------------------------------------------------------------------

 SCF Done:  E(UB3LYP) =  -1136.11050430     A.U. after   21 cycles

 The electronic state is 2-A.
 Alpha  occ. eigenvalues --  -38.45211 -38.45091 -38.44739 -38.44395 -38.44305
 Alpha  occ. eigenvalues --  -38.44122 -38.43603  -2.20991  -2.20872  -2.20537
 Alpha  occ. eigenvalues --   -2.20185  -2.20081  -2.19952  -2.19411  -1.14668
 Alpha  occ. eigenvalues --   -1.14662  -1.14613  -1.14557  -1.14538  -1.14532
 Alpha  occ. eigenvalues --   -1.14205  -1.14198  -1.14173  -1.13856  -1.13850
 Alpha  occ. eigenvalues --   -1.13829  -1.13739  -1.13728  -1.13689  -1.13613
 Alpha  occ. eigenvalues --   -1.13592  -1.13576  -1.13085  -1.13070  -1.13061
 Alpha  occ. eigenvalues --   -0.15632  -0.14130  -0.13236  -0.10948
 Alpha virt. eigenvalues --   -0.07407  -0.04968  -0.04468  -0.03699  -0.03381
 Alpha virt. eigenvalues --   -0.02224  -0.02117  -0.01740  -0.01268  -0.01182
 Alpha virt. eigenvalues --   -0.00766  -0.00103   0.00031   0.00481   0.00710

  Beta  occ. eigenvalues --  -38.45181 -38.45082 -38.44692 -38.44395 -38.44224
  Beta  occ. eigenvalues --  -38.44078 -38.43598  -2.20939  -2.20860  -2.20452
  Beta  occ. eigenvalues --   -2.20189  -2.19930  -2.19870  -2.19405  -1.14634
  Beta  occ. eigenvalues --   -1.14629  -1.14562  -1.14550  -1.14536  -1.14485
  Beta  occ. eigenvalues --   -1.14148  -1.14144  -1.14109  -1.13862  -1.13851
  Beta  occ. eigenvalues --   -1.13807  -1.13637  -1.13626  -1.13589  -1.13558
  Beta  occ. eigenvalues --   -1.13536  -1.13523  -1.13072  -1.13068  -1.13052
  Beta  occ. eigenvalues --   -0.15131  -0.13612  -0.12564
  Beta virt. eigenvalues --   -0.07678  -0.07377  -0.04439  -0.04117  -0.03549
  Beta virt. eigenvalues --   -0.02929  -0.02048  -0.02020  -0.01589  -0.01103
  Beta virt. eigenvalues --   -0.00805  -0.00426   0.00159   0.00258   0.00478

 Mulliken charges and spin densities:
               1          2
     1  Na  -0.242239   0.371284
     2  Na  -0.274304   0.087817
     3  Na   0.564977   0.222968
     4  Na   0.225080  -0.072195
     5  Na  -0.320799   0.225166
     6  Na   0.323486  -0.033884
     7  Na  -0.276200   0.198844
 Sum of Mulliken charges =  -0.00000   1.00000

 Dipole moment (field-independent basis, Debye):
    X=             -0.4799    Y=              0.1249    Z=             -0.2624  Tot=              0.5610
 Quadrupole moment (field-independent basis, Debye-Ang):
   XX=            -59.7854   YY=            -67.8780   ZZ=            -72.1142
   XY=             -2.1685   XZ=              0.5452   YZ=              0.0973

 Normal termination of Gaussian 16 at Mon Dec  4 01:27:51 2023.
