 Gaussian 16, Revision B.01,
 Gaussian 16:  ES64L-G16RevB.01 20-Dec-2017

 -------------------------
 #P B3LYP/6-311+g(d) force
 -------------------------

 -----
 DPGEN
 -----
 Symbolic Z-matrix:
 Charge =  0 Multiplicity = 2

                         Standard orientation:
 ---------------------------------------------------------------------
 Center     Atomic      Atomic             Coordinates (Angstroms)
 Number     Number       Type             X           Y           Z
 ---------------------------------------------------------------------
      1         11           0        0.269433    0.031350   -1.707691
      2         11           0       -3.145718    0.482671    0.036754
      3         11           0        2.859495    1.512876    0.253048
      4         11           0       -0.809168    3.137583   -0.193227
      5         11           0       -1.630534   -2.801361   -0.226097
      6         11           0       -0.030195   -0.409752    2.082519
      7         11           0        2.486688   -1.953368   -0.245304
 ---------------------------------------------------------------------

 SCF Done:  E(UB3LYP) =  -1136.13593089     A.U. after   19 cycles

 The electronic state is 2-A.
 Alpha  occ. eigenvalues --  -38.44242 -38.44122 -38.44065 -38.43795 -38.43714
 Alpha  occ. eigenvalues --  -38.43516 -38.43394  -2.20037  -2.19920  -2.19888
 Alpha  occ. eigenvalues --   -2.19586  -2.19557  -2.19304  -2.19298  -1.13710
 Alpha  occ. eigenvalues --   -1.13700  -1.13680  -1.13601  -1.13585  -1.13577
 Alpha  occ. eigenvalues --   -1.13556  -1.13546  -1.13513  -1.13262  -1.13250
 Alpha  occ. eigenvalues --   -1.13231  -1.13220  -1.13188  -1.13169  -1.12990
 Alpha  occ. eigenvalues --   -1.12981  -1.12965  -1.12948  -1.12927  -1.12919
 Alpha  occ. eigenvalues --   -0.17969  -0.12949  -0.12179  -0.10492
 Alpha virt. eigenvalues --   -0.05683  -0.05604  -0.04978  -0.03199  -0.02765
 Alpha virt. eigenvalues --   -0.02506  -0.01575  -0.01344  -0.00722  -0.00712
 Alpha virt. eigenvalues --   -0.00032   0.00354   0.00745   0.00783   0.00822

  Beta  occ. eigenvalues --  -38.44237 -38.44121 -38.44058 -38.43792 -38.43621
  Beta  occ. eigenvalues --  -38.43516 -38.43330  -2.20030  -2.19920  -2.19877
  Beta  occ. eigenvalues --   -2.19585  -2.19385  -2.19305  -2.19182  -1.13699
  Beta  occ. eigenvalues --   -1.13684  -1.13679  -1.13587  -1.13584  -1.13561
  Beta  occ. eigenvalues --   -1.13559  -1.13524  -1.13509  -1.13249  -1.13242
  Beta  occ. eigenvalues --   -1.13228  -1.13106  -1.13069  -1.13046  -1.12974
  Beta  occ. eigenvalues --   -1.12963  -1.12950  -1.12903  -1.12844  -1.12835
  Beta  occ. eigenvalues --   -0.17256  -0.12766  -0.11983
  Beta virt. eigenvalues --   -0.06620  -0.05672  -0.05544  -0.04889  -0.02437
  Beta virt. eigenvalues --   -0.02079  -0.01504  -0.01446  -0.01250  -0.00790
  Beta virt. eigenvalues --   -0.00746   0.00124   0.00387   0.00781   0.00816

 Mulliken charges and spin densities:
               1          2
     1  Na   0.044127   0.591167
     2  Na   0.028556  -0.060779
     3  Na   0.006615  -0.010591
     4  Na  -0.052408  -0.084601
     5  Na   0.062097  -0.112041
     6  Na  -0.321859   0.757801
     7  Na   0.232872  -0.080955
 Sum of Mulliken charges =  -0.00000   1.00000

 Dipole moment (field-independent basis, Debye):
    X=              0.2159    Y=             -0.1573    Z=              0.0701  Tot=              0.2762
 Quadrupole moment (field-independent basis, Debye-Ang):
   XX=            -56.4837   YY=            -60.8810   ZZ=            -75.8931
   XY=              0.6219   XZ=              0.6224   YZ=              1.1987

 Normal termination of Gaussian 16 at Fri Dec  8 05:36:45 2023.
