 Gaussian 16, Revision B.01,
 Gaussian 16:  ES64L-G16RevB.01 20-Dec-2017

 -------------------------
 #P B3LYP/6-311+g(d) force
 -------------------------

 -----
 DPGEN
 -----
 Symbolic Z-matrix:
 Charge =  0 Multiplicity = 2

                         Standard orientation:
 ---------------------------------------------------------------------
 Center     Atomic      Atomic             Coordinates (Angstroms)
 Number     Number       Type             X           Y           Z
 ---------------------------------------------------------------------
      1         11           0        0.942172    2.677118    0.146851
      2         11           0       -2.336740    1.888999   -0.114828
      3         11           0       -3.046645   -1.446836    0.115844
      4         11           0        3.343019   -0.194485   -0.247227
      5         11           0       -0.010704    0.067276   -1.607053
      6         11           0        0.467553   -0.308624    1.949822
      7         11           0        0.641345   -2.683448   -0.243409
 ---------------------------------------------------------------------

 SCF Done:  E(UB3LYP) =  -1136.13570843     A.U. after   21 cycles

 The electronic state is 2-A.
 Alpha  occ. eigenvalues --  -38.44635 -38.44216 -38.43591 -38.43406 -38.43362
 Alpha  occ. eigenvalues --  -38.43121 -38.43117  -2.20440  -2.20002  -2.19447
 Alpha  occ. eigenvalues --   -2.19287  -2.19274  -2.19113  -2.18987  -1.14113
 Alpha  occ. eigenvalues --   -1.14090  -1.14083  -1.13677  -1.13669  -1.13640
 Alpha  occ. eigenvalues --   -1.13143  -1.13107  -1.13084  -1.13048  -1.13001
 Alpha  occ. eigenvalues --   -1.12936  -1.12889  -1.12881  -1.12872  -1.12803
 Alpha  occ. eigenvalues --   -1.12759  -1.12719  -1.12655  -1.12644  -1.12611
 Alpha  occ. eigenvalues --   -0.18645  -0.13112  -0.12363  -0.10508
 Alpha virt. eigenvalues --   -0.06155  -0.05102  -0.04516  -0.03101  -0.02769
 Alpha virt. eigenvalues --   -0.02346  -0.01967  -0.01082  -0.00411  -0.00311
 Alpha virt. eigenvalues --   -0.00021   0.00320   0.00775   0.00843   0.00884

  Beta  occ. eigenvalues --  -38.44629 -38.44218 -38.43588 -38.43395 -38.43272
  Beta  occ. eigenvalues --  -38.43110 -38.43055  -2.20432  -2.20007  -2.19445
  Beta  occ. eigenvalues --   -2.19271  -2.19109  -2.18994  -2.18979  -1.14090
  Beta  occ. eigenvalues --   -1.14084  -1.14078  -1.13678  -1.13662  -1.13645
  Beta  occ. eigenvalues --   -1.13136  -1.13091  -1.13087  -1.13023  -1.12942
  Beta  occ. eigenvalues --   -1.12874  -1.12833  -1.12779  -1.12763  -1.12731
  Beta  occ. eigenvalues --   -1.12690  -1.12636  -1.12630  -1.12608  -1.12601
  Beta  occ. eigenvalues --   -0.17921  -0.12905  -0.12117
  Beta virt. eigenvalues --   -0.06593  -0.06107  -0.05105  -0.04483  -0.02374
  Beta virt. eigenvalues --   -0.01988  -0.01879  -0.01282  -0.01027  -0.00452
  Beta virt. eigenvalues --   -0.00353   0.00126   0.00348   0.00821   0.00842

 Mulliken charges and spin densities:
               1          2
     1  Na   0.092736  -0.065004
     2  Na   0.097252  -0.055644
     3  Na   0.019929  -0.071537
     4  Na   0.249067  -0.052434
     5  Na  -0.168897   0.534916
     6  Na  -0.447908   0.804228
     7  Na   0.157821  -0.094526
 Sum of Mulliken charges =  -0.00000   1.00000

 Dipole moment (field-independent basis, Debye):
    X=              0.2417    Y=             -0.1805    Z=              0.0867  Tot=              0.3138
 Quadrupole moment (field-independent basis, Debye-Ang):
   XX=            -51.9344   YY=            -64.4149   ZZ=            -75.6865
   XY=              0.6716   XZ=             -1.2068   YZ=              0.6174

 Normal termination of Gaussian 16 at Wed Dec  6 00:01:56 2023.
