 Gaussian 16, Revision B.01,
 Gaussian 16:  ES64L-G16RevB.01 20-Dec-2017

 -------------------------
 #P B3LYP/6-311+g(d) force
 -------------------------

 -----
 DPGEN
 -----
 Symbolic Z-matrix:
 Charge =  0 Multiplicity = 2

                         Standard orientation:
 ---------------------------------------------------------------------
 Center     Atomic      Atomic             Coordinates (Angstroms)
 Number     Number       Type             X           Y           Z
 ---------------------------------------------------------------------
      1         11           0       -0.549393   -2.241383    0.705736
      2         11           0        0.194748    0.450127    1.979203
      3         11           0        0.481214    2.843030   -0.047828
      4         11           0       -2.876908    1.817300   -0.154076
      5         11           0       -3.333246   -1.580642   -1.252869
      6         11           0        3.593834    0.434968   -1.386925
      7         11           0        2.489750   -1.723399    0.156760
 ---------------------------------------------------------------------

 SCF Done:  E(UB3LYP) =  -1136.11803659     A.U. after   20 cycles

 The electronic state is 2-A.
 Alpha  occ. eigenvalues --  -38.44637 -38.44560 -38.44555 -38.44123 -38.43960
 Alpha  occ. eigenvalues --  -38.43647 -38.43393  -2.20475  -2.20414  -2.20406
 Alpha  occ. eigenvalues --   -2.19918  -2.19866  -2.19468  -2.19293  -1.14174
 Alpha  occ. eigenvalues --   -1.14171  -1.14137  -1.14108  -1.14079  -1.14066
 Alpha  occ. eigenvalues --   -1.14038  -1.14030  -1.13998  -1.13576  -1.13561
 Alpha  occ. eigenvalues --   -1.13553  -1.13546  -1.13519  -1.13496  -1.13166
 Alpha  occ. eigenvalues --   -1.13132  -1.13081  -1.12992  -1.12952  -1.12899
 Alpha  occ. eigenvalues --   -0.17622  -0.13822  -0.12391  -0.11385
 Alpha virt. eigenvalues --   -0.06093  -0.05384  -0.04441  -0.03888  -0.03401
 Alpha virt. eigenvalues --   -0.02158  -0.01627  -0.01000  -0.00840  -0.00454
 Alpha virt. eigenvalues --   -0.00341   0.00344   0.00381   0.00519   0.00626

  Beta  occ. eigenvalues --  -38.44628 -38.44485 -38.44481 -38.44077 -38.43949
  Beta  occ. eigenvalues --  -38.43646 -38.43373  -2.20398  -2.20339  -2.20269
  Beta  occ. eigenvalues --   -2.19855  -2.19833  -2.19466  -2.19260  -1.14098
  Beta  occ. eigenvalues --   -1.14085  -1.14076  -1.14066  -1.14048  -1.14012
  Beta  occ. eigenvalues --   -1.13970  -1.13936  -1.13904  -1.13532  -1.13519
  Beta  occ. eigenvalues --   -1.13507  -1.13501  -1.13493  -1.13459  -1.13155
  Beta  occ. eigenvalues --   -1.13131  -1.13081  -1.12955  -1.12938  -1.12862
  Beta  occ. eigenvalues --   -0.16989  -0.13047  -0.12195
  Beta virt. eigenvalues --   -0.07937  -0.05964  -0.05041  -0.03911  -0.03734
  Beta virt. eigenvalues --   -0.02761  -0.01659  -0.01451  -0.00901  -0.00707
  Beta virt. eigenvalues --   -0.00351  -0.00062   0.00466   0.00486   0.00669

 Mulliken charges and spin densities:
               1          2
     1  Na  -0.332419   0.007724
     2  Na   0.709134   0.008620
     3  Na  -0.236238   0.118548
     4  Na  -0.282471   0.081406
     5  Na   0.290765   0.311588
     6  Na   0.090815   0.249150
     7  Na  -0.239586   0.222965
 Sum of Mulliken charges =  -0.00000   1.00000

 Dipole moment (field-independent basis, Debye):
    X=             -0.1755    Y=              0.5335    Z=             -0.2018  Tot=              0.5968
 Quadrupole moment (field-independent basis, Debye-Ang):
   XX=            -64.1730   YY=            -67.7633   ZZ=            -67.9412
   XY=             -0.1265   XZ=              0.2464   YZ=             -0.7665

 Normal termination of Gaussian 16 at Wed Nov 29 03:37:10 2023.
