 Gaussian 16, Revision B.01,
 Gaussian 16:  ES64L-G16RevB.01 20-Dec-2017

 -------------------------
 #P B3LYP/6-311+g(d) force
 -------------------------

 -----
 DPGEN
 -----
 Symbolic Z-matrix:
 Charge =  0 Multiplicity = 2

                         Standard orientation:
 ---------------------------------------------------------------------
 Center     Atomic      Atomic             Coordinates (Angstroms)
 Number     Number       Type             X           Y           Z
 ---------------------------------------------------------------------
      1         11           0        2.857287   -1.186568    0.190569
      2         11           0       -0.701681   -2.879238    0.025918
      3         11           0        2.261910    1.872118   -0.513970
      4         11           0       -0.053242    0.177607    2.110736
      5         11           0       -3.185180   -0.264317   -0.298910
      6         11           0       -1.302660    2.789688    0.011467
      7         11           0        0.123565   -0.509291   -1.525810
 ---------------------------------------------------------------------

 SCF Done:  E(UB3LYP) =  -1136.13594432     A.U. after   19 cycles

 The electronic state is 2-A.
 Alpha  occ. eigenvalues --  -38.44246 -38.43954 -38.43608 -38.43595 -38.43509
 Alpha  occ. eigenvalues --  -38.43431 -38.43193  -2.20054  -2.19816  -2.19480
 Alpha  occ. eigenvalues --   -2.19458  -2.19379  -2.19241  -2.19198  -1.13736
 Alpha  occ. eigenvalues --   -1.13711  -1.13687  -1.13512  -1.13477  -1.13457
 Alpha  occ. eigenvalues --   -1.13192  -1.13151  -1.13138  -1.13116  -1.13104
 Alpha  occ. eigenvalues --   -1.13099  -1.13084  -1.13025  -1.12985  -1.12913
 Alpha  occ. eigenvalues --   -1.12902  -1.12883  -1.12861  -1.12812  -1.12800
 Alpha  occ. eigenvalues --   -0.18578  -0.13110  -0.12386  -0.10699
 Alpha virt. eigenvalues --   -0.05733  -0.05114  -0.04777  -0.03191  -0.02905
 Alpha virt. eigenvalues --   -0.02511  -0.01595  -0.01087  -0.00422  -0.00408
 Alpha virt. eigenvalues --   -0.00008   0.00348   0.00797   0.00862   0.00891

  Beta  occ. eigenvalues --  -38.44240 -38.43949 -38.43582 -38.43508 -38.43505
  Beta  occ. eigenvalues --  -38.43430 -38.43142  -2.20046  -2.19810  -2.19438
  Beta  occ. eigenvalues --   -2.19374  -2.19294  -2.19241  -2.19105  -1.13719
  Beta  occ. eigenvalues --   -1.13704  -1.13683  -1.13509  -1.13467  -1.13437
  Beta  occ. eigenvalues --   -1.13172  -1.13124  -1.13091  -1.13069  -1.13026
  Beta  occ. eigenvalues --   -1.13007  -1.12981  -1.12973  -1.12965  -1.12901
  Beta  occ. eigenvalues --   -1.12892  -1.12886  -1.12796  -1.12753  -1.12733
  Beta  occ. eigenvalues --   -0.17860  -0.12872  -0.12173
  Beta virt. eigenvalues --   -0.06779  -0.05700  -0.05102  -0.04703  -0.02433
  Beta virt. eigenvalues --   -0.02136  -0.01508  -0.01464  -0.01013  -0.00465
  Beta virt. eigenvalues --   -0.00436   0.00139   0.00386   0.00831   0.00884

 Mulliken charges and spin densities:
               1          2
     1  Na   0.288517   0.065661
     2  Na   0.265933   0.001223
     3  Na   0.084497   0.003913
     4  Na  -0.509813   0.759533
     5  Na   0.046800  -0.057940
     6  Na   0.023415  -0.046568
     7  Na  -0.199349   0.274177
 Sum of Mulliken charges =  -0.00000   1.00000

 Dipole moment (field-independent basis, Debye):
    X=             -0.1177    Y=             -0.1339    Z=              0.1646  Tot=              0.2426
 Quadrupole moment (field-independent basis, Debye-Ang):
   XX=            -56.2265   YY=            -62.6040   ZZ=            -74.6513
   XY=             -0.2961   XZ=              0.6046   YZ=             -1.7603

 Normal termination of Gaussian 16 at Thu Dec  7 02:18:46 2023.
