 Gaussian 16, Revision B.01,
 Gaussian 16:  ES64L-G16RevB.01 20-Dec-2017

 -------------------------
 #P B3LYP/6-311+g(d) force
 -------------------------

 -----
 DPGEN
 -----
 Symbolic Z-matrix:
 Charge =  0 Multiplicity = 2

                         Standard orientation:
 ---------------------------------------------------------------------
 Center     Atomic      Atomic             Coordinates (Angstroms)
 Number     Number       Type             X           Y           Z
 ---------------------------------------------------------------------
      1         11           0        1.171287    2.280599   -0.107946
      2         11           0        0.162530   -0.749485   -1.051248
      3         11           0       -1.785283    1.318922    1.343248
      4         11           0        3.747806   -0.746839   -1.301069
      5         11           0       -1.808604   -2.165415    1.229640
      6         11           0        2.407729   -0.169719    1.484444
      7         11           0       -3.895465    0.231938   -1.597067
 ---------------------------------------------------------------------

 SCF Done:  E(UB3LYP) =  -1136.11582132     A.U. after   25 cycles

 The electronic state is 2-A.
 Alpha  occ. eigenvalues --  -38.45291 -38.44760 -38.44529 -38.43979 -38.43743
 Alpha  occ. eigenvalues --  -38.43597 -38.42661  -2.21175  -2.20538  -2.20415
 Alpha  occ. eigenvalues --   -2.19813  -2.19575  -2.19436  -2.18555  -1.14862
 Alpha  occ. eigenvalues --   -1.14844  -1.14799  -1.14195  -1.14181  -1.14146
 Alpha  occ. eigenvalues --   -1.14137  -1.14102  -1.14015  -1.13494  -1.13451
 Alpha  occ. eigenvalues --   -1.13448  -1.13243  -1.13236  -1.13185  -1.13121
 Alpha  occ. eigenvalues --   -1.13113  -1.13052  -1.12252  -1.12226  -1.12157
 Alpha  occ. eigenvalues --   -0.18127  -0.14196  -0.10995  -0.10749
 Alpha virt. eigenvalues --   -0.06905  -0.05710  -0.04761  -0.03033  -0.02859
 Alpha virt. eigenvalues --   -0.02299  -0.02054  -0.01498  -0.00762  -0.00399
 Alpha virt. eigenvalues --   -0.00082   0.00038   0.00204   0.00487   0.00535

  Beta  occ. eigenvalues --  -38.45287 -38.44669 -38.44527 -38.43965 -38.43687
  Beta  occ. eigenvalues --  -38.43590 -38.42656  -2.21169  -2.20417  -2.20367
  Beta  occ. eigenvalues --   -2.19787  -2.19472  -2.19428  -2.18546  -1.14859
  Beta  occ. eigenvalues --   -1.14827  -1.14794  -1.14109  -1.14106  -1.14078
  Beta  occ. eigenvalues --   -1.14060  -1.14030  -1.14022  -1.13477  -1.13432
  Beta  occ. eigenvalues --   -1.13430  -1.13175  -1.13168  -1.13114  -1.13108
  Beta  occ. eigenvalues --   -1.13078  -1.13049  -1.12246  -1.12219  -1.12148
  Beta  occ. eigenvalues --   -0.17657  -0.13726  -0.10657
  Beta virt. eigenvalues --   -0.07334  -0.06590  -0.05239  -0.04485  -0.02829
  Beta virt. eigenvalues --   -0.02542  -0.01919  -0.01526  -0.01237  -0.00515
  Beta virt. eigenvalues --   -0.00164   0.00121   0.00176   0.00293   0.00538

 Mulliken charges and spin densities:
               1          2
     1  Na  -0.287357  -0.136228
     2  Na  -0.575644   0.108979
     3  Na   0.294692   0.302407
     4  Na   0.265344   0.000787
     5  Na   0.030102   0.200433
     6  Na   0.352126   0.145375
     7  Na  -0.079263   0.378248
 Sum of Mulliken charges =  -0.00000   1.00000

 Dipole moment (field-independent basis, Debye):
    X=              0.6161    Y=             -0.0200    Z=              0.5192  Tot=              0.8059
 Quadrupole moment (field-independent basis, Debye-Ang):
   XX=            -56.2688   YY=            -77.9778   ZZ=            -64.0899
   XY=              0.4712   XZ=             -0.5465   YZ=             -3.8849

 Normal termination of Gaussian 16 at Fri Dec  8 04:15:13 2023.
