 Gaussian 16, Revision B.01,
 Gaussian 16:  ES64L-G16RevB.01 20-Dec-2017

 -------------------------
 #P B3LYP/6-311+g(d) force
 -------------------------

 -----
 DPGEN
 -----
 Symbolic Z-matrix:
 Charge =  0 Multiplicity = 2

                         Standard orientation:
 ---------------------------------------------------------------------
 Center     Atomic      Atomic             Coordinates (Angstroms)
 Number     Number       Type             X           Y           Z
 ---------------------------------------------------------------------
      1         11           0       -0.121637   -1.012059   -0.987571
      2         11           0       -4.018570   -1.115891   -0.987400
      3         11           0        1.161180    0.799562    1.856243
      4         11           0        3.063144    1.282639   -1.001070
      5         11           0        3.644138   -1.811514   -0.084460
      6         11           0       -2.092882   -0.380303    1.966900
      7         11           0       -1.635373    2.237566   -0.762642
 ---------------------------------------------------------------------

 SCF Done:  E(UB3LYP) =  -1136.11767419     A.U. after   28 cycles

 The electronic state is 2-A.
 Alpha  occ. eigenvalues --  -38.45257 -38.45211 -38.44439 -38.44122 -38.43999
 Alpha  occ. eigenvalues --  -38.43660 -38.42833  -2.21075  -2.21017  -2.20236
 Alpha  occ. eigenvalues --   -2.19920  -2.19854  -2.19432  -2.18690  -1.14757
 Alpha  occ. eigenvalues --   -1.14745  -1.14729  -1.14697  -1.14693  -1.14611
 Alpha  occ. eigenvalues --   -1.13919  -1.13873  -1.13840  -1.13589  -1.13580
 Alpha  occ. eigenvalues --   -1.13558  -1.13544  -1.13499  -1.13457  -1.13110
 Alpha  occ. eigenvalues --   -1.13102  -1.13064  -1.12386  -1.12351  -1.12311
 Alpha  occ. eigenvalues --   -0.17787  -0.14148  -0.10949  -0.10594
 Alpha virt. eigenvalues --   -0.06815  -0.05992  -0.05026  -0.03017  -0.02753
 Alpha virt. eigenvalues --   -0.02466  -0.02178  -0.01457  -0.01113  -0.00640
 Alpha virt. eigenvalues --    0.00032   0.00078   0.00239   0.00271   0.00533

  Beta  occ. eigenvalues --  -38.45239 -38.45196 -38.44375 -38.44119 -38.43944
  Beta  occ. eigenvalues --  -38.43662 -38.42812  -2.21043  -2.20994  -2.20116
  Beta  occ. eigenvalues --   -2.19915  -2.19754  -2.19438  -2.18654  -1.14732
  Beta  occ. eigenvalues --   -1.14709  -1.14695  -1.14679  -1.14670  -1.14599
  Beta  occ. eigenvalues --   -1.13831  -1.13792  -1.13757  -1.13585  -1.13575
  Beta  occ. eigenvalues --   -1.13556  -1.13470  -1.13435  -1.13380  -1.13114
  Beta  occ. eigenvalues --   -1.13098  -1.13068  -1.12360  -1.12304  -1.12290
  Beta  occ. eigenvalues --   -0.17159  -0.13971  -0.10403
  Beta virt. eigenvalues --   -0.07243  -0.06637  -0.05610  -0.04623  -0.02751
  Beta virt. eigenvalues --   -0.02630  -0.01959  -0.01678  -0.01114  -0.00641
  Beta virt. eigenvalues --   -0.00527   0.00060   0.00148   0.00290   0.00404

 Mulliken charges and spin densities:
               1          2
     1  Na  -1.001677   0.359362
     2  Na   0.337719   0.041415
     3  Na  -0.193654   0.206166
     4  Na   0.621360   0.095532
     5  Na   0.340690  -0.093620
     6  Na   0.049958   0.032171
     7  Na  -0.154395   0.358974
 Sum of Mulliken charges =  -0.00000   1.00000

 Dipole moment (field-independent basis, Debye):
    X=              0.6402    Y=              0.6494    Z=             -0.0476  Tot=              0.9132
 Quadrupole moment (field-independent basis, Debye-Ang):
   XX=            -55.4415   YY=            -70.4182   ZZ=            -72.3146
   XY=             -0.2534   XZ=             -0.9376   YZ=             -4.6014

 Normal termination of Gaussian 16 at Fri Dec  8 06:01:31 2023.
