 Gaussian 16, Revision B.01,
 Gaussian 16:  ES64L-G16RevB.01 20-Dec-2017

 -------------------------
 #P B3LYP/6-311+g(d) force
 -------------------------

 -----
 DPGEN
 -----
 Symbolic Z-matrix:
 Charge =  0 Multiplicity = 2

                         Standard orientation:
 ---------------------------------------------------------------------
 Center     Atomic      Atomic             Coordinates (Angstroms)
 Number     Number       Type             X           Y           Z
 ---------------------------------------------------------------------
      1         11           0        0.889568    2.753287    0.059903
      2         11           0       -2.541974    1.697324   -0.185220
      3         11           0        0.832784   -2.452438    0.339900
      4         11           0       -2.150504   -1.974286   -0.366674
      5         11           0        2.908677   -0.101424   -0.111957
      6         11           0        0.380273   -0.026188   -1.696298
      7         11           0       -0.318824    0.103724    1.960345
 ---------------------------------------------------------------------

 SCF Done:  E(UB3LYP) =  -1136.13619074     A.U. after   19 cycles

 The electronic state is 2-A.
 Alpha  occ. eigenvalues --  -38.43770 -38.43574 -38.43509 -38.43480 -38.43478
 Alpha  occ. eigenvalues --  -38.43254 -38.43137  -2.19593  -2.19438  -2.19425
 Alpha  occ. eigenvalues --   -2.19401  -2.19389  -2.19285  -2.19118  -1.13273
 Alpha  occ. eigenvalues --   -1.13262  -1.13232  -1.13216  -1.13136  -1.13132
 Alpha  occ. eigenvalues --   -1.13123  -1.13095  -1.13074  -1.13061  -1.13050
 Alpha  occ. eigenvalues --   -1.13042  -1.13037  -1.13013  -1.13011  -1.12949
 Alpha  occ. eigenvalues --   -1.12903  -1.12868  -1.12776  -1.12752  -1.12729
 Alpha  occ. eigenvalues --   -0.19268  -0.12895  -0.12871  -0.11033
 Alpha virt. eigenvalues --   -0.05352  -0.04926  -0.04657  -0.03184  -0.03146
 Alpha virt. eigenvalues --   -0.02588  -0.01215  -0.01094  -0.00131  -0.00072
 Alpha virt. eigenvalues --    0.00082   0.00372   0.00875   0.00956   0.00968

  Beta  occ. eigenvalues --  -38.43767 -38.43569 -38.43500 -38.43472 -38.43391
  Beta  occ. eigenvalues --  -38.43184 -38.43122  -2.19591  -2.19432  -2.19394
  Beta  occ. eigenvalues --   -2.19376  -2.19261  -2.19159  -2.19098  -1.13264
  Beta  occ. eigenvalues --   -1.13250  -1.13231  -1.13190  -1.13127  -1.13109
  Beta  occ. eigenvalues --   -1.13090  -1.13071  -1.13041  -1.13021  -1.13017
  Beta  occ. eigenvalues --   -1.13006  -1.12989  -1.12932  -1.12919  -1.12880
  Beta  occ. eigenvalues --   -1.12821  -1.12785  -1.12750  -1.12723  -1.12693
  Beta  occ. eigenvalues --   -0.18508  -0.12632  -0.12620
  Beta virt. eigenvalues --   -0.07063  -0.05358  -0.04865  -0.04650  -0.02370
  Beta virt. eigenvalues --   -0.02332  -0.01530  -0.01142  -0.01029  -0.00177
  Beta virt. eigenvalues --   -0.00036   0.00139   0.00390   0.00888   0.00956

 Mulliken charges and spin densities:
               1          2
     1  Na   0.091839  -0.107148
     2  Na  -0.029526  -0.108754
     3  Na   0.467829   0.126322
     4  Na   0.021165  -0.049867
     5  Na   0.387609  -0.009700
     6  Na  -0.478041   0.542045
     7  Na  -0.460876   0.607102
 Sum of Mulliken charges =  -0.00000   1.00000

 Dipole moment (field-independent basis, Debye):
    X=             -0.2271    Y=              0.3456    Z=              0.0840  Tot=              0.4220
 Quadrupole moment (field-independent basis, Debye-Ang):
   XX=            -59.3640   YY=            -62.0267   ZZ=            -72.8002
   XY=              0.2862   XZ=              1.6175   YZ=             -0.1346

 Normal termination of Gaussian 16 at Thu Dec  7 04:53:09 2023.
