 Gaussian 16, Revision B.01,
 Gaussian 16:  ES64L-G16RevB.01 20-Dec-2017

 -------------------------
 #P B3LYP/6-311+g(d) force
 -------------------------

 -----
 DPGEN
 -----
 Symbolic Z-matrix:
 Charge =  0 Multiplicity = 2

                         Standard orientation:
 ---------------------------------------------------------------------
 Center     Atomic      Atomic             Coordinates (Angstroms)
 Number     Number       Type             X           Y           Z
 ---------------------------------------------------------------------
      1         11           0       -2.777219   -1.383394    0.181520
      2         11           0        1.258780    2.413183    0.016285
      3         11           0       -2.505577    1.779233   -0.041352
      4         11           0       -0.305155    0.016070   -1.762987
      5         11           0        0.004995   -0.445720    1.975785
      6         11           0        3.229690    0.088831    0.110668
      7         11           0        1.094486   -2.468202   -0.479919
 ---------------------------------------------------------------------

 SCF Done:  E(UB3LYP) =  -1136.13349020     A.U. after   20 cycles

 The electronic state is 2-A.
 Alpha  occ. eigenvalues --  -38.44454 -38.44193 -38.43811 -38.43750 -38.43384
 Alpha  occ. eigenvalues --  -38.42986 -38.42977  -2.20316  -2.20057  -2.19672
 Alpha  occ. eigenvalues --   -2.19653  -2.19369  -2.18879  -2.18859  -1.14013
 Alpha  occ. eigenvalues --   -1.13969  -1.13954  -1.13748  -1.13725  -1.13694
 Alpha  occ. eigenvalues --   -1.13357  -1.13331  -1.13322  -1.13308  -1.13285
 Alpha  occ. eigenvalues --   -1.13271  -1.13054  -1.13018  -1.12988  -1.12568
 Alpha  occ. eigenvalues --   -1.12544  -1.12534  -1.12514  -1.12499  -1.12496
 Alpha  occ. eigenvalues --   -0.18946  -0.13659  -0.11995  -0.10983
 Alpha virt. eigenvalues --   -0.06083  -0.05240  -0.03981  -0.03546  -0.02790
 Alpha virt. eigenvalues --   -0.02610  -0.01835  -0.01021  -0.00247  -0.00061
 Alpha virt. eigenvalues --   -0.00023   0.00357   0.00744   0.00875   0.00889

  Beta  occ. eigenvalues --  -38.44453 -38.44186 -38.43808 -38.43668 -38.43306
  Beta  occ. eigenvalues --  -38.42973 -38.42970  -2.20316  -2.20048  -2.19668
  Beta  occ. eigenvalues --   -2.19501  -2.19226  -2.18856  -2.18854  -1.14017
  Beta  occ. eigenvalues --   -1.13958  -1.13948  -1.13745  -1.13694  -1.13687
  Beta  occ. eigenvalues --   -1.13348  -1.13309  -1.13305  -1.13227  -1.13179
  Beta  occ. eigenvalues --   -1.13158  -1.12960  -1.12910  -1.12889  -1.12547
  Beta  occ. eigenvalues --   -1.12543  -1.12501  -1.12493  -1.12484  -1.12483
  Beta  occ. eigenvalues --   -0.18205  -0.13431  -0.11732
  Beta virt. eigenvalues --   -0.07050  -0.06001  -0.05250  -0.03944  -0.02752
  Beta virt. eigenvalues --   -0.01993  -0.01731  -0.01564  -0.00972  -0.00282
  Beta virt. eigenvalues --   -0.00087   0.00110   0.00384   0.00817   0.00889

 Mulliken charges and spin densities:
               1          2
     1  Na   0.338821  -0.015035
     2  Na   0.059426  -0.066605
     3  Na   0.049679  -0.057267
     4  Na  -0.290294   0.545268
     5  Na  -0.517227   0.664191
     6  Na   0.066060  -0.018693
     7  Na   0.293534  -0.051859
 Sum of Mulliken charges =  -0.00000   1.00000

 Dipole moment (field-independent basis, Debye):
    X=             -0.1939    Y=             -0.1657    Z=              0.2191  Tot=              0.3362
 Quadrupole moment (field-independent basis, Debye-Ang):
   XX=            -52.9266   YY=            -68.1638   ZZ=            -73.2210
   XY=             -0.4119   XZ=             -0.3257   YZ=              0.7421

 Normal termination of Gaussian 16 at Thu Dec  7 21:11:43 2023.
