 Gaussian 16, Revision B.01,
 Gaussian 16:  ES64L-G16RevB.01 20-Dec-2017

 -------------------------
 #P B3LYP/6-311+g(d) force
 -------------------------

 -----
 DPGEN
 -----
 Symbolic Z-matrix:
 Charge =  0 Multiplicity = 2

                         Standard orientation:
 ---------------------------------------------------------------------
 Center     Atomic      Atomic             Coordinates (Angstroms)
 Number     Number       Type             X           Y           Z
 ---------------------------------------------------------------------
      1         11           0       -3.826630   -1.755610    0.944975
      2         11           0       -4.470641    0.896818   -0.555561
      3         11           0       -0.869161    2.550745   -0.902977
      4         11           0        4.340007    0.321426   -0.116390
      5         11           0       -0.168487   -2.538968   -0.083500
      6         11           0        1.851404    3.069939    1.086726
      7         11           0        3.143509   -2.544350   -0.373272
 ---------------------------------------------------------------------

 SCF Done:  E(UB3LYP) =  -1136.10725406     A.U. after   23 cycles

 The electronic state is 2-A.
 Alpha  occ. eigenvalues --  -38.45221 -38.44707 -38.44697 -38.44490 -38.44273
 Alpha  occ. eigenvalues --  -38.43949 -38.43921  -2.21008  -2.20518  -2.20455
 Alpha  occ. eigenvalues --   -2.20244  -2.20093  -2.19770  -2.19719  -1.14698
 Alpha  occ. eigenvalues --   -1.14675  -1.14652  -1.14169  -1.14162  -1.14150
 Alpha  occ. eigenvalues --   -1.14127  -1.14121  -1.14083  -1.13921  -1.13904
 Alpha  occ. eigenvalues --   -1.13886  -1.13778  -1.13740  -1.13710  -1.13453
 Alpha  occ. eigenvalues --   -1.13435  -1.13430  -1.13375  -1.13362  -1.13316
 Alpha  occ. eigenvalues --   -0.15752  -0.14186  -0.12771  -0.10652
 Alpha virt. eigenvalues --   -0.07654  -0.05037  -0.04485  -0.03676  -0.03341
 Alpha virt. eigenvalues --   -0.02532  -0.02313  -0.01330  -0.00964  -0.00859
 Alpha virt. eigenvalues --   -0.00651  -0.00382   0.00174   0.00472   0.00563

  Beta  occ. eigenvalues --  -38.45214 -38.44670 -38.44664 -38.44495 -38.44198
  Beta  occ. eigenvalues --  -38.43953 -38.43843  -2.21001  -2.20439  -2.20406
  Beta  occ. eigenvalues --   -2.20257  -2.19955  -2.19786  -2.19574  -1.14683
  Beta  occ. eigenvalues --   -1.14674  -1.14627  -1.14114  -1.14109  -1.14096
  Beta  occ. eigenvalues --   -1.14091  -1.14086  -1.14048  -1.13932  -1.13914
  Beta  occ. eigenvalues --   -1.13879  -1.13694  -1.13646  -1.13615  -1.13453
  Beta  occ. eigenvalues --   -1.13450  -1.13394  -1.13276  -1.13263  -1.13233
  Beta  occ. eigenvalues --   -0.15187  -0.13536  -0.12282
  Beta virt. eigenvalues --   -0.07677  -0.07414  -0.04522  -0.04088  -0.03496
  Beta virt. eigenvalues --   -0.02914  -0.02352  -0.02086  -0.01182  -0.00813
  Beta virt. eigenvalues --   -0.00731  -0.00334  -0.00183   0.00288   0.00554

 Mulliken charges and spin densities:
               1          2
     1  Na   0.467135   0.042739
     2  Na   0.252688   0.210020
     3  Na  -0.433033   0.133364
     4  Na  -0.349382   0.364030
     5  Na  -0.646359   0.292488
     6  Na   0.283547  -0.030983
     7  Na   0.425403  -0.011657
 Sum of Mulliken charges =  -0.00000   1.00000

 Dipole moment (field-independent basis, Debye):
    X=             -1.0150    Y=              0.4215    Z=              0.2325  Tot=              1.1233
 Quadrupole moment (field-independent basis, Debye-Ang):
   XX=            -64.1472   YY=            -68.6860   ZZ=            -68.2311
   XY=              2.1167   XZ=              1.5322   YZ=             -1.5822

 Normal termination of Gaussian 16 at Mon Dec  4 05:20:22 2023.
