 Gaussian 16, Revision B.01,
 Gaussian 16:  ES64L-G16RevB.01 20-Dec-2017

 -------------------------
 #P B3LYP/6-311+g(d) force
 -------------------------

 -----
 DPGEN
 -----
 Symbolic Z-matrix:
 Charge =  0 Multiplicity = 2

                         Standard orientation:
 ---------------------------------------------------------------------
 Center     Atomic      Atomic             Coordinates (Angstroms)
 Number     Number       Type             X           Y           Z
 ---------------------------------------------------------------------
      1         11           0       -1.851401   -0.809169    1.917037
      2         11           0        1.420134    1.297314    1.352580
      3         11           0        3.905524    0.106097   -0.356671
      4         11           0       -2.475549    2.275855   -0.381623
      5         11           0        1.038751   -1.990009    0.039142
      6         11           0        0.573657    0.517552   -1.468179
      7         11           0       -2.611116   -1.397640   -1.102285
 ---------------------------------------------------------------------

 SCF Done:  E(UB3LYP) =  -1136.12155749     A.U. after   24 cycles

 The electronic state is 2-A.
 Alpha  occ. eigenvalues --  -38.45465 -38.44233 -38.43985 -38.43936 -38.43912
 Alpha  occ. eigenvalues --  -38.43051 -38.43042  -2.21294  -2.20072  -2.19960
 Alpha  occ. eigenvalues --   -2.19819  -2.19795  -2.18950  -2.18834  -1.14972
 Alpha  occ. eigenvalues --   -1.14946  -1.14923  -1.13786  -1.13763  -1.13731
 Alpha  occ. eigenvalues --   -1.13683  -1.13651  -1.13539  -1.13487  -1.13461
 Alpha  occ. eigenvalues --   -1.13443  -1.13436  -1.13417  -1.13402  -1.12696
 Alpha  occ. eigenvalues --   -1.12615  -1.12516  -1.12508  -1.12494  -1.12479
 Alpha  occ. eigenvalues --   -0.18652  -0.14129  -0.11016  -0.10841
 Alpha virt. eigenvalues --   -0.06822  -0.05190  -0.04635  -0.02974  -0.02675
 Alpha virt. eigenvalues --   -0.02465  -0.02286  -0.00971  -0.00777  -0.00080
 Alpha virt. eigenvalues --    0.00179   0.00242   0.00359   0.00700   0.00781

  Beta  occ. eigenvalues --  -38.45462 -38.44218 -38.43940 -38.43880 -38.43869
  Beta  occ. eigenvalues --  -38.43049 -38.43025  -2.21291  -2.20045  -2.19881
  Beta  occ. eigenvalues --   -2.19740  -2.19691  -2.18926  -2.18833  -1.14960
  Beta  occ. eigenvalues --   -1.14946  -1.14920  -1.13761  -1.13710  -1.13703
  Beta  occ. eigenvalues --   -1.13662  -1.13589  -1.13481  -1.13428  -1.13379
  Beta  occ. eigenvalues --   -1.13373  -1.13372  -1.13361  -1.13331  -1.12680
  Beta  occ. eigenvalues --   -1.12561  -1.12505  -1.12501  -1.12489  -1.12480
  Beta  occ. eigenvalues --   -0.17935  -0.13928  -0.10664
  Beta virt. eigenvalues --   -0.07124  -0.06675  -0.05080  -0.03994  -0.02866
  Beta virt. eigenvalues --   -0.02511  -0.01754  -0.01589  -0.00864  -0.00348
  Beta virt. eigenvalues --   -0.00021   0.00199   0.00234   0.00507   0.00752

 Mulliken charges and spin densities:
               1          2
     1  Na   0.043953   0.377929
     2  Na  -0.387495   0.273593
     3  Na   0.765721   0.023455
     4  Na  -0.181180  -0.059598
     5  Na  -0.166872   0.033753
     6  Na  -0.254573   0.335532
     7  Na   0.180446   0.015336
 Sum of Mulliken charges =  -0.00000   1.00000

 Dipole moment (field-independent basis, Debye):
    X=              1.3253    Y=             -0.2786    Z=             -0.0484  Tot=              1.3552
 Quadrupole moment (field-independent basis, Debye-Ang):
   XX=            -44.2906   YY=            -77.6105   ZZ=            -69.5171
   XY=              1.5629   XZ=             -0.6175   YZ=              1.5467

 Normal termination of Gaussian 16 at Fri Dec  8 03:48:32 2023.
