 Gaussian 16, Revision B.01,
 Gaussian 16:  ES64L-G16RevB.01 20-Dec-2017

 -------------------------
 #P B3LYP/6-311+g(d) force
 -------------------------

 -----
 DPGEN
 -----
 Symbolic Z-matrix:
 Charge =  0 Multiplicity = 2

                         Standard orientation:
 ---------------------------------------------------------------------
 Center     Atomic      Atomic             Coordinates (Angstroms)
 Number     Number       Type             X           Y           Z
 ---------------------------------------------------------------------
      1         11           0       -2.532716   -1.743977   -0.385585
      2         11           0       -0.773711   -0.109837    1.927894
      3         11           0        1.295081    2.512434    0.259611
      4         11           0        3.091509   -0.139683   -0.114337
      5         11           0        0.965308   -2.539104    0.300008
      6         11           0        0.214767   -0.123992   -1.717053
      7         11           0       -2.260238    2.144159   -0.270537
 ---------------------------------------------------------------------

 SCF Done:  E(UB3LYP) =  -1136.13834436     A.U. after   18 cycles

 The electronic state is 2-A.
 Alpha  occ. eigenvalues --  -38.43942 -38.43864 -38.43667 -38.43431 -38.43376
 Alpha  occ. eigenvalues --  -38.43327 -38.43221  -2.19785  -2.19680  -2.19554
 Alpha  occ. eigenvalues --   -2.19297  -2.19288  -2.19229  -2.19200  -1.13463
 Alpha  occ. eigenvalues --   -1.13458  -1.13413  -1.13357  -1.13345  -1.13316
 Alpha  occ. eigenvalues --   -1.13247  -1.13231  -1.13208  -1.12989  -1.12969
 Alpha  occ. eigenvalues --   -1.12958  -1.12946  -1.12933  -1.12922  -1.12911
 Alpha  occ. eigenvalues --   -1.12878  -1.12858  -1.12841  -1.12817  -1.12805
 Alpha  occ. eigenvalues --   -0.18831  -0.13126  -0.12538  -0.10752
 Alpha virt. eigenvalues --   -0.05558  -0.05299  -0.04542  -0.03268  -0.02965
 Alpha virt. eigenvalues --   -0.02468  -0.01424  -0.01177  -0.00285  -0.00181
 Alpha virt. eigenvalues --    0.00004   0.00369   0.00814   0.00867   0.00925

  Beta  occ. eigenvalues --  -38.43933 -38.43859 -38.43665 -38.43426 -38.43316
  Beta  occ. eigenvalues --  -38.43296 -38.43151  -2.19771  -2.19675  -2.19553
  Beta  occ. eigenvalues --   -2.19283  -2.19214  -2.19147  -2.19072  -1.13452
  Beta  occ. eigenvalues --   -1.13426  -1.13404  -1.13344  -1.13334  -1.13313
  Beta  occ. eigenvalues --   -1.13244  -1.13235  -1.13187  -1.12964  -1.12942
  Beta  occ. eigenvalues --   -1.12931  -1.12914  -1.12877  -1.12851  -1.12838
  Beta  occ. eigenvalues --   -1.12821  -1.12791  -1.12780  -1.12726  -1.12722
  Beta  occ. eigenvalues --   -0.18104  -0.12900  -0.12298
  Beta virt. eigenvalues --   -0.06841  -0.05557  -0.05224  -0.04500  -0.02515
  Beta virt. eigenvalues --   -0.02182  -0.01430  -0.01336  -0.01119  -0.00300
  Beta virt. eigenvalues --   -0.00224   0.00138   0.00401   0.00862   0.00874

 Mulliken charges and spin densities:
               1          2
     1  Na   0.182469  -0.076447
     2  Na  -0.389347   0.634576
     3  Na   0.045721  -0.053123
     4  Na   0.142170  -0.001716
     5  Na   0.282967   0.000888
     6  Na  -0.295888   0.574549
     7  Na   0.031908  -0.078727
 Sum of Mulliken charges =  -0.00000   1.00000

 Dipole moment (field-independent basis, Debye):
    X=             -0.3331    Y=              0.0185    Z=              0.0049  Tot=              0.3336
 Quadrupole moment (field-independent basis, Debye-Ang):
   XX=            -56.6425   YY=            -63.1607   ZZ=            -73.8553
   XY=              0.0243   XZ=              1.8705   YZ=              0.0284

 Normal termination of Gaussian 16 at Fri Dec  8 00:12:25 2023.
