 Gaussian 16, Revision B.01,
 Gaussian 16:  ES64L-G16RevB.01 20-Dec-2017

 -------------------------
 #P B3LYP/6-311+g(d) force
 -------------------------

 -----
 DPGEN
 -----
 Symbolic Z-matrix:
 Charge =  0 Multiplicity = 2

                         Standard orientation:
 ---------------------------------------------------------------------
 Center     Atomic      Atomic             Coordinates (Angstroms)
 Number     Number       Type             X           Y           Z
 ---------------------------------------------------------------------
      1         11           0       -2.436141   -1.324436   -1.580115
      2         11           0       -0.000699    0.974097   -1.410185
      3         11           0       -1.037820   -0.108631    2.009410
      4         11           0       -0.191975   -2.565462    0.242825
      5         11           0        3.615315    1.640877   -0.464612
      6         11           0       -2.520281    2.616187    0.614986
      7         11           0        2.571602   -1.232632    0.587692
 ---------------------------------------------------------------------

 SCF Done:  E(UB3LYP) =  -1136.12504024     A.U. after   20 cycles

 The electronic state is 2-A.
 Alpha  occ. eigenvalues --  -38.44573 -38.44349 -38.44036 -38.43991 -38.43836
 Alpha  occ. eigenvalues --  -38.43738 -38.42820  -2.20439  -2.20235  -2.19887
 Alpha  occ. eigenvalues --   -2.19784  -2.19703  -2.19533  -2.18770  -1.14112
 Alpha  occ. eigenvalues --   -1.14084  -1.14048  -1.13909  -1.13892  -1.13845
 Alpha  occ. eigenvalues --   -1.13582  -1.13556  -1.13499  -1.13482  -1.13443
 Alpha  occ. eigenvalues --   -1.13425  -1.13399  -1.13364  -1.13308  -1.13201
 Alpha  occ. eigenvalues --   -1.13192  -1.13165  -1.12445  -1.12441  -1.12410
 Alpha  occ. eigenvalues --   -0.18223  -0.13260  -0.12097  -0.11510
 Alpha virt. eigenvalues --   -0.06018  -0.05522  -0.04201  -0.03331  -0.03004
 Alpha virt. eigenvalues --   -0.02802  -0.01787  -0.01353  -0.00623  -0.00291
 Alpha virt. eigenvalues --    0.00095   0.00262   0.00511   0.00726   0.00815

  Beta  occ. eigenvalues --  -38.44503 -38.44275 -38.44003 -38.43987 -38.43828
  Beta  occ. eigenvalues --  -38.43725 -38.42811  -2.20310  -2.20099  -2.19828
  Beta  occ. eigenvalues --   -2.19777  -2.19691  -2.19511  -2.18760  -1.14020
  Beta  occ. eigenvalues --   -1.13992  -1.13960  -1.13818  -1.13801  -1.13738
  Beta  occ. eigenvalues --   -1.13544  -1.13497  -1.13479  -1.13461  -1.13438
  Beta  occ. eigenvalues --   -1.13416  -1.13395  -1.13350  -1.13291  -1.13179
  Beta  occ. eigenvalues --   -1.13170  -1.13154  -1.12443  -1.12432  -1.12364
  Beta  occ. eigenvalues --   -0.17516  -0.12998  -0.11798
  Beta virt. eigenvalues --   -0.07692  -0.05767  -0.05321  -0.03980  -0.02824
  Beta virt. eigenvalues --   -0.02473  -0.02146  -0.01497  -0.01165  -0.00451
  Beta virt. eigenvalues --   -0.00145   0.00145   0.00328   0.00628   0.00781

 Mulliken charges and spin densities:
               1          2
     1  Na   0.190131   0.156775
     2  Na  -0.479429   0.422910
     3  Na  -0.186297   0.383347
     4  Na   0.483040   0.089995
     5  Na   0.292621  -0.021990
     6  Na  -0.027473  -0.043641
     7  Na  -0.272593   0.012605
 Sum of Mulliken charges =  -0.00000   1.00000

 Dipole moment (field-independent basis, Debye):
    X=             -0.3922    Y=              0.3076    Z=             -0.0280  Tot=              0.4992
 Quadrupole moment (field-independent basis, Debye-Ang):
   XX=            -58.3107   YY=            -67.1241   ZZ=            -70.1167
   XY=              1.1924   XZ=              1.9638   YZ=              0.1954

 Normal termination of Gaussian 16 at Tue Dec  5 15:26:30 2023.
