 Gaussian 16, Revision B.01,
 Gaussian 16:  ES64L-G16RevB.01 20-Dec-2017

 -------------------------
 #P B3LYP/6-311+g(d) force
 -------------------------

 -----
 DPGEN
 -----
 Symbolic Z-matrix:
 Charge =  0 Multiplicity = 2

                         Standard orientation:
 ---------------------------------------------------------------------
 Center     Atomic      Atomic             Coordinates (Angstroms)
 Number     Number       Type             X           Y           Z
 ---------------------------------------------------------------------
      1         11           0        2.691698   -0.282590    1.532758
      2         11           0        4.088703   -1.290373   -1.061365
      3         11           0        1.783526    1.804964   -0.722861
      4         11           0       -1.170130    2.593075    0.728283
      5         11           0       -3.144637    1.129632   -0.826363
      6         11           0       -0.577434   -1.653589    0.336149
      7         11           0       -3.671726   -2.301119    0.013399
 ---------------------------------------------------------------------

 SCF Done:  E(UB3LYP) =  -1136.11648925     A.U. after   23 cycles

 The electronic state is 2-A.
 Alpha  occ. eigenvalues --  -38.45189 -38.44732 -38.44098 -38.43891 -38.43878
 Alpha  occ. eigenvalues --  -38.43748 -38.43288  -2.21012  -2.20610  -2.19965
 Alpha  occ. eigenvalues --   -2.19742  -2.19688  -2.19578  -2.19153  -1.14724
 Alpha  occ. eigenvalues --   -1.14692  -1.14620  -1.14281  -1.14275  -1.14253
 Alpha  occ. eigenvalues --   -1.13712  -1.13614  -1.13564  -1.13398  -1.13392
 Alpha  occ. eigenvalues --   -1.13373  -1.13357  -1.13350  -1.13332  -1.13264
 Alpha  occ. eigenvalues --   -1.13232  -1.13167  -1.12845  -1.12791  -1.12782
 Alpha  occ. eigenvalues --   -0.17412  -0.14563  -0.12028  -0.10147
 Alpha virt. eigenvalues --   -0.06669  -0.05879  -0.04770  -0.03409  -0.02672
 Alpha virt. eigenvalues --   -0.02480  -0.01800  -0.01646  -0.00970  -0.00503
 Alpha virt. eigenvalues --   -0.00118   0.00074   0.00217   0.00391   0.00568

  Beta  occ. eigenvalues --  -38.45185 -38.44717 -38.44053 -38.43881 -38.43810
  Beta  occ. eigenvalues --  -38.43705 -38.43287  -2.21008  -2.20589  -2.19882
  Beta  occ. eigenvalues --   -2.19696  -2.19592  -2.19500  -2.19153  -1.14715
  Beta  occ. eigenvalues --   -1.14686  -1.14611  -1.14268  -1.14265  -1.14194
  Beta  occ. eigenvalues --   -1.13659  -1.13556  -1.13507  -1.13386  -1.13356
  Beta  occ. eigenvalues --   -1.13328  -1.13298  -1.13266  -1.13258  -1.13209
  Beta  occ. eigenvalues --   -1.13180  -1.13115  -1.12837  -1.12797  -1.12762
  Beta  occ. eigenvalues --   -0.16842  -0.14088  -0.11839
  Beta virt. eigenvalues --   -0.06684  -0.06398  -0.05627  -0.04305  -0.03215
  Beta virt. eigenvalues --   -0.02431  -0.02040  -0.01621  -0.01287  -0.00747
  Beta virt. eigenvalues --   -0.00234   0.00079   0.00241   0.00323   0.00568

 Mulliken charges and spin densities:
               1          2
     1  Na   0.542937   0.285400
     2  Na   0.370511   0.513008
     3  Na   0.000518  -0.034240
     4  Na  -0.011661   0.036762
     5  Na  -0.091896   0.244138
     6  Na  -1.039052   0.009479
     7  Na   0.228644  -0.054548
 Sum of Mulliken charges =  -0.00000   1.00000

 Dipole moment (field-independent basis, Debye):
    X=              0.2029    Y=             -0.0065    Z=              0.3130  Tot=              0.3731
 Quadrupole moment (field-independent basis, Debye-Ang):
   XX=            -65.5616   YY=            -71.4127   ZZ=            -65.9491
   XY=              4.6737   XZ=              2.5342   YZ=              0.7232

 Normal termination of Gaussian 16 at Sun Dec  3 20:17:47 2023.
