 Gaussian 16, Revision B.01,
 Gaussian 16:  ES64L-G16RevB.01 20-Dec-2017

 -------------------------
 #P B3LYP/6-311+g(d) force
 -------------------------

 -----
 DPGEN
 -----
 Symbolic Z-matrix:
 Charge =  0 Multiplicity = 2

                         Standard orientation:
 ---------------------------------------------------------------------
 Center     Atomic      Atomic             Coordinates (Angstroms)
 Number     Number       Type             X           Y           Z
 ---------------------------------------------------------------------
      1         11           0        1.421561   -2.309906    0.005982
      2         11           0        0.459596    2.961760   -0.424758
      3         11           0       -2.960175    1.229967    0.144749
      4         11           0       -2.313167   -1.985064   -0.008677
      5         11           0       -0.437092   -0.365446   -1.584518
      6         11           0        3.532915    0.207923   -0.201088
      7         11           0        0.296362    0.260766    2.068311
 ---------------------------------------------------------------------

 SCF Done:  E(UB3LYP) =  -1136.13000750     A.U. after   20 cycles

 The electronic state is 2-A.
 Alpha  occ. eigenvalues --  -38.44944 -38.44372 -38.43673 -38.43590 -38.43380
 Alpha  occ. eigenvalues --  -38.43363 -38.43230  -2.20720  -2.20199  -2.19569
 Alpha  occ. eigenvalues --   -2.19455  -2.19361  -2.19170  -2.19125  -1.14391
 Alpha  occ. eigenvalues --   -1.14387  -1.14355  -1.13879  -1.13868  -1.13831
 Alpha  occ. eigenvalues --   -1.13369  -1.13208  -1.13191  -1.13132  -1.13083
 Alpha  occ. eigenvalues --   -1.13071  -1.13056  -1.12992  -1.12958  -1.12848
 Alpha  occ. eigenvalues --   -1.12834  -1.12802  -1.12800  -1.12784  -1.12738
 Alpha  occ. eigenvalues --   -0.18491  -0.13331  -0.12077  -0.10536
 Alpha virt. eigenvalues --   -0.06429  -0.05104  -0.04411  -0.03332  -0.02786
 Alpha virt. eigenvalues --   -0.02331  -0.02021  -0.01121  -0.00551  -0.00273
 Alpha virt. eigenvalues --   -0.00042   0.00314   0.00731   0.00798   0.00824

  Beta  occ. eigenvalues --  -38.44944 -38.44369 -38.43668 -38.43496 -38.43372
  Beta  occ. eigenvalues --  -38.43305 -38.43221  -2.20722  -2.20195  -2.19563
  Beta  occ. eigenvalues --   -2.19282  -2.19257  -2.19157  -2.19113  -1.14394
  Beta  occ. eigenvalues --   -1.14375  -1.14358  -1.13880  -1.13844  -1.13831
  Beta  occ. eigenvalues --   -1.13349  -1.13195  -1.13178  -1.13023  -1.12987
  Beta  occ. eigenvalues --   -1.12960  -1.12947  -1.12920  -1.12891  -1.12830
  Beta  occ. eigenvalues --   -1.12817  -1.12794  -1.12785  -1.12742  -1.12733
  Beta  occ. eigenvalues --   -0.17773  -0.13142  -0.11839
  Beta virt. eigenvalues --   -0.06653  -0.06356  -0.05097  -0.04350  -0.02578
  Beta virt. eigenvalues --   -0.02019  -0.01924  -0.01339  -0.01077  -0.00572
  Beta virt. eigenvalues --   -0.00301   0.00120   0.00350   0.00786   0.00831

 Mulliken charges and spin densities:
               1          2
     1  Na   0.307998   0.001714
     2  Na  -0.111452  -0.080463
     3  Na   0.126304  -0.017614
     4  Na   0.503465   0.048473
     5  Na  -0.257141   0.444761
     6  Na  -0.029445  -0.072892
     7  Na  -0.539728   0.676021
 Sum of Mulliken charges =  -0.00000   1.00000

 Dipole moment (field-independent basis, Debye):
    X=              0.1920    Y=              0.1874    Z=              0.1593  Tot=              0.3120
 Quadrupole moment (field-independent basis, Debye-Ang):
   XX=            -50.9830   YY=            -66.3598   ZZ=            -75.3720
   XY=              0.6096   XZ=             -1.7051   YZ=             -1.2022

 Normal termination of Gaussian 16 at Fri Dec  8 04:16:31 2023.
