 Gaussian 16, Revision B.01,
 Gaussian 16:  ES64L-G16RevB.01 20-Dec-2017

 -------------------------
 #P B3LYP/6-311+g(d) force
 -------------------------

 -----
 DPGEN
 -----
 Symbolic Z-matrix:
 Charge =  0 Multiplicity = 2

                         Standard orientation:
 ---------------------------------------------------------------------
 Center     Atomic      Atomic             Coordinates (Angstroms)
 Number     Number       Type             X           Y           Z
 ---------------------------------------------------------------------
      1         11           0       -0.270351   -0.873292   -1.290626
      2         11           0       -1.981321    2.268237   -0.209907
      3         11           0       -4.129074   -1.485934   -0.159021
      4         11           0        2.067368   -3.108027    0.309097
      5         11           0        3.307716    0.116526   -0.406306
      6         11           0        1.401643    2.994557   -0.011601
      7         11           0       -0.395979    0.087933    1.768364
 ---------------------------------------------------------------------

 SCF Done:  E(UB3LYP) =  -1136.12016064     A.U. after   23 cycles

 The electronic state is 2-A.
 Alpha  occ. eigenvalues --  -38.44918 -38.44671 -38.44388 -38.44210 -38.44145
 Alpha  occ. eigenvalues --  -38.43726 -38.43185  -2.20743  -2.20490  -2.20173
 Alpha  occ. eigenvalues --   -2.20020  -2.19963  -2.19549  -2.19002  -1.14490
 Alpha  occ. eigenvalues --   -1.14413  -1.14333  -1.14184  -1.14169  -1.14096
 Alpha  occ. eigenvalues --   -1.13846  -1.13828  -1.13805  -1.13713  -1.13640
 Alpha  occ. eigenvalues --   -1.13626  -1.13622  -1.13619  -1.13567  -1.13229
 Alpha  occ. eigenvalues --   -1.13215  -1.13165  -1.12685  -1.12666  -1.12642
 Alpha  occ. eigenvalues --   -0.17703  -0.13255  -0.12266  -0.09783
 Alpha virt. eigenvalues --   -0.06774  -0.06130  -0.04872  -0.02936  -0.02792
 Alpha virt. eigenvalues --   -0.02304  -0.01989  -0.01653  -0.01232  -0.00645
 Alpha virt. eigenvalues --   -0.00200   0.00080   0.00506   0.00520   0.00563

  Beta  occ. eigenvalues --  -38.44919 -38.44668 -38.44379 -38.44152 -38.44070
  Beta  occ. eigenvalues --  -38.43692 -38.43180  -2.20748  -2.20489  -2.20156
  Beta  occ. eigenvalues --   -2.19880  -2.19853  -2.19486  -2.18997  -1.14477
  Beta  occ. eigenvalues --   -1.14413  -1.14341  -1.14178  -1.14157  -1.14099
  Beta  occ. eigenvalues --   -1.13836  -1.13810  -1.13793  -1.13620  -1.13554
  Beta  occ. eigenvalues --   -1.13547  -1.13547  -1.13514  -1.13496  -1.13183
  Beta  occ. eigenvalues --   -1.13175  -1.13112  -1.12685  -1.12663  -1.12615
  Beta  occ. eigenvalues --   -0.17279  -0.12996  -0.11774
  Beta virt. eigenvalues --   -0.06504  -0.06286  -0.06014  -0.04724  -0.02594
  Beta virt. eigenvalues --   -0.02316  -0.01949  -0.01839  -0.01200  -0.01039
  Beta virt. eigenvalues --   -0.00517  -0.00019   0.00239   0.00577   0.00666

 Mulliken charges and spin densities:
               1          2
     1  Na  -0.142125   0.217063
     2  Na   0.187428   0.008776
     3  Na  -0.153254   0.349759
     4  Na   0.075749   0.025213
     5  Na   0.055956   0.218399
     6  Na  -0.245031   0.017010
     7  Na   0.221276   0.163780
 Sum of Mulliken charges =  -0.00000   1.00000

 Dipole moment (field-independent basis, Debye):
    X=             -0.0248    Y=             -0.3595    Z=              0.5918  Tot=              0.6928
 Quadrupole moment (field-independent basis, Debye-Ang):
   XX=            -66.6844   YY=            -62.0927   ZZ=            -71.4507
   XY=             -7.8234   XZ=              0.3612   YZ=             -1.9321

 Normal termination of Gaussian 16 at Thu Dec  7 11:34:46 2023.
