 Gaussian 16, Revision B.01,
 Gaussian 16:  ES64L-G16RevB.01 20-Dec-2017

 -------------------------
 #P B3LYP/6-311+g(d) force
 -------------------------

 -----
 DPGEN
 -----
 Symbolic Z-matrix:
 Charge =  0 Multiplicity = 2

                         Standard orientation:
 ---------------------------------------------------------------------
 Center     Atomic      Atomic             Coordinates (Angstroms)
 Number     Number       Type             X           Y           Z
 ---------------------------------------------------------------------
      1         11           0       -0.155998   -0.279712    1.840968
      2         11           0        0.187534   -2.107306   -0.509236
      3         11           0        4.149419    0.058177    0.138831
      4         11           0        1.255179    0.917870   -0.427542
      5         11           0       -1.451069    2.211574    0.127230
      6         11           0       -1.245178   -0.017628   -1.791970
      7         11           0       -2.739887   -0.782975    0.621720
 ---------------------------------------------------------------------

 SCF Done:  E(UB3LYP) =  -1136.09686965     A.U. after   26 cycles

 The electronic state is 2-A.
 Alpha  occ. eigenvalues --  -38.45649 -38.44622 -38.44445 -38.44049 -38.42932
 Alpha  occ. eigenvalues --  -38.42796 -38.42304  -2.21417  -2.20639  -2.20531
 Alpha  occ. eigenvalues --   -2.20214  -2.19052  -2.18822  -2.18319  -1.15108
 Alpha  occ. eigenvalues --   -1.15071  -1.15047  -1.14469  -1.14390  -1.14263
 Alpha  occ. eigenvalues --   -1.14203  -1.14113  -1.14073  -1.13952  -1.13837
 Alpha  occ. eigenvalues --   -1.13810  -1.12790  -1.12731  -1.12658  -1.12539
 Alpha  occ. eigenvalues --   -1.12493  -1.12364  -1.12017  -1.11964  -1.11942
 Alpha  occ. eigenvalues --   -0.20458  -0.13569  -0.11974  -0.11698
 Alpha virt. eigenvalues --   -0.07241  -0.03657  -0.03558  -0.03387  -0.02749
 Alpha virt. eigenvalues --   -0.02636  -0.02550  -0.00649  -0.00483   0.00045
 Alpha virt. eigenvalues --    0.00257   0.00372   0.00421   0.00868   0.01082

  Beta  occ. eigenvalues --  -38.45661 -38.44592 -38.44360 -38.43958 -38.42907
  Beta  occ. eigenvalues --  -38.42775 -38.42294  -2.21440  -2.20587  -2.20379
  Beta  occ. eigenvalues --   -2.20050  -2.19013  -2.18790  -2.18307  -1.15125
  Beta  occ. eigenvalues --   -1.15084  -1.15062  -1.14405  -1.14322  -1.14170
  Beta  occ. eigenvalues --   -1.14159  -1.14009  -1.13975  -1.13835  -1.13721
  Beta  occ. eigenvalues --   -1.13696  -1.12775  -1.12652  -1.12633  -1.12518
  Beta  occ. eigenvalues --   -1.12429  -1.12346  -1.12012  -1.11949  -1.11901
  Beta  occ. eigenvalues --   -0.19591  -0.13435  -0.11372
  Beta virt. eigenvalues --   -0.07672  -0.07111  -0.03653  -0.03279  -0.02880
  Beta virt. eigenvalues --   -0.02511  -0.01828  -0.01650  -0.00593  -0.00231
  Beta virt. eigenvalues --    0.00074   0.00262   0.00407   0.00579   0.00901

 Mulliken charges and spin densities:
               1          2
     1  Na   0.064676   0.668807
     2  Na  -0.278265  -0.083199
     3  Na   0.486196  -0.055204
     4  Na  -0.391013   0.164498
     5  Na  -0.452305  -0.098412
     6  Na   0.435775   0.364995
     7  Na   0.134937   0.038514
 Sum of Mulliken charges =  -0.00000   1.00000

 Dipole moment (field-independent basis, Debye):
    X=              0.8230    Y=             -0.4063    Z=              0.3297  Tot=              0.9753
 Quadrupole moment (field-independent basis, Debye-Ang):
   XX=            -46.3563   YY=            -75.7659   ZZ=            -68.8206
   XY=             -1.1599   XZ=              0.3454   YZ=              0.7503

 Normal termination of Gaussian 16 at Sat Dec  9 05:57:08 2023.
