 Gaussian 16, Revision B.01,
 Gaussian 16:  ES64L-G16RevB.01 20-Dec-2017

 -------------------------
 #P B3LYP/6-311+g(d) force
 -------------------------

 -----
 DPGEN
 -----
 Symbolic Z-matrix:
 Charge =  0 Multiplicity = 2

                         Standard orientation:
 ---------------------------------------------------------------------
 Center     Atomic      Atomic             Coordinates (Angstroms)
 Number     Number       Type             X           Y           Z
 ---------------------------------------------------------------------
      1         11           0       -1.389527    3.083432   -0.142745
      2         11           0       -0.641063    0.468689    0.125944
      3         11           0       -3.284086   -0.522620    0.097092
      4         11           0       -1.101287   -2.826972   -0.207918
      5         11           0        2.078605   -1.978933   -0.008836
      6         11           0        2.260579    0.976884   -1.592849
      7         11           0        2.076779    0.799521    1.729312
 ---------------------------------------------------------------------

 SCF Done:  E(UB3LYP) =  -1136.11549620     A.U. after   25 cycles

 The electronic state is 2-A.
 Alpha  occ. eigenvalues --  -38.44781 -38.44718 -38.43986 -38.43730 -38.43597
 Alpha  occ. eigenvalues --  -38.43527 -38.42880  -2.20661  -2.20554  -2.19873
 Alpha  occ. eigenvalues --   -2.19612  -2.19465  -2.19446  -2.19061  -1.14440
 Alpha  occ. eigenvalues --   -1.14372  -1.14298  -1.14260  -1.14180  -1.14143
 Alpha  occ. eigenvalues --   -1.13553  -1.13544  -1.13535  -1.13278  -1.13267
 Alpha  occ. eigenvalues --   -1.13227  -1.13145  -1.13135  -1.13115  -1.13111
 Alpha  occ. eigenvalues --   -1.13063  -1.13055  -1.12719  -1.12717  -1.12696
 Alpha  occ. eigenvalues --   -0.18591  -0.13802  -0.12704  -0.10020
 Alpha virt. eigenvalues --   -0.06318  -0.05426  -0.04872  -0.03187  -0.02415
 Alpha virt. eigenvalues --   -0.02018  -0.01513  -0.01382  -0.00583  -0.00511
 Alpha virt. eigenvalues --   -0.00120   0.00339   0.00644   0.00713   0.00790

  Beta  occ. eigenvalues --  -38.44783 -38.44718 -38.43974 -38.43663 -38.43597
  Beta  occ. eigenvalues --  -38.43452 -38.42861  -2.20665  -2.20557  -2.19857
  Beta  occ. eigenvalues --   -2.19488  -2.19465  -2.19308  -2.19033  -1.14442
  Beta  occ. eigenvalues --   -1.14375  -1.14296  -1.14266  -1.14170  -1.14147
  Beta  occ. eigenvalues --   -1.13547  -1.13532  -1.13483  -1.13196  -1.13173
  Beta  occ. eigenvalues --   -1.13145  -1.13140  -1.13118  -1.13102  -1.13042
  Beta  occ. eigenvalues --   -1.12962  -1.12957  -1.12707  -1.12702  -1.12621
  Beta  occ. eigenvalues --   -0.18014  -0.13561  -0.12561
  Beta virt. eigenvalues --   -0.06281  -0.06032  -0.05280  -0.04718  -0.02648
  Beta virt. eigenvalues --   -0.01871  -0.01621  -0.01431  -0.00859  -0.00587
  Beta virt. eigenvalues --   -0.00363   0.00215   0.00435   0.00706   0.00803

 Mulliken charges and spin densities:
               1          2
     1  Na   0.490335   0.097111
     2  Na  -3.331723   0.532343
     3  Na   0.237065  -0.278580
     4  Na   0.825426  -0.190880
     5  Na   1.005672   0.464369
     6  Na   0.037809   0.237830
     7  Na   0.735416   0.137807
 Sum of Mulliken charges =  -0.00000   1.00000

 Dipole moment (field-independent basis, Debye):
    X=             -0.7123    Y=              0.1516    Z=             -0.0299  Tot=              0.7289
 Quadrupole moment (field-independent basis, Debye-Ang):
   XX=            -56.4140   YY=            -58.6228   ZZ=            -77.0255
   XY=             -1.2827   XZ=              0.1607   YZ=             -0.0468

 Normal termination of Gaussian 16 at Fri Dec  8 20:09:14 2023.
