 Gaussian 16, Revision B.01,
 Gaussian 16:  ES64L-G16RevB.01 20-Dec-2017

 -------------------------
 #P B3LYP/6-311+g(d) force
 -------------------------

 -----
 DPGEN
 -----
 Symbolic Z-matrix:
 Charge =  0 Multiplicity = 2

                         Standard orientation:
 ---------------------------------------------------------------------
 Center     Atomic      Atomic             Coordinates (Angstroms)
 Number     Number       Type             X           Y           Z
 ---------------------------------------------------------------------
      1         11           0       -0.262053   -0.260416    1.794299
      2         11           0        1.046281   -2.092750   -1.164384
      3         11           0       -2.192640    0.322784   -1.276207
      4         11           0       -2.728001   -2.240302    0.472359
      5         11           0       -1.091423    3.313868    0.383934
      6         11           0        3.476111   -0.778061    0.560028
      7         11           0        1.751724    1.734878   -0.770029
 ---------------------------------------------------------------------

 SCF Done:  E(UB3LYP) =  -1136.13266459     A.U. after   20 cycles

 The electronic state is 2-A.
 Alpha  occ. eigenvalues --  -38.44187 -38.44172 -38.44027 -38.43925 -38.43743
 Alpha  occ. eigenvalues --  -38.43442 -38.43413  -2.20013  -2.20007  -2.19860
 Alpha  occ. eigenvalues --   -2.19758  -2.19605  -2.19289  -2.19242  -1.13727
 Alpha  occ. eigenvalues --   -1.13699  -1.13681  -1.13669  -1.13649  -1.13587
 Alpha  occ. eigenvalues --   -1.13545  -1.13540  -1.13475  -1.13469  -1.13418
 Alpha  occ. eigenvalues --   -1.13395  -1.13277  -1.13263  -1.13209  -1.12966
 Alpha  occ. eigenvalues --   -1.12921  -1.12909  -1.12908  -1.12901  -1.12884
 Alpha  occ. eigenvalues --   -0.17957  -0.13385  -0.12350  -0.10223
 Alpha virt. eigenvalues --   -0.05934  -0.05444  -0.04984  -0.03459  -0.02859
 Alpha virt. eigenvalues --   -0.02237  -0.01750  -0.01340  -0.00703  -0.00356
 Alpha virt. eigenvalues --    0.00099   0.00321   0.00581   0.00722   0.00743

  Beta  occ. eigenvalues --  -38.44171 -38.44154 -38.44019 -38.43921 -38.43710
  Beta  occ. eigenvalues --  -38.43443 -38.43330  -2.20007  -2.19955  -2.19846
  Beta  occ. eigenvalues --   -2.19754  -2.19545  -2.19246  -2.19136  -1.13709
  Beta  occ. eigenvalues --   -1.13692  -1.13648  -1.13638  -1.13619  -1.13559
  Beta  occ. eigenvalues --   -1.13536  -1.13511  -1.13469  -1.13463  -1.13400
  Beta  occ. eigenvalues --   -1.13385  -1.13237  -1.13211  -1.13170  -1.12913
  Beta  occ. eigenvalues --   -1.12894  -1.12889  -1.12859  -1.12811  -1.12798
  Beta  occ. eigenvalues --   -0.17287  -0.13200  -0.12183
  Beta virt. eigenvalues --   -0.06485  -0.05810  -0.05361  -0.04820  -0.02819
  Beta virt. eigenvalues --   -0.02263  -0.01672  -0.01365  -0.01269  -0.00585
  Beta virt. eigenvalues --   -0.00222   0.00208   0.00379   0.00698   0.00772

 Mulliken charges and spin densities:
               1          2
     1  Na  -0.489705   0.624530
     2  Na  -0.265464   0.166365
     3  Na  -0.176940   0.302439
     4  Na   0.377548  -0.081663
     5  Na   0.284169  -0.072843
     6  Na   0.543518  -0.016018
     7  Na  -0.273126   0.077189
 Sum of Mulliken charges =  -0.00000   1.00000

 Dipole moment (field-independent basis, Debye):
    X=              0.3717    Y=             -0.3099    Z=              0.0295  Tot=              0.4849
 Quadrupole moment (field-independent basis, Debye-Ang):
   XX=            -56.1049   YY=            -62.9062   ZZ=            -74.5208
   XY=              0.4525   XZ=              0.7282   YZ=              0.3038

 Normal termination of Gaussian 16 at Sun Dec  3 22:11:33 2023.
