 Gaussian 16, Revision B.01,
 Gaussian 16:  ES64L-G16RevB.01 20-Dec-2017

 -------------------------
 #P B3LYP/6-311+g(d) force
 -------------------------

 -----
 DPGEN
 -----
 Symbolic Z-matrix:
 Charge =  0 Multiplicity = 2

                         Standard orientation:
 ---------------------------------------------------------------------
 Center     Atomic      Atomic             Coordinates (Angstroms)
 Number     Number       Type             X           Y           Z
 ---------------------------------------------------------------------
      1         11           0        0.164686   -0.431171   -1.672404
      2         11           0        2.956826   -1.784277   -0.402168
      3         11           0       -2.200602   -2.792358    0.403354
      4         11           0        0.183006   -0.330752    2.035054
      5         11           0       -2.754629    0.857411   -0.726682
      6         11           0       -0.571716    2.982924    0.296472
      7         11           0        2.222430    1.498224    0.066376
 ---------------------------------------------------------------------

 SCF Done:  E(UB3LYP) =  -1136.13191626     A.U. after   20 cycles

 The electronic state is 2-A.
 Alpha  occ. eigenvalues --  -38.44107 -38.44027 -38.44025 -38.43903 -38.43633
 Alpha  occ. eigenvalues --  -38.43567 -38.43126  -2.19928  -2.19886  -2.19787
 Alpha  occ. eigenvalues --   -2.19751  -2.19556  -2.19491  -2.18998  -1.13603
 Alpha  occ. eigenvalues --   -1.13581  -1.13576  -1.13561  -1.13517  -1.13504
 Alpha  occ. eigenvalues --   -1.13458  -1.13451  -1.13446  -1.13423  -1.13421
 Alpha  occ. eigenvalues --   -1.13363  -1.13266  -1.13202  -1.13183  -1.13165
 Alpha  occ. eigenvalues --   -1.13148  -1.13109  -1.12674  -1.12651  -1.12640
 Alpha  occ. eigenvalues --   -0.18405  -0.13043  -0.12262  -0.10949
 Alpha virt. eigenvalues --   -0.05810  -0.05414  -0.04505  -0.03173  -0.02978
 Alpha virt. eigenvalues --   -0.02661  -0.01681  -0.01396  -0.00417  -0.00173
 Alpha virt. eigenvalues --   -0.00012   0.00315   0.00760   0.00779   0.00813

  Beta  occ. eigenvalues --  -38.44098 -38.44021 -38.43936 -38.43883 -38.43575
  Beta  occ. eigenvalues --  -38.43557 -38.43125  -2.19914  -2.19777  -2.19722
  Beta  occ. eigenvalues --   -2.19714  -2.19477  -2.19451  -2.18999  -1.13584
  Beta  occ. eigenvalues --   -1.13573  -1.13557  -1.13455  -1.13448  -1.13435
  Beta  occ. eigenvalues --   -1.13423  -1.13416  -1.13406  -1.13393  -1.13373
  Beta  occ. eigenvalues --   -1.13338  -1.13221  -1.13150  -1.13130  -1.13116
  Beta  occ. eigenvalues --   -1.13104  -1.13072  -1.12678  -1.12654  -1.12616
  Beta  occ. eigenvalues --   -0.17692  -0.12771  -0.12019
  Beta virt. eigenvalues --   -0.07141  -0.05710  -0.05250  -0.04413  -0.02551
  Beta virt. eigenvalues --   -0.02308  -0.01722  -0.01551  -0.01226  -0.00430
  Beta virt. eigenvalues --   -0.00145   0.00100   0.00358   0.00789   0.00842

 Mulliken charges and spin densities:
               1          2
     1  Na  -0.014405   0.197875
     2  Na   0.248711   0.021665
     3  Na  -0.174300  -0.001362
     4  Na  -0.270103   0.530979
     5  Na   0.241026   0.085722
     6  Na  -0.203328   0.005884
     7  Na   0.172401   0.159237
 Sum of Mulliken charges =  -0.00000   1.00000

 Dipole moment (field-independent basis, Debye):
    X=              0.2259    Y=             -0.5666    Z=              0.1102  Tot=              0.6198
 Quadrupole moment (field-independent basis, Debye-Ang):
   XX=            -58.9466   YY=            -61.9710   ZZ=            -73.2754
   XY=             -1.4801   XZ=              0.2820   YZ=             -0.1264

 Normal termination of Gaussian 16 at Thu Dec  7 17:18:25 2023.
