 Gaussian 16, Revision B.01,
 Gaussian 16:  ES64L-G16RevB.01 20-Dec-2017

 -------------------------
 #P B3LYP/6-311+g(d) force
 -------------------------

 -----
 DPGEN
 -----
 Symbolic Z-matrix:
 Charge =  0 Multiplicity = 2

                         Standard orientation:
 ---------------------------------------------------------------------
 Center     Atomic      Atomic             Coordinates (Angstroms)
 Number     Number       Type             X           Y           Z
 ---------------------------------------------------------------------
      1         11           0       -3.033627    1.054552   -0.008208
      2         11           0        0.156014    2.901415    0.314562
      3         11           0       -0.056985   -0.674930    2.297735
      4         11           0       -1.968316   -1.986400   -0.761307
      5         11           0       -0.029148    0.498229   -1.381929
      6         11           0        1.493249   -2.558635   -0.052928
      7         11           0        3.438812    0.765768   -0.407925
 ---------------------------------------------------------------------

 SCF Done:  E(UB3LYP) =  -1136.13212806     A.U. after   19 cycles

 The electronic state is 2-A.
 Alpha  occ. eigenvalues --  -38.44437 -38.44000 -38.43909 -38.43683 -38.43521
 Alpha  occ. eigenvalues --  -38.43400 -38.43192  -2.20200  -2.19839  -2.19754
 Alpha  occ. eigenvalues --   -2.19529  -2.19349  -2.19283  -2.19202  -1.13878
 Alpha  occ. eigenvalues --   -1.13845  -1.13838  -1.13523  -1.13501  -1.13482
 Alpha  occ. eigenvalues --   -1.13405  -1.13382  -1.13375  -1.13324  -1.13180
 Alpha  occ. eigenvalues --   -1.13123  -1.13031  -1.13027  -1.13003  -1.12980
 Alpha  occ. eigenvalues --   -1.12934  -1.12894  -1.12877  -1.12832  -1.12793
 Alpha  occ. eigenvalues --   -0.18331  -0.12822  -0.12442  -0.10816
 Alpha virt. eigenvalues --   -0.05962  -0.05082  -0.04597  -0.03195  -0.02930
 Alpha virt. eigenvalues --   -0.02605  -0.01809  -0.01077  -0.00434  -0.00352
 Alpha virt. eigenvalues --   -0.00061   0.00306   0.00754   0.00842   0.00874

  Beta  occ. eigenvalues --  -38.44429 -38.43998 -38.43802 -38.43677 -38.43518
  Beta  occ. eigenvalues --  -38.43378 -38.43154  -2.20186  -2.19839  -2.19557
  Beta  occ. eigenvalues --   -2.19520  -2.19347  -2.19246  -2.19135  -1.13861
  Beta  occ. eigenvalues --   -1.13838  -1.13831  -1.13520  -1.13497  -1.13470
  Beta  occ. eigenvalues --   -1.13312  -1.13275  -1.13247  -1.13235  -1.13161
  Beta  occ. eigenvalues --   -1.13117  -1.13027  -1.13001  -1.12981  -1.12971
  Beta  occ. eigenvalues --   -1.12902  -1.12865  -1.12824  -1.12790  -1.12743
  Beta  occ. eigenvalues --   -0.17649  -0.12582  -0.12232
  Beta virt. eigenvalues --   -0.06910  -0.05878  -0.05026  -0.04496  -0.02401
  Beta virt. eigenvalues --   -0.02306  -0.01733  -0.01576  -0.01010  -0.00435
  Beta virt. eigenvalues --   -0.00354   0.00117   0.00357   0.00816   0.00863

 Mulliken charges and spin densities:
               1          2
     1  Na   0.179643   0.073546
     2  Na   0.028154   0.120498
     3  Na  -0.593332   0.663360
     4  Na   0.308317   0.086142
     5  Na  -0.165053   0.017045
     6  Na   0.206584   0.037575
     7  Na   0.035687   0.001836
 Sum of Mulliken charges =  -0.00000   1.00000

 Dipole moment (field-independent basis, Debye):
    X=              0.1501    Y=              0.1481    Z=              0.2665  Tot=              0.3399
 Quadrupole moment (field-independent basis, Debye-Ang):
   XX=            -55.2363   YY=            -64.3614   ZZ=            -73.7855
   XY=             -0.6434   XZ=             -0.5092   YZ=              2.4868

 Normal termination of Gaussian 16 at Thu Dec  7 19:03:49 2023.
