 Gaussian 16, Revision B.01,
 Gaussian 16:  ES64L-G16RevB.01 20-Dec-2017

 -------------------------
 #P B3LYP/6-311+g(d) force
 -------------------------

 -----
 DPGEN
 -----
 Symbolic Z-matrix:
 Charge =  0 Multiplicity = 2

                         Standard orientation:
 ---------------------------------------------------------------------
 Center     Atomic      Atomic             Coordinates (Angstroms)
 Number     Number       Type             X           Y           Z
 ---------------------------------------------------------------------
      1         11           0       -2.333398    1.395996   -0.075487
      2         11           0        0.969413    1.065107    0.909048
      3         11           0        2.185761   -2.756977    0.367264
      4         11           0       -1.184187   -1.784395   -0.882464
      5         11           0       -4.508186   -1.296859    0.303866
      6         11           0        4.436195   -0.293767   -0.316098
      7         11           0        0.434402    3.670895   -0.306129
 ---------------------------------------------------------------------

 SCF Done:  E(UB3LYP) =  -1136.12502548     A.U. after   19 cycles

 The electronic state is 2-A.
 Alpha  occ. eigenvalues --  -38.44344 -38.44316 -38.44270 -38.43871 -38.43714
 Alpha  occ. eigenvalues --  -38.43713 -38.43562  -2.20229  -2.20170  -2.20114
 Alpha  occ. eigenvalues --   -2.19664  -2.19547  -2.19531  -2.19373  -1.14039
 Alpha  occ. eigenvalues --   -1.13924  -1.13890  -1.13879  -1.13861  -1.13763
 Alpha  occ. eigenvalues --   -1.13754  -1.13725  -1.13678  -1.13352  -1.13319
 Alpha  occ. eigenvalues --   -1.13315  -1.13242  -1.13223  -1.13190  -1.13184
 Alpha  occ. eigenvalues --   -1.13159  -1.13117  -1.13021  -1.13015  -1.12984
 Alpha  occ. eigenvalues --   -0.17087  -0.13673  -0.13004  -0.10057
 Alpha virt. eigenvalues --   -0.05774  -0.05683  -0.05381  -0.03274  -0.02572
 Alpha virt. eigenvalues --   -0.02217  -0.02105  -0.01418  -0.01276  -0.00527
 Alpha virt. eigenvalues --   -0.00212  -0.00137   0.00471   0.00594   0.00618

  Beta  occ. eigenvalues --  -38.44338 -38.44311 -38.44276 -38.43863 -38.43673
  Beta  occ. eigenvalues --  -38.43659 -38.43482  -2.20221  -2.20164  -2.20125
  Beta  occ. eigenvalues --   -2.19654  -2.19476  -2.19429  -2.19223  -1.14040
  Beta  occ. eigenvalues --   -1.13903  -1.13888  -1.13874  -1.13851  -1.13764
  Beta  occ. eigenvalues --   -1.13760  -1.13716  -1.13682  -1.13350  -1.13317
  Beta  occ. eigenvalues --   -1.13266  -1.13195  -1.13177  -1.13118  -1.13112
  Beta  occ. eigenvalues --   -1.13093  -1.13051  -1.12918  -1.12912  -1.12890
  Beta  occ. eigenvalues --   -0.16714  -0.13089  -0.12688
  Beta virt. eigenvalues --   -0.06572  -0.05621  -0.05571  -0.04953  -0.02792
  Beta virt. eigenvalues --   -0.02354  -0.02093  -0.01693  -0.01364  -0.00953
  Beta virt. eigenvalues --   -0.00283   0.00118   0.00171   0.00585   0.00673

 Mulliken charges and spin densities:
               1          2
     1  Na  -0.605604   0.114629
     2  Na  -0.444263   0.010031
     3  Na   0.300468   0.049296
     4  Na  -0.315164   0.128846
     5  Na   0.509057   0.291587
     6  Na   0.025598   0.448953
     7  Na   0.529908  -0.043342
 Sum of Mulliken charges =  -0.00000   1.00000

 Dipole moment (field-independent basis, Debye):
    X=             -0.5931    Y=              0.7214    Z=             -0.2169  Tot=              0.9588
 Quadrupole moment (field-independent basis, Debye-Ang):
   XX=            -72.8616   YY=            -58.6037   ZZ=            -69.1743
   XY=              1.4322   XZ=             -1.4427   YZ=             -3.2639

 Normal termination of Gaussian 16 at Tue Nov 28 19:51:44 2023.
