 Gaussian 16, Revision B.01,
 Gaussian 16:  ES64L-G16RevB.01 20-Dec-2017

 -------------------------
 #P B3LYP/6-311+g(d) force
 -------------------------

 -----
 DPGEN
 -----
 Symbolic Z-matrix:
 Charge =  0 Multiplicity = 2

                         Standard orientation:
 ---------------------------------------------------------------------
 Center     Atomic      Atomic             Coordinates (Angstroms)
 Number     Number       Type             X           Y           Z
 ---------------------------------------------------------------------
      1         11           0       -1.101943   -0.204183    1.811269
      2         11           0        3.786548   -1.870538   -0.221743
      3         11           0        2.708854    1.186142    0.695958
      4         11           0        0.573956   -0.702053   -1.399215
      5         11           0        0.096750    2.918147   -0.318090
      6         11           0       -2.953813   -2.322891    0.108186
      7         11           0       -3.110352    0.995376   -0.676365
 ---------------------------------------------------------------------

 SCF Done:  E(UB3LYP) =  -1136.12408508     A.U. after   22 cycles

 The electronic state is 2-A.
 Alpha  occ. eigenvalues --  -38.44749 -38.44629 -38.44254 -38.44101 -38.44005
 Alpha  occ. eigenvalues --  -38.43908 -38.42689  -2.20569  -2.20467  -2.20077
 Alpha  occ. eigenvalues --   -2.19960  -2.19794  -2.19789  -2.18520  -1.14281
 Alpha  occ. eigenvalues --   -1.14231  -1.14167  -1.14150  -1.14119  -1.14090
 Alpha  occ. eigenvalues --   -1.13751  -1.13735  -1.13721  -1.13643  -1.13631
 Alpha  occ. eigenvalues --   -1.13594  -1.13473  -1.13460  -1.13457  -1.13442
 Alpha  occ. eigenvalues --   -1.13424  -1.13375  -1.12202  -1.12179  -1.12171
 Alpha  occ. eigenvalues --   -0.17891  -0.14066  -0.11700  -0.10107
 Alpha virt. eigenvalues --   -0.06758  -0.06060  -0.04403  -0.03417  -0.02602
 Alpha virt. eigenvalues --   -0.02376  -0.02090  -0.01510  -0.00985  -0.00308
 Alpha virt. eigenvalues --   -0.00249   0.00147   0.00425   0.00569   0.00640

  Beta  occ. eigenvalues --  -38.44713 -38.44591 -38.44248 -38.44087 -38.44008
  Beta  occ. eigenvalues --  -38.43836 -38.42688  -2.20503  -2.20397  -2.20069
  Beta  occ. eigenvalues --   -2.19933  -2.19801  -2.19657  -2.18522  -1.14224
  Beta  occ. eigenvalues --   -1.14189  -1.14116  -1.14093  -1.14071  -1.14037
  Beta  occ. eigenvalues --   -1.13737  -1.13728  -1.13706  -1.13628  -1.13611
  Beta  occ. eigenvalues --   -1.13572  -1.13463  -1.13458  -1.13427  -1.13384
  Beta  occ. eigenvalues --   -1.13349  -1.13276  -1.12207  -1.12176  -1.12152
  Beta  occ. eigenvalues --   -0.17281  -0.13891  -0.11447
  Beta virt. eigenvalues --   -0.06565  -0.06500  -0.05841  -0.04161  -0.03010
  Beta virt. eigenvalues --   -0.02351  -0.01851  -0.01613  -0.01106  -0.00938
  Beta virt. eigenvalues --   -0.00172  -0.00034   0.00210   0.00537   0.00651

 Mulliken charges and spin densities:
               1          2
     1  Na  -0.232556   0.404507
     2  Na   0.230695  -0.048393
     3  Na   0.195888   0.075671
     4  Na  -0.521150   0.268488
     5  Na  -0.116842  -0.017498
     6  Na   0.353089   0.039291
     7  Na   0.090877   0.277934
 Sum of Mulliken charges =  -0.00000   1.00000

 Dipole moment (field-independent basis, Debye):
    X=             -0.2817    Y=             -0.5560    Z=              0.0004  Tot=              0.6233
 Quadrupole moment (field-independent basis, Debye-Ang):
   XX=            -53.3508   YY=            -66.2077   ZZ=            -75.5601
   XY=              1.0170   XZ=              2.9737   YZ=              1.0767

 Normal termination of Gaussian 16 at Fri Dec  8 00:28:15 2023.
