 Gaussian 16, Revision B.01,
 Gaussian 16:  ES64L-G16RevB.01 20-Dec-2017

 -------------------------
 #P B3LYP/6-311+g(d) force
 -------------------------

 -----
 DPGEN
 -----
 Symbolic Z-matrix:
 Charge =  0 Multiplicity = 2

                         Standard orientation:
 ---------------------------------------------------------------------
 Center     Atomic      Atomic             Coordinates (Angstroms)
 Number     Number       Type             X           Y           Z
 ---------------------------------------------------------------------
      1         11           0        0.493157   -2.200324   -1.799673
      2         11           0       -0.803351    3.528623    0.169718
      3         11           0        0.547530   -1.386442    2.380210
      4         11           0       -2.912363   -2.039724   -0.071381
      5         11           0        1.735078    1.517327   -0.837568
      6         11           0        3.686511   -0.357475    0.217913
      7         11           0       -2.746562    0.938015   -0.059219
 ---------------------------------------------------------------------

 SCF Done:  E(UB3LYP) =  -1136.11536727     A.U. after   21 cycles

 The electronic state is 2-A.
 Alpha  occ. eigenvalues --  -38.45020 -38.44984 -38.44671 -38.44235 -38.44176
 Alpha  occ. eigenvalues --  -38.44034 -38.43317  -2.20839  -2.20744  -2.20447
 Alpha  occ. eigenvalues --   -2.20052  -2.20017  -2.19895  -2.19131  -1.14603
 Alpha  occ. eigenvalues --   -1.14473  -1.14459  -1.14422  -1.14394  -1.14349
 Alpha  occ. eigenvalues --   -1.14100  -1.14076  -1.14055  -1.13881  -1.13705
 Alpha  occ. eigenvalues --   -1.13689  -1.13670  -1.13655  -1.13596  -1.13579
 Alpha  occ. eigenvalues --   -1.13549  -1.13524  -1.12795  -1.12789  -1.12787
 Alpha  occ. eigenvalues --   -0.17096  -0.13472  -0.12472  -0.10793
 Alpha virt. eigenvalues --   -0.06970  -0.05496  -0.04632  -0.03534  -0.03062
 Alpha virt. eigenvalues --   -0.02675  -0.01986  -0.01095  -0.00960  -0.00795
 Alpha virt. eigenvalues --   -0.00134   0.00125   0.00331   0.00636   0.00648

  Beta  occ. eigenvalues --  -38.45024 -38.44920 -38.44558 -38.44242 -38.44176
  Beta  occ. eigenvalues --  -38.44023 -38.43326  -2.20849  -2.20625  -2.20237
  Beta  occ. eigenvalues --   -2.20066  -2.20017  -2.19874  -2.19148  -1.14610
  Beta  occ. eigenvalues --   -1.14470  -1.14457  -1.14337  -1.14313  -1.14265
  Beta  occ. eigenvalues --   -1.13957  -1.13935  -1.13908  -1.13893  -1.13702
  Beta  occ. eigenvalues --   -1.13693  -1.13664  -1.13658  -1.13605  -1.13567
  Beta  occ. eigenvalues --   -1.13534  -1.13504  -1.12806  -1.12800  -1.12796
  Beta  occ. eigenvalues --   -0.16557  -0.13440  -0.12251
  Beta virt. eigenvalues --   -0.06905  -0.06624  -0.05400  -0.04479  -0.02930
  Beta virt. eigenvalues --   -0.02464  -0.01929  -0.01881  -0.01080  -0.00943
  Beta virt. eigenvalues --   -0.00611   0.00133   0.00273   0.00398   0.00692

 Mulliken charges and spin densities:
               1          2
     1  Na   0.048112   0.289589
     2  Na   0.675888  -0.123263
     3  Na  -0.233799   0.652858
     4  Na   0.224929   0.044879
     5  Na  -0.754603   0.235048
     6  Na   0.588676  -0.103695
     7  Na  -0.549202   0.004584
 Sum of Mulliken charges =  -0.00000   1.00000

 Dipole moment (field-independent basis, Debye):
    X=              0.5881    Y=             -0.6349    Z=             -0.0662  Tot=              0.8680
 Quadrupole moment (field-independent basis, Debye-Ang):
   XX=            -57.3669   YY=            -66.9006   ZZ=            -74.6026
   XY=              0.8196   XZ=             -0.5734   YZ=              1.7019

 Normal termination of Gaussian 16 at Mon Dec  4 01:28:54 2023.
