 Gaussian 16, Revision B.01,
 Gaussian 16:  ES64L-G16RevB.01 20-Dec-2017

 -------------------------
 #P B3LYP/6-311+g(d) force
 -------------------------

 -----
 DPGEN
 -----
 Symbolic Z-matrix:
 Charge =  0 Multiplicity = 2

                         Standard orientation:
 ---------------------------------------------------------------------
 Center     Atomic      Atomic             Coordinates (Angstroms)
 Number     Number       Type             X           Y           Z
 ---------------------------------------------------------------------
      1         11           0        0.739530    3.399063   -0.243625
      2         11           0        4.065516    1.185074   -0.036903
      3         11           0        3.719582   -1.969368    0.618312
      4         11           0        0.505179   -2.829311   -0.531656
      5         11           0       -3.041386   -1.828629   -1.179516
      6         11           0       -2.368693    2.603486   -0.253517
      7         11           0       -3.619729   -0.560313    1.626905
 ---------------------------------------------------------------------

 SCF Done:  E(UB3LYP) =  -1136.10952462     A.U. after   22 cycles

 The electronic state is 2-A.
 Alpha  occ. eigenvalues --  -38.45115 -38.44724 -38.44540 -38.44489 -38.44420
 Alpha  occ. eigenvalues --  -38.43940 -38.43608  -2.20906  -2.20545  -2.20333
 Alpha  occ. eigenvalues --   -2.20276  -2.20210  -2.19727  -2.19391  -1.14609
 Alpha  occ. eigenvalues --   -1.14570  -1.14552  -1.14187  -1.14183  -1.14168
 Alpha  occ. eigenvalues --   -1.14010  -1.13989  -1.13967  -1.13954  -1.13951
 Alpha  occ. eigenvalues --   -1.13901  -1.13883  -1.13869  -1.13846  -1.13389
 Alpha  occ. eigenvalues --   -1.13377  -1.13338  -1.13058  -1.13057  -1.13033
 Alpha  occ. eigenvalues --   -0.15846  -0.14094  -0.12869  -0.10471
 Alpha virt. eigenvalues --   -0.07341  -0.05660  -0.04137  -0.03444  -0.03233
 Alpha virt. eigenvalues --   -0.02524  -0.02084  -0.01756  -0.01320  -0.00870
 Alpha virt. eigenvalues --   -0.00404  -0.00030   0.00130   0.00372   0.00521

  Beta  occ. eigenvalues --  -38.45118 -38.44664 -38.44484 -38.44468 -38.44425
  Beta  occ. eigenvalues --  -38.43863 -38.43595  -2.20916  -2.20434  -2.20241
  Beta  occ. eigenvalues --   -2.20230  -2.20225  -2.19585  -2.19370  -1.14608
  Beta  occ. eigenvalues --   -1.14582  -1.14531  -1.14114  -1.14104  -1.14096
  Beta  occ. eigenvalues --   -1.13958  -1.13934  -1.13925  -1.13922  -1.13899
  Beta  occ. eigenvalues --   -1.13894  -1.13874  -1.13859  -1.13812  -1.13292
  Beta  occ. eigenvalues --   -1.13280  -1.13248  -1.13045  -1.13042  -1.13005
  Beta  occ. eigenvalues --   -0.15319  -0.13506  -0.12214
  Beta virt. eigenvalues --   -0.07383  -0.07236  -0.05316  -0.03876  -0.03108
  Beta virt. eigenvalues --   -0.02768  -0.02207  -0.01891  -0.01690  -0.01079
  Beta virt. eigenvalues --   -0.00737  -0.00077   0.00116   0.00304   0.00423

 Mulliken charges and spin densities:
               1          2
     1  Na   0.238944   0.034819
     2  Na  -0.165688   0.308343
     3  Na   0.247368  -0.020739
     4  Na  -0.458963   0.312716
     5  Na   0.334772  -0.004267
     6  Na  -0.311873   0.045606
     7  Na   0.115440   0.323523
 Sum of Mulliken charges =  -0.00000   1.00000

 Dipole moment (field-independent basis, Debye):
    X=             -0.8427    Y=             -0.4399    Z=              0.2327  Tot=              0.9787
 Quadrupole moment (field-independent basis, Debye-Ang):
   XX=            -62.2300   YY=            -72.8181   ZZ=            -66.7205
   XY=              0.8356   XZ=              2.0001   YZ=             -0.6424

 Normal termination of Gaussian 16 at Sun Dec  3 21:01:49 2023.
