 Gaussian 16, Revision B.01,
 Gaussian 16:  ES64L-G16RevB.01 20-Dec-2017

 -------------------------
 #P B3LYP/6-311+g(d) force
 -------------------------

 -----
 DPGEN
 -----
 Symbolic Z-matrix:
 Charge =  0 Multiplicity = 2

                         Standard orientation:
 ---------------------------------------------------------------------
 Center     Atomic      Atomic             Coordinates (Angstroms)
 Number     Number       Type             X           Y           Z
 ---------------------------------------------------------------------
      1         11           0        2.315450    1.859419    0.083388
      2         11           0        0.368904   -0.118875    1.981329
      3         11           0       -1.318033   -2.141312   -0.688747
      4         11           0       -1.225868    2.471579   -0.240992
      5         11           0       -3.732392   -0.422648    0.490613
      6         11           0        0.448842    0.167463   -1.786519
      7         11           0        3.143096   -1.815625    0.160927
 ---------------------------------------------------------------------

 SCF Done:  E(UB3LYP) =  -1136.12639928     A.U. after   21 cycles

 The electronic state is 2-A.
 Alpha  occ. eigenvalues --  -38.44768 -38.44326 -38.44200 -38.43969 -38.43493
 Alpha  occ. eigenvalues --  -38.43395 -38.43113  -2.20556  -2.20185  -2.19966
 Alpha  occ. eigenvalues --   -2.19848  -2.19381  -2.19365  -2.18952  -1.14233
 Alpha  occ. eigenvalues --   -1.14214  -1.14190  -1.13865  -1.13837  -1.13791
 Alpha  occ. eigenvalues --   -1.13643  -1.13628  -1.13605  -1.13567  -1.13522
 Alpha  occ. eigenvalues --   -1.13438  -1.13168  -1.13035  -1.13011  -1.12997
 Alpha  occ. eigenvalues --   -1.12981  -1.12954  -1.12644  -1.12619  -1.12566
 Alpha  occ. eigenvalues --   -0.18410  -0.13341  -0.11703  -0.10947
 Alpha virt. eigenvalues --   -0.06494  -0.05439  -0.03917  -0.03349  -0.02767
 Alpha virt. eigenvalues --   -0.02693  -0.02125  -0.01337  -0.00484  -0.00130
 Alpha virt. eigenvalues --    0.00059   0.00235   0.00564   0.00669   0.00805

  Beta  occ. eigenvalues --  -38.44763 -38.44253 -38.44204 -38.43960 -38.43470
  Beta  occ. eigenvalues --  -38.43309 -38.43108  -2.20547  -2.20050  -2.19977
  Beta  occ. eigenvalues --   -2.19836  -2.19327  -2.19224  -2.18947  -1.14229
  Beta  occ. eigenvalues --   -1.14203  -1.14184  -1.13776  -1.13740  -1.13694
  Beta  occ. eigenvalues --   -1.13648  -1.13624  -1.13613  -1.13549  -1.13495
  Beta  occ. eigenvalues --   -1.13432  -1.13098  -1.12978  -1.12959  -1.12931
  Beta  occ. eigenvalues --   -1.12895  -1.12857  -1.12630  -1.12601  -1.12563
  Beta  occ. eigenvalues --   -0.17660  -0.13159  -0.11460
  Beta virt. eigenvalues --   -0.07092  -0.06254  -0.05450  -0.03773  -0.02806
  Beta virt. eigenvalues --   -0.02041  -0.01982  -0.01686  -0.01264  -0.00450
  Beta virt. eigenvalues --    0.00000   0.00058   0.00261   0.00716   0.00769

 Mulliken charges and spin densities:
               1          2
     1  Na   0.247490  -0.051714
     2  Na  -0.455056   0.774163
     3  Na   0.204536  -0.094231
     4  Na  -0.059722  -0.011468
     5  Na  -0.132422   0.092150
     6  Na   0.232367   0.433353
     7  Na  -0.037193  -0.142252
 Sum of Mulliken charges =  -0.00000   1.00000

 Dipole moment (field-independent basis, Debye):
    X=             -0.0034    Y=              0.0997    Z=              0.4114  Tot=              0.4233
 Quadrupole moment (field-independent basis, Debye-Ang):
   XX=            -50.7753   YY=            -69.4687   ZZ=            -73.1518
   XY=             -1.0590   XZ=             -1.5546   YZ=              0.5711

 Normal termination of Gaussian 16 at Thu Dec  7 19:05:44 2023.
