 Gaussian 16, Revision B.01,
 Gaussian 16:  ES64L-G16RevB.01 20-Dec-2017

 -------------------------
 #P B3LYP/6-311+g(d) force
 -------------------------

 -----
 DPGEN
 -----
 Symbolic Z-matrix:
 Charge =  0 Multiplicity = 2

                         Standard orientation:
 ---------------------------------------------------------------------
 Center     Atomic      Atomic             Coordinates (Angstroms)
 Number     Number       Type             X           Y           Z
 ---------------------------------------------------------------------
      1         11           0       -0.396169   -1.254734   -0.952033
      2         11           0       -0.495480    1.047690    2.248851
      3         11           0       -3.384338   -1.480882    0.009527
      4         11           0       -2.110892    1.894856   -1.229103
      5         11           0        1.915163   -1.767755    1.383738
      6         11           0        1.708604    1.818042    0.415734
      7         11           0        2.763112   -0.257217   -1.876715
 ---------------------------------------------------------------------

 SCF Done:  E(UB3LYP) =  -1136.12474488     A.U. after   22 cycles

 The electronic state is 2-A.
 Alpha  occ. eigenvalues --  -38.44958 -38.44595 -38.44250 -38.43893 -38.43133
 Alpha  occ. eigenvalues --  -38.43108 -38.42799  -2.20735  -2.20433  -2.20047
 Alpha  occ. eigenvalues --   -2.19747  -2.19044  -2.18975  -2.18726  -1.14423
 Alpha  occ. eigenvalues --   -1.14373  -1.14345  -1.14121  -1.14065  -1.14044
 Alpha  occ. eigenvalues --   -1.13738  -1.13705  -1.13674  -1.13424  -1.13405
 Alpha  occ. eigenvalues --   -1.13352  -1.12868  -1.12706  -1.12665  -1.12622
 Alpha  occ. eigenvalues --   -1.12585  -1.12570  -1.12443  -1.12399  -1.12344
 Alpha  occ. eigenvalues --   -0.18187  -0.13343  -0.11568  -0.11253
 Alpha virt. eigenvalues --   -0.06092  -0.05326  -0.04365  -0.03156  -0.03002
 Alpha virt. eigenvalues --   -0.02806  -0.01748  -0.01186  -0.00599  -0.00101
 Alpha virt. eigenvalues --    0.00183   0.00303   0.00502   0.00538   0.00736

  Beta  occ. eigenvalues --  -38.44919 -38.44542 -38.44252 -38.43848 -38.43121
  Beta  occ. eigenvalues --  -38.43082 -38.42786  -2.20663  -2.20334  -2.20052
  Beta  occ. eigenvalues --   -2.19665  -2.19025  -2.18930  -2.18706  -1.14368
  Beta  occ. eigenvalues --   -1.14327  -1.14296  -1.14050  -1.14000  -1.13967
  Beta  occ. eigenvalues --   -1.13739  -1.13706  -1.13676  -1.13363  -1.13348
  Beta  occ. eigenvalues --   -1.13298  -1.12841  -1.12685  -1.12649  -1.12589
  Beta  occ. eigenvalues --   -1.12545  -1.12536  -1.12396  -1.12378  -1.12340
  Beta  occ. eigenvalues --   -0.17430  -0.13121  -0.11120
  Beta virt. eigenvalues --   -0.07800  -0.05605  -0.04998  -0.04102  -0.03022
  Beta virt. eigenvalues --   -0.02461  -0.02041  -0.01629  -0.00779  -0.00430
  Beta virt. eigenvalues --    0.00047   0.00332   0.00361   0.00529   0.00680

 Mulliken charges and spin densities:
               1          2
     1  Na  -0.298966   0.671457
     2  Na   0.164753   0.306520
     3  Na   0.268773  -0.289850
     4  Na  -0.188909   0.004379
     5  Na  -0.340895  -0.094361
     6  Na   0.100196   0.180108
     7  Na   0.295049   0.221747
 Sum of Mulliken charges =  -0.00000   1.00000

 Dipole moment (field-independent basis, Debye):
    X=             -0.4323    Y=             -0.0297    Z=             -0.0265  Tot=              0.4342
 Quadrupole moment (field-independent basis, Debye-Ang):
   XX=            -55.4213   YY=            -71.6919   ZZ=            -66.9310
   XY=             -1.6191   XZ=             -1.5380   YZ=             -8.6492

 Normal termination of Gaussian 16 at Fri Dec  8 20:22:36 2023.
