 Gaussian 16, Revision B.01,
 Gaussian 16:  ES64L-G16RevB.01 20-Dec-2017

 -------------------------
 #P B3LYP/6-311+g(d) force
 -------------------------

 -----
 DPGEN
 -----
 Symbolic Z-matrix:
 Charge =  0 Multiplicity = 2

                         Standard orientation:
 ---------------------------------------------------------------------
 Center     Atomic      Atomic             Coordinates (Angstroms)
 Number     Number       Type             X           Y           Z
 ---------------------------------------------------------------------
      1         11           0       -1.313897    2.784966   -0.715413
      2         11           0       -5.949844   -0.455376    0.370573
      3         11           0        1.274244    1.227053   -0.033898
      4         11           0        4.647323    1.022015    1.172265
      5         11           0        3.828053   -1.399245   -1.031056
      6         11           0       -3.074056   -0.508702    0.090818
      7         11           0        0.588177   -2.670712    0.146712
 ---------------------------------------------------------------------

 SCF Done:  E(UB3LYP) =  -1136.11070309     A.U. after   25 cycles

 The electronic state is 2-A.
 Alpha  occ. eigenvalues --  -38.45665 -38.45653 -38.45173 -38.43647 -38.43323
 Alpha  occ. eigenvalues --  -38.43150 -38.43063  -2.21478  -2.21436  -2.20962
 Alpha  occ. eigenvalues --   -2.19484  -2.19157  -2.19006  -2.18875  -1.15125
 Alpha  occ. eigenvalues --   -1.15117  -1.15095  -1.15086  -1.15071  -1.15041
 Alpha  occ. eigenvalues --   -1.14649  -1.14618  -1.14611  -1.13259  -1.13109
 Alpha  occ. eigenvalues --   -1.13106  -1.12826  -1.12820  -1.12758  -1.12717
 Alpha  occ. eigenvalues --   -1.12689  -1.12686  -1.12533  -1.12515  -1.12484
 Alpha  occ. eigenvalues --   -0.16810  -0.13981  -0.12155  -0.11325
 Alpha virt. eigenvalues --   -0.06709  -0.05407  -0.04534  -0.03814  -0.02852
 Alpha virt. eigenvalues --   -0.02219  -0.02008  -0.01903  -0.01114  -0.00658
 Alpha virt. eigenvalues --   -0.00494  -0.00387   0.00229   0.00370   0.00512

  Beta  occ. eigenvalues --  -38.45587 -38.45549 -38.45179 -38.43602 -38.43325
  Beta  occ. eigenvalues --  -38.43148 -38.43068  -2.21332  -2.21242  -2.20980
  Beta  occ. eigenvalues --   -2.19402  -2.19166  -2.19005  -2.18884  -1.15023
  Beta  occ. eigenvalues --   -1.15015  -1.15001  -1.14955  -1.14937  -1.14912
  Beta  occ. eigenvalues --   -1.14666  -1.14633  -1.14585  -1.13207  -1.13053
  Beta  occ. eigenvalues --   -1.13051  -1.12836  -1.12819  -1.12738  -1.12718
  Beta  occ. eigenvalues --   -1.12696  -1.12665  -1.12539  -1.12523  -1.12488
  Beta  occ. eigenvalues --   -0.16088  -0.13510  -0.11074
  Beta virt. eigenvalues --   -0.08546  -0.06306  -0.05054  -0.04181  -0.03440
  Beta virt. eigenvalues --   -0.02699  -0.01860  -0.01657  -0.01570  -0.00879
  Beta virt. eigenvalues --   -0.00520  -0.00272  -0.00165   0.00357   0.00455

 Mulliken charges and spin densities:
               1          2
     1  Na   0.135739  -0.051116
     2  Na   0.230325   0.020842
     3  Na  -0.979490   0.016814
     4  Na   0.820444   0.333327
     5  Na   0.177159  -0.000251
     6  Na  -0.691916   0.316466
     7  Na   0.307739   0.363918
 Sum of Mulliken charges =  -0.00000   1.00000

 Dipole moment (field-independent basis, Debye):
    X=              2.7031    Y=             -0.4481    Z=              0.2931  Tot=              2.7557
 Quadrupole moment (field-independent basis, Debye-Ang):
   XX=            -55.0761   YY=            -70.3161   ZZ=            -68.7512
   XY=             -3.0340   XZ=              1.9856   YZ=              1.6895

 Normal termination of Gaussian 16 at Mon Dec  4 05:20:44 2023.
