 Gaussian 16, Revision B.01,
 Gaussian 16:  ES64L-G16RevB.01 20-Dec-2017

 -------------------------
 #P B3LYP/6-311+g(d) force
 -------------------------

 -----
 DPGEN
 -----
 Symbolic Z-matrix:
 Charge =  0 Multiplicity = 2

                         Standard orientation:
 ---------------------------------------------------------------------
 Center     Atomic      Atomic             Coordinates (Angstroms)
 Number     Number       Type             X           Y           Z
 ---------------------------------------------------------------------
      1         11           0        2.162429   -0.899299   -0.707481
      2         11           0        5.281421   -2.244674    0.189791
      3         11           0        3.908073    1.610669    1.093657
      4         11           0        0.760391    2.598101   -0.462951
      5         11           0       -1.133728    0.019323   -1.250816
      6         11           0       -3.993769   -0.675656    1.048018
      7         11           0       -6.984817   -0.408464    0.089781
 ---------------------------------------------------------------------

 SCF Done:  E(UB3LYP) =  -1136.11714189     A.U. after   19 cycles

 The electronic state is 2-A.
 Alpha  occ. eigenvalues --  -38.44840 -38.44458 -38.44292 -38.44218 -38.44058
 Alpha  occ. eigenvalues --  -38.44023 -38.43655  -2.20639  -2.20279  -2.20076
 Alpha  occ. eigenvalues --   -2.20060  -2.19829  -2.19815  -2.19504  -1.14313
 Alpha  occ. eigenvalues --   -1.14304  -1.14231  -1.13957  -1.13936  -1.13918
 Alpha  occ. eigenvalues --   -1.13766  -1.13750  -1.13748  -1.13729  -1.13727
 Alpha  occ. eigenvalues --   -1.13655  -1.13494  -1.13489  -1.13484  -1.13479
 Alpha  occ. eigenvalues --   -1.13444  -1.13441  -1.13172  -1.13160  -1.13123
 Alpha  occ. eigenvalues --   -0.16595  -0.13771  -0.12065  -0.11264
 Alpha virt. eigenvalues --   -0.06354  -0.05813  -0.04341  -0.03590  -0.03086
 Alpha virt. eigenvalues --   -0.02410  -0.02155  -0.01747  -0.01245  -0.00856
 Alpha virt. eigenvalues --   -0.00356  -0.00192  -0.00008   0.00460   0.00645

  Beta  occ. eigenvalues --  -38.44771 -38.44433 -38.44273 -38.44192 -38.44030
  Beta  occ. eigenvalues --  -38.44029 -38.43621  -2.20513  -2.20236  -2.20039
  Beta  occ. eigenvalues --   -2.20015  -2.19827  -2.19775  -2.19441  -1.14230
  Beta  occ. eigenvalues --   -1.14220  -1.14126  -1.13932  -1.13909  -1.13860
  Beta  occ. eigenvalues --   -1.13739  -1.13726  -1.13704  -1.13702  -1.13701
  Beta  occ. eigenvalues --   -1.13619  -1.13493  -1.13487  -1.13458  -1.13447
  Beta  occ. eigenvalues --   -1.13439  -1.13409  -1.13121  -1.13118  -1.13089
  Beta  occ. eigenvalues --   -0.15920  -0.13483  -0.11794
  Beta virt. eigenvalues --   -0.07661  -0.05993  -0.05480  -0.04012  -0.03388
  Beta virt. eigenvalues --   -0.02574  -0.02207  -0.01831  -0.01606  -0.01085
  Beta virt. eigenvalues --   -0.00491  -0.00149  -0.00031   0.00229   0.00562

 Mulliken charges and spin densities:
               1          2
     1  Na  -1.192728   0.405135
     2  Na   0.882574   0.163959
     3  Na   0.205476   0.304759
     4  Na   0.143884   0.115099
     5  Na  -0.233219  -0.019789
     6  Na  -0.019440  -0.056296
     7  Na   0.213452   0.087135
 Sum of Mulliken charges =  -0.00000   1.00000

 Dipole moment (field-independent basis, Debye):
    X=              0.2953    Y=              0.5800    Z=              0.0539  Tot=              0.6531
 Quadrupole moment (field-independent basis, Debye-Ang):
   XX=            -56.3340   YY=            -67.5316   ZZ=            -70.3435
   XY=             -2.9475   XZ=              6.0374   YZ=             -0.0199

 Normal termination of Gaussian 16 at Wed Nov 29 00:42:37 2023.
