 Gaussian 16, Revision B.01,
 Gaussian 16:  ES64L-G16RevB.01 20-Dec-2017

 -------------------------
 #P B3LYP/6-311+g(d) force
 -------------------------

 -----
 DPGEN
 -----
 Symbolic Z-matrix:
 Charge =  0 Multiplicity = 2

                         Standard orientation:
 ---------------------------------------------------------------------
 Center     Atomic      Atomic             Coordinates (Angstroms)
 Number     Number       Type             X           Y           Z
 ---------------------------------------------------------------------
      1         11           0        0.217385   -0.241604   -0.854962
      2         11           0       -1.650548    2.059439    0.361434
      3         11           0       -3.454757   -0.607907   -1.330858
      4         11           0       -2.015768   -1.141614    1.559856
      5         11           0        2.015982   -1.268678    1.573710
      6         11           0        2.053576    2.298415    0.170703
      7         11           0        2.834130   -1.098050   -1.479883
 ---------------------------------------------------------------------

 SCF Done:  E(UB3LYP) =  -1136.11905146     A.U. after   23 cycles

 The electronic state is 2-A.
 Alpha  occ. eigenvalues --  -38.44647 -38.44142 -38.44141 -38.44116 -38.43390
 Alpha  occ. eigenvalues --  -38.43307 -38.43126  -2.20480  -2.20066  -2.20014
 Alpha  occ. eigenvalues --   -2.19995  -2.19489  -2.19172  -2.18949  -1.14142
 Alpha  occ. eigenvalues --   -1.14132  -1.14109  -1.13890  -1.13747  -1.13700
 Alpha  occ. eigenvalues --   -1.13674  -1.13672  -1.13658  -1.13627  -1.13623
 Alpha  occ. eigenvalues --   -1.13579  -1.13204  -1.13133  -1.13094  -1.12866
 Alpha  occ. eigenvalues --   -1.12855  -1.12760  -1.12627  -1.12618  -1.12571
 Alpha  occ. eigenvalues --   -0.18574  -0.14464  -0.11104  -0.10832
 Alpha virt. eigenvalues --   -0.06155  -0.05402  -0.05189  -0.03218  -0.02414
 Alpha virt. eigenvalues --   -0.02221  -0.01978  -0.00912  -0.00824  -0.00086
 Alpha virt. eigenvalues --    0.00174   0.00231   0.00420   0.00533   0.00600

  Beta  occ. eigenvalues --  -38.44613 -38.44105 -38.44104 -38.44080 -38.43360
  Beta  occ. eigenvalues --  -38.43302 -38.43126  -2.20416  -2.19998  -2.19948
  Beta  occ. eigenvalues --   -2.19930  -2.19442  -2.19164  -2.18950  -1.14096
  Beta  occ. eigenvalues --   -1.14088  -1.14067  -1.13842  -1.13700  -1.13654
  Beta  occ. eigenvalues --   -1.13626  -1.13623  -1.13611  -1.13579  -1.13561
  Beta  occ. eigenvalues --   -1.13524  -1.13129  -1.13094  -1.13068  -1.12860
  Beta  occ. eigenvalues --   -1.12832  -1.12756  -1.12620  -1.12617  -1.12571
  Beta  occ. eigenvalues --   -0.17909  -0.14241  -0.10826
  Beta virt. eigenvalues --   -0.07213  -0.05830  -0.05171  -0.04639  -0.03014
  Beta virt. eigenvalues --   -0.02078  -0.01790  -0.01480  -0.00798  -0.00347
  Beta virt. eigenvalues --    0.00040   0.00276   0.00395   0.00522   0.00644

 Mulliken charges and spin densities:
               1          2
     1  Na  -0.870255   0.275118
     2  Na   0.134147   0.139740
     3  Na   0.658717   0.137151
     4  Na   0.052750   0.112473
     5  Na   0.127872   0.252129
     6  Na  -0.263694  -0.058263
     7  Na   0.160463   0.141651
 Sum of Mulliken charges =  -0.00000   1.00000

 Dipole moment (field-independent basis, Debye):
    X=             -0.3704    Y=             -0.1777    Z=              0.1381  Tot=              0.4334
 Quadrupole moment (field-independent basis, Debye-Ang):
   XX=            -49.9832   YY=            -76.7101   ZZ=            -66.3950
   XY=              0.2638   XZ=              1.5400   YZ=              0.4126

 Normal termination of Gaussian 16 at Sat Dec  9 06:12:00 2023.
