 Gaussian 16, Revision B.01,
 Gaussian 16:  ES64L-G16RevB.01 20-Dec-2017

 -------------------------
 #P B3LYP/6-311+g(d) force
 -------------------------

 -----
 DPGEN
 -----
 Symbolic Z-matrix:
 Charge =  0 Multiplicity = 2

                         Standard orientation:
 ---------------------------------------------------------------------
 Center     Atomic      Atomic             Coordinates (Angstroms)
 Number     Number       Type             X           Y           Z
 ---------------------------------------------------------------------
      1         11           0        0.368091    3.000773   -0.249666
      2         11           0       -2.960901    1.054116   -0.481361
      3         11           0       -0.069600    0.475902    2.002370
      4         11           0        0.379028   -0.192437   -1.644599
      5         11           0       -2.687398   -1.965467    0.390181
      6         11           0        3.470233    0.203725    0.255533
      7         11           0        1.500548   -2.576610   -0.272458
 ---------------------------------------------------------------------

 SCF Done:  E(UB3LYP) =  -1136.12987030     A.U. after   20 cycles

 The electronic state is 2-A.
 Alpha  occ. eigenvalues --  -38.45127 -38.44286 -38.43825 -38.43725 -38.43609
 Alpha  occ. eigenvalues --  -38.43399 -38.43057  -2.20909  -2.20114  -2.19633
 Alpha  occ. eigenvalues --   -2.19579  -2.19465  -2.19343  -2.18880  -1.14587
 Alpha  occ. eigenvalues --   -1.14558  -1.14548  -1.13802  -1.13784  -1.13747
 Alpha  occ. eigenvalues --   -1.13304  -1.13290  -1.13283  -1.13269  -1.13254
 Alpha  occ. eigenvalues --   -1.13217  -1.13192  -1.13110  -1.13075  -1.13006
 Alpha  occ. eigenvalues --   -1.12960  -1.12935  -1.12554  -1.12550  -1.12513
 Alpha  occ. eigenvalues --   -0.18126  -0.13326  -0.11977  -0.10491
 Alpha virt. eigenvalues --   -0.06394  -0.05135  -0.04559  -0.03363  -0.02784
 Alpha virt. eigenvalues --   -0.02382  -0.02071  -0.01109  -0.00536  -0.00500
 Alpha virt. eigenvalues --   -0.00058   0.00323   0.00684   0.00731   0.00814

  Beta  occ. eigenvalues --  -38.45122 -38.44278 -38.43821 -38.43644 -38.43601
  Beta  occ. eigenvalues --  -38.43334 -38.43052  -2.20903  -2.20103  -2.19626
  Beta  occ. eigenvalues --   -2.19455  -2.19430  -2.19225  -2.18874  -1.14570
  Beta  occ. eigenvalues --   -1.14556  -1.14541  -1.13797  -1.13757  -1.13740
  Beta  occ. eigenvalues --   -1.13301  -1.13272  -1.13265  -1.13249  -1.13155
  Beta  occ. eigenvalues --   -1.13113  -1.13087  -1.13082  -1.13070  -1.12928
  Beta  occ. eigenvalues --   -1.12882  -1.12856  -1.12550  -1.12533  -1.12502
  Beta  occ. eigenvalues --   -0.17431  -0.13143  -0.11739
  Beta virt. eigenvalues --   -0.06705  -0.06270  -0.05091  -0.04489  -0.02665
  Beta virt. eigenvalues --   -0.02059  -0.01963  -0.01402  -0.01014  -0.00560
  Beta virt. eigenvalues --   -0.00524   0.00097   0.00355   0.00790   0.00810

 Mulliken charges and spin densities:
               1          2
     1  Na  -0.027631  -0.106461
     2  Na   0.143881  -0.015468
     3  Na  -0.360772   0.759304
     4  Na   0.101507   0.394129
     5  Na  -0.051521   0.022241
     6  Na   0.062409  -0.021215
     7  Na   0.132127  -0.032529
 Sum of Mulliken charges =  -0.00000   1.00000

 Dipole moment (field-independent basis, Debye):
    X=              0.5329    Y=              0.0624    Z=              0.1517  Tot=              0.5576
 Quadrupole moment (field-independent basis, Debye-Ang):
   XX=            -52.6141   YY=            -64.9266   ZZ=            -75.5705
   XY=              0.5975   XZ=              1.4109   YZ=             -2.0236

 Normal termination of Gaussian 16 at Fri Dec  8 06:34:46 2023.
