 Gaussian 16, Revision B.01,
 Gaussian 16:  ES64L-G16RevB.01 20-Dec-2017

 -------------------------
 #P B3LYP/6-311+g(d) force
 -------------------------

 -----
 DPGEN
 -----
 Symbolic Z-matrix:
 Charge =  0 Multiplicity = 2

                         Standard orientation:
 ---------------------------------------------------------------------
 Center     Atomic      Atomic             Coordinates (Angstroms)
 Number     Number       Type             X           Y           Z
 ---------------------------------------------------------------------
      1         11           0       -0.101958   -0.094200   -1.326174
      2         11           0        2.151276   -2.348441    0.060275
      3         11           0       -2.187681   -1.997119   -0.167442
      4         11           0        0.009498   -0.046213    2.087989
      5         11           0       -3.582725    0.812839   -0.252214
      6         11           0        0.512245    3.038786    0.099404
      7         11           0        3.199345    0.634348   -0.501839
 ---------------------------------------------------------------------

 SCF Done:  E(UB3LYP) =  -1136.12794341     A.U. after   21 cycles

 The electronic state is 2-A.
 Alpha  occ. eigenvalues --  -38.45059 -38.44274 -38.43900 -38.43746 -38.43462
 Alpha  occ. eigenvalues --  -38.43380 -38.42877  -2.20858  -2.20122  -2.19789
 Alpha  occ. eigenvalues --   -2.19719  -2.19341  -2.19222  -2.18684  -1.14536
 Alpha  occ. eigenvalues --   -1.14517  -1.14489  -1.13798  -1.13790  -1.13744
 Alpha  occ. eigenvalues --   -1.13581  -1.13446  -1.13419  -1.13401  -1.13341
 Alpha  occ. eigenvalues --   -1.13317  -1.13010  -1.12966  -1.12942  -1.12895
 Alpha  occ. eigenvalues --   -1.12884  -1.12860  -1.12359  -1.12347  -1.12326
 Alpha  occ. eigenvalues --   -0.18348  -0.13743  -0.11702  -0.10473
 Alpha virt. eigenvalues --   -0.06551  -0.05194  -0.04388  -0.03282  -0.02505
 Alpha virt. eigenvalues --   -0.02354  -0.02274  -0.01272  -0.00525  -0.00450
 Alpha virt. eigenvalues --   -0.00077   0.00243   0.00650   0.00792   0.00816

  Beta  occ. eigenvalues --  -38.45049 -38.44252 -38.43893 -38.43719 -38.43377
  Beta  occ. eigenvalues --  -38.43350 -38.42876  -2.20842  -2.20083  -2.19780
  Beta  occ. eigenvalues --   -2.19672  -2.19220  -2.19135  -2.18684  -1.14529
  Beta  occ. eigenvalues --   -1.14494  -1.14476  -1.13770  -1.13757  -1.13715
  Beta  occ. eigenvalues --   -1.13567  -1.13431  -1.13384  -1.13363  -1.13316
  Beta  occ. eigenvalues --   -1.13285  -1.12900  -1.12879  -1.12872  -1.12843
  Beta  occ. eigenvalues --   -1.12823  -1.12787  -1.12359  -1.12337  -1.12323
  Beta  occ. eigenvalues --   -0.17676  -0.13418  -0.11523
  Beta virt. eigenvalues --   -0.06722  -0.06311  -0.05142  -0.04355  -0.02619
  Beta virt. eigenvalues --   -0.02211  -0.01738  -0.01390  -0.01187  -0.00501
  Beta virt. eigenvalues --   -0.00449   0.00099   0.00318   0.00728   0.00809

 Mulliken charges and spin densities:
               1          2
     1  Na  -0.513648  -0.044291
     2  Na   0.258904   0.084754
     3  Na   0.495275   0.151613
     4  Na  -0.438228   0.652179
     5  Na   0.066153   0.029434
     6  Na  -0.067429   0.007006
     7  Na   0.198973   0.119304
 Sum of Mulliken charges =  -0.00000   1.00000

 Dipole moment (field-independent basis, Debye):
    X=             -0.6445    Y=              0.0274    Z=              0.1988  Tot=              0.6750
 Quadrupole moment (field-independent basis, Debye-Ang):
   XX=            -52.2078   YY=            -65.9031   ZZ=            -75.1231
   XY=             -1.7411   XZ=             -0.2940   YZ=             -0.3511

 Normal termination of Gaussian 16 at Tue Dec  5 17:52:36 2023.
