 Gaussian 16, Revision B.01,
 Gaussian 16:  ES64L-G16RevB.01 20-Dec-2017

 -------------------------
 #P B3LYP/6-311+g(d) force
 -------------------------

 -----
 DPGEN
 -----
 Symbolic Z-matrix:
 Charge =  0 Multiplicity = 2

                         Standard orientation:
 ---------------------------------------------------------------------
 Center     Atomic      Atomic             Coordinates (Angstroms)
 Number     Number       Type             X           Y           Z
 ---------------------------------------------------------------------
      1         11           0        1.959529    1.973841    0.229941
      2         11           0        0.026674    0.088946    1.955023
      3         11           0       -0.284691   -2.630502    0.519332
      4         11           0       -2.967841   -0.554104   -0.248827
      5         11           0        0.042481   -0.503208   -1.634605
      6         11           0       -1.447749    2.569238   -0.283809
      7         11           0        2.671596   -0.944212   -0.537056
 ---------------------------------------------------------------------

 SCF Done:  E(UB3LYP) =  -1136.13277225     A.U. after   19 cycles

 The electronic state is 2-A.
 Alpha  occ. eigenvalues --  -38.43799 -38.43643 -38.43622 -38.43414 -38.43391
 Alpha  occ. eigenvalues --  -38.43344 -38.43257  -2.19658  -2.19617  -2.19572
 Alpha  occ. eigenvalues --   -2.19449  -2.19257  -2.19251  -2.19204  -1.13437
 Alpha  occ. eigenvalues --   -1.13354  -1.13326  -1.13304  -1.13293  -1.13287
 Alpha  occ. eigenvalues --   -1.13240  -1.13219  -1.13191  -1.13131  -1.13067
 Alpha  occ. eigenvalues --   -1.13012  -1.12935  -1.12928  -1.12916  -1.12903
 Alpha  occ. eigenvalues --   -1.12898  -1.12878  -1.12858  -1.12841  -1.12796
 Alpha  occ. eigenvalues --   -0.19380  -0.13179  -0.12636  -0.11264
 Alpha virt. eigenvalues --   -0.05305  -0.04864  -0.04553  -0.03323  -0.03133
 Alpha virt. eigenvalues --   -0.02709  -0.01305  -0.00922  -0.00132   0.00021
 Alpha virt. eigenvalues --    0.00143   0.00362   0.00890   0.00962   0.00967

  Beta  occ. eigenvalues --  -38.43793 -38.43605 -38.43549 -38.43411 -38.43337
  Beta  occ. eigenvalues --  -38.43326 -38.43238  -2.19650  -2.19544  -2.19445
  Beta  occ. eigenvalues --   -2.19333  -2.19249  -2.19247  -2.19174  -1.13390
  Beta  occ. eigenvalues --   -1.13339  -1.13304  -1.13285  -1.13226  -1.13205
  Beta  occ. eigenvalues --   -1.13164  -1.13146  -1.13101  -1.13069  -1.12991
  Beta  occ. eigenvalues --   -1.12939  -1.12925  -1.12911  -1.12907  -1.12893
  Beta  occ. eigenvalues --   -1.12872  -1.12856  -1.12839  -1.12790  -1.12779
  Beta  occ. eigenvalues --   -0.18643  -0.12886  -0.12377
  Beta virt. eigenvalues --   -0.07270  -0.05292  -0.04811  -0.04530  -0.02514
  Beta virt. eigenvalues --   -0.02338  -0.01632  -0.01216  -0.00860  -0.00059
  Beta virt. eigenvalues --   -0.00004   0.00170   0.00396   0.00921   0.00962

 Mulliken charges and spin densities:
               1          2
     1  Na   0.085906  -0.007959
     2  Na  -0.308125   0.555777
     3  Na   0.314989   0.053891
     4  Na   0.016714  -0.074688
     5  Na  -0.385247   0.478238
     6  Na  -0.132911  -0.050490
     7  Na   0.408674   0.045232
 Sum of Mulliken charges =  -0.00000   1.00000

 Dipole moment (field-independent basis, Debye):
    X=             -0.2553    Y=              0.0262    Z=              0.1021  Tot=              0.2762
 Quadrupole moment (field-independent basis, Debye-Ang):
   XX=            -58.8100   YY=            -63.8070   ZZ=            -72.1486
   XY=              0.1349   XZ=              0.1106   YZ=             -1.0277

 Normal termination of Gaussian 16 at Thu Dec  7 11:02:35 2023.
