 Gaussian 16, Revision B.01,
 Gaussian 16:  ES64L-G16RevB.01 20-Dec-2017

 -------------------------
 #P B3LYP/6-311+g(d) force
 -------------------------

 -----
 DPGEN
 -----
 Symbolic Z-matrix:
 Charge =  0 Multiplicity = 2

                         Standard orientation:
 ---------------------------------------------------------------------
 Center     Atomic      Atomic             Coordinates (Angstroms)
 Number     Number       Type             X           Y           Z
 ---------------------------------------------------------------------
      1         11           0       -1.891660    1.306522    0.988178
      2         11           0       -0.939535   -1.652108    2.231551
      3         11           0       -2.897422   -0.778896   -1.018538
      4         11           0       -0.576138    2.293044   -1.463903
      5         11           0        0.392575   -2.053298   -1.528179
      6         11           0        1.970250    1.368318    1.190019
      7         11           0        3.941931   -0.483583   -0.399128
 ---------------------------------------------------------------------

 SCF Done:  E(UB3LYP) =  -1136.11936457     A.U. after   21 cycles

 The electronic state is 2-A.
 Alpha  occ. eigenvalues --  -38.44524 -38.44513 -38.44422 -38.44113 -38.43833
 Alpha  occ. eigenvalues --  -38.43705 -38.43461  -2.20373  -2.20330  -2.20204
 Alpha  occ. eigenvalues --   -2.19884  -2.19649  -2.19558  -2.19425  -1.14087
 Alpha  occ. eigenvalues --   -1.14036  -1.14005  -1.13979  -1.13968  -1.13931
 Alpha  occ. eigenvalues --   -1.13900  -1.13863  -1.13839  -1.13566  -1.13542
 Alpha  occ. eigenvalues --   -1.13499  -1.13353  -1.13321  -1.13317  -1.13277
 Alpha  occ. eigenvalues --   -1.13206  -1.13170  -1.13083  -1.13072  -1.13009
 Alpha  occ. eigenvalues --   -0.17894  -0.13175  -0.11783  -0.11574
 Alpha virt. eigenvalues --   -0.06430  -0.05108  -0.04328  -0.03444  -0.03373
 Alpha virt. eigenvalues --   -0.02842  -0.01807  -0.01015  -0.00614  -0.00146
 Alpha virt. eigenvalues --   -0.00053  -0.00007   0.00351   0.00795   0.00830

  Beta  occ. eigenvalues --  -38.44506 -38.44430 -38.44426 -38.44076 -38.43821
  Beta  occ. eigenvalues --  -38.43683 -38.43439  -2.20342  -2.20211  -2.20179
  Beta  occ. eigenvalues --   -2.19815  -2.19628  -2.19519  -2.19390  -1.14067
  Beta  occ. eigenvalues --   -1.14001  -1.13953  -1.13904  -1.13892  -1.13867
  Beta  occ. eigenvalues --   -1.13865  -1.13842  -1.13828  -1.13515  -1.13494
  Beta  occ. eigenvalues --   -1.13451  -1.13326  -1.13303  -1.13294  -1.13268
  Beta  occ. eigenvalues --   -1.13176  -1.13135  -1.13063  -1.13039  -1.12962
  Beta  occ. eigenvalues --   -0.17121  -0.13084  -0.11371
  Beta virt. eigenvalues --   -0.07817  -0.06292  -0.04782  -0.03762  -0.03181
  Beta virt. eigenvalues --   -0.02985  -0.02024  -0.01687  -0.00857  -0.00373
  Beta virt. eigenvalues --   -0.00059   0.00060   0.00102   0.00407   0.00877

 Mulliken charges and spin densities:
               1          2
     1  Na   0.981352   0.102168
     2  Na  -0.312794   0.336388
     3  Na  -0.108346   0.180983
     4  Na  -0.194602   0.182732
     5  Na  -0.315813   0.234359
     6  Na  -0.138232   0.018202
     7  Na   0.088434  -0.054832
 Sum of Mulliken charges =  -0.00000   1.00000

 Dipole moment (field-independent basis, Debye):
    X=              0.1267    Y=             -0.4015    Z=             -0.2524  Tot=              0.4909
 Quadrupole moment (field-independent basis, Debye-Ang):
   XX=            -58.0228   YY=            -74.8941   ZZ=            -64.7348
   XY=             -0.2409   XZ=             -0.1929   YZ=             -1.3757

 Normal termination of Gaussian 16 at Mon Dec  4 02:47:13 2023.
