 Gaussian 16, Revision B.01,
 Gaussian 16:  ES64L-G16RevB.01 20-Dec-2017

 -------------------------
 #P B3LYP/6-311+g(d) force
 -------------------------

 -----
 DPGEN
 -----
 Symbolic Z-matrix:
 Charge =  0 Multiplicity = 2

                         Standard orientation:
 ---------------------------------------------------------------------
 Center     Atomic      Atomic             Coordinates (Angstroms)
 Number     Number       Type             X           Y           Z
 ---------------------------------------------------------------------
      1         11           0        3.138673   -2.588872   -0.279375
      2         11           0        4.733005    0.310618   -0.552445
      3         11           0        1.938499    1.736091    0.928021
      4         11           0       -0.659312    2.438947   -0.912649
      5         11           0        0.184395   -0.940419    0.577588
      6         11           0       -3.726843   -0.155297    1.235152
      7         11           0       -5.608417   -0.801068   -0.996292
 ---------------------------------------------------------------------

 SCF Done:  E(UB3LYP) =  -1136.11350221     A.U. after   21 cycles

 The electronic state is 2-A.
 Alpha  occ. eigenvalues --  -38.44671 -38.44327 -38.44229 -38.44042 -38.43971
 Alpha  occ. eigenvalues --  -38.43926 -38.43847  -2.20457  -2.20190  -2.20105
 Alpha  occ. eigenvalues --   -2.19853  -2.19783  -2.19752  -2.19657  -1.14132
 Alpha  occ. eigenvalues --   -1.14122  -1.14091  -1.13912  -1.13861  -1.13789
 Alpha  occ. eigenvalues --   -1.13776  -1.13747  -1.13704  -1.13636  -1.13518
 Alpha  occ. eigenvalues --   -1.13495  -1.13421  -1.13419  -1.13410  -1.13403
 Alpha  occ. eigenvalues --   -1.13400  -1.13356  -1.13327  -1.13313  -1.13274
 Alpha  occ. eigenvalues --   -0.16920  -0.13822  -0.11937  -0.10993
 Alpha virt. eigenvalues --   -0.06481  -0.05795  -0.04410  -0.03366  -0.03042
 Alpha virt. eigenvalues --   -0.02559  -0.01979  -0.01770  -0.00817  -0.00536
 Alpha virt. eigenvalues --   -0.00401  -0.00201   0.00280   0.00439   0.00555

  Beta  occ. eigenvalues --  -38.44669 -38.44251 -38.44201 -38.44046 -38.43949
  Beta  occ. eigenvalues --  -38.43871 -38.43830  -2.20454  -2.20056  -2.20050
  Beta  occ. eigenvalues --   -2.19863  -2.19741  -2.19649  -2.19627  -1.14130
  Beta  occ. eigenvalues --   -1.14118  -1.14085  -1.13835  -1.13773  -1.13740
  Beta  occ. eigenvalues --   -1.13709  -1.13673  -1.13641  -1.13625  -1.13524
  Beta  occ. eigenvalues --   -1.13499  -1.13393  -1.13390  -1.13350  -1.13338
  Beta  occ. eigenvalues --   -1.13337  -1.13326  -1.13308  -1.13279  -1.13235
  Beta  occ. eigenvalues --   -0.16242  -0.13536  -0.11725
  Beta virt. eigenvalues --   -0.07365  -0.06229  -0.05371  -0.04092  -0.03085
  Beta virt. eigenvalues --   -0.02676  -0.02280  -0.01638  -0.01455  -0.00758
  Beta virt. eigenvalues --   -0.00383  -0.00110   0.00010   0.00380   0.00501

 Mulliken charges and spin densities:
               1          2
     1  Na   1.312548  -0.137944
     2  Na  -0.324217   0.137324
     3  Na   0.415096   0.506556
     4  Na   0.282469  -0.076836
     5  Na  -1.606749   0.468283
     6  Na  -0.294056   0.009242
     7  Na   0.214910   0.093374
 Sum of Mulliken charges =  -0.00000   1.00000

 Dipole moment (field-independent basis, Debye):
    X=             -0.1491    Y=              0.6440    Z=             -0.7397  Tot=              0.9920
 Quadrupole moment (field-independent basis, Debye-Ang):
   XX=            -70.4496   YY=            -69.0704   ZZ=            -63.4997
   XY=             -1.9848   XZ=              4.2008   YZ=              0.0425

 Normal termination of Gaussian 16 at Wed Nov 29 01:48:58 2023.
