 Gaussian 16, Revision B.01,
 Gaussian 16:  ES64L-G16RevB.01 20-Dec-2017

 -------------------------
 #P B3LYP/6-311+g(d) force
 -------------------------

 -----
 DPGEN
 -----
 Symbolic Z-matrix:
 Charge =  0 Multiplicity = 2

                         Standard orientation:
 ---------------------------------------------------------------------
 Center     Atomic      Atomic             Coordinates (Angstroms)
 Number     Number       Type             X           Y           Z
 ---------------------------------------------------------------------
      1         11           0        1.463194    0.658367    1.788050
      2         11           0       -2.696302    0.754858    1.101031
      3         11           0        3.579255   -1.860802    0.357906
      4         11           0       -0.446330    2.297657   -0.824326
      5         11           0       -4.185222   -1.529218   -0.403506
      6         11           0       -0.397538   -1.044817   -0.789489
      7         11           0        2.682942    0.723956   -1.229666
 ---------------------------------------------------------------------

 SCF Done:  E(UB3LYP) =  -1136.12243804     A.U. after   24 cycles

 The electronic state is 2-A.
 Alpha  occ. eigenvalues --  -38.45016 -38.44224 -38.44177 -38.43931 -38.43818
 Alpha  occ. eigenvalues --  -38.43735 -38.42678  -2.20877  -2.20150  -2.20066
 Alpha  occ. eigenvalues --   -2.19823  -2.19628  -2.19564  -2.18574  -1.14591
 Alpha  occ. eigenvalues --   -1.14549  -1.14474  -1.13846  -1.13817  -1.13771
 Alpha  occ. eigenvalues --   -1.13747  -1.13741  -1.13705  -1.13516  -1.13485
 Alpha  occ. eigenvalues --   -1.13394  -1.13299  -1.13283  -1.13257  -1.13239
 Alpha  occ. eigenvalues --   -1.13214  -1.13202  -1.12257  -1.12237  -1.12206
 Alpha  occ. eigenvalues --   -0.18427  -0.14378  -0.11378  -0.10576
 Alpha virt. eigenvalues --   -0.06763  -0.05817  -0.04477  -0.03024  -0.02817
 Alpha virt. eigenvalues --   -0.02298  -0.02260  -0.01424  -0.00742  -0.00399
 Alpha virt. eigenvalues --    0.00039   0.00106   0.00338   0.00445   0.00656

  Beta  occ. eigenvalues --  -38.44983 -38.44189 -38.44160 -38.43861 -38.43822
  Beta  occ. eigenvalues --  -38.43732 -38.42666  -2.20819  -2.20089  -2.20034
  Beta  occ. eigenvalues --   -2.19693  -2.19634  -2.19561  -2.18556  -1.14531
  Beta  occ. eigenvalues --   -1.14508  -1.14430  -1.13800  -1.13770  -1.13724
  Beta  occ. eigenvalues --   -1.13719  -1.13718  -1.13679  -1.13427  -1.13395
  Beta  occ. eigenvalues --   -1.13302  -1.13298  -1.13286  -1.13259  -1.13238
  Beta  occ. eigenvalues --   -1.13206  -1.13190  -1.12250  -1.12217  -1.12169
  Beta  occ. eigenvalues --   -0.17738  -0.14225  -0.11171
  Beta virt. eigenvalues --   -0.06779  -0.06554  -0.05656  -0.03998  -0.02858
  Beta virt. eigenvalues --   -0.02678  -0.01811  -0.01613  -0.01064  -0.00485
  Beta virt. eigenvalues --   -0.00214   0.00110   0.00169   0.00482   0.00540

 Mulliken charges and spin densities:
               1          2
     1  Na  -0.573199   0.465294
     2  Na   0.327103   0.064161
     3  Na   0.574161  -0.007366
     4  Na   0.058038   0.064741
     5  Na   0.069220  -0.001332
     6  Na  -1.204350   0.241091
     7  Na   0.749028   0.173412
 Sum of Mulliken charges =  -0.00000   1.00000

 Dipole moment (field-independent basis, Debye):
    X=              0.0284    Y=              0.1603    Z=             -0.2173  Tot=              0.2715
 Quadrupole moment (field-independent basis, Debye-Ang):
   XX=            -57.2646   YY=            -67.4169   ZZ=            -72.7263
   XY=             -0.9186   XZ=             -1.0445   YZ=             -0.0217

 Normal termination of Gaussian 16 at Tue Dec  5 15:10:36 2023.
