 Gaussian 16, Revision B.01,
 Gaussian 16:  ES64L-G16RevB.01 20-Dec-2017

 -------------------------
 #P B3LYP/6-311+g(d) force
 -------------------------

 -----
 DPGEN
 -----
 Symbolic Z-matrix:
 Charge =  0 Multiplicity = 2

                         Standard orientation:
 ---------------------------------------------------------------------
 Center     Atomic      Atomic             Coordinates (Angstroms)
 Number     Number       Type             X           Y           Z
 ---------------------------------------------------------------------
      1         11           0       -2.321691    1.891611   -0.547418
      2         11           0        1.579951   -1.583688    1.007374
      3         11           0       -1.299601   -0.706689    1.979835
      4         11           0        1.150792    2.134378    1.130136
      5         11           0        3.462446   -0.219269   -1.129380
      6         11           0       -2.694410   -1.584788   -0.929853
      7         11           0        0.122513    0.068445   -1.510694
 ---------------------------------------------------------------------

 SCF Done:  E(UB3LYP) =  -1136.12802124     A.U. after   24 cycles

 The electronic state is 2-A.
 Alpha  occ. eigenvalues --  -38.44557 -38.44034 -38.43723 -38.43629 -38.43589
 Alpha  occ. eigenvalues --  -38.43338 -38.43170  -2.20406  -2.19891  -2.19576
 Alpha  occ. eigenvalues --   -2.19548  -2.19533  -2.19186  -2.19089  -1.14072
 Alpha  occ. eigenvalues --   -1.14071  -1.14023  -1.13582  -1.13548  -1.13510
 Alpha  occ. eigenvalues --   -1.13289  -1.13244  -1.13234  -1.13229  -1.13213
 Alpha  occ. eigenvalues --   -1.13182  -1.13165  -1.13161  -1.13147  -1.12873
 Alpha  occ. eigenvalues --   -1.12847  -1.12804  -1.12779  -1.12754  -1.12703
 Alpha  occ. eigenvalues --   -0.18751  -0.13851  -0.11835  -0.11048
 Alpha virt. eigenvalues --   -0.05893  -0.05097  -0.04616  -0.03231  -0.02885
 Alpha virt. eigenvalues --   -0.02630  -0.01933  -0.00904  -0.00659   0.00043
 Alpha virt. eigenvalues --    0.00267   0.00420   0.00510   0.00645   0.00812

  Beta  occ. eigenvalues --  -38.44528 -38.44011 -38.43680 -38.43573 -38.43549
  Beta  occ. eigenvalues --  -38.43338 -38.43152  -2.20352  -2.19848  -2.19505
  Beta  occ. eigenvalues --   -2.19470  -2.19433  -2.19190  -2.19061  -1.14040
  Beta  occ. eigenvalues --   -1.14025  -1.13988  -1.13543  -1.13524  -1.13477
  Beta  occ. eigenvalues --   -1.13233  -1.13189  -1.13175  -1.13168  -1.13147
  Beta  occ. eigenvalues --   -1.13124  -1.13114  -1.13095  -1.13066  -1.12868
  Beta  occ. eigenvalues --   -1.12851  -1.12796  -1.12761  -1.12696  -1.12689
  Beta  occ. eigenvalues --   -0.17988  -0.13540  -0.10840
  Beta virt. eigenvalues --   -0.07912  -0.05685  -0.04923  -0.04115  -0.02951
  Beta virt. eigenvalues --   -0.02281  -0.01902  -0.01714  -0.00707  -0.00445
  Beta virt. eigenvalues --    0.00168   0.00306   0.00468   0.00597   0.00736

 Mulliken charges and spin densities:
               1          2
     1  Na   0.041426   0.019414
     2  Na  -0.325182   0.070394
     3  Na   0.241380   0.312034
     4  Na  -0.458624   0.221232
     5  Na   0.632928   0.045508
     6  Na   0.144190  -0.008036
     7  Na  -0.276117   0.339454
 Sum of Mulliken charges =  -0.00000   1.00000

 Dipole moment (field-independent basis, Debye):
    X=              0.3196    Y=              0.0863    Z=             -0.2591  Tot=              0.4203
 Quadrupole moment (field-independent basis, Debye-Ang):
   XX=            -51.6874   YY=            -75.2057   ZZ=            -66.8134
   XY=              1.0387   XZ=             -0.6408   YZ=              4.3394

 Normal termination of Gaussian 16 at Thu Dec  7 06:13:50 2023.
