 Gaussian 16, Revision B.01,
 Gaussian 16:  ES64L-G16RevB.01 20-Dec-2017

 -------------------------
 #P B3LYP/6-311+g(d) force
 -------------------------

 -----
 DPGEN
 -----
 Symbolic Z-matrix:
 Charge =  0 Multiplicity = 2

                         Standard orientation:
 ---------------------------------------------------------------------
 Center     Atomic      Atomic             Coordinates (Angstroms)
 Number     Number       Type             X           Y           Z
 ---------------------------------------------------------------------
      1         11           0       -0.926037   -1.695732    0.829572
      2         11           0        1.334532   -2.195767   -1.655529
      3         11           0       -0.170835    1.362538    1.982915
      4         11           0       -3.583890    0.151811   -0.068500
      5         11           0        2.353600   -1.170886    1.309612
      6         11           0        1.954691    2.847716   -0.794915
      7         11           0       -0.962062    0.700321   -1.603156
 ---------------------------------------------------------------------

 SCF Done:  E(UB3LYP) =  -1136.12939009     A.U. after   21 cycles

 The electronic state is 2-A.
 Alpha  occ. eigenvalues --  -38.44106 -38.44056 -38.43820 -38.43740 -38.43729
 Alpha  occ. eigenvalues --  -38.43429 -38.43366  -2.19949  -2.19899  -2.19669
 Alpha  occ. eigenvalues --   -2.19645  -2.19590  -2.19322  -2.19193  -1.13645
 Alpha  occ. eigenvalues --   -1.13617  -1.13598  -1.13568  -1.13535  -1.13507
 Alpha  occ. eigenvalues --   -1.13436  -1.13345  -1.13316  -1.13307  -1.13272
 Alpha  occ. eigenvalues --   -1.13248  -1.13237  -1.13216  -1.13212  -1.13026
 Alpha  occ. eigenvalues --   -1.12997  -1.12909  -1.12862  -1.12856  -1.12822
 Alpha  occ. eigenvalues --   -0.18363  -0.12844  -0.11869  -0.11730
 Alpha virt. eigenvalues --   -0.05596  -0.04911  -0.04570  -0.03351  -0.03275
 Alpha virt. eigenvalues --   -0.02963  -0.01571  -0.00917  -0.00656   0.00174
 Alpha virt. eigenvalues --    0.00307   0.00313   0.00584   0.00688   0.00813

  Beta  occ. eigenvalues --  -38.44089 -38.44005 -38.43821 -38.43702 -38.43679
  Beta  occ. eigenvalues --  -38.43414 -38.43339  -2.19920  -2.19808  -2.19671
  Beta  occ. eigenvalues --   -2.19554  -2.19518  -2.19278  -2.19165  -1.13612
  Beta  occ. eigenvalues --   -1.13587  -1.13557  -1.13531  -1.13464  -1.13441
  Beta  occ. eigenvalues --   -1.13413  -1.13328  -1.13301  -1.13272  -1.13213
  Beta  occ. eigenvalues --   -1.13195  -1.13188  -1.13163  -1.13160  -1.13000
  Beta  occ. eigenvalues --   -1.12924  -1.12885  -1.12838  -1.12832  -1.12807
  Beta  occ. eigenvalues --   -0.17545  -0.12709  -0.11557
  Beta virt. eigenvalues --   -0.07873  -0.05427  -0.04666  -0.04044  -0.03046
  Beta virt. eigenvalues --   -0.02833  -0.02110  -0.01508  -0.00782  -0.00334
  Beta virt. eigenvalues --    0.00217   0.00348   0.00467   0.00630   0.00802

 Mulliken charges and spin densities:
               1          2
     1  Na   0.112658   0.331087
     2  Na   0.211912   0.054399
     3  Na  -0.276394   0.206084
     4  Na   0.426813  -0.080925
     5  Na   0.116521   0.025092
     6  Na  -0.072178  -0.021379
     7  Na  -0.519333   0.485642
 Sum of Mulliken charges =  -0.00000   1.00000

 Dipole moment (field-independent basis, Debye):
    X=             -0.0968    Y=             -0.2471    Z=              0.1728  Tot=              0.3167
 Quadrupole moment (field-independent basis, Debye-Ang):
   XX=            -58.1815   YY=            -72.0296   ZZ=            -64.9038
   XY=             -1.5807   XZ=             -1.4380   YZ=              0.2410

 Normal termination of Gaussian 16 at Tue Dec  5 23:02:38 2023.
