 Gaussian 16, Revision B.01,
 Gaussian 16:  ES64L-G16RevB.01 20-Dec-2017

 -------------------------
 #P B3LYP/6-311+g(d) force
 -------------------------

 -----
 DPGEN
 -----
 Symbolic Z-matrix:
 Charge =  0 Multiplicity = 2

                         Standard orientation:
 ---------------------------------------------------------------------
 Center     Atomic      Atomic             Coordinates (Angstroms)
 Number     Number       Type             X           Y           Z
 ---------------------------------------------------------------------
      1         11           0        3.052419   -0.903791    0.313758
      2         11           0        0.512178   -2.725526   -0.506808
      3         11           0       -2.840782   -1.599408   -0.338286
      4         11           0        1.824303    2.595634   -0.492122
      5         11           0        0.076997   -0.028204    2.164870
      6         11           0       -0.039100    0.691123   -1.523318
      7         11           0       -2.586015    1.970172    0.381906
 ---------------------------------------------------------------------

 SCF Done:  E(UB3LYP) =  -1136.13108094     A.U. after   19 cycles

 The electronic state is 2-A.
 Alpha  occ. eigenvalues --  -38.44315 -38.44120 -38.44111 -38.44036 -38.43791
 Alpha  occ. eigenvalues --  -38.43324 -38.43124  -2.20112  -2.19954  -2.19949
 Alpha  occ. eigenvalues --   -2.19831  -2.19643  -2.19290  -2.18978  -1.13786
 Alpha  occ. eigenvalues --   -1.13774  -1.13746  -1.13634  -1.13628  -1.13608
 Alpha  occ. eigenvalues --   -1.13588  -1.13580  -1.13558  -1.13507  -1.13491
 Alpha  occ. eigenvalues --   -1.13471  -1.13468  -1.13269  -1.13248  -1.12949
 Alpha  occ. eigenvalues --   -1.12911  -1.12898  -1.12658  -1.12636  -1.12619
 Alpha  occ. eigenvalues --   -0.18216  -0.13002  -0.12326  -0.10833
 Alpha virt. eigenvalues --   -0.05873  -0.05504  -0.04454  -0.03302  -0.02902
 Alpha virt. eigenvalues --   -0.02610  -0.01668  -0.01352  -0.00582  -0.00254
 Alpha virt. eigenvalues --   -0.00039   0.00320   0.00735   0.00766   0.00833

  Beta  occ. eigenvalues --  -38.44307 -38.44115 -38.44030 -38.44015 -38.43777
  Beta  occ. eigenvalues --  -38.43274 -38.43114  -2.20098  -2.19943  -2.19823
  Beta  occ. eigenvalues --   -2.19775  -2.19620  -2.19200  -2.18963  -1.13772
  Beta  occ. eigenvalues --   -1.13753  -1.13740  -1.13630  -1.13599  -1.13576
  Beta  occ. eigenvalues --   -1.13497  -1.13493  -1.13484  -1.13467  -1.13460
  Beta  occ. eigenvalues --   -1.13439  -1.13430  -1.13243  -1.13236  -1.12886
  Beta  occ. eigenvalues --   -1.12848  -1.12834  -1.12646  -1.12622  -1.12596
  Beta  occ. eigenvalues --   -0.17537  -0.12808  -0.12027
  Beta virt. eigenvalues --   -0.07009  -0.05753  -0.05442  -0.04352  -0.02607
  Beta virt. eigenvalues --   -0.02217  -0.01612  -0.01538  -0.01254  -0.00593
  Beta virt. eigenvalues --   -0.00265   0.00112   0.00367   0.00770   0.00823

 Mulliken charges and spin densities:
               1          2
     1  Na   0.197126   0.099527
     2  Na  -0.083221   0.034973
     3  Na   0.018389  -0.014182
     4  Na   0.200791   0.004255
     5  Na  -0.335819   0.620134
     6  Na  -0.064736   0.212071
     7  Na   0.067470   0.043221
 Sum of Mulliken charges =  -0.00000   1.00000

 Dipole moment (field-independent basis, Debye):
    X=             -0.1880    Y=              0.2549    Z=              0.3641  Tot=              0.4826
 Quadrupole moment (field-independent basis, Debye-Ang):
   XX=            -55.0652   YY=            -64.8539   ZZ=            -74.2137
   XY=             -0.4177   XZ=              0.2787   YZ=              1.7050

 Normal termination of Gaussian 16 at Thu Dec  7 09:59:52 2023.
