 Gaussian 16, Revision B.01,
 Gaussian 16:  ES64L-G16RevB.01 20-Dec-2017

 -------------------------
 #P B3LYP/6-311+g(d) force
 -------------------------

 -----
 DPGEN
 -----
 Symbolic Z-matrix:
 Charge =  0 Multiplicity = 2

                         Standard orientation:
 ---------------------------------------------------------------------
 Center     Atomic      Atomic             Coordinates (Angstroms)
 Number     Number       Type             X           Y           Z
 ---------------------------------------------------------------------
      1         11           0        0.111840   -0.248767   -1.761556
      2         11           0        0.005050    2.991014   -0.073195
      3         11           0       -2.832630    0.957157    0.302855
      4         11           0       -1.912773   -2.372923   -0.834437
      5         11           0       -0.436458    0.040919    1.910246
      6         11           0        1.968241   -2.159930    0.992004
      7         11           0        3.096730    0.792530   -0.535917
 ---------------------------------------------------------------------

 SCF Done:  E(UB3LYP) =  -1136.13422378     A.U. after   19 cycles

 The electronic state is 2-A.
 Alpha  occ. eigenvalues --  -38.43912 -38.43881 -38.43855 -38.43811 -38.43579
 Alpha  occ. eigenvalues --  -38.43500 -38.43300  -2.19815  -2.19733  -2.19724
 Alpha  occ. eigenvalues --   -2.19637  -2.19523  -2.19346  -2.19122  -1.13599
 Alpha  occ. eigenvalues --   -1.13478  -1.13426  -1.13418  -1.13389  -1.13381
 Alpha  occ. eigenvalues --   -1.13362  -1.13356  -1.13334  -1.13305  -1.13270
 Alpha  occ. eigenvalues --   -1.13261  -1.13241  -1.13182  -1.13145  -1.13002
 Alpha  occ. eigenvalues --   -1.12970  -1.12968  -1.12806  -1.12793  -1.12748
 Alpha  occ. eigenvalues --   -0.18461  -0.13011  -0.12226  -0.11333
 Alpha virt. eigenvalues --   -0.05459  -0.04916  -0.04760  -0.03384  -0.03094
 Alpha virt. eigenvalues --   -0.02812  -0.01429  -0.01107  -0.00400  -0.00139
 Alpha virt. eigenvalues --    0.00058   0.00342   0.00793   0.00860   0.00880

  Beta  occ. eigenvalues --  -38.43906 -38.43847 -38.43803 -38.43777 -38.43512
  Beta  occ. eigenvalues --  -38.43477 -38.43302  -2.19724  -2.19716  -2.19671
  Beta  occ. eigenvalues --   -2.19576  -2.19401  -2.19306  -2.19127  -1.13536
  Beta  occ. eigenvalues --   -1.13403  -1.13392  -1.13373  -1.13363  -1.13354
  Beta  occ. eigenvalues --   -1.13340  -1.13320  -1.13296  -1.13243  -1.13228
  Beta  occ. eigenvalues --   -1.13224  -1.13163  -1.13096  -1.13066  -1.12949
  Beta  occ. eigenvalues --   -1.12943  -1.12938  -1.12803  -1.12798  -1.12743
  Beta  occ. eigenvalues --   -0.17769  -0.12748  -0.11904
  Beta virt. eigenvalues --   -0.07469  -0.05383  -0.04788  -0.04625  -0.02759
  Beta virt. eigenvalues --   -0.02423  -0.01827  -0.01333  -0.00980  -0.00288
  Beta virt. eigenvalues --   -0.00144   0.00125   0.00388   0.00870   0.00902

 Mulliken charges and spin densities:
               1          2
     1  Na  -0.049963   0.458893
     2  Na  -0.276367  -0.062107
     3  Na   0.300266   0.022218
     4  Na   0.080830   0.055929
     5  Na   0.033604   0.436459
     6  Na  -0.060543   0.124324
     7  Na  -0.027829  -0.035716
 Sum of Mulliken charges =  -0.00000   1.00000

 Dipole moment (field-independent basis, Debye):
    X=              0.0390    Y=             -0.0119    Z=              0.0670  Tot=              0.0784
 Quadrupole moment (field-independent basis, Debye-Ang):
   XX=            -58.3145   YY=            -64.2013   ZZ=            -72.0763
   XY=              0.2268   XZ=              0.3745   YZ=             -1.2026

 Normal termination of Gaussian 16 at Sun Dec  3 18:45:04 2023.
