 Gaussian 16, Revision B.01,
 Gaussian 16:  ES64L-G16RevB.01 20-Dec-2017

 -------------------------
 #P B3LYP/6-311+g(d) force
 -------------------------

 -----
 DPGEN
 -----
 Symbolic Z-matrix:
 Charge =  0 Multiplicity = 2

                         Standard orientation:
 ---------------------------------------------------------------------
 Center     Atomic      Atomic             Coordinates (Angstroms)
 Number     Number       Type             X           Y           Z
 ---------------------------------------------------------------------
      1         11           0       -0.782926   -1.059070    0.193841
      2         11           0        4.897632   -1.635040   -0.711828
      3         11           0        2.524954   -0.044462   -1.619084
      4         11           0        1.774352    3.565677    0.178813
      5         11           0       -4.701717   -1.448858    0.396613
      6         11           0       -6.109657    0.862645   -0.650029
      7         11           0        2.397361   -0.240891    2.211673
 ---------------------------------------------------------------------

 SCF Done:  E(UB3LYP) =  -1136.09460933     A.U. after   25 cycles

 The electronic state is 2-A.
 Alpha  occ. eigenvalues --  -38.46169 -38.45038 -38.44787 -38.44345 -38.44266
 Alpha  occ. eigenvalues --  -38.43991 -38.43179  -2.21880  -2.20818  -2.20615
 Alpha  occ. eigenvalues --   -2.20172  -2.20056  -2.19812  -2.19006  -1.15576
 Alpha  occ. eigenvalues --   -1.15547  -1.15536  -1.14456  -1.14451  -1.14415
 Alpha  occ. eigenvalues --   -1.14326  -1.14298  -1.14239  -1.13929  -1.13803
 Alpha  occ. eigenvalues --   -1.13799  -1.13723  -1.13703  -1.13649  -1.13464
 Alpha  occ. eigenvalues --   -1.13454  -1.13443  -1.12685  -1.12656  -1.12645
 Alpha  occ. eigenvalues --   -0.16303  -0.13937  -0.11811  -0.11009
 Alpha virt. eigenvalues --   -0.07318  -0.06033  -0.04354  -0.03152  -0.02924
 Alpha virt. eigenvalues --   -0.02354  -0.02244  -0.02155  -0.01719  -0.01236
 Alpha virt. eigenvalues --   -0.00780  -0.00471   0.00175   0.00288   0.00472

  Beta  occ. eigenvalues --  -38.46215 -38.44906 -38.44812 -38.44305 -38.44174
  Beta  occ. eigenvalues --  -38.43997 -38.43180  -2.21968  -2.20662  -2.20571
  Beta  occ. eigenvalues --   -2.20098  -2.19885  -2.19827  -2.19007  -1.15623
  Beta  occ. eigenvalues --   -1.15608  -1.15592  -1.14344  -1.14310  -1.14293
  Beta  occ. eigenvalues --   -1.14288  -1.14281  -1.14252  -1.13888  -1.13752
  Beta  occ. eigenvalues --   -1.13747  -1.13607  -1.13585  -1.13541  -1.13478
  Beta  occ. eigenvalues --   -1.13463  -1.13420  -1.12698  -1.12654  -1.12640
  Beta  occ. eigenvalues --   -0.15863  -0.13515  -0.11116
  Beta virt. eigenvalues --   -0.07496  -0.07409  -0.05399  -0.03965  -0.02872
  Beta virt. eigenvalues --   -0.02702  -0.02656  -0.01934  -0.01601  -0.01432
  Beta virt. eigenvalues --   -0.00988  -0.00481  -0.00103   0.00124   0.00431

 Mulliken charges and spin densities:
               1          2
     1  Na  -0.455924   0.325084
     2  Na   0.019994   0.054140
     3  Na   0.410711  -0.045575
     4  Na   0.000292   0.663852
     5  Na  -0.159812  -0.002034
     6  Na  -0.068538   0.162464
     7  Na   0.253278  -0.157931
 Sum of Mulliken charges =  -0.00000   1.00000

 Dipole moment (field-independent basis, Debye):
    X=              0.1823    Y=              0.3929    Z=              0.8647  Tot=              0.9671
 Quadrupole moment (field-independent basis, Debye-Ang):
   XX=            -71.7910   YY=            -68.2907   ZZ=            -66.2816
   XY=             -4.4930   XZ=              9.6211   YZ=             -4.9678

 Normal termination of Gaussian 16 at Sun Dec  3 22:38:50 2023.
