 Gaussian 16, Revision B.01,
 Gaussian 16:  ES64L-G16RevB.01 20-Dec-2017

 -------------------------
 #P B3LYP/6-311+g(d) force
 -------------------------

 -----
 DPGEN
 -----
 Symbolic Z-matrix:
 Charge =  0 Multiplicity = 2

                         Standard orientation:
 ---------------------------------------------------------------------
 Center     Atomic      Atomic             Coordinates (Angstroms)
 Number     Number       Type             X           Y           Z
 ---------------------------------------------------------------------
      1         11           0       -2.984968    0.861280   -0.223399
      2         11           0       -0.060654   -0.300821    1.957914
      3         11           0        1.983414   -2.196828   -0.224956
      4         11           0        2.998169    1.210647   -0.159788
      5         11           0       -0.027940    2.647749    0.240216
      6         11           0       -0.350837   -0.087853   -1.734181
      7         11           0       -1.557183   -2.134173    0.144194
 ---------------------------------------------------------------------

 SCF Done:  E(UB3LYP) =  -1136.13514270     A.U. after   19 cycles

 The electronic state is 2-A.
 Alpha  occ. eigenvalues --  -38.43976 -38.43859 -38.43602 -38.43510 -38.43433
 Alpha  occ. eigenvalues --  -38.43325 -38.43029  -2.19785  -2.19742  -2.19563
 Alpha  occ. eigenvalues --   -2.19443  -2.19357  -2.19297  -2.18913  -1.13455
 Alpha  occ. eigenvalues --   -1.13452  -1.13445  -1.13436  -1.13396  -1.13383
 Alpha  occ. eigenvalues --   -1.13318  -1.13211  -1.13184  -1.13163  -1.13091
 Alpha  occ. eigenvalues --   -1.13067  -1.13022  -1.13007  -1.12990  -1.12946
 Alpha  occ. eigenvalues --   -1.12922  -1.12874  -1.12600  -1.12584  -1.12533
 Alpha  occ. eigenvalues --   -0.19151  -0.13149  -0.12502  -0.11029
 Alpha virt. eigenvalues --   -0.05587  -0.05181  -0.04320  -0.03228  -0.02978
 Alpha virt. eigenvalues --   -0.02644  -0.01544  -0.01003  -0.00119  -0.00104
 Alpha virt. eigenvalues --    0.00012   0.00347   0.00816   0.00911   0.00948

  Beta  occ. eigenvalues --  -38.43977 -38.43852 -38.43507 -38.43504 -38.43362
  Beta  occ. eigenvalues --  -38.43310 -38.43021  -2.19789  -2.19733  -2.19391
  Beta  occ. eigenvalues --   -2.19350  -2.19314  -2.19275  -2.18902  -1.13453
  Beta  occ. eigenvalues --   -1.13442  -1.13438  -1.13436  -1.13386  -1.13362
  Beta  occ. eigenvalues --   -1.13225  -1.13118  -1.13079  -1.13054  -1.13023
  Beta  occ. eigenvalues --   -1.13003  -1.12997  -1.12983  -1.12939  -1.12901
  Beta  occ. eigenvalues --   -1.12869  -1.12856  -1.12593  -1.12548  -1.12531
  Beta  occ. eigenvalues --   -0.18395  -0.12904  -0.12237
  Beta virt. eigenvalues --   -0.07058  -0.05531  -0.05178  -0.04304  -0.02453
  Beta virt. eigenvalues --   -0.02151  -0.01577  -0.01453  -0.00964  -0.00151
  Beta virt. eigenvalues --   -0.00117   0.00119   0.00375   0.00877   0.00898

 Mulliken charges and spin densities:
               1          2
     1  Na   0.337595  -0.018719
     2  Na  -0.441171   0.659491
     3  Na   0.053453  -0.103387
     4  Na  -0.135875  -0.093466
     5  Na   0.067714  -0.057915
     6  Na  -0.482831   0.646393
     7  Na   0.601114  -0.032397
 Sum of Mulliken charges =  -0.00000   1.00000

 Dipole moment (field-independent basis, Debye):
    X=              0.1075    Y=              0.0188    Z=              0.0190  Tot=              0.1108
 Quadrupole moment (field-independent basis, Debye-Ang):
   XX=            -55.4032   YY=            -65.6007   ZZ=            -73.0114
   XY=             -0.9191   XZ=             -0.5706   YZ=              0.4042

 Normal termination of Gaussian 16 at Thu Dec  7 20:24:03 2023.
