 Gaussian 16, Revision B.01,
 Gaussian 16:  ES64L-G16RevB.01 20-Dec-2017

 -------------------------
 #P B3LYP/6-311+g(d) force
 -------------------------

 -----
 DPGEN
 -----
 Symbolic Z-matrix:
 Charge =  0 Multiplicity = 2

                         Standard orientation:
 ---------------------------------------------------------------------
 Center     Atomic      Atomic             Coordinates (Angstroms)
 Number     Number       Type             X           Y           Z
 ---------------------------------------------------------------------
      1         11           0        0.381319    0.081170   -1.800165
      2         11           0       -0.182439    0.246629    1.823759
      3         11           0       -0.138919   -2.428029    0.341321
      4         11           0       -2.751175   -0.874722   -0.196759
      5         11           0       -1.643105    1.958008   -0.317251
      6         11           0        1.614998    2.062763    0.363529
      7         11           0        2.719320   -1.045819   -0.214435
 ---------------------------------------------------------------------

 SCF Done:  E(UB3LYP) =  -1136.12700687     A.U. after   19 cycles

 The electronic state is 2-A.
 Alpha  occ. eigenvalues --  -38.43655 -38.43648 -38.43623 -38.43539 -38.43256
 Alpha  occ. eigenvalues --  -38.43205 -38.42942  -2.19702  -2.19603  -2.19591
 Alpha  occ. eigenvalues --   -2.19571  -2.19234  -2.19200  -2.18923  -1.13443
 Alpha  occ. eigenvalues --   -1.13399  -1.13387  -1.13338  -1.13298  -1.13286
 Alpha  occ. eigenvalues --   -1.13265  -1.13236  -1.13223  -1.13209  -1.13198
 Alpha  occ. eigenvalues --   -1.13154  -1.12910  -1.12888  -1.12866  -1.12849
 Alpha  occ. eigenvalues --   -1.12841  -1.12779  -1.12613  -1.12571  -1.12537
 Alpha  occ. eigenvalues --   -0.20098  -0.13458  -0.12697  -0.11545
 Alpha virt. eigenvalues --   -0.05270  -0.04761  -0.04171  -0.03487  -0.03109
 Alpha virt. eigenvalues --   -0.02806  -0.01270  -0.00766  -0.00068   0.00306
 Alpha virt. eigenvalues --    0.00368   0.00405   0.00920   0.01014   0.01035

  Beta  occ. eigenvalues --  -38.43651 -38.43642 -38.43534 -38.43459 -38.43241
  Beta  occ. eigenvalues --  -38.43192 -38.42930  -2.19586  -2.19566  -2.19540
  Beta  occ. eigenvalues --   -2.19454  -2.19212  -2.19181  -2.18905  -1.13359
  Beta  occ. eigenvalues --   -1.13334  -1.13314  -1.13292  -1.13243  -1.13221
  Beta  occ. eigenvalues --   -1.13218  -1.13196  -1.13189  -1.13172  -1.13116
  Beta  occ. eigenvalues --   -1.13081  -1.12886  -1.12859  -1.12837  -1.12822
  Beta  occ. eigenvalues --   -1.12796  -1.12767  -1.12598  -1.12541  -1.12517
  Beta  occ. eigenvalues --   -0.19328  -0.13164  -0.12391
  Beta virt. eigenvalues --   -0.07496  -0.05236  -0.04763  -0.04176  -0.02633
  Beta virt. eigenvalues --   -0.02248  -0.01692  -0.01189  -0.00719   0.00073
  Beta virt. eigenvalues --    0.00287   0.00328   0.00402   0.00972   0.01003

 Mulliken charges and spin densities:
               1          2
     1  Na  -0.782881   0.545073
     2  Na  -0.776236   0.507713
     3  Na   0.449212   0.019251
     4  Na  -0.092805  -0.051325
     5  Na   0.500882   0.027572
     6  Na   0.526158  -0.011362
     7  Na   0.175670  -0.036923
 Sum of Mulliken charges =  -0.00000   1.00000

 Dipole moment (field-independent basis, Debye):
    X=              0.0952    Y=             -0.0078    Z=             -0.0793  Tot=              0.1242
 Quadrupole moment (field-independent basis, Debye-Ang):
   XX=            -57.8984   YY=            -66.8360   ZZ=            -70.7754
   XY=              0.0718   XZ=              1.0560   YZ=             -0.1504

 Normal termination of Gaussian 16 at Thu Dec  7 02:46:49 2023.
