 Gaussian 16, Revision B.01,
 Gaussian 16:  ES64L-G16RevB.01 20-Dec-2017

 -------------------------
 #P B3LYP/6-311+g(d) force
 -------------------------

 -----
 DPGEN
 -----
 Symbolic Z-matrix:
 Charge =  0 Multiplicity = 2

                         Standard orientation:
 ---------------------------------------------------------------------
 Center     Atomic      Atomic             Coordinates (Angstroms)
 Number     Number       Type             X           Y           Z
 ---------------------------------------------------------------------
      1         11           0        0.154751    0.134461    0.077438
      2         11           0        2.450811    2.468795   -0.363968
      3         11           0       -1.117454    3.268861   -0.441237
      4         11           0       -3.566021    0.536027    0.959405
      5         11           0       -2.058155   -2.426306   -0.828376
      6         11           0        0.974942   -3.241404   -0.099232
      7         11           0        3.161126   -0.740434    0.695970
 ---------------------------------------------------------------------

 SCF Done:  E(UB3LYP) =  -1136.12791464     A.U. after   23 cycles

 The electronic state is 2-A.
 Alpha  occ. eigenvalues --  -38.44405 -38.44278 -38.44031 -38.43957 -38.43550
 Alpha  occ. eigenvalues --  -38.43408 -38.43183  -2.20202  -2.20110  -2.19874
 Alpha  occ. eigenvalues --   -2.19819  -2.19511  -2.19216  -2.19071  -1.13883
 Alpha  occ. eigenvalues --   -1.13875  -1.13822  -1.13795  -1.13784  -1.13730
 Alpha  occ. eigenvalues --   -1.13584  -1.13546  -1.13511  -1.13484  -1.13477
 Alpha  occ. eigenvalues --   -1.13428  -1.13242  -1.13171  -1.13148  -1.12874
 Alpha  occ. eigenvalues --   -1.12858  -1.12831  -1.12731  -1.12712  -1.12697
 Alpha  occ. eigenvalues --   -0.17481  -0.13663  -0.13389  -0.09693
 Alpha virt. eigenvalues --   -0.06535  -0.05557  -0.04297  -0.03531  -0.02819
 Alpha virt. eigenvalues --   -0.01963  -0.01913  -0.01288  -0.01190  -0.00537
 Alpha virt. eigenvalues --   -0.00034   0.00264   0.00367   0.00620   0.00722

  Beta  occ. eigenvalues --  -38.44383 -38.44267 -38.44000 -38.43939 -38.43559
  Beta  occ. eigenvalues --  -38.43334 -38.43137  -2.20166  -2.20093  -2.19821
  Beta  occ. eigenvalues --   -2.19791  -2.19526  -2.19077  -2.18985  -1.13861
  Beta  occ. eigenvalues --   -1.13855  -1.13791  -1.13778  -1.13764  -1.13686
  Beta  occ. eigenvalues --   -1.13544  -1.13514  -1.13470  -1.13465  -1.13449
  Beta  occ. eigenvalues --   -1.13368  -1.13237  -1.13188  -1.13167  -1.12778
  Beta  occ. eigenvalues --   -1.12764  -1.12741  -1.12675  -1.12653  -1.12644
  Beta  occ. eigenvalues --   -0.17203  -0.12964  -0.12792
  Beta virt. eigenvalues --   -0.06612  -0.06463  -0.05245  -0.04145  -0.02930
  Beta virt. eigenvalues --   -0.02248  -0.01839  -0.01789  -0.01054  -0.00958
  Beta virt. eigenvalues --   -0.00271   0.00239   0.00408   0.00501   0.00692

 Mulliken charges and spin densities:
               1          2
     1  Na  -4.332937  -0.192194
     2  Na   0.209093   0.113079
     3  Na   1.445859   0.162894
     4  Na   0.840689   0.399717
     5  Na   0.899790   0.167495
     6  Na   0.552416   0.135133
     7  Na   0.385089   0.213876
 Sum of Mulliken charges =  -0.00000   1.00000

 Dipole moment (field-independent basis, Debye):
    X=              0.5128    Y=              0.2328    Z=             -0.3245  Tot=              0.6499
 Quadrupole moment (field-independent basis, Debye-Ang):
   XX=            -62.1994   YY=            -60.7462   ZZ=            -72.6412
   XY=              0.2621   XZ=              1.2996   YZ=             -1.0299

 Normal termination of Gaussian 16 at Fri Dec  8 17:19:10 2023.
