 Gaussian 16, Revision B.01,
 Gaussian 16:  ES64L-G16RevB.01 20-Dec-2017

 -------------------------
 #P B3LYP/6-311+g(d) force
 -------------------------

 -----
 DPGEN
 -----
 Symbolic Z-matrix:
 Charge =  0 Multiplicity = 2

                         Standard orientation:
 ---------------------------------------------------------------------
 Center     Atomic      Atomic             Coordinates (Angstroms)
 Number     Number       Type             X           Y           Z
 ---------------------------------------------------------------------
      1         11           0        2.967455   -0.888381   -0.219690
      2         11           0       -0.178465    0.007358   -1.744450
      3         11           0       -1.830421    1.995407    0.021330
      4         11           0        0.311134   -2.723832    0.019198
      5         11           0        0.068304   -0.091494    2.037241
      6         11           0        1.768879    2.549003   -0.024307
      7         11           0       -3.106886   -0.848061   -0.089322
 ---------------------------------------------------------------------

 SCF Done:  E(UB3LYP) =  -1136.13749638     A.U. after   19 cycles

 The electronic state is 2-A.
 Alpha  occ. eigenvalues --  -38.44068 -38.44025 -38.43627 -38.43417 -38.43402
 Alpha  occ. eigenvalues --  -38.43310 -38.43080  -2.19911  -2.19875  -2.19535
 Alpha  occ. eigenvalues --   -2.19379  -2.19339  -2.19126  -2.18975  -1.13586
 Alpha  occ. eigenvalues --   -1.13576  -1.13576  -1.13553  -1.13535  -1.13510
 Alpha  occ. eigenvalues --   -1.13211  -1.13176  -1.13147  -1.13134  -1.13053
 Alpha  occ. eigenvalues --   -1.12995  -1.12989  -1.12955  -1.12948  -1.12796
 Alpha  occ. eigenvalues --   -1.12784  -1.12772  -1.12657  -1.12641  -1.12596
 Alpha  occ. eigenvalues --   -0.18888  -0.13251  -0.12288  -0.10922
 Alpha virt. eigenvalues --   -0.05700  -0.05083  -0.04452  -0.03344  -0.02819
 Alpha virt. eigenvalues --   -0.02688  -0.01621  -0.01034  -0.00210  -0.00146
 Alpha virt. eigenvalues --   -0.00032   0.00360   0.00779   0.00913   0.00924

  Beta  occ. eigenvalues --  -38.44064 -38.44022 -38.43531 -38.43409 -38.43332
  Beta  occ. eigenvalues --  -38.43310 -38.43072  -2.19907  -2.19874  -2.19359
  Beta  occ. eigenvalues --   -2.19328  -2.19250  -2.19128  -2.18965  -1.13583
  Beta  occ. eigenvalues --   -1.13578  -1.13554  -1.13553  -1.13520  -1.13502
  Beta  occ. eigenvalues --   -1.13109  -1.13079  -1.13047  -1.13022  -1.12971
  Beta  occ. eigenvalues --   -1.12963  -1.12945  -1.12902  -1.12882  -1.12787
  Beta  occ. eigenvalues --   -1.12780  -1.12774  -1.12652  -1.12599  -1.12594
  Beta  occ. eigenvalues --   -0.18129  -0.13012  -0.12051
  Beta virt. eigenvalues --   -0.06974  -0.05652  -0.05096  -0.04430  -0.02514
  Beta virt. eigenvalues --   -0.02043  -0.01609  -0.01528  -0.00980  -0.00266
  Beta virt. eigenvalues --   -0.00191   0.00110   0.00377   0.00840   0.00902

 Mulliken charges and spin densities:
               1          2
     1  Na   0.087886  -0.071129
     2  Na  -0.341763   0.571338
     3  Na   0.246952  -0.014773
     4  Na   0.249223  -0.074497
     5  Na  -0.505435   0.743726
     6  Na   0.011381  -0.097989
     7  Na   0.251755  -0.056676
 Sum of Mulliken charges =  -0.00000   1.00000

 Dipole moment (field-independent basis, Debye):
    X=              0.0172    Y=             -0.1259    Z=              0.0849  Tot=              0.1528
 Quadrupole moment (field-independent basis, Debye-Ang):
   XX=            -55.3881   YY=            -65.0784   ZZ=            -73.4197
   XY=              1.0718   XZ=             -0.5554   YZ=              0.2956

 Normal termination of Gaussian 16 at Fri Dec  8 04:40:58 2023.
