 Gaussian 16, Revision B.01,
 Gaussian 16:  ES64L-G16RevB.01 20-Dec-2017

 -------------------------
 #P B3LYP/6-311+g(d) force
 -------------------------

 -----
 DPGEN
 -----
 Symbolic Z-matrix:
 Charge =  0 Multiplicity = 2

                         Standard orientation:
 ---------------------------------------------------------------------
 Center     Atomic      Atomic             Coordinates (Angstroms)
 Number     Number       Type             X           Y           Z
 ---------------------------------------------------------------------
      1         11           0       -1.777129    2.853765    0.301382
      2         11           0       -0.093831   -0.201671   -1.426049
      3         11           0        3.039028   -1.160936   -0.451773
      4         11           0        2.035479    2.314845   -0.497219
      5         11           0       -3.343043   -0.751503   -0.491313
      6         11           0       -0.430563   -3.095898    0.317652
      7         11           0        0.570059    0.041397    2.247320
 ---------------------------------------------------------------------

 SCF Done:  E(UB3LYP) =  -1136.13310266     A.U. after   19 cycles

 The electronic state is 2-A.
 Alpha  occ. eigenvalues --  -38.44132 -38.44077 -38.44030 -38.43896 -38.43893
 Alpha  occ. eigenvalues --  -38.43853 -38.43227  -2.19911  -2.19887  -2.19781
 Alpha  occ. eigenvalues --   -2.19727  -2.19705  -2.19651  -2.19167  -1.13596
 Alpha  occ. eigenvalues --   -1.13570  -1.13566  -1.13544  -1.13539  -1.13522
 Alpha  occ. eigenvalues --   -1.13461  -1.13436  -1.13425  -1.13396  -1.13386
 Alpha  occ. eigenvalues --   -1.13372  -1.13353  -1.13339  -1.13333  -1.13324
 Alpha  occ. eigenvalues --   -1.13317  -1.13276  -1.12866  -1.12807  -1.12796
 Alpha  occ. eigenvalues --   -0.17825  -0.12717  -0.12210  -0.10612
 Alpha virt. eigenvalues --   -0.05636  -0.05560  -0.05085  -0.02961  -0.02885
 Alpha virt. eigenvalues --   -0.02573  -0.01639  -0.01359  -0.00829  -0.00632
 Alpha virt. eigenvalues --   -0.00059   0.00307   0.00719   0.00782   0.00796

  Beta  occ. eigenvalues --  -38.44124 -38.44066 -38.44029 -38.43883 -38.43848
  Beta  occ. eigenvalues --  -38.43791 -38.43187  -2.19897  -2.19871  -2.19781
  Beta  occ. eigenvalues --   -2.19690  -2.19644  -2.19531  -2.19095  -1.13578
  Beta  occ. eigenvalues --   -1.13558  -1.13550  -1.13533  -1.13532  -1.13502
  Beta  occ. eigenvalues --   -1.13452  -1.13437  -1.13425  -1.13379  -1.13354
  Beta  occ. eigenvalues --   -1.13329  -1.13308  -1.13306  -1.13271  -1.13251
  Beta  occ. eigenvalues --   -1.13225  -1.13191  -1.12809  -1.12760  -1.12738
  Beta  occ. eigenvalues --   -0.17152  -0.12456  -0.12052
  Beta virt. eigenvalues --   -0.06750  -0.05570  -0.05489  -0.04945  -0.02333
  Beta virt. eigenvalues --   -0.02222  -0.01590  -0.01474  -0.01272  -0.00819
  Beta virt. eigenvalues --   -0.00664   0.00117   0.00366   0.00784   0.00798

 Mulliken charges and spin densities:
               1          2
     1  Na  -0.118929   0.020470
     2  Na   0.201449   0.105116
     3  Na   0.205185   0.014997
     4  Na   0.101308   0.026994
     5  Na   0.047531   0.012786
     6  Na  -0.013224   0.049593
     7  Na  -0.423319   0.770045
 Sum of Mulliken charges =  -0.00000   1.00000

 Dipole moment (field-independent basis, Debye):
    X=              0.0831    Y=             -0.1137    Z=              0.1076  Tot=              0.1772
 Quadrupole moment (field-independent basis, Debye-Ang):
   XX=            -56.9175   YY=            -60.5098   ZZ=            -75.3685
   XY=             -0.4638   XZ=             -1.1582   YZ=             -0.3177

 Normal termination of Gaussian 16 at Thu Dec  7 22:44:39 2023.
