 Gaussian 16, Revision B.01,
 Gaussian 16:  ES64L-G16RevB.01 20-Dec-2017

 -------------------------
 #P B3LYP/6-311+g(d) force
 -------------------------

 -----
 DPGEN
 -----
 Symbolic Z-matrix:
 Charge =  0 Multiplicity = 2

                         Standard orientation:
 ---------------------------------------------------------------------
 Center     Atomic      Atomic             Coordinates (Angstroms)
 Number     Number       Type             X           Y           Z
 ---------------------------------------------------------------------
      1         11           0        0.186701    0.665673    2.009239
      2         11           0        3.179355   -0.521807   -0.456892
      3         11           0       -2.754786    1.651890    0.021599
      4         11           0        1.141908    2.721401   -0.323127
      5         11           0        0.032592   -0.162343   -1.571728
      6         11           0        0.807565   -2.443607    0.702588
      7         11           0       -2.593336   -1.911208   -0.381677
 ---------------------------------------------------------------------

 SCF Done:  E(UB3LYP) =  -1136.13613117     A.U. after   19 cycles

 The electronic state is 2-A.
 Alpha  occ. eigenvalues --  -38.44305 -38.44146 -38.43646 -38.43502 -38.43499
 Alpha  occ. eigenvalues --  -38.43199 -38.43076  -2.20094  -2.19988  -2.19466
 Alpha  occ. eigenvalues --   -2.19406  -2.19347  -2.19182  -2.18974  -1.13779
 Alpha  occ. eigenvalues --   -1.13756  -1.13725  -1.13669  -1.13650  -1.13619
 Alpha  occ. eigenvalues --   -1.13153  -1.13121  -1.13109  -1.13104  -1.13072
 Alpha  occ. eigenvalues --   -1.13038  -1.13019  -1.12981  -1.12955  -1.12880
 Alpha  occ. eigenvalues --   -1.12821  -1.12799  -1.12654  -1.12627  -1.12598
 Alpha  occ. eigenvalues --   -0.18571  -0.12982  -0.12341  -0.10834
 Alpha virt. eigenvalues --   -0.05863  -0.05191  -0.04368  -0.03174  -0.03016
 Alpha virt. eigenvalues --   -0.02527  -0.01708  -0.01155  -0.00345  -0.00236
 Alpha virt. eigenvalues --    0.00029   0.00341   0.00764   0.00821   0.00906

  Beta  occ. eigenvalues --  -38.44304 -38.44136 -38.43643 -38.43492 -38.43412
  Beta  occ. eigenvalues --  -38.43143 -38.43055  -2.20095  -2.19972  -2.19461
  Beta  occ. eigenvalues --   -2.19336  -2.19240  -2.19081  -2.18939  -1.13767
  Beta  occ. eigenvalues --   -1.13756  -1.13725  -1.13657  -1.13618  -1.13612
  Beta  occ. eigenvalues --   -1.13141  -1.13113  -1.13102  -1.13061  -1.13011
  Beta  occ. eigenvalues --   -1.12960  -1.12953  -1.12909  -1.12886  -1.12810
  Beta  occ. eigenvalues --   -1.12756  -1.12720  -1.12628  -1.12586  -1.12568
  Beta  occ. eigenvalues --   -0.17851  -0.12739  -0.12119
  Beta virt. eigenvalues --   -0.06909  -0.05847  -0.05125  -0.04288  -0.02449
  Beta virt. eigenvalues --   -0.02304  -0.01630  -0.01466  -0.01106  -0.00390
  Beta virt. eigenvalues --   -0.00156   0.00126   0.00380   0.00783   0.00886

 Mulliken charges and spin densities:
               1          2
     1  Na  -0.169883   0.572389
     2  Na   0.173118   0.004069
     3  Na  -0.013676  -0.074424
     4  Na   0.014277  -0.076225
     5  Na  -0.146327   0.417650
     6  Na   0.105007   0.173757
     7  Na   0.037484  -0.017216
 Sum of Mulliken charges =  -0.00000   1.00000

 Dipole moment (field-independent basis, Debye):
    X=             -0.0735    Y=              0.3041    Z=              0.0140  Tot=              0.3132
 Quadrupole moment (field-independent basis, Debye-Ang):
   XX=            -54.9642   YY=            -64.1404   ZZ=            -73.7723
   XY=             -0.3293   XZ=             -0.7818   YZ=             -1.2787

 Normal termination of Gaussian 16 at Thu Dec  7 17:24:56 2023.
