 Gaussian 16, Revision B.01,
 Gaussian 16:  ES64L-G16RevB.01 20-Dec-2017

 -------------------------
 #P B3LYP/6-311+g(d) force
 -------------------------

 -----
 DPGEN
 -----
 Symbolic Z-matrix:
 Charge =  0 Multiplicity = 2

                         Standard orientation:
 ---------------------------------------------------------------------
 Center     Atomic      Atomic             Coordinates (Angstroms)
 Number     Number       Type             X           Y           Z
 ---------------------------------------------------------------------
      1         11           0        0.652125    0.024254   -1.562877
      2         11           0       -4.559396   -2.122902    0.505696
      3         11           0        1.676825    2.021489    1.689745
      4         11           0       -0.650534    3.278780   -0.997562
      5         11           0        2.403865   -1.290141    2.135738
      6         11           0        3.216856   -2.197114   -1.702800
      7         11           0       -2.739741    0.285635   -0.067941
 ---------------------------------------------------------------------

 SCF Done:  E(UB3LYP) =  -1136.11733853     A.U. after   22 cycles

 The electronic state is 2-A.
 Alpha  occ. eigenvalues --  -38.45083 -38.45081 -38.44757 -38.44434 -38.43953
 Alpha  occ. eigenvalues --  -38.43253 -38.43034  -2.20876  -2.20861  -2.20589
 Alpha  occ. eigenvalues --   -2.20223  -2.19755  -2.19057  -2.18866  -1.14572
 Alpha  occ. eigenvalues --   -1.14553  -1.14530  -1.14512  -1.14473  -1.14462
 Alpha  occ. eigenvalues --   -1.14286  -1.14255  -1.14197  -1.13883  -1.13877
 Alpha  occ. eigenvalues --   -1.13834  -1.13431  -1.13409  -1.13386  -1.12763
 Alpha  occ. eigenvalues --   -1.12702  -1.12700  -1.12554  -1.12543  -1.12458
 Alpha  occ. eigenvalues --   -0.16874  -0.13358  -0.12240  -0.11558
 Alpha virt. eigenvalues --   -0.06145  -0.05703  -0.04561  -0.03588  -0.03136
 Alpha virt. eigenvalues --   -0.02282  -0.01960  -0.01532  -0.01111  -0.00696
 Alpha virt. eigenvalues --   -0.00494   0.00032   0.00174   0.00408   0.00580

  Beta  occ. eigenvalues --  -38.45034 -38.45029 -38.44711 -38.44386 -38.43944
  Beta  occ. eigenvalues --  -38.43232 -38.43035  -2.20784  -2.20774  -2.20505
  Beta  occ. eigenvalues --   -2.20135  -2.19739  -2.19018  -2.18872  -1.14501
  Beta  occ. eigenvalues --   -1.14493  -1.14473  -1.14449  -1.14408  -1.14380
  Beta  occ. eigenvalues --   -1.14229  -1.14203  -1.14123  -1.13820  -1.13808
  Beta  occ. eigenvalues --   -1.13782  -1.13417  -1.13395  -1.13377  -1.12740
  Beta  occ. eigenvalues --   -1.12676  -1.12674  -1.12560  -1.12547  -1.12446
  Beta  occ. eigenvalues --   -0.16236  -0.12858  -0.11550
  Beta virt. eigenvalues --   -0.08257  -0.05810  -0.05526  -0.04193  -0.03167
  Beta virt. eigenvalues --   -0.02740  -0.01948  -0.01764  -0.01373  -0.00806
  Beta virt. eigenvalues --   -0.00527  -0.00235   0.00153   0.00347   0.00496

 Mulliken charges and spin densities:
               1          2
     1  Na  -0.997012   0.357246
     2  Na  -0.165090   0.094879
     3  Na  -0.010725   0.219765
     4  Na   2.145366  -0.160768
     5  Na   0.051336   0.207416
     6  Na   0.118049   0.160427
     7  Na  -1.141924   0.121035
 Sum of Mulliken charges =  -0.00000   1.00000

 Dipole moment (field-independent basis, Debye):
    X=              1.9178    Y=              0.3882    Z=              0.2996  Tot=              1.9795
 Quadrupole moment (field-independent basis, Debye-Ang):
   XX=            -69.9984   YY=            -59.8675   ZZ=            -67.1084
   XY=             -3.1154   XZ=              0.1317   YZ=             -2.0741

 Normal termination of Gaussian 16 at Mon Dec  4 00:47:47 2023.
