 Gaussian 16, Revision B.01,
 Gaussian 16:  ES64L-G16RevB.01 20-Dec-2017

 -------------------------
 #P B3LYP/6-311+g(d) force
 -------------------------

 -----
 DPGEN
 -----
 Symbolic Z-matrix:
 Charge =  0 Multiplicity = 2

                         Standard orientation:
 ---------------------------------------------------------------------
 Center     Atomic      Atomic             Coordinates (Angstroms)
 Number     Number       Type             X           Y           Z
 ---------------------------------------------------------------------
      1         11           0       -1.515786    2.369594   -0.182537
      2         11           0        3.140080   -1.715615    0.199907
      3         11           0        0.023773   -0.717456   -0.835502
      4         11           0       -3.328939   -1.112325   -1.411218
      5         11           0        3.410924    1.315156   -0.920653
      6         11           0        0.763073    0.141218    1.661823
      7         11           0       -2.493125   -0.280572    1.488181
 ---------------------------------------------------------------------

 SCF Done:  E(UB3LYP) =  -1136.10996309     A.U. after   31 cycles

 The electronic state is 2-A.
 Alpha  occ. eigenvalues --  -38.45177 -38.44565 -38.44419 -38.44327 -38.43706
 Alpha  occ. eigenvalues --  -38.43366 -38.42690  -2.20995  -2.20506  -2.20417
 Alpha  occ. eigenvalues --   -2.20194  -2.19544  -2.19379  -2.18545  -1.14657
 Alpha  occ. eigenvalues --   -1.14634  -1.14615  -1.14294  -1.14205  -1.14181
 Alpha  occ. eigenvalues --   -1.14114  -1.14059  -1.13998  -1.13861  -1.13852
 Alpha  occ. eigenvalues --   -1.13835  -1.13230  -1.13203  -1.13160  -1.13120
 Alpha  occ. eigenvalues --   -1.12992  -1.12924  -1.12226  -1.12198  -1.12185
 Alpha  occ. eigenvalues --   -0.18794  -0.14760  -0.11048  -0.10595
 Alpha virt. eigenvalues --   -0.06860  -0.05882  -0.04667  -0.02994  -0.02837
 Alpha virt. eigenvalues --   -0.02255  -0.01823  -0.01244  -0.00873  -0.00480
 Alpha virt. eigenvalues --    0.00098   0.00233   0.00328   0.00471   0.00638

  Beta  occ. eigenvalues --  -38.45116 -38.44551 -38.44388 -38.44321 -38.43695
  Beta  occ. eigenvalues --  -38.43306 -38.42686  -2.20878  -2.20483  -2.20368
  Beta  occ. eigenvalues --   -2.20188  -2.19524  -2.19275  -2.18539  -1.14575
  Beta  occ. eigenvalues --   -1.14557  -1.14539  -1.14235  -1.14167  -1.14157
  Beta  occ. eigenvalues --   -1.14107  -1.14004  -1.13971  -1.13855  -1.13836
  Beta  occ. eigenvalues --   -1.13817  -1.13213  -1.13190  -1.13142  -1.13052
  Beta  occ. eigenvalues --   -1.12899  -1.12841  -1.12229  -1.12188  -1.12177
  Beta  occ. eigenvalues --   -0.18106  -0.14506  -0.10461
  Beta virt. eigenvalues --   -0.07336  -0.06574  -0.05338  -0.04306  -0.02733
  Beta virt. eigenvalues --   -0.02610  -0.01803  -0.01338  -0.00952  -0.00581
  Beta virt. eigenvalues --   -0.00249   0.00129   0.00289   0.00495   0.00509

 Mulliken charges and spin densities:
               1          2
     1  Na  -0.378623   0.195663
     2  Na   1.300762  -0.128909
     3  Na  -1.812582   0.488042
     4  Na   0.288464   0.007828
     5  Na  -0.027955   0.246575
     6  Na   0.192345   0.310131
     7  Na   0.437589  -0.119330
 Sum of Mulliken charges =  -0.00000   1.00000

 Dipole moment (field-independent basis, Debye):
    X=              1.1610    Y=              0.6284    Z=              0.4575  Tot=              1.3972
 Quadrupole moment (field-independent basis, Debye-Ang):
   XX=            -53.9975   YY=            -72.8462   ZZ=            -69.4567
   XY=             -3.8545   XZ=             -2.9235   YZ=             -5.4912

 Normal termination of Gaussian 16 at Tue Dec  5 13:19:03 2023.
