 Gaussian 16, Revision B.01,
 Gaussian 16:  ES64L-G16RevB.01 20-Dec-2017

 -------------------------
 #P B3LYP/6-311+g(d) force
 -------------------------

 -----
 DPGEN
 -----
 Symbolic Z-matrix:
 Charge =  0 Multiplicity = 2

                         Standard orientation:
 ---------------------------------------------------------------------
 Center     Atomic      Atomic             Coordinates (Angstroms)
 Number     Number       Type             X           Y           Z
 ---------------------------------------------------------------------
      1         11           0        3.180963    0.316353   -0.054115
      2         11           0       -2.816394    1.595499    0.232572
      3         11           0       -0.091769    0.420772   -1.465760
      4         11           0        0.794709    2.670582    0.053515
      5         11           0        1.457013   -2.292546   -0.467361
      6         11           0        0.040929   -0.848023    2.185129
      7         11           0       -2.565451   -1.862636   -0.483980
 ---------------------------------------------------------------------

 SCF Done:  E(UB3LYP) =  -1136.13093782     A.U. after   19 cycles

 The electronic state is 2-A.
 Alpha  occ. eigenvalues --  -38.44287 -38.44247 -38.44053 -38.43703 -38.43329
 Alpha  occ. eigenvalues --  -38.43240 -38.43208  -2.20111  -2.20092  -2.19857
 Alpha  occ. eigenvalues --   -2.19554  -2.19239  -2.19226  -2.19129  -1.13797
 Alpha  occ. eigenvalues --   -1.13768  -1.13767  -1.13756  -1.13754  -1.13730
 Alpha  occ. eigenvalues --   -1.13535  -1.13512  -1.13494  -1.13217  -1.13189
 Alpha  occ. eigenvalues --   -1.13168  -1.13123  -1.12957  -1.12881  -1.12878
 Alpha  occ. eigenvalues --   -1.12852  -1.12828  -1.12763  -1.12726  -1.12715
 Alpha  occ. eigenvalues --   -0.18603  -0.13302  -0.12253  -0.10663
 Alpha virt. eigenvalues --   -0.05901  -0.05550  -0.04200  -0.03264  -0.02995
 Alpha virt. eigenvalues --   -0.02378  -0.01763  -0.01206  -0.00386  -0.00231
 Alpha virt. eigenvalues --   -0.00029   0.00328   0.00719   0.00842   0.00894

  Beta  occ. eigenvalues --  -38.44285 -38.44244 -38.44044 -38.43605 -38.43316
  Beta  occ. eigenvalues --  -38.43236 -38.43159  -2.20108  -2.20090  -2.19844
  Beta  occ. eigenvalues --   -2.19374  -2.19208  -2.19158  -2.19117  -1.13795
  Beta  occ. eigenvalues --   -1.13767  -1.13761  -1.13745  -1.13736  -1.13732
  Beta  occ. eigenvalues --   -1.13514  -1.13498  -1.13487  -1.13100  -1.13080
  Beta  occ. eigenvalues --   -1.13061  -1.13041  -1.12928  -1.12852  -1.12835
  Beta  occ. eigenvalues --   -1.12822  -1.12774  -1.12745  -1.12715  -1.12679
  Beta  occ. eigenvalues --   -0.17902  -0.13108  -0.12025
  Beta virt. eigenvalues --   -0.06737  -0.05834  -0.05529  -0.04135  -0.02544
  Beta virt. eigenvalues --   -0.02208  -0.01669  -0.01373  -0.01126  -0.00424
  Beta virt. eigenvalues --   -0.00249   0.00153   0.00369   0.00790   0.00851

 Mulliken charges and spin densities:
               1          2
     1  Na   0.197447   0.054694
     2  Na   0.038328   0.036009
     3  Na  -0.308288   0.146254
     4  Na   0.285346   0.083931
     5  Na   0.397756   0.044596
     6  Na  -0.763670   0.671863
     7  Na   0.153080  -0.037347
 Sum of Mulliken charges =  -0.00000   1.00000

 Dipole moment (field-independent basis, Debye):
    X=             -0.2950    Y=             -0.0348    Z=              0.2487  Tot=              0.3875
 Quadrupole moment (field-independent basis, Debye-Ang):
   XX=            -53.0885   YY=            -65.9007   ZZ=            -74.3940
   XY=              0.1402   XZ=             -0.3356   YZ=              2.7313

 Normal termination of Gaussian 16 at Fri Dec  8 01:10:35 2023.
