 Gaussian 16, Revision B.01,
 Gaussian 16:  ES64L-G16RevB.01 20-Dec-2017

 -------------------------
 #P B3LYP/6-311+g(d) force
 -------------------------

 -----
 DPGEN
 -----
 Symbolic Z-matrix:
 Charge =  0 Multiplicity = 2

                         Standard orientation:
 ---------------------------------------------------------------------
 Center     Atomic      Atomic             Coordinates (Angstroms)
 Number     Number       Type             X           Y           Z
 ---------------------------------------------------------------------
      1         11           0       -1.710114    3.315890    0.684714
      2         11           0       -3.655875    0.834167    0.007503
      3         11           0        1.366065    3.465401   -0.385210
      4         11           0        3.048621   -2.145816    0.268451
      5         11           0       -3.262112   -2.551306   -0.689064
      6         11           0        3.943125    0.815209   -0.373642
      7         11           0        0.270289   -3.733545    0.487248
 ---------------------------------------------------------------------

 SCF Done:  E(UB3LYP) =  -1136.10805867     A.U. after   24 cycles

 The electronic state is 2-A.
 Alpha  occ. eigenvalues --  -38.45623 -38.45141 -38.44535 -38.44495 -38.44492
 Alpha  occ. eigenvalues --  -38.43879 -38.43854  -2.21386  -2.20928  -2.20319
 Alpha  occ. eigenvalues --   -2.20309  -2.20296  -2.19699  -2.19690  -1.15069
 Alpha  occ. eigenvalues --   -1.15060  -1.15025  -1.14606  -1.14598  -1.14574
 Alpha  occ. eigenvalues --   -1.14055  -1.13988  -1.13984  -1.13974  -1.13959
 Alpha  occ. eigenvalues --   -1.13950  -1.13945  -1.13929  -1.13893  -1.13354
 Alpha  occ. eigenvalues --   -1.13353  -1.13345  -1.13335  -1.13331  -1.13328
 Alpha  occ. eigenvalues --   -0.15773  -0.14176  -0.13666  -0.10835
 Alpha virt. eigenvalues --   -0.07998  -0.04521  -0.04340  -0.03716  -0.03651
 Alpha virt. eigenvalues --   -0.02317  -0.02160  -0.01774  -0.01651  -0.00734
 Alpha virt. eigenvalues --   -0.00528  -0.00030   0.00105   0.00373   0.00640

  Beta  occ. eigenvalues --  -38.45613 -38.45125 -38.44496 -38.44476 -38.44440
  Beta  occ. eigenvalues --  -38.43826 -38.43817  -2.21374  -2.20903  -2.20296
  Beta  occ. eigenvalues --   -2.20239  -2.20198  -2.19622  -2.19600  -1.15064
  Beta  occ. eigenvalues --   -1.15055  -1.14981  -1.14592  -1.14585  -1.14527
  Beta  occ. eigenvalues --   -1.13992  -1.13974  -1.13966  -1.13928  -1.13915
  Beta  occ. eigenvalues --   -1.13887  -1.13884  -1.13870  -1.13817  -1.13308
  Beta  occ. eigenvalues --   -1.13293  -1.13290  -1.13284  -1.13277  -1.13259
  Beta  occ. eigenvalues --   -0.15249  -0.13477  -0.12869
  Beta virt. eigenvalues --   -0.08205  -0.07642  -0.03960  -0.03855  -0.03474
  Beta virt. eigenvalues --   -0.03401  -0.02129  -0.01954  -0.01610  -0.01505
  Beta virt. eigenvalues --   -0.00415  -0.00297   0.00232   0.00320   0.00341

 Mulliken charges and spin densities:
               1          2
     1  Na  -0.054621   0.153606
     2  Na  -0.087580   0.103339
     3  Na  -0.159832   0.099620
     4  Na   0.022413   0.044813
     5  Na   0.163714   0.147107
     6  Na   0.266163   0.278510
     7  Na  -0.150256   0.173005
 Sum of Mulliken charges =  -0.00000   1.00000

 Dipole moment (field-independent basis, Debye):
    X=             -0.3423    Y=              0.3087    Z=             -0.0970  Tot=              0.4710
 Quadrupole moment (field-independent basis, Debye-Ang):
   XX=            -65.6095   YY=            -62.5986   ZZ=            -72.6214
   XY=              2.0336   XZ=             -0.6608   YZ=              0.0046

 Normal termination of Gaussian 16 at Sun Dec  3 16:40:14 2023.
