 Gaussian 16, Revision B.01,
 Gaussian 16:  ES64L-G16RevB.01 20-Dec-2017

 -------------------------
 #P B3LYP/6-311+g(d) force
 -------------------------

 -----
 DPGEN
 -----
 Symbolic Z-matrix:
 Charge =  0 Multiplicity = 2

                         Standard orientation:
 ---------------------------------------------------------------------
 Center     Atomic      Atomic             Coordinates (Angstroms)
 Number     Number       Type             X           Y           Z
 ---------------------------------------------------------------------
      1         11           0        2.807105   -1.539298   -0.435151
      2         11           0       -0.057103   -0.418887   -1.587996
      3         11           0       -0.009458    0.222884    2.027982
      4         11           0       -0.977941    2.945404   -0.301864
      5         11           0       -1.208002   -2.749451    0.430499
      6         11           0       -2.993738   -0.019063   -0.312984
      7         11           0        2.439137    1.558411    0.179515
 ---------------------------------------------------------------------

 SCF Done:  E(UB3LYP) =  -1136.13750308     A.U. after   18 cycles

 The electronic state is 2-A.
 Alpha  occ. eigenvalues --  -38.43932 -38.43780 -38.43689 -38.43629 -38.43529
 Alpha  occ. eigenvalues --  -38.43303 -38.43238  -2.19803  -2.19627  -2.19563
 Alpha  occ. eigenvalues --   -2.19525  -2.19384  -2.19218  -2.19118  -1.13508
 Alpha  occ. eigenvalues --   -1.13463  -1.13428  -1.13349  -1.13302  -1.13273
 Alpha  occ. eigenvalues --   -1.13255  -1.13222  -1.13187  -1.13163  -1.13147
 Alpha  occ. eigenvalues --   -1.13136  -1.13069  -1.13040  -1.13018  -1.12896
 Alpha  occ. eigenvalues --   -1.12852  -1.12840  -1.12791  -1.12773  -1.12762
 Alpha  occ. eigenvalues --   -0.18655  -0.13261  -0.12298  -0.10823
 Alpha virt. eigenvalues --   -0.05469  -0.05129  -0.04843  -0.03305  -0.02885
 Alpha virt. eigenvalues --   -0.02508  -0.01479  -0.01160  -0.00398  -0.00245
 Alpha virt. eigenvalues --   -0.00004   0.00358   0.00807   0.00873   0.00889

  Beta  occ. eigenvalues --  -38.43923 -38.43771 -38.43683 -38.43535 -38.43517
  Beta  occ. eigenvalues --  -38.43300 -38.43182  -2.19788  -2.19613  -2.19556
  Beta  occ. eigenvalues --   -2.19367  -2.19353  -2.19118  -2.19113  -1.13493
  Beta  occ. eigenvalues --   -1.13438  -1.13418  -1.13343  -1.13282  -1.13250
  Beta  occ. eigenvalues --   -1.13232  -1.13204  -1.13157  -1.13084  -1.13056
  Beta  occ. eigenvalues --   -1.13032  -1.13022  -1.13010  -1.12991  -1.12825
  Beta  occ. eigenvalues --   -1.12788  -1.12779  -1.12775  -1.12758  -1.12749
  Beta  occ. eigenvalues --   -0.17942  -0.13002  -0.12059
  Beta virt. eigenvalues --   -0.06940  -0.05422  -0.05076  -0.04765  -0.02525
  Beta virt. eigenvalues --   -0.02179  -0.01505  -0.01357  -0.01079  -0.00420
  Beta virt. eigenvalues --   -0.00274   0.00128   0.00390   0.00861   0.00882

 Mulliken charges and spin densities:
               1          2
     1  Na   0.142878  -0.027046
     2  Na  -0.189669   0.413613
     3  Na  -0.310415   0.623426
     4  Na  -0.109387  -0.051440
     5  Na   0.081432   0.048567
     6  Na   0.228360  -0.011278
     7  Na   0.156801   0.004159
 Sum of Mulliken charges =  -0.00000   1.00000

 Dipole moment (field-independent basis, Debye):
    X=             -0.0415    Y=             -0.1526    Z=              0.1295  Tot=              0.2044
 Quadrupole moment (field-independent basis, Debye-Ang):
   XX=            -57.9956   YY=            -61.8760   ZZ=            -73.9876
   XY=             -0.1942   XZ=              0.0189   YZ=             -1.2873

 Normal termination of Gaussian 16 at Thu Dec  7 01:47:14 2023.
