 Gaussian 16, Revision B.01,
 Gaussian 16:  ES64L-G16RevB.01 20-Dec-2017

 -------------------------
 #P B3LYP/6-311+g(d) force
 -------------------------

 -----
 DPGEN
 -----
 Symbolic Z-matrix:
 Charge =  0 Multiplicity = 2

                         Standard orientation:
 ---------------------------------------------------------------------
 Center     Atomic      Atomic             Coordinates (Angstroms)
 Number     Number       Type             X           Y           Z
 ---------------------------------------------------------------------
      1         11           0        0.540019    1.204549    0.960535
      2         11           0        2.135276    3.767807   -0.459667
      3         11           0        3.124701    0.310369   -0.710333
      4         11           0        0.342266   -1.735439    0.286878
      5         11           0       -3.130466    0.553395    0.741788
      6         11           0        4.074648   -3.261194   -0.080537
      7         11           0       -7.086445   -0.839488   -0.738664
 ---------------------------------------------------------------------

 SCF Done:  E(UB3LYP) =  -1136.11083619     A.U. after   22 cycles

 The electronic state is 2-A.
 Alpha  occ. eigenvalues --  -38.45562 -38.44732 -38.44467 -38.44325 -38.44163
 Alpha  occ. eigenvalues --  -38.43705 -38.43568  -2.21332  -2.20564  -2.20218
 Alpha  occ. eigenvalues --   -2.20042  -2.20015  -2.19645  -2.19376  -1.14959
 Alpha  occ. eigenvalues --   -1.14959  -1.14931  -1.14331  -1.14249  -1.14107
 Alpha  occ. eigenvalues --   -1.13890  -1.13887  -1.13830  -1.13760  -1.13742
 Alpha  occ. eigenvalues --   -1.13733  -1.13719  -1.13670  -1.13569  -1.13376
 Alpha  occ. eigenvalues --   -1.13312  -1.13223  -1.13042  -1.13036  -1.12994
 Alpha  occ. eigenvalues --   -0.16870  -0.13209  -0.12253  -0.11584
 Alpha virt. eigenvalues --   -0.06583  -0.05232  -0.04813  -0.03649  -0.02765
 Alpha virt. eigenvalues --   -0.02312  -0.02087  -0.01873  -0.01477  -0.01062
 Alpha virt. eigenvalues --   -0.00575  -0.00176  -0.00016   0.00266   0.00533

  Beta  occ. eigenvalues --  -38.45413 -38.44708 -38.44450 -38.44355 -38.44154
  Beta  occ. eigenvalues --  -38.43685 -38.43556  -2.21053  -2.20520  -2.20185
  Beta  occ. eigenvalues --   -2.20101  -2.19999  -2.19612  -2.19354  -1.14770
  Beta  occ. eigenvalues --   -1.14770  -1.14745  -1.14297  -1.14221  -1.14070
  Beta  occ. eigenvalues --   -1.13867  -1.13863  -1.13810  -1.13786  -1.13776
  Beta  occ. eigenvalues --   -1.13748  -1.13708  -1.13685  -1.13555  -1.13356
  Beta  occ. eigenvalues --   -1.13294  -1.13183  -1.13025  -1.13021  -1.12978
  Beta  occ. eigenvalues --   -0.16579  -0.12313  -0.11969
  Beta virt. eigenvalues --   -0.07941  -0.06219  -0.04991  -0.04627  -0.03490
  Beta virt. eigenvalues --   -0.02431  -0.01961  -0.01693  -0.01576  -0.01028
  Beta virt. eigenvalues --   -0.00631  -0.00212  -0.00081   0.00117   0.00402

 Mulliken charges and spin densities:
               1          2
     1  Na  -0.926526   0.041453
     2  Na   0.718200   0.046503
     3  Na  -0.256876   0.175293
     4  Na  -0.231817   0.016860
     5  Na   0.273210  -0.108586
     6  Na   0.414193   0.089264
     7  Na   0.009618   0.739213
 Sum of Mulliken charges =  -0.00000   1.00000

 Dipole moment (field-independent basis, Debye):
    X=              0.4482    Y=             -0.2915    Z=             -0.2983  Tot=              0.6122
 Quadrupole moment (field-independent basis, Debye-Ang):
   XX=            -61.6357   YY=            -60.5834   ZZ=            -72.2476
   XY=             -2.9260   XZ=              0.5161   YZ=             -0.3951

 Normal termination of Gaussian 16 at Wed Nov 29 01:52:46 2023.
