 Gaussian 16, Revision B.01,
 Gaussian 16:  ES64L-G16RevB.01 20-Dec-2017

 -------------------------
 #P B3LYP/6-311+g(d) force
 -------------------------

 -----
 DPGEN
 -----
 Symbolic Z-matrix:
 Charge =  0 Multiplicity = 2

                         Standard orientation:
 ---------------------------------------------------------------------
 Center     Atomic      Atomic             Coordinates (Angstroms)
 Number     Number       Type             X           Y           Z
 ---------------------------------------------------------------------
      1         11           0        1.017352   -1.387422    0.551697
      2         11           0       -2.188600   -2.424657    0.513903
      3         11           0       -5.425912    0.174959   -0.491139
      4         11           0        0.567555    2.878848    1.026739
      5         11           0       -2.408452    1.009654   -0.600274
      6         11           0        3.853246    1.360727   -0.627669
      7         11           0        4.584811   -1.612108   -0.373258
 ---------------------------------------------------------------------

 SCF Done:  E(UB3LYP) =  -1136.11456200     A.U. after   25 cycles

 The electronic state is 2-A.
 Alpha  occ. eigenvalues --  -38.45266 -38.45027 -38.44759 -38.44627 -38.44302
 Alpha  occ. eigenvalues --  -38.43922 -38.42301  -2.21088  -2.20831  -2.20557
 Alpha  occ. eigenvalues --   -2.20432  -2.20123  -2.19752  -2.18062  -1.14758
 Alpha  occ. eigenvalues --   -1.14721  -1.14689  -1.14511  -1.14501  -1.14458
 Alpha  occ. eigenvalues --   -1.14261  -1.14204  -1.14200  -1.14100  -1.14091
 Alpha  occ. eigenvalues --   -1.14041  -1.13824  -1.13802  -1.13739  -1.13428
 Alpha  occ. eigenvalues --   -1.13401  -1.13380  -1.11742  -1.11716  -1.11713
 Alpha  occ. eigenvalues --   -0.16558  -0.14638  -0.12181  -0.10991
 Alpha virt. eigenvalues --   -0.06201  -0.05478  -0.04540  -0.03559  -0.03155
 Alpha virt. eigenvalues --   -0.02883  -0.02021  -0.01404  -0.01102  -0.00914
 Alpha virt. eigenvalues --   -0.00281  -0.00079   0.00115   0.00498   0.00642

  Beta  occ. eigenvalues --  -38.45175 -38.45005 -38.44711 -38.44583 -38.44290
  Beta  occ. eigenvalues --  -38.43904 -38.42297  -2.20920  -2.20792  -2.20474
  Beta  occ. eigenvalues --   -2.20355  -2.20107  -2.19720  -2.18057  -1.14638
  Beta  occ. eigenvalues --   -1.14606  -1.14580  -1.14485  -1.14477  -1.14421
  Beta  occ. eigenvalues --   -1.14209  -1.14149  -1.14113  -1.14052  -1.14035
  Beta  occ. eigenvalues --   -1.13967  -1.13812  -1.13776  -1.13710  -1.13395
  Beta  occ. eigenvalues --   -1.13381  -1.13366  -1.11738  -1.11712  -1.11709
  Beta  occ. eigenvalues --   -0.15801  -0.14021  -0.10809
  Beta virt. eigenvalues --   -0.08383  -0.06176  -0.04934  -0.04351  -0.03333
  Beta virt. eigenvalues --   -0.02699  -0.02472  -0.01496  -0.01294  -0.00999
  Beta virt. eigenvalues --   -0.00413  -0.00183   0.00041   0.00242   0.00545

 Mulliken charges and spin densities:
               1          2
     1  Na  -0.815498   0.195470
     2  Na   0.230757   0.032350
     3  Na   0.705533   0.284969
     4  Na   0.138316  -0.032132
     5  Na  -0.978083   0.224101
     6  Na   0.066786   0.121574
     7  Na   0.652188   0.173668
 Sum of Mulliken charges =  -0.00000   1.00000

 Dipole moment (field-independent basis, Debye):
    X=             -0.8586    Y=             -1.1401    Z=             -0.3605  Tot=              1.4720
 Quadrupole moment (field-independent basis, Debye-Ang):
   XX=            -46.9420   YY=            -72.7520   ZZ=            -71.4342
   XY=              2.9345   XZ=             -1.5798   YZ=             -2.3721

 Normal termination of Gaussian 16 at Sun Dec  3 18:02:29 2023.
