 Gaussian 16, Revision B.01,
 Gaussian 16:  ES64L-G16RevB.01 20-Dec-2017

 -------------------------
 #P B3LYP/6-311+g(d) force
 -------------------------

 -----
 DPGEN
 -----
 Symbolic Z-matrix:
 Charge =  0 Multiplicity = 2

                         Standard orientation:
 ---------------------------------------------------------------------
 Center     Atomic      Atomic             Coordinates (Angstroms)
 Number     Number       Type             X           Y           Z
 ---------------------------------------------------------------------
      1         11           0       -1.837484    2.228184   -0.006854
      2         11           0       -0.121731   -0.464502   -1.693909
      3         11           0       -3.346613   -0.914362    0.160949
      4         11           0        0.098262   -2.974594   -0.138627
      5         11           0        1.239616    2.753621   -0.420170
      6         11           0        0.604297    0.010840    2.248600
      7         11           0        3.363653   -0.639186   -0.149989
 ---------------------------------------------------------------------

 SCF Done:  E(UB3LYP) =  -1136.13061667     A.U. after   19 cycles

 The electronic state is 2-A.
 Alpha  occ. eigenvalues --  -38.44701 -38.44303 -38.43991 -38.43970 -38.43523
 Alpha  occ. eigenvalues --  -38.43471 -38.43337  -2.20462  -2.20077  -2.19816
 Alpha  occ. eigenvalues --   -2.19805  -2.19451  -2.19305  -2.19193  -1.14140
 Alpha  occ. eigenvalues --   -1.14117  -1.14105  -1.13750  -1.13742  -1.13714
 Alpha  occ. eigenvalues --   -1.13594  -1.13473  -1.13457  -1.13442  -1.13435
 Alpha  occ. eigenvalues --   -1.13400  -1.13123  -1.13096  -1.13049  -1.13027
 Alpha  occ. eigenvalues --   -1.12966  -1.12942  -1.12857  -1.12851  -1.12812
 Alpha  occ. eigenvalues --   -0.17990  -0.12707  -0.12459  -0.10693
 Alpha virt. eigenvalues --   -0.06254  -0.04943  -0.04855  -0.03165  -0.03037
 Alpha virt. eigenvalues --   -0.02652  -0.01894  -0.01105  -0.00660  -0.00366
 Alpha virt. eigenvalues --   -0.00082   0.00322   0.00706   0.00744   0.00817

  Beta  occ. eigenvalues --  -38.44702 -38.44302 -38.43962 -38.43890 -38.43464
  Beta  occ. eigenvalues --  -38.43463 -38.43334  -2.20466  -2.20077  -2.19795
  Beta  occ. eigenvalues --   -2.19630  -2.19343  -2.19292  -2.19190  -1.14124
  Beta  occ. eigenvalues --   -1.14120  -1.14110  -1.13745  -1.13737  -1.13715
  Beta  occ. eigenvalues --   -1.13572  -1.13435  -1.13397  -1.13342  -1.13315
  Beta  occ. eigenvalues --   -1.13304  -1.13053  -1.13033  -1.13007  -1.12973
  Beta  occ. eigenvalues --   -1.12940  -1.12931  -1.12853  -1.12834  -1.12810
  Beta  occ. eigenvalues --   -0.17292  -0.12518  -0.12250
  Beta virt. eigenvalues --   -0.06831  -0.06170  -0.04935  -0.04736  -0.02455
  Beta virt. eigenvalues --   -0.02269  -0.01824  -0.01619  -0.01026  -0.00706
  Beta virt. eigenvalues --   -0.00404   0.00091   0.00358   0.00755   0.00860

 Mulliken charges and spin densities:
               1          2
     1  Na   0.007056  -0.024538
     2  Na   0.068313   0.423973
     3  Na   0.020217  -0.006721
     4  Na   0.180618  -0.098464
     5  Na   0.104157  -0.000747
     6  Na  -0.526740   0.802137
     7  Na   0.146380  -0.095640
 Sum of Mulliken charges =  -0.00000   1.00000

 Dipole moment (field-independent basis, Debye):
    X=              0.3102    Y=             -0.4393    Z=              0.1053  Tot=              0.5480
 Quadrupole moment (field-independent basis, Debye-Ang):
   XX=            -55.0220   YY=            -64.3933   ZZ=            -74.6543
   XY=              0.7098   XZ=             -1.9406   YZ=             -1.0879

 Normal termination of Gaussian 16 at Thu Dec  7 11:14:38 2023.
