 Gaussian 16, Revision B.01,
 Gaussian 16:  ES64L-G16RevB.01 20-Dec-2017

 -------------------------
 #P B3LYP/6-311+g(d) force
 -------------------------

 -----
 DPGEN
 -----
 Symbolic Z-matrix:
 Charge =  0 Multiplicity = 2

                         Standard orientation:
 ---------------------------------------------------------------------
 Center     Atomic      Atomic             Coordinates (Angstroms)
 Number     Number       Type             X           Y           Z
 ---------------------------------------------------------------------
      1         11           0        0.152820   -1.700483    0.285348
      2         11           0       -3.047751    0.243311    0.300427
      3         11           0        0.908451    1.575102   -1.024841
      4         11           0        2.912558   -0.094560    1.797069
      5         11           0        3.776468   -0.415380   -1.115747
      6         11           0       -1.977483    3.321170    0.163707
      7         11           0       -2.725065   -2.929160   -0.405964
 ---------------------------------------------------------------------

 SCF Done:  E(UB3LYP) =  -1136.12236460     A.U. after   24 cycles

 The electronic state is 2-A.
 Alpha  occ. eigenvalues --  -38.44858 -38.44533 -38.44529 -38.44247 -38.43771
 Alpha  occ. eigenvalues --  -38.43631 -38.43188  -2.20715  -2.20383  -2.20373
 Alpha  occ. eigenvalues --   -2.20077  -2.19663  -2.19480  -2.19004  -1.14409
 Alpha  occ. eigenvalues --   -1.14359  -1.14345  -1.14098  -1.14077  -1.14068
 Alpha  occ. eigenvalues --   -1.14049  -1.14003  -1.13979  -1.13788  -1.13761
 Alpha  occ. eigenvalues --   -1.13657  -1.13326  -1.13293  -1.13277  -1.13150
 Alpha  occ. eigenvalues --   -1.13125  -1.13119  -1.12678  -1.12659  -1.12641
 Alpha  occ. eigenvalues --   -0.17585  -0.14459  -0.12403  -0.09938
 Alpha virt. eigenvalues --   -0.06927  -0.05452  -0.05025  -0.03546  -0.02763
 Alpha virt. eigenvalues --   -0.02286  -0.01784  -0.01588  -0.01094  -0.00557
 Alpha virt. eigenvalues --   -0.00121   0.00109   0.00376   0.00479   0.00572

  Beta  occ. eigenvalues --  -38.44825 -38.44525 -38.44519 -38.44209 -38.43697
  Beta  occ. eigenvalues --  -38.43626 -38.43185  -2.20659  -2.20369  -2.20360
  Beta  occ. eigenvalues --   -2.20010  -2.19525  -2.19471  -2.18999  -1.14365
  Beta  occ. eigenvalues --   -1.14317  -1.14286  -1.14088  -1.14062  -1.14046
  Beta  occ. eigenvalues --   -1.14037  -1.13995  -1.13962  -1.13745  -1.13708
  Beta  occ. eigenvalues --   -1.13596  -1.13230  -1.13194  -1.13183  -1.13143
  Beta  occ. eigenvalues --   -1.13117  -1.13113  -1.12672  -1.12654  -1.12639
  Beta  occ. eigenvalues --   -0.17083  -0.14156  -0.12271
  Beta virt. eigenvalues --   -0.06770  -0.06071  -0.05161  -0.04968  -0.03183
  Beta virt. eigenvalues --   -0.02650  -0.01836  -0.01507  -0.01151  -0.01000
  Beta virt. eigenvalues --   -0.00145   0.00079   0.00250   0.00581   0.00686

 Mulliken charges and spin densities:
               1          2
     1  Na  -1.371153   0.330093
     2  Na  -0.498944  -0.007432
     3  Na  -0.593140   0.246696
     4  Na   0.781609   0.217944
     5  Na   0.811186   0.099473
     6  Na   0.355831   0.065204
     7  Na   0.514611   0.048021
 Sum of Mulliken charges =  -0.00000   1.00000

 Dipole moment (field-independent basis, Debye):
    X=              0.0401    Y=             -0.4889    Z=             -0.2536  Tot=              0.5523
 Quadrupole moment (field-independent basis, Debye-Ang):
   XX=            -53.0494   YY=            -65.9109   ZZ=            -77.0119
   XY=              0.7184   XZ=             -1.5845   YZ=              4.6196

 Normal termination of Gaussian 16 at Wed Nov 29 03:41:33 2023.
