 Gaussian 16, Revision B.01,
 Gaussian 16:  ES64L-G16RevB.01 20-Dec-2017

 -------------------------
 #P B3LYP/6-311+g(d) force
 -------------------------

 -----
 DPGEN
 -----
 Symbolic Z-matrix:
 Charge =  0 Multiplicity = 2

                         Standard orientation:
 ---------------------------------------------------------------------
 Center     Atomic      Atomic             Coordinates (Angstroms)
 Number     Number       Type             X           Y           Z
 ---------------------------------------------------------------------
      1         11           0       -1.121065    2.902447   -0.834166
      2         11           0       -0.142013    1.903005    2.343174
      3         11           0       -3.788425   -2.298780   -0.937581
      4         11           0       -1.993969   -0.357743    0.292763
      5         11           0        1.346523   -2.085786    1.397692
      6         11           0        1.772380    1.319061   -1.591700
      7         11           0        3.926568   -1.382204   -0.670182
 ---------------------------------------------------------------------

 SCF Done:  E(UB3LYP) =  -1136.11837583     A.U. after   22 cycles

 The electronic state is 2-A.
 Alpha  occ. eigenvalues --  -38.45003 -38.44929 -38.44582 -38.44152 -38.44122
 Alpha  occ. eigenvalues --  -38.43498 -38.42802  -2.20816  -2.20695  -2.20382
 Alpha  occ. eigenvalues --   -2.19955  -2.19939  -2.19324  -2.18699  -1.14476
 Alpha  occ. eigenvalues --   -1.14459  -1.14425  -1.14364  -1.14359  -1.14322
 Alpha  occ. eigenvalues --   -1.14064  -1.14038  -1.13997  -1.13628  -1.13610
 Alpha  occ. eigenvalues --   -1.13606  -1.13599  -1.13589  -1.13583  -1.13060
 Alpha  occ. eigenvalues --   -1.12954  -1.12948  -1.12378  -1.12367  -1.12328
 Alpha  occ. eigenvalues --   -0.17142  -0.13212  -0.12292  -0.11326
 Alpha virt. eigenvalues --   -0.06241  -0.05766  -0.04853  -0.03244  -0.02897
 Alpha virt. eigenvalues --   -0.02525  -0.01694  -0.01361  -0.01169  -0.00607
 Alpha virt. eigenvalues --   -0.00306   0.00084   0.00228   0.00584   0.00681

  Beta  occ. eigenvalues --  -38.44929 -38.44901 -38.44530 -38.44153 -38.44114
  Beta  occ. eigenvalues --  -38.43467 -38.42797  -2.20678  -2.20643  -2.20285
  Beta  occ. eigenvalues --   -2.19944  -2.19941  -2.19268  -2.18695  -1.14381
  Beta  occ. eigenvalues --   -1.14363  -1.14331  -1.14330  -1.14316  -1.14288
  Beta  occ. eigenvalues --   -1.13998  -1.13973  -1.13926  -1.13617  -1.13610
  Beta  occ. eigenvalues --   -1.13594  -1.13591  -1.13587  -1.13575  -1.13023
  Beta  occ. eigenvalues --   -1.12916  -1.12910  -1.12370  -1.12351  -1.12314
  Beta  occ. eigenvalues --   -0.16487  -0.13058  -0.11822
  Beta virt. eigenvalues --   -0.07899  -0.05628  -0.05431  -0.04546  -0.02881
  Beta virt. eigenvalues --   -0.02683  -0.01997  -0.01591  -0.01210  -0.00806
  Beta virt. eigenvalues --   -0.00383  -0.00134   0.00273   0.00357   0.00679

 Mulliken charges and spin densities:
               1          2
     1  Na   0.419274   0.014129
     2  Na   2.021161   0.107650
     3  Na  -1.196505  -0.008199
     4  Na  -1.204233   0.518507
     5  Na   0.007079   0.139386
     6  Na  -0.246634   0.276817
     7  Na   0.199858  -0.048290
 Sum of Mulliken charges =  -0.00000   1.00000

 Dipole moment (field-independent basis, Debye):
    X=              1.1522    Y=              0.6801    Z=              0.2841  Tot=              1.3678
 Quadrupole moment (field-independent basis, Debye-Ang):
   XX=            -64.8786   YY=            -64.3396   ZZ=            -66.9484
   XY=             -4.1141   XZ=              1.6065   YZ=              1.2113

 Normal termination of Gaussian 16 at Mon Dec  4 04:32:00 2023.
