 Gaussian 16, Revision B.01,
 Gaussian 16:  ES64L-G16RevB.01 20-Dec-2017

 -------------------------
 #P B3LYP/6-311+g(d) force
 -------------------------

 -----
 DPGEN
 -----
 Symbolic Z-matrix:
 Charge =  0 Multiplicity = 2

                         Standard orientation:
 ---------------------------------------------------------------------
 Center     Atomic      Atomic             Coordinates (Angstroms)
 Number     Number       Type             X           Y           Z
 ---------------------------------------------------------------------
      1         11           0       -1.862241    1.317605   -0.735147
      2         11           0        0.320236   -0.558917    1.632183
      3         11           0       -2.187352   -0.905506    0.636053
      4         11           0        0.347305    0.313984   -1.554147
      5         11           0        0.177289   -2.063422   -0.637447
      6         11           0        2.580521   -0.140537   -0.132347
      7         11           0        0.624243    2.036794    0.790853
 ---------------------------------------------------------------------

 SCF Done:  E(UB3LYP) =  -1136.05735928     A.U. after   20 cycles

 The electronic state is 2-A.
 Alpha  occ. eigenvalues --  -38.45043 -38.44530 -38.44352 -38.44254 -38.43917
 Alpha  occ. eigenvalues --  -38.43749 -38.43418  -2.21476  -2.20863  -2.20510
 Alpha  occ. eigenvalues --   -2.20374  -2.20032  -2.19951  -2.19545  -1.15479
 Alpha  occ. eigenvalues --   -1.15276  -1.15122  -1.14748  -1.14593  -1.14571
 Alpha  occ. eigenvalues --   -1.14500  -1.14114  -1.14065  -1.13998  -1.13940
 Alpha  occ. eigenvalues --   -1.13749  -1.13729  -1.13669  -1.13624  -1.13582
 Alpha  occ. eigenvalues --   -1.13545  -1.13418  -1.13245  -1.13178  -1.13095
 Alpha  occ. eigenvalues --   -0.21935  -0.13913  -0.12889  -0.12684
 Alpha virt. eigenvalues --   -0.05146  -0.03998  -0.03993  -0.03890  -0.03340
 Alpha virt. eigenvalues --   -0.03134  -0.01002  -0.00392  -0.00135   0.00338
 Alpha virt. eigenvalues --    0.00860   0.01030   0.01096   0.01261   0.01292

  Beta  occ. eigenvalues --  -38.44953 -38.44444 -38.44330 -38.44235 -38.43905
  Beta  occ. eigenvalues --  -38.43723 -38.43391  -2.21317  -2.20710  -2.20475
  Beta  occ. eigenvalues --   -2.20344  -2.20017  -2.19911  -2.19501  -1.15359
  Beta  occ. eigenvalues --   -1.15180  -1.15005  -1.14650  -1.14515  -1.14487
  Beta  occ. eigenvalues --   -1.14429  -1.14074  -1.14022  -1.13966  -1.13881
  Beta  occ. eigenvalues --   -1.13728  -1.13711  -1.13618  -1.13608  -1.13555
  Beta  occ. eigenvalues --   -1.13467  -1.13399  -1.13218  -1.13106  -1.13072
  Beta  occ. eigenvalues --   -0.21157  -0.13566  -0.12542
  Beta virt. eigenvalues --   -0.08391  -0.05156  -0.03950  -0.03863  -0.02977
  Beta virt. eigenvalues --   -0.02504  -0.01936  -0.00953  -0.00362   0.00030
  Beta virt. eigenvalues --    0.00369   0.00868   0.01047   0.01119   0.01308

 Mulliken charges and spin densities:
               1          2
     1  Na   0.163473   0.050875
     2  Na  -0.627544   0.342504
     3  Na   0.201244   0.054005
     4  Na  -0.472906   0.325152
     5  Na   0.359817   0.152848
     6  Na   0.023999  -0.105610
     7  Na   0.351918   0.180226
 Sum of Mulliken charges =  -0.00000   1.00000

 Dipole moment (field-independent basis, Debye):
    X=              0.0797    Y=              0.1097    Z=              0.2564  Tot=              0.2900
 Quadrupole moment (field-independent basis, Debye-Ang):
   XX=            -61.0194   YY=            -70.3266   ZZ=            -67.1702
   XY=              0.0672   XZ=             -0.1456   YZ=              1.0049

 Normal termination of Gaussian 16 at Fri Dec  8 17:59:53 2023.
