 Gaussian 16, Revision B.01,
 Gaussian 16:  ES64L-G16RevB.01 20-Dec-2017

 -------------------------
 #P B3LYP/6-311+g(d) force
 -------------------------

 -----
 DPGEN
 -----
 Symbolic Z-matrix:
 Charge =  0 Multiplicity = 2

                         Standard orientation:
 ---------------------------------------------------------------------
 Center     Atomic      Atomic             Coordinates (Angstroms)
 Number     Number       Type             X           Y           Z
 ---------------------------------------------------------------------
      1         11           0       -0.348391   -0.148606   -1.186949
      2         11           0        0.396237   -0.003537    2.238057
      3         11           0       -1.270418    2.659283   -0.093988
      4         11           0        2.932506   -1.492258   -0.522081
      5         11           0        2.302587    2.213548   -0.268364
      6         11           0       -0.574429   -2.965586    0.054532
      7         11           0       -3.438093   -0.262843   -0.221208
 ---------------------------------------------------------------------

 SCF Done:  E(UB3LYP) =  -1136.13342420     A.U. after   19 cycles

 The electronic state is 2-A.
 Alpha  occ. eigenvalues --  -38.44269 -38.44152 -38.43848 -38.43796 -38.43589
 Alpha  occ. eigenvalues --  -38.43507 -38.42932  -2.20076  -2.19940  -2.19649
 Alpha  occ. eigenvalues --   -2.19625  -2.19435  -2.19361  -2.18967  -1.13760
 Alpha  occ. eigenvalues --   -1.13732  -1.13708  -1.13618  -1.13591  -1.13575
 Alpha  occ. eigenvalues --   -1.13356  -1.13326  -1.13308  -1.13291  -1.13284
 Alpha  occ. eigenvalues --   -1.13234  -1.13159  -1.13097  -1.13044  -1.13023
 Alpha  occ. eigenvalues --   -1.12983  -1.12968  -1.12663  -1.12626  -1.12577
 Alpha  occ. eigenvalues --   -0.18223  -0.12848  -0.12471  -0.10372
 Alpha virt. eigenvalues --   -0.05866  -0.05425  -0.04844  -0.02870  -0.02741
 Alpha virt. eigenvalues --   -0.02333  -0.01805  -0.01305  -0.00720  -0.00588
 Alpha virt. eigenvalues --   -0.00040   0.00284   0.00721   0.00791   0.00816

  Beta  occ. eigenvalues --  -38.44267 -38.44136 -38.43843 -38.43792 -38.43585
  Beta  occ. eigenvalues --  -38.43393 -38.42902  -2.20073  -2.19912  -2.19643
  Beta  occ. eigenvalues --   -2.19621  -2.19431  -2.19150  -2.18914  -1.13752
  Beta  occ. eigenvalues --   -1.13726  -1.13707  -1.13586  -1.13574  -1.13555
  Beta  occ. eigenvalues --   -1.13353  -1.13313  -1.13301  -1.13283  -1.13260
  Beta  occ. eigenvalues --   -1.13236  -1.13155  -1.13078  -1.13043  -1.12883
  Beta  occ. eigenvalues --   -1.12838  -1.12817  -1.12607  -1.12592  -1.12539
  Beta  occ. eigenvalues --   -0.17565  -0.12595  -0.12294
  Beta virt. eigenvalues --   -0.06476  -0.05747  -0.05402  -0.04783  -0.02210
  Beta virt. eigenvalues --   -0.02011  -0.01720  -0.01279  -0.01244  -0.00723
  Beta virt. eigenvalues --   -0.00605   0.00152   0.00357   0.00784   0.00821

 Mulliken charges and spin densities:
               1          2
     1  Na  -0.612923   0.083008
     2  Na  -0.459210   0.680006
     3  Na   0.235418   0.027264
     4  Na   0.124300   0.088852
     5  Na   0.122804   0.043106
     6  Na   0.215116   0.039565
     7  Na   0.374496   0.038199
 Sum of Mulliken charges =  -0.00000   1.00000

 Dipole moment (field-independent basis, Debye):
    X=             -0.1443    Y=             -0.1222    Z=              0.1811  Tot=              0.2618
 Quadrupole moment (field-independent basis, Debye-Ang):
   XX=            -54.4081   YY=            -60.7837   ZZ=            -76.5305
   XY=              0.4557   XZ=             -1.3537   YZ=             -0.2079

 Normal termination of Gaussian 16 at Thu Dec  7 07:19:36 2023.
