 Gaussian 16, Revision B.01,
 Gaussian 16:  ES64L-G16RevB.01 20-Dec-2017

 -------------------------
 #P B3LYP/6-311+g(d) force
 -------------------------

 -----
 DPGEN
 -----
 Symbolic Z-matrix:
 Charge =  0 Multiplicity = 2

                         Standard orientation:
 ---------------------------------------------------------------------
 Center     Atomic      Atomic             Coordinates (Angstroms)
 Number     Number       Type             X           Y           Z
 ---------------------------------------------------------------------
      1         11           0       -3.401016    1.411776    0.382900
      2         11           0        3.816745   -0.615087    0.314781
      3         11           0       -2.621128   -1.938456   -0.197709
      4         11           0        0.905807   -1.787907   -0.807285
      5         11           0       -0.858557    0.806993   -1.258129
      6         11           0        2.033033    2.156765   -0.504322
      7         11           0        0.125117   -0.034084    2.069764
 ---------------------------------------------------------------------

 SCF Done:  E(UB3LYP) =  -1136.11743865     A.U. after   38 cycles

 The electronic state is 2-A.
 Alpha  occ. eigenvalues --  -38.45670 -38.44816 -38.44721 -38.44069 -38.43542
 Alpha  occ. eigenvalues --  -38.43027 -38.42673  -2.21470  -2.20642  -2.20534
 Alpha  occ. eigenvalues --   -2.19901  -2.19381  -2.19036  -2.18585  -1.15143
 Alpha  occ. eigenvalues --   -1.15123  -1.15103  -1.14337  -1.14274  -1.14246
 Alpha  occ. eigenvalues --   -1.14240  -1.14188  -1.14176  -1.13578  -1.13557
 Alpha  occ. eigenvalues --   -1.13535  -1.13077  -1.13036  -1.13016  -1.12745
 Alpha  occ. eigenvalues --   -1.12693  -1.12643  -1.12296  -1.12247  -1.12187
 Alpha  occ. eigenvalues --   -0.18559  -0.14145  -0.11100  -0.10638
 Alpha virt. eigenvalues --   -0.07482  -0.05656  -0.03964  -0.03155  -0.02933
 Alpha virt. eigenvalues --   -0.02288  -0.02198  -0.01520  -0.00734  -0.00384
 Alpha virt. eigenvalues --    0.00034   0.00152   0.00414   0.00585   0.00650

  Beta  occ. eigenvalues --  -38.45659 -38.44739 -38.44737 -38.44062 -38.43519
  Beta  occ. eigenvalues --  -38.42969 -38.42652  -2.21451  -2.20565  -2.20499
  Beta  occ. eigenvalues --   -2.19890  -2.19344  -2.18934  -2.18551  -1.15125
  Beta  occ. eigenvalues --   -1.15109  -1.15087  -1.14261  -1.14238  -1.14207
  Beta  occ. eigenvalues --   -1.14188  -1.14176  -1.14138  -1.13562  -1.13547
  Beta  occ. eigenvalues --   -1.13529  -1.13041  -1.12998  -1.12990  -1.12690
  Beta  occ. eigenvalues --   -1.12601  -1.12557  -1.12273  -1.12191  -1.12170
  Beta  occ. eigenvalues --   -0.17835  -0.14036  -0.10835
  Beta virt. eigenvalues --   -0.07292  -0.06724  -0.05672  -0.03483  -0.02930
  Beta virt. eigenvalues --   -0.02706  -0.01656  -0.01365  -0.01297  -0.00594
  Beta virt. eigenvalues --   -0.00269   0.00050   0.00172   0.00558   0.00634

 Mulliken charges and spin densities:
               1          2
     1  Na   0.270255   0.017139
     2  Na   0.457158   0.165174
     3  Na   0.231106   0.017200
     4  Na  -0.331975  -0.037394
     5  Na   0.003986   0.203682
     6  Na  -0.161148   0.011390
     7  Na  -0.469382   0.622809
 Sum of Mulliken charges =  -0.00000   1.00000

 Dipole moment (field-independent basis, Debye):
    X=              0.2925    Y=             -0.2897    Z=              0.6015  Tot=              0.7289
 Quadrupole moment (field-independent basis, Debye-Ang):
   XX=            -42.3481   YY=            -74.7035   ZZ=            -74.2708
   XY=              0.1408   XZ=             -0.5953   YZ=              0.5558

 Normal termination of Gaussian 16 at Fri Dec  8 02:20:51 2023.
