 Gaussian 16, Revision B.01,
 Gaussian 16:  ES64L-G16RevB.01 20-Dec-2017

 -------------------------
 #P B3LYP/6-311+g(d) force
 -------------------------

 -----
 DPGEN
 -----
 Symbolic Z-matrix:
 Charge =  0 Multiplicity = 2

                         Standard orientation:
 ---------------------------------------------------------------------
 Center     Atomic      Atomic             Coordinates (Angstroms)
 Number     Number       Type             X           Y           Z
 ---------------------------------------------------------------------
      1         11           0       -1.103855    2.206899    1.510028
      2         11           0       -2.797812    0.465506   -0.644493
      3         11           0        1.851652   -0.593440   -1.026117
      4         11           0       -2.493711   -2.692682   -0.337142
      5         11           0        4.662114   -0.627623    0.367183
      6         11           0        0.256419    2.398323   -1.172257
      7         11           0       -0.374807   -1.156983    1.302799
 ---------------------------------------------------------------------

 SCF Done:  E(UB3LYP) =  -1136.11532697     A.U. after   23 cycles

 The electronic state is 2-A.
 Alpha  occ. eigenvalues --  -38.45456 -38.44580 -38.43889 -38.43790 -38.43577
 Alpha  occ. eigenvalues --  -38.43430 -38.43321  -2.21215  -2.20478  -2.19760
 Alpha  occ. eigenvalues --   -2.19720  -2.19465  -2.19296  -2.19250  -1.14887
 Alpha  occ. eigenvalues --   -1.14873  -1.14864  -1.14170  -1.14151  -1.14100
 Alpha  occ. eigenvalues --   -1.13495  -1.13418  -1.13395  -1.13379  -1.13377
 Alpha  occ. eigenvalues --   -1.13348  -1.13191  -1.13125  -1.13088  -1.12959
 Alpha  occ. eigenvalues --   -1.12944  -1.12929  -1.12912  -1.12883  -1.12843
 Alpha  occ. eigenvalues --   -0.18248  -0.13400  -0.12473  -0.10370
 Alpha virt. eigenvalues --   -0.07330  -0.05043  -0.03701  -0.03606  -0.03108
 Alpha virt. eigenvalues --   -0.02641  -0.01930  -0.01106  -0.00738  -0.00465
 Alpha virt. eigenvalues --   -0.00030   0.00203   0.00297   0.00655   0.00836

  Beta  occ. eigenvalues --  -38.45467 -38.44554 -38.43870 -38.43742 -38.43541
  Beta  occ. eigenvalues --  -38.43422 -38.43275  -2.21236  -2.20433  -2.19727
  Beta  occ. eigenvalues --   -2.19634  -2.19398  -2.19281  -2.19166  -1.14901
  Beta  occ. eigenvalues --   -1.14887  -1.14877  -1.14126  -1.14106  -1.14070
  Beta  occ. eigenvalues --   -1.13462  -1.13389  -1.13359  -1.13331  -1.13313
  Beta  occ. eigenvalues --   -1.13283  -1.13140  -1.13075  -1.13040  -1.12942
  Beta  occ. eigenvalues --   -1.12930  -1.12915  -1.12856  -1.12824  -1.12770
  Beta  occ. eigenvalues --   -0.17541  -0.13270  -0.12332
  Beta virt. eigenvalues --   -0.07107  -0.06497  -0.04930  -0.03532  -0.03240
  Beta virt. eigenvalues --   -0.02584  -0.02343  -0.01251  -0.00946  -0.00691
  Beta virt. eigenvalues --   -0.00148   0.00078   0.00300   0.00449   0.00702

 Mulliken charges and spin densities:
               1          2
     1  Na   0.265344   0.159609
     2  Na   0.057400   0.320568
     3  Na   0.228232   0.157272
     4  Na   0.359633   0.004013
     5  Na   0.029189  -0.072360
     6  Na  -0.139369   0.191009
     7  Na  -0.800430   0.239890
 Sum of Mulliken charges =  -0.00000   1.00000

 Dipole moment (field-independent basis, Debye):
    X=              0.9638    Y=              0.0396    Z=              0.2775  Tot=              1.0037
 Quadrupole moment (field-independent basis, Debye-Ang):
   XX=            -50.5495   YY=            -67.3699   ZZ=            -73.7299
   XY=             -0.2638   XZ=              3.7438   YZ=              0.9484

 Normal termination of Gaussian 16 at Tue Nov 28 21:17:52 2023.
