 Gaussian 16, Revision B.01,
 Gaussian 16:  ES64L-G16RevB.01 20-Dec-2017

 -------------------------
 #P B3LYP/6-311+g(d) force
 -------------------------

 -----
 DPGEN
 -----
 Symbolic Z-matrix:
 Charge =  0 Multiplicity = 2

                         Standard orientation:
 ---------------------------------------------------------------------
 Center     Atomic      Atomic             Coordinates (Angstroms)
 Number     Number       Type             X           Y           Z
 ---------------------------------------------------------------------
      1         11           0       -0.329541   -0.285056    0.529270
      2         11           0        2.515841   -0.678128    1.479846
      3         11           0        1.757407   -1.617421   -1.257327
      4         11           0        2.096382    1.261762   -0.616707
      5         11           0       -0.511042    2.724904   -0.161059
      6         11           0       -2.997980    0.764261    0.134313
      7         11           0       -2.531067   -2.170324   -0.108337
 ---------------------------------------------------------------------

 SCF Done:  E(UB3LYP) =  -1136.10024593     A.U. after   23 cycles

 The electronic state is 2-A.
 Alpha  occ. eigenvalues --  -38.44669 -38.44254 -38.44077 -38.43944 -38.43908
 Alpha  occ. eigenvalues --  -38.43177 -38.42972  -2.20629  -2.20155  -2.20144
 Alpha  occ. eigenvalues --   -2.19970  -2.19903  -2.19447  -2.18903  -1.14406
 Alpha  occ. eigenvalues --   -1.14291  -1.14255  -1.14015  -1.13871  -1.13858
 Alpha  occ. eigenvalues --   -1.13828  -1.13778  -1.13758  -1.13692  -1.13620
 Alpha  occ. eigenvalues --   -1.13575  -1.13535  -1.13493  -1.13436  -1.13118
 Alpha  occ. eigenvalues --   -1.13104  -1.13082  -1.12585  -1.12564  -1.12519
 Alpha  occ. eigenvalues --   -0.19628  -0.14791  -0.12422  -0.10291
 Alpha virt. eigenvalues --   -0.06164  -0.05849  -0.04345  -0.03476  -0.02178
 Alpha virt. eigenvalues --   -0.02043  -0.01531  -0.01024  -0.00506  -0.00113
 Alpha virt. eigenvalues --    0.00003   0.00358   0.00749   0.00826   0.00875

  Beta  occ. eigenvalues --  -38.44669 -38.44256 -38.44046 -38.43874 -38.43857
  Beta  occ. eigenvalues --  -38.43147 -38.42969  -2.20629  -2.20150  -2.20106
  Beta  occ. eigenvalues --   -2.19843  -2.19809  -2.19401  -2.18901  -1.14404
  Beta  occ. eigenvalues --   -1.14297  -1.14247  -1.13975  -1.13868  -1.13816
  Beta  occ. eigenvalues --   -1.13783  -1.13754  -1.13752  -1.13624  -1.13522
  Beta  occ. eigenvalues --   -1.13507  -1.13455  -1.13422  -1.13349  -1.13092
  Beta  occ. eigenvalues --   -1.13069  -1.12991  -1.12583  -1.12563  -1.12502
  Beta  occ. eigenvalues --   -0.18943  -0.14591  -0.12257
  Beta virt. eigenvalues --   -0.06248  -0.05944  -0.05751  -0.04189  -0.02943
  Beta virt. eigenvalues --   -0.01904  -0.01630  -0.00945  -0.00782  -0.00433
  Beta virt. eigenvalues --    0.00079   0.00217   0.00452   0.00778   0.00891

 Mulliken charges and spin densities:
               1          2
     1  Na  -2.425377   0.782224
     2  Na   0.406717  -0.102000
     3  Na  -0.035336   0.175893
     4  Na   0.569579   0.499257
     5  Na   0.321238  -0.046989
     6  Na   0.459534  -0.207480
     7  Na   0.703646  -0.100905
 Sum of Mulliken charges =  -0.00000   1.00000

 Dipole moment (field-independent basis, Debye):
    X=             -0.6727    Y=             -0.3338    Z=             -0.2861  Tot=              0.8036
 Quadrupole moment (field-independent basis, Debye-Ang):
   XX=            -53.0855   YY=            -64.3840   ZZ=            -76.0222
   XY=             -0.0144   XZ=              0.2823   YZ=              0.6488

 Normal termination of Gaussian 16 at Fri Dec  8 01:29:50 2023.
