 Gaussian 16, Revision B.01,
 Gaussian 16:  ES64L-G16RevB.01 20-Dec-2017

 -------------------------
 #P B3LYP/6-311+g(d) force
 -------------------------

 -----
 DPGEN
 -----
 Symbolic Z-matrix:
 Charge =  0 Multiplicity = 2

                         Standard orientation:
 ---------------------------------------------------------------------
 Center     Atomic      Atomic             Coordinates (Angstroms)
 Number     Number       Type             X           Y           Z
 ---------------------------------------------------------------------
      1         11           0       -1.448528    2.504229    0.738899
      2         11           0       -3.202289   -1.319067    0.201492
      3         11           0       -0.152497   -0.670097    2.399389
      4         11           0       -1.384917    0.391837   -2.075766
      5         11           0        3.906976   -0.749196    0.132829
      6         11           0        0.432136   -2.161348   -0.896732
      7         11           0        1.849117    2.003643   -0.500110
 ---------------------------------------------------------------------

 SCF Done:  E(UB3LYP) =  -1136.12670418     A.U. after   21 cycles

 The electronic state is 2-A.
 Alpha  occ. eigenvalues --  -38.44974 -38.44749 -38.44352 -38.44096 -38.43774
 Alpha  occ. eigenvalues --  -38.43476 -38.43019  -2.20777  -2.20532  -2.20109
 Alpha  occ. eigenvalues --   -2.19974  -2.19586  -2.19270  -2.18832  -1.14427
 Alpha  occ. eigenvalues --   -1.14406  -1.14396  -1.14215  -1.14191  -1.14172
 Alpha  occ. eigenvalues --   -1.13781  -1.13778  -1.13745  -1.13663  -1.13619
 Alpha  occ. eigenvalues --   -1.13570  -1.13293  -1.13269  -1.13174  -1.12961
 Alpha  occ. eigenvalues --   -1.12949  -1.12887  -1.12506  -1.12493  -1.12470
 Alpha  occ. eigenvalues --   -0.17734  -0.12851  -0.11651  -0.11540
 Alpha virt. eigenvalues --   -0.06528  -0.05018  -0.04303  -0.03374  -0.03330
 Alpha virt. eigenvalues --   -0.03092  -0.02049  -0.01041  -0.00511  -0.00184
 Alpha virt. eigenvalues --    0.00025   0.00146   0.00317   0.00673   0.00827

  Beta  occ. eigenvalues --  -38.44873 -38.44751 -38.44357 -38.44028 -38.43755
  Beta  occ. eigenvalues --  -38.43473 -38.43009  -2.20590  -2.20539  -2.20119
  Beta  occ. eigenvalues --   -2.19849  -2.19555  -2.19266  -2.18817  -1.14304
  Beta  occ. eigenvalues --   -1.14272  -1.14263  -1.14211  -1.14180  -1.14179
  Beta  occ. eigenvalues --   -1.13786  -1.13784  -1.13752  -1.13574  -1.13539
  Beta  occ. eigenvalues --   -1.13478  -1.13267  -1.13228  -1.13155  -1.12949
  Beta  occ. eigenvalues --   -1.12946  -1.12888  -1.12491  -1.12480  -1.12453
  Beta  occ. eigenvalues --   -0.16936  -0.12769  -0.11381
  Beta virt. eigenvalues --   -0.07623  -0.06351  -0.05008  -0.03794  -0.02980
  Beta virt. eigenvalues --   -0.02615  -0.02228  -0.01987  -0.00980  -0.00306
  Beta virt. eigenvalues --   -0.00085   0.00017   0.00278   0.00451   0.00790

 Mulliken charges and spin densities:
               1          2
     1  Na  -0.083775   0.015300
     2  Na   0.301357  -0.102996
     3  Na  -0.269726   0.686722
     4  Na   0.249075   0.484485
     5  Na   0.203726  -0.074499
     6  Na  -0.183855   0.021254
     7  Na  -0.216804  -0.030266
 Sum of Mulliken charges =  -0.00000   1.00000

 Dipole moment (field-independent basis, Debye):
    X=             -0.3113    Y=             -0.5496    Z=              0.3132  Tot=              0.7051
 Quadrupole moment (field-independent basis, Debye-Ang):
   XX=            -53.9266   YY=            -74.1643   ZZ=            -67.7718
   XY=              0.1574   XZ=             -0.2000   YZ=             -0.3697

 Normal termination of Gaussian 16 at Sun Dec  3 12:43:44 2023.
