 Gaussian 16, Revision B.01,
 Gaussian 16:  ES64L-G16RevB.01 20-Dec-2017

 -------------------------
 #P B3LYP/6-311+g(d) force
 -------------------------

 -----
 DPGEN
 -----
 Symbolic Z-matrix:
 Charge =  0 Multiplicity = 2

                         Standard orientation:
 ---------------------------------------------------------------------
 Center     Atomic      Atomic             Coordinates (Angstroms)
 Number     Number       Type             X           Y           Z
 ---------------------------------------------------------------------
      1         11           0       -3.455553   -1.550851   -0.781130
      2         11           0        1.033906    2.138970   -0.541936
      3         11           0        3.662816   -0.313214   -0.746370
      4         11           0        0.468848   -1.297353   -1.289629
      5         11           0       -1.130302   -0.274688    1.584453
      6         11           0       -2.230680    2.129779   -0.015617
      7         11           0        1.650965   -0.832641    1.790229
 ---------------------------------------------------------------------

 SCF Done:  E(UB3LYP) =  -1136.12029842     A.U. after   23 cycles

 The electronic state is 2-A.
 Alpha  occ. eigenvalues --  -38.44935 -38.44509 -38.44207 -38.44186 -38.43654
 Alpha  occ. eigenvalues --  -38.43360 -38.42748  -2.20786  -2.20385  -2.20182
 Alpha  occ. eigenvalues --   -2.19967  -2.19663  -2.19217  -2.18608  -1.14463
 Alpha  occ. eigenvalues --   -1.14433  -1.14420  -1.14114  -1.14057  -1.14000
 Alpha  occ. eigenvalues --   -1.13976  -1.13773  -1.13768  -1.13637  -1.13619
 Alpha  occ. eigenvalues --   -1.13594  -1.13359  -1.13315  -1.13237  -1.12904
 Alpha  occ. eigenvalues --   -1.12874  -1.12830  -1.12313  -1.12279  -1.12221
 Alpha  occ. eigenvalues --   -0.18814  -0.14014  -0.11649  -0.11151
 Alpha virt. eigenvalues --   -0.06711  -0.05268  -0.04423  -0.03375  -0.02526
 Alpha virt. eigenvalues --   -0.02443  -0.02379  -0.01102  -0.00760  -0.00006
 Alpha virt. eigenvalues --    0.00096   0.00269   0.00493   0.00631   0.00772

  Beta  occ. eigenvalues --  -38.44915 -38.44486 -38.44158 -38.44123 -38.43591
  Beta  occ. eigenvalues --  -38.43359 -38.42742  -2.20749  -2.20344  -2.20032
  Beta  occ. eigenvalues --   -2.19915  -2.19556  -2.19217  -2.18600  -1.14430
  Beta  occ. eigenvalues --   -1.14410  -1.14392  -1.14077  -1.14022  -1.13943
  Beta  occ. eigenvalues --   -1.13873  -1.13672  -1.13663  -1.13599  -1.13583
  Beta  occ. eigenvalues --   -1.13561  -1.13273  -1.13239  -1.13148  -1.12895
  Beta  occ. eigenvalues --   -1.12873  -1.12829  -1.12307  -1.12266  -1.12210
  Beta  occ. eigenvalues --   -0.18110  -0.13770  -0.10992
  Beta virt. eigenvalues --   -0.07602  -0.06508  -0.05049  -0.03985  -0.03032
  Beta virt. eigenvalues --   -0.02341  -0.01858  -0.01663  -0.00976  -0.00454
  Beta virt. eigenvalues --    0.00069   0.00148   0.00337   0.00583   0.00763

 Mulliken charges and spin densities:
               1          2
     1  Na   0.082676   0.114682
     2  Na  -0.671496   0.073667
     3  Na   1.318369   0.199408
     4  Na  -0.900767   0.333462
     5  Na   0.325291   0.222621
     6  Na   0.015542  -0.024207
     7  Na  -0.169615   0.080367
 Sum of Mulliken charges =  -0.00000   1.00000

 Dipole moment (field-independent basis, Debye):
    X=              0.8560    Y=             -0.3175    Z=             -0.4850  Tot=              1.0338
 Quadrupole moment (field-independent basis, Debye-Ang):
   XX=            -47.2919   YY=            -77.7127   ZZ=            -69.3445
   XY=             -1.1735   XZ=              0.2520   YZ=              1.0672

 Normal termination of Gaussian 16 at Tue Dec  5 22:58:25 2023.
