 Gaussian 16, Revision B.01,
 Gaussian 16:  ES64L-G16RevB.01 20-Dec-2017

 -------------------------
 #P B3LYP/6-311+g(d) force
 -------------------------

 -----
 DPGEN
 -----
 Symbolic Z-matrix:
 Charge =  0 Multiplicity = 2

                         Standard orientation:
 ---------------------------------------------------------------------
 Center     Atomic      Atomic             Coordinates (Angstroms)
 Number     Number       Type             X           Y           Z
 ---------------------------------------------------------------------
      1         11           0        0.722837    0.577429    1.619718
      2         11           0       -2.386863   -1.356185   -1.517349
      3         11           0        4.168333    0.401765   -0.233330
      4         11           0        1.588360   -1.963812    0.022756
      5         11           0       -2.310213   -0.925510    1.407693
      6         11           0        0.598524    1.150874   -1.241156
      7         11           0       -2.380978    2.115439   -0.058332
 ---------------------------------------------------------------------

 SCF Done:  E(UB3LYP) =  -1136.11645531     A.U. after   26 cycles

 The electronic state is 2-A.
 Alpha  occ. eigenvalues --  -38.45993 -38.43898 -38.43831 -38.43810 -38.43685
 Alpha  occ. eigenvalues --  -38.43630 -38.43213  -2.21764  -2.19815  -2.19806
 Alpha  occ. eigenvalues --   -2.19667  -2.19607  -2.19494  -2.19065  -1.15439
 Alpha  occ. eigenvalues --   -1.15423  -1.15377  -1.13659  -1.13570  -1.13508
 Alpha  occ. eigenvalues --   -1.13476  -1.13434  -1.13395  -1.13356  -1.13321
 Alpha  occ. eigenvalues --   -1.13281  -1.13246  -1.13243  -1.13187  -1.13146
 Alpha  occ. eigenvalues --   -1.13126  -1.13098  -1.12739  -1.12722  -1.12696
 Alpha  occ. eigenvalues --   -0.18700  -0.14267  -0.11009  -0.10780
 Alpha virt. eigenvalues --   -0.07218  -0.05105  -0.04462  -0.03015  -0.02930
 Alpha virt. eigenvalues --   -0.02317  -0.02220  -0.01098  -0.00706  -0.00182
 Alpha virt. eigenvalues --    0.00090   0.00202   0.00343   0.00657   0.00782

  Beta  occ. eigenvalues --  -38.45984 -38.43881 -38.43796 -38.43760 -38.43670
  Beta  occ. eigenvalues --  -38.43586 -38.43205  -2.21747  -2.19779  -2.19688
  Beta  occ. eigenvalues --   -2.19645  -2.19580  -2.19412  -2.19051  -1.15421
  Beta  occ. eigenvalues --   -1.15412  -1.15367  -1.13596  -1.13536  -1.13444
  Beta  occ. eigenvalues --   -1.13430  -1.13413  -1.13333  -1.13310  -1.13261
  Beta  occ. eigenvalues --   -1.13249  -1.13231  -1.13197  -1.13168  -1.13096
  Beta  occ. eigenvalues --   -1.13069  -1.13035  -1.12726  -1.12712  -1.12677
  Beta  occ. eigenvalues --   -0.17975  -0.14049  -0.10638
  Beta virt. eigenvalues --   -0.07209  -0.06910  -0.05059  -0.03778  -0.02846
  Beta virt. eigenvalues --   -0.02774  -0.01741  -0.01410  -0.01033  -0.00312
  Beta virt. eigenvalues --   -0.00141   0.00138   0.00217   0.00479   0.00697

 Mulliken charges and spin densities:
               1          2
     1  Na   0.059086   0.313408
     2  Na  -0.152104   0.201233
     3  Na   0.591138   0.091401
     4  Na  -0.417815  -0.051702
     5  Na   0.357226  -0.013733
     6  Na  -0.486606   0.421353
     7  Na   0.049076   0.038040
 Sum of Mulliken charges =  -0.00000   1.00000

 Dipole moment (field-independent basis, Debye):
    X=              1.9670    Y=              0.3053    Z=              0.0290  Tot=              1.9908
 Quadrupole moment (field-independent basis, Debye-Ang):
   XX=            -43.6320   YY=            -77.9629   ZZ=            -69.6921
   XY=             -0.6430   XZ=             -1.4723   YZ=              1.0574

 Normal termination of Gaussian 16 at Thu Dec  7 11:45:11 2023.
