 Gaussian 16, Revision B.01,
 Gaussian 16:  ES64L-G16RevB.01 20-Dec-2017

 -------------------------
 #P B3LYP/6-311+g(d) force
 -------------------------

 -----
 DPGEN
 -----
 Symbolic Z-matrix:
 Charge =  0 Multiplicity = 2

                         Standard orientation:
 ---------------------------------------------------------------------
 Center     Atomic      Atomic             Coordinates (Angstroms)
 Number     Number       Type             X           Y           Z
 ---------------------------------------------------------------------
      1         11           0        2.102266    2.158631   -0.443704
      2         11           0       -0.495010    0.175159   -1.450457
      3         11           0       -1.640952    2.595619    0.374553
      4         11           0       -3.187245   -0.756601   -0.129441
      5         11           0       -0.448318   -2.685561   -0.241311
      6         11           0        0.458007   -0.351746    2.092712
      7         11           0        3.211251   -1.135502   -0.202352
 ---------------------------------------------------------------------

 SCF Done:  E(UB3LYP) =  -1136.13350195     A.U. after   19 cycles

 The electronic state is 2-A.
 Alpha  occ. eigenvalues --  -38.44373 -38.44340 -38.43766 -38.43522 -38.43490
 Alpha  occ. eigenvalues --  -38.43232 -38.43156  -2.20190  -2.20161  -2.19587
 Alpha  occ. eigenvalues --   -2.19391  -2.19313  -2.19171  -2.19121  -1.13891
 Alpha  occ. eigenvalues --   -1.13842  -1.13835  -1.13821  -1.13820  -1.13803
 Alpha  occ. eigenvalues --   -1.13277  -1.13247  -1.13211  -1.13065  -1.13024
 Alpha  occ. eigenvalues --   -1.13018  -1.13002  -1.12971  -1.12944  -1.12931
 Alpha  occ. eigenvalues --   -1.12827  -1.12799  -1.12780  -1.12741  -1.12722
 Alpha  occ. eigenvalues --   -0.18447  -0.13221  -0.12252  -0.10499
 Alpha virt. eigenvalues --   -0.05984  -0.05373  -0.04489  -0.03221  -0.02790
 Alpha virt. eigenvalues --   -0.02331  -0.01825  -0.01216  -0.00455  -0.00384
 Alpha virt. eigenvalues --   -0.00029   0.00312   0.00726   0.00832   0.00854

  Beta  occ. eigenvalues --  -38.44371 -38.44336 -38.43754 -38.43483 -38.43424
  Beta  occ. eigenvalues --  -38.43223 -38.43110  -2.20187  -2.20160  -2.19567
  Beta  occ. eigenvalues --   -2.19301  -2.19210  -2.19110  -2.19086  -1.13883
  Beta  occ. eigenvalues --   -1.13834  -1.13828  -1.13813  -1.13811  -1.13801
  Beta  occ. eigenvalues --   -1.13257  -1.13226  -1.13197  -1.13008  -1.12954
  Beta  occ. eigenvalues --   -1.12945  -1.12939  -1.12898  -1.12891  -1.12871
  Beta  occ. eigenvalues --   -1.12766  -1.12753  -1.12738  -1.12719  -1.12688
  Beta  occ. eigenvalues --   -0.17760  -0.12974  -0.12030
  Beta virt. eigenvalues --   -0.06646  -0.05903  -0.05335  -0.04430  -0.02498
  Beta virt. eigenvalues --   -0.02053  -0.01744  -0.01322  -0.01138  -0.00469
  Beta virt. eigenvalues --   -0.00410   0.00135   0.00360   0.00801   0.00840

 Mulliken charges and spin densities:
               1          2
     1  Na   0.080839   0.008598
     2  Na  -0.178227   0.293736
     3  Na  -0.013621   0.026486
     4  Na   0.348304   0.021213
     5  Na   0.203981  -0.082786
     6  Na  -0.536536   0.773040
     7  Na   0.095261  -0.040286
 Sum of Mulliken charges =  -0.00000   1.00000

 Dipole moment (field-independent basis, Debye):
    X=             -0.0052    Y=             -0.0898    Z=              0.1706  Tot=              0.1928
 Quadrupole moment (field-independent basis, Debye-Ang):
   XX=            -52.9196   YY=            -64.3175   ZZ=            -75.3481
   XY=             -0.7118   XZ=             -1.9085   YZ=              1.2265

 Normal termination of Gaussian 16 at Fri Dec  8 07:47:14 2023.
