 Gaussian 16, Revision B.01,
 Gaussian 16:  ES64L-G16RevB.01 20-Dec-2017

 -------------------------
 #P B3LYP/6-311+g(d) force
 -------------------------

 -----
 DPGEN
 -----
 Symbolic Z-matrix:
 Charge =  0 Multiplicity = 2

                         Standard orientation:
 ---------------------------------------------------------------------
 Center     Atomic      Atomic             Coordinates (Angstroms)
 Number     Number       Type             X           Y           Z
 ---------------------------------------------------------------------
      1         11           0        0.687989   -1.501317    1.502507
      2         11           0       -3.152718   -1.795470   -0.492136
      3         11           0        1.421589    2.025553    0.794615
      4         11           0        0.795379   -1.199091   -1.402364
      5         11           0        3.990081   -0.401274   -0.414247
      6         11           0       -1.566880    2.127330   -1.513925
      7         11           0       -2.175438    0.744269    1.525550
 ---------------------------------------------------------------------

 SCF Done:  E(UB3LYP) =  -1136.12236816     A.U. after   22 cycles

 The electronic state is 2-A.
 Alpha  occ. eigenvalues --  -38.45286 -38.44256 -38.44145 -38.44108 -38.43926
 Alpha  occ. eigenvalues --  -38.43457 -38.43307  -2.21066  -2.20028  -2.20022
 Alpha  occ. eigenvalues --   -2.19989  -2.19778  -2.19264  -2.19114  -1.14742
 Alpha  occ. eigenvalues --   -1.14722  -1.14691  -1.13921  -1.13711  -1.13681
 Alpha  occ. eigenvalues --   -1.13674  -1.13657  -1.13637  -1.13610  -1.13590
 Alpha  occ. eigenvalues --   -1.13554  -1.13454  -1.13446  -1.13399  -1.12933
 Alpha  occ. eigenvalues --   -1.12917  -1.12883  -1.12805  -1.12789  -1.12730
 Alpha  occ. eigenvalues --   -0.17946  -0.13555  -0.11194  -0.10854
 Alpha virt. eigenvalues --   -0.06837  -0.05309  -0.04425  -0.03153  -0.02904
 Alpha virt. eigenvalues --   -0.02506  -0.02330  -0.01276  -0.00539  -0.00202
 Alpha virt. eigenvalues --    0.00086   0.00168   0.00257   0.00607   0.00742

  Beta  occ. eigenvalues --  -38.45279 -38.44251 -38.44114 -38.44057 -38.43901
  Beta  occ. eigenvalues --  -38.43417 -38.43293  -2.21053  -2.20016  -2.19970
  Beta  occ. eigenvalues --   -2.19899  -2.19736  -2.19188  -2.19093  -1.14724
  Beta  occ. eigenvalues --   -1.14714  -1.14684  -1.13868  -1.13706  -1.13668
  Beta  occ. eigenvalues --   -1.13652  -1.13630  -1.13575  -1.13568  -1.13520
  Beta  occ. eigenvalues --   -1.13492  -1.13421  -1.13395  -1.13373  -1.12877
  Beta  occ. eigenvalues --   -1.12869  -1.12829  -1.12790  -1.12753  -1.12720
  Beta  occ. eigenvalues --   -0.17237  -0.13358  -0.11040
  Beta virt. eigenvalues --   -0.07086  -0.06679  -0.05189  -0.03800  -0.02981
  Beta virt. eigenvalues --   -0.02514  -0.02204  -0.01543  -0.01098  -0.00285
  Beta virt. eigenvalues --   -0.00117   0.00130   0.00206   0.00396   0.00684

 Mulliken charges and spin densities:
               1          2
     1  Na   0.108354   0.250526
     2  Na   0.054026  -0.006529
     3  Na  -0.348302   0.033042
     4  Na  -0.482894   0.423330
     5  Na   0.531302  -0.043356
     6  Na  -0.101999   0.183982
     7  Na   0.239513   0.159006
 Sum of Mulliken charges =  -0.00000   1.00000

 Dipole moment (field-independent basis, Debye):
    X=              1.0002    Y=             -0.3400    Z=             -0.0406  Tot=              1.0572
 Quadrupole moment (field-independent basis, Debye-Ang):
   XX=            -47.5749   YY=            -75.8166   ZZ=            -69.1848
   XY=              0.8360   XZ=              0.1395   YZ=              0.0117

 Normal termination of Gaussian 16 at Thu Dec  7 22:02:01 2023.
