 Gaussian 16, Revision B.01,
 Gaussian 16:  ES64L-G16RevB.01 20-Dec-2017

 -------------------------
 #P B3LYP/6-311+g(d) force
 -------------------------

 -----
 DPGEN
 -----
 Symbolic Z-matrix:
 Charge =  0 Multiplicity = 2

                         Standard orientation:
 ---------------------------------------------------------------------
 Center     Atomic      Atomic             Coordinates (Angstroms)
 Number     Number       Type             X           Y           Z
 ---------------------------------------------------------------------
      1         11           0       -2.069424   -2.191637    1.115796
      2         11           0       -1.901349    2.625077    1.002137
      3         11           0        0.837704    1.596076   -1.096547
      4         11           0        3.571615    0.497901    0.209526
      5         11           0        0.929726   -0.623748    1.948548
      6         11           0        0.701740   -2.172017   -1.446172
      7         11           0       -2.070012    0.268348   -1.733287
 ---------------------------------------------------------------------

 SCF Done:  E(UB3LYP) =  -1136.13155334     A.U. after   20 cycles

 The electronic state is 2-A.
 Alpha  occ. eigenvalues --  -38.44363 -38.43984 -38.43929 -38.43848 -38.43695
 Alpha  occ. eigenvalues --  -38.43649 -38.43168  -2.20171  -2.19839  -2.19711
 Alpha  occ. eigenvalues --   -2.19697  -2.19525  -2.19446  -2.19069  -1.13852
 Alpha  occ. eigenvalues --   -1.13821  -1.13786  -1.13513  -1.13492  -1.13468
 Alpha  occ. eigenvalues --   -1.13412  -1.13376  -1.13370  -1.13355  -1.13334
 Alpha  occ. eigenvalues --   -1.13292  -1.13209  -1.13183  -1.13159  -1.13119
 Alpha  occ. eigenvalues --   -1.13100  -1.13077  -1.12767  -1.12744  -1.12674
 Alpha  occ. eigenvalues --   -0.17948  -0.12739  -0.11906  -0.11549
 Alpha virt. eigenvalues --   -0.05559  -0.05117  -0.04695  -0.03372  -0.03248
 Alpha virt. eigenvalues --   -0.02939  -0.01476  -0.01055  -0.00718   0.00079
 Alpha virt. eigenvalues --    0.00241   0.00332   0.00401   0.00605   0.00844

  Beta  occ. eigenvalues --  -38.44319 -38.43929 -38.43903 -38.43819 -38.43695
  Beta  occ. eigenvalues --  -38.43632 -38.43149  -2.20091  -2.19738  -2.19662
  Beta  occ. eigenvalues --   -2.19647  -2.19528  -2.19417  -2.19040  -1.13793
  Beta  occ. eigenvalues --   -1.13755  -1.13734  -1.13448  -1.13418  -1.13393
  Beta  occ. eigenvalues --   -1.13370  -1.13341  -1.13332  -1.13318  -1.13305
  Beta  occ. eigenvalues --   -1.13252  -1.13210  -1.13175  -1.13161  -1.13087
  Beta  occ. eigenvalues --   -1.13081  -1.13057  -1.12747  -1.12699  -1.12657
  Beta  occ. eigenvalues --   -0.17181  -0.12590  -0.11693
  Beta virt. eigenvalues --   -0.07716  -0.05404  -0.04732  -0.04378  -0.03046
  Beta virt. eigenvalues --   -0.02786  -0.02068  -0.01393  -0.00895  -0.00398
  Beta virt. eigenvalues --    0.00152   0.00299   0.00403   0.00481   0.00730

 Mulliken charges and spin densities:
               1          2
     1  Na   0.063524   0.054727
     2  Na   0.008069   0.040215
     3  Na  -0.285225   0.274924
     4  Na   0.381834  -0.158845
     5  Na  -0.315896   0.465569
     6  Na  -0.114955   0.200327
     7  Na   0.262650   0.123082
 Sum of Mulliken charges =  -0.00000   1.00000

 Dipole moment (field-independent basis, Debye):
    X=              0.0936    Y=             -0.2753    Z=              0.0906  Tot=              0.3046
 Quadrupole moment (field-independent basis, Debye-Ang):
   XX=            -58.6973   YY=            -70.3577   ZZ=            -66.1692
   XY=             -0.2752   XZ=             -1.9550   YZ=              3.7681

 Normal termination of Gaussian 16 at Thu Dec  7 13:23:31 2023.
