 Gaussian 16, Revision B.01,
 Gaussian 16:  ES64L-G16RevB.01 20-Dec-2017

 -------------------------
 #P B3LYP/6-311+g(d) force
 -------------------------

 -----
 DPGEN
 -----
 Symbolic Z-matrix:
 Charge =  0 Multiplicity = 2

                         Standard orientation:
 ---------------------------------------------------------------------
 Center     Atomic      Atomic             Coordinates (Angstroms)
 Number     Number       Type             X           Y           Z
 ---------------------------------------------------------------------
      1         11           0       -0.131048    1.746855   -0.319208
      2         11           0       -1.026701   -0.686564    1.958501
      3         11           0       -2.251112   -1.704893   -0.991880
      4         11           0        3.463068    1.118129   -0.960217
      5         11           0       -3.135562    1.781403   -0.130350
      6         11           0        2.193952   -0.458692    1.729328
      7         11           0        0.887403   -1.796238   -1.286175
 ---------------------------------------------------------------------

 SCF Done:  E(UB3LYP) =  -1136.12806569     A.U. after   24 cycles

 The electronic state is 2-A.
 Alpha  occ. eigenvalues --  -38.44346 -38.44311 -38.44155 -38.43651 -38.43466
 Alpha  occ. eigenvalues --  -38.43448 -38.43368  -2.20200  -2.20157  -2.20066
 Alpha  occ. eigenvalues --   -2.19523  -2.19337  -2.19298  -2.19259  -1.13920
 Alpha  occ. eigenvalues --   -1.13857  -1.13845  -1.13813  -1.13805  -1.13765
 Alpha  occ. eigenvalues --   -1.13748  -1.13701  -1.13662  -1.13238  -1.13183
 Alpha  occ. eigenvalues --   -1.13142  -1.13079  -1.13023  -1.12987  -1.12968
 Alpha  occ. eigenvalues --   -1.12949  -1.12935  -1.12931  -1.12913  -1.12807
 Alpha  occ. eigenvalues --   -0.18553  -0.13809  -0.11735  -0.11432
 Alpha virt. eigenvalues --   -0.06135  -0.05273  -0.04586  -0.03493  -0.02739
 Alpha virt. eigenvalues --   -0.02505  -0.02052  -0.01092  -0.00657  -0.00019
 Alpha virt. eigenvalues --    0.00188   0.00303   0.00379   0.00636   0.00755

  Beta  occ. eigenvalues --  -38.44324 -38.44257 -38.44083 -38.43629 -38.43450
  Beta  occ. eigenvalues --  -38.43431 -38.43361  -2.20117  -2.20107  -2.19938
  Beta  occ. eigenvalues --   -2.19484  -2.19301  -2.19274  -2.19249  -1.13834
  Beta  occ. eigenvalues --   -1.13815  -1.13787  -1.13776  -1.13772  -1.13712
  Beta  occ. eigenvalues --   -1.13662  -1.13601  -1.13570  -1.13200  -1.13156
  Beta  occ. eigenvalues --   -1.13114  -1.13081  -1.12980  -1.12951  -1.12948
  Beta  occ. eigenvalues --   -1.12937  -1.12918  -1.12910  -1.12888  -1.12805
  Beta  occ. eigenvalues --   -0.17843  -0.13636  -0.11197
  Beta virt. eigenvalues --   -0.07663  -0.05990  -0.05149  -0.04021  -0.03135
  Beta virt. eigenvalues --   -0.02129  -0.01978  -0.01813  -0.00930  -0.00288
  Beta virt. eigenvalues --    0.00084   0.00230   0.00338   0.00502   0.00733

 Mulliken charges and spin densities:
               1          2
     1  Na  -1.601499   0.160181
     2  Na  -0.070100   0.246107
     3  Na   0.198056   0.151747
     4  Na   0.939665   0.155884
     5  Na   0.746858  -0.081671
     6  Na   0.248591   0.149480
     7  Na  -0.461571   0.218273
 Sum of Mulliken charges =  -0.00000   1.00000

 Dipole moment (field-independent basis, Debye):
    X=              0.4206    Y=             -0.2350    Z=              0.0437  Tot=              0.4838
 Quadrupole moment (field-independent basis, Debye-Ang):
   XX=            -50.7940   YY=            -77.0842   ZZ=            -67.5186
   XY=              1.5700   XZ=             -0.9214   YZ=             -1.2592

 Normal termination of Gaussian 16 at Mon Dec  4 00:45:02 2023.
