 Gaussian 16, Revision B.01,
 Gaussian 16:  ES64L-G16RevB.01 20-Dec-2017

 -------------------------
 #P B3LYP/6-311+g(d) force
 -------------------------

 -----
 DPGEN
 -----
 Symbolic Z-matrix:
 Charge =  0 Multiplicity = 2

                         Standard orientation:
 ---------------------------------------------------------------------
 Center     Atomic      Atomic             Coordinates (Angstroms)
 Number     Number       Type             X           Y           Z
 ---------------------------------------------------------------------
      1         11           0       -1.153891   -3.156182    0.901817
      2         11           0       -1.015516    3.601220    1.193357
      3         11           0        2.128034   -2.281112    0.994896
      4         11           0       -3.436621   -1.877671   -1.219942
      5         11           0       -3.164291    1.844224   -0.484490
      6         11           0        4.482960    0.092703   -1.118162
      7         11           0        2.159325    1.776818   -0.267477
 ---------------------------------------------------------------------

 SCF Done:  E(UB3LYP) =  -1136.11464347     A.U. after   20 cycles

 The electronic state is 2-A.
 Alpha  occ. eigenvalues --  -38.45068 -38.44873 -38.44865 -38.44374 -38.43865
 Alpha  occ. eigenvalues --  -38.43858 -38.43607  -2.20871  -2.20661  -2.20629
 Alpha  occ. eigenvalues --   -2.20213  -2.19659  -2.19657  -2.19412  -1.14567
 Alpha  occ. eigenvalues --   -1.14540  -1.14525  -1.14336  -1.14327  -1.14319
 Alpha  occ. eigenvalues --   -1.14302  -1.14267  -1.14260  -1.13879  -1.13850
 Alpha  occ. eigenvalues --   -1.13823  -1.13349  -1.13334  -1.13332  -1.13313
 Alpha  occ. eigenvalues --   -1.13297  -1.13256  -1.13068  -1.13062  -1.13051
 Alpha  occ. eigenvalues --   -0.15859  -0.13899  -0.13190  -0.10904
 Alpha virt. eigenvalues --   -0.06857  -0.05200  -0.04447  -0.03681  -0.03338
 Alpha virt. eigenvalues --   -0.02220  -0.01937  -0.01656  -0.01115  -0.01020
 Alpha virt. eigenvalues --   -0.00601  -0.00330   0.00028   0.00570   0.00667

  Beta  occ. eigenvalues --  -38.45054 -38.44864 -38.44808 -38.44334 -38.43860
  Beta  occ. eigenvalues --  -38.43802 -38.43575  -2.20850  -2.20631  -2.20544
  Beta  occ. eigenvalues --   -2.20142  -2.19654  -2.19553  -2.19353  -1.14541
  Beta  occ. eigenvalues --   -1.14521  -1.14505  -1.14323  -1.14307  -1.14258
  Beta  occ. eigenvalues --   -1.14250  -1.14241  -1.14162  -1.13823  -1.13802
  Beta  occ. eigenvalues --   -1.13780  -1.13342  -1.13335  -1.13292  -1.13241
  Beta  occ. eigenvalues --   -1.13222  -1.13202  -1.13030  -1.13022  -1.13010
  Beta  occ. eigenvalues --   -0.15350  -0.13342  -0.12592
  Beta virt. eigenvalues --   -0.07590  -0.06819  -0.04834  -0.03951  -0.03501
  Beta virt. eigenvalues --   -0.02974  -0.02058  -0.01646  -0.01465  -0.00920
  Beta virt. eigenvalues --   -0.00706  -0.00356  -0.00021   0.00205   0.00585

 Mulliken charges and spin densities:
               1          2
     1  Na  -0.216910  -0.056186
     2  Na   0.340300   0.133571
     3  Na   0.019064   0.289630
     4  Na   0.221446   0.274349
     5  Na  -0.145402   0.036061
     6  Na   0.954863   0.066573
     7  Na  -1.173362   0.256002
 Sum of Mulliken charges =  -0.00000   1.00000

 Dipole moment (field-independent basis, Debye):
    X=              1.2313    Y=              0.1290    Z=             -0.2107  Tot=              1.2558
 Quadrupole moment (field-independent basis, Debye-Ang):
   XX=            -59.7121   YY=            -69.7866   ZZ=            -69.5997
   XY=             -2.8991   XZ=             -0.0878   YZ=              1.4815

 Normal termination of Gaussian 16 at Sun Dec  3 22:08:22 2023.
