 Gaussian 16, Revision B.01,
 Gaussian 16:  ES64L-G16RevB.01 20-Dec-2017

 -------------------------
 #P B3LYP/6-311+g(d) force
 -------------------------

 -----
 DPGEN
 -----
 Symbolic Z-matrix:
 Charge =  0 Multiplicity = 2

                         Standard orientation:
 ---------------------------------------------------------------------
 Center     Atomic      Atomic             Coordinates (Angstroms)
 Number     Number       Type             X           Y           Z
 ---------------------------------------------------------------------
      1         11           0       -0.107577    0.161393    2.040211
      2         11           0       -1.712342    2.375617   -0.635137
      3         11           0        2.733699   -1.187214    0.030321
      4         11           0        1.975263    2.322566    0.265576
      5         11           0        0.007050   -0.094937   -1.874439
      6         11           0       -0.027377   -2.646255   -0.339529
      7         11           0       -2.868715   -0.931170    0.512998
 ---------------------------------------------------------------------

 SCF Done:  E(UB3LYP) =  -1136.13690122     A.U. after   18 cycles

 The electronic state is 2-A.
 Alpha  occ. eigenvalues --  -38.43920 -38.43728 -38.43681 -38.43586 -38.43561
 Alpha  occ. eigenvalues --  -38.43534 -38.43094  -2.19821  -2.19700  -2.19515
 Alpha  occ. eigenvalues --   -2.19436  -2.19403  -2.19378  -2.19037  -1.13491
 Alpha  occ. eigenvalues --   -1.13456  -1.13451  -1.13426  -1.13363  -1.13313
 Alpha  occ. eigenvalues --   -1.13193  -1.13160  -1.13139  -1.13114  -1.13099
 Alpha  occ. eigenvalues --   -1.13088  -1.13069  -1.13067  -1.13060  -1.13054
 Alpha  occ. eigenvalues --   -1.13027  -1.13003  -1.12733  -1.12678  -1.12639
 Alpha  occ. eigenvalues --   -0.18832  -0.12805  -0.12542  -0.11387
 Alpha virt. eigenvalues --   -0.05207  -0.05057  -0.04508  -0.03358  -0.03220
 Alpha virt. eigenvalues --   -0.02989  -0.01267  -0.01050  -0.00223  -0.00023
 Alpha virt. eigenvalues --    0.00069   0.00371   0.00850   0.00924   0.00940

  Beta  occ. eigenvalues --  -38.43835 -38.43663 -38.43648 -38.43574 -38.43559
  Beta  occ. eigenvalues --  -38.43532 -38.43084  -2.19665  -2.19556  -2.19485
  Beta  occ. eigenvalues --   -2.19418  -2.19403  -2.19376  -2.19023  -1.13391
  Beta  occ. eigenvalues --   -1.13345  -1.13337  -1.13324  -1.13273  -1.13218
  Beta  occ. eigenvalues --   -1.13144  -1.13134  -1.13123  -1.13100  -1.13090
  Beta  occ. eigenvalues --   -1.13073  -1.13065  -1.13050  -1.13044  -1.13038
  Beta  occ. eigenvalues --   -1.13023  -1.13001  -1.12713  -1.12660  -1.12621
  Beta  occ. eigenvalues --   -0.18082  -0.12536  -0.12270
  Beta virt. eigenvalues --   -0.07456  -0.05187  -0.04971  -0.04479  -0.02579
  Beta virt. eigenvalues --   -0.02444  -0.01950  -0.01162  -0.00961  -0.00197
  Beta virt. eigenvalues --   -0.00026   0.00110   0.00393   0.00894   0.00938

 Mulliken charges and spin densities:
               1          2
     1  Na  -0.416862   0.628963
     2  Na   0.041918  -0.024739
     3  Na   0.001605  -0.074013
     4  Na   0.006921  -0.070736
     5  Na  -0.200263   0.459680
     6  Na   0.416455   0.045659
     7  Na   0.150225   0.035186
 Sum of Mulliken charges =  -0.00000   1.00000

 Dipole moment (field-independent basis, Debye):
    X=             -0.0354    Y=              0.2527    Z=              0.1785  Tot=              0.3114
 Quadrupole moment (field-independent basis, Debye-Ang):
   XX=            -59.7638   YY=            -64.1930   ZZ=            -71.1312
   XY=              0.0795   XZ=              0.2197   YZ=             -0.7883

 Normal termination of Gaussian 16 at Tue Dec  5 09:57:30 2023.
