 Gaussian 16, Revision B.01,
 Gaussian 16:  ES64L-G16RevB.01 20-Dec-2017

 -------------------------
 #P B3LYP/6-311+g(d) force
 -------------------------

 -----
 DPGEN
 -----
 Symbolic Z-matrix:
 Charge =  0 Multiplicity = 2

                         Standard orientation:
 ---------------------------------------------------------------------
 Center     Atomic      Atomic             Coordinates (Angstroms)
 Number     Number       Type             X           Y           Z
 ---------------------------------------------------------------------
      1         11           0       -2.921215   -1.512099   -0.576098
      2         11           0        0.670279   -2.275819    0.786587
      3         11           0       -2.102724    2.137946   -0.627375
      4         11           0        3.803478   -0.394087   -0.519321
      5         11           0       -1.200302    0.231507    1.886880
      6         11           0        1.622215    2.107213    0.557355
      7         11           0        0.128269   -0.294661   -1.508027
 ---------------------------------------------------------------------

 SCF Done:  E(UB3LYP) =  -1136.13199363     A.U. after   20 cycles

 The electronic state is 2-A.
 Alpha  occ. eigenvalues --  -38.44645 -38.44266 -38.43657 -38.43461 -38.43364
 Alpha  occ. eigenvalues --  -38.43317 -38.43229  -2.20425  -2.20096  -2.19621
 Alpha  occ. eigenvalues --   -2.19285  -2.19263  -2.19217  -2.19103  -1.14099
 Alpha  occ. eigenvalues --   -1.14083  -1.14053  -1.13779  -1.13754  -1.13719
 Alpha  occ. eigenvalues --   -1.13358  -1.13282  -1.13225  -1.12979  -1.12966
 Alpha  occ. eigenvalues --   -1.12959  -1.12945  -1.12900  -1.12894  -1.12875
 Alpha  occ. eigenvalues --   -1.12843  -1.12827  -1.12803  -1.12762  -1.12683
 Alpha  occ. eigenvalues --   -0.18583  -0.13414  -0.11677  -0.10899
 Alpha virt. eigenvalues --   -0.06387  -0.05230  -0.03974  -0.03217  -0.02742
 Alpha virt. eigenvalues --   -0.02438  -0.02187  -0.01144  -0.00545  -0.00080
 Alpha virt. eigenvalues --    0.00094   0.00262   0.00568   0.00768   0.00783

  Beta  occ. eigenvalues --  -38.44639 -38.44249 -38.43615 -38.43452 -38.43351
  Beta  occ. eigenvalues --  -38.43236 -38.43206  -2.20414  -2.20067  -2.19544
  Beta  occ. eigenvalues --   -2.19272  -2.19197  -2.19117  -2.19065  -1.14087
  Beta  occ. eigenvalues --   -1.14076  -1.14046  -1.13746  -1.13738  -1.13692
  Beta  occ. eigenvalues --   -1.13298  -1.13232  -1.13164  -1.12966  -1.12939
  Beta  occ. eigenvalues --   -1.12910  -1.12890  -1.12872  -1.12855  -1.12810
  Beta  occ. eigenvalues --   -1.12787  -1.12779  -1.12750  -1.12702  -1.12657
  Beta  occ. eigenvalues --   -0.17860  -0.13183  -0.11453
  Beta virt. eigenvalues --   -0.06986  -0.06215  -0.05190  -0.03808  -0.02778
  Beta virt. eigenvalues --   -0.02123  -0.01990  -0.01409  -0.01107  -0.00345
  Beta virt. eigenvalues --    0.00027   0.00090   0.00307   0.00724   0.00806

 Mulliken charges and spin densities:
               1          2
     1  Na   0.206457   0.024403
     2  Na  -0.040693  -0.022074
     3  Na   0.015715   0.044388
     4  Na   0.224625   0.030560
     5  Na   0.129965   0.554534
     6  Na  -0.146249  -0.051349
     7  Na  -0.389820   0.419539
 Sum of Mulliken charges =  -0.00000   1.00000

 Dipole moment (field-independent basis, Debye):
    X=              0.2147    Y=             -0.2042    Z=             -0.1063  Tot=              0.3148
 Quadrupole moment (field-independent basis, Debye-Ang):
   XX=            -49.4116   YY=            -70.2227   ZZ=            -72.0258
   XY=              0.1184   XZ=              0.6457   YZ=             -0.2497

 Normal termination of Gaussian 16 at Wed Dec  6 01:18:32 2023.
