 Gaussian 16, Revision B.01,
 Gaussian 16:  ES64L-G16RevB.01 20-Dec-2017

 -------------------------
 #P B3LYP/6-311+g(d) force
 -------------------------

 -----
 DPGEN
 -----
 Symbolic Z-matrix:
 Charge =  0 Multiplicity = 2

                         Standard orientation:
 ---------------------------------------------------------------------
 Center     Atomic      Atomic             Coordinates (Angstroms)
 Number     Number       Type             X           Y           Z
 ---------------------------------------------------------------------
      1         11           0       -2.682189   -1.576848   -0.184051
      2         11           0        0.048633   -0.222937    2.060325
      3         11           0        1.360613    2.642651    0.088172
      4         11           0       -2.369375    2.092042   -0.093107
      5         11           0        3.141487   -0.254516   -0.420723
      6         11           0        0.770954   -2.672071   -0.004402
      7         11           0       -0.270124   -0.008322   -1.446213
 ---------------------------------------------------------------------

 SCF Done:  E(UB3LYP) =  -1136.13792067     A.U. after   20 cycles

 The electronic state is 2-A.
 Alpha  occ. eigenvalues --  -38.43943 -38.43882 -38.43845 -38.43524 -38.43419
 Alpha  occ. eigenvalues --  -38.43236 -38.42940  -2.19793  -2.19702  -2.19684
 Alpha  occ. eigenvalues --   -2.19355  -2.19323  -2.19139  -2.18977  -1.13503
 Alpha  occ. eigenvalues --   -1.13449  -1.13418  -1.13394  -1.13360  -1.13354
 Alpha  occ. eigenvalues --   -1.13339  -1.13337  -1.13328  -1.13036  -1.13028
 Alpha  occ. eigenvalues --   -1.13009  -1.12985  -1.12954  -1.12932  -1.12852
 Alpha  occ. eigenvalues --   -1.12797  -1.12752  -1.12659  -1.12606  -1.12598
 Alpha  occ. eigenvalues --   -0.18773  -0.13044  -0.12528  -0.10599
 Alpha virt. eigenvalues --   -0.05483  -0.05442  -0.04656  -0.03024  -0.02819
 Alpha virt. eigenvalues --   -0.02414  -0.01556  -0.01226  -0.00433  -0.00316
 Alpha virt. eigenvalues --    0.00006   0.00339   0.00799   0.00857   0.00899

  Beta  occ. eigenvalues --  -38.43937 -38.43880 -38.43835 -38.43521 -38.43316
  Beta  occ. eigenvalues --  -38.43227 -38.42888  -2.19785  -2.19701  -2.19669
  Beta  occ. eigenvalues --   -2.19352  -2.19134  -2.19127  -2.18885  -1.13491
  Beta  occ. eigenvalues --   -1.13431  -1.13412  -1.13387  -1.13351  -1.13337
  Beta  occ. eigenvalues --   -1.13332  -1.13328  -1.13316  -1.13032  -1.13005
  Beta  occ. eigenvalues --   -1.12985  -1.12904  -1.12835  -1.12817  -1.12801
  Beta  occ. eigenvalues --   -1.12754  -1.12737  -1.12590  -1.12541  -1.12529
  Beta  occ. eigenvalues --   -0.18057  -0.12790  -0.12296
  Beta virt. eigenvalues --   -0.06673  -0.05487  -0.05379  -0.04624  -0.02286
  Beta virt. eigenvalues --   -0.02037  -0.01468  -0.01335  -0.01166  -0.00471
  Beta virt. eigenvalues --   -0.00357   0.00152   0.00380   0.00850   0.00868

 Mulliken charges and spin densities:
               1          2
     1  Na   0.318983  -0.042469
     2  Na  -0.513860   0.748818
     3  Na   0.095723  -0.016705
     4  Na   0.097520  -0.063510
     5  Na   0.076197   0.024294
     6  Na   0.455446   0.051273
     7  Na  -0.530010   0.298299
 Sum of Mulliken charges =  -0.00000   1.00000

 Dipole moment (field-independent basis, Debye):
    X=             -0.2173    Y=              0.0773    Z=              0.1680  Tot=              0.2853
 Quadrupole moment (field-independent basis, Debye-Ang):
   XX=            -55.4869   YY=            -61.6583   ZZ=            -75.3145
   XY=              0.0754   XZ=             -0.8643   YZ=              0.6241

 Normal termination of Gaussian 16 at Thu Dec  7 05:38:02 2023.
