 Gaussian 16, Revision B.01,
 Gaussian 16:  ES64L-G16RevB.01 20-Dec-2017

 -------------------------
 #P B3LYP/6-311+g(d) force
 -------------------------

 -----
 DPGEN
 -----
 Symbolic Z-matrix:
 Charge =  0 Multiplicity = 2

                         Standard orientation:
 ---------------------------------------------------------------------
 Center     Atomic      Atomic             Coordinates (Angstroms)
 Number     Number       Type             X           Y           Z
 ---------------------------------------------------------------------
      1         11           0        3.153422   -2.150755    0.381299
      2         11           0       -3.871257    0.509105   -0.424265
      3         11           0       -2.368480   -2.319621   -1.363617
      4         11           0       -0.426296   -3.218806    1.215690
      5         11           0       -1.866048    3.238729    1.434156
      6         11           0        1.459173    3.055490   -0.810006
      7         11           0        3.919486    0.885858   -0.433257
 ---------------------------------------------------------------------

 SCF Done:  E(UB3LYP) =  -1136.10540373     A.U. after   23 cycles

 The electronic state is 2-A.
 Alpha  occ. eigenvalues --  -38.45392 -38.45309 -38.44965 -38.44739 -38.44075
 Alpha  occ. eigenvalues --  -38.43897 -38.43788  -2.21151  -2.21062  -2.20728
 Alpha  occ. eigenvalues --   -2.20512  -2.19895  -2.19722  -2.19561  -1.14835
 Alpha  occ. eigenvalues --   -1.14819  -1.14780  -1.14743  -1.14736  -1.14692
 Alpha  occ. eigenvalues --   -1.14407  -1.14397  -1.14358  -1.14188  -1.14185
 Alpha  occ. eigenvalues --   -1.14147  -1.13552  -1.13546  -1.13536  -1.13379
 Alpha  occ. eigenvalues --   -1.13378  -1.13373  -1.13216  -1.13196  -1.13190
 Alpha  occ. eigenvalues --   -0.15597  -0.13931  -0.13056  -0.10543
 Alpha virt. eigenvalues --   -0.07734  -0.04892  -0.04753  -0.03536  -0.03419
 Alpha virt. eigenvalues --   -0.02201  -0.01992  -0.01570  -0.01449  -0.01214
 Alpha virt. eigenvalues --   -0.00761  -0.00141   0.00018   0.00418   0.00731

  Beta  occ. eigenvalues --  -38.45369 -38.45291 -38.44950 -38.44727 -38.44039
  Beta  occ. eigenvalues --  -38.43876 -38.43713  -2.21114  -2.21034  -2.20703
  Beta  occ. eigenvalues --   -2.20490  -2.19830  -2.19684  -2.19422  -1.14813
  Beta  occ. eigenvalues --   -1.14799  -1.14727  -1.14719  -1.14718  -1.14643
  Beta  occ. eigenvalues --   -1.14394  -1.14382  -1.14324  -1.14176  -1.14171
  Beta  occ. eigenvalues --   -1.14124  -1.13510  -1.13507  -1.13479  -1.13356
  Beta  occ. eigenvalues --   -1.13353  -1.13338  -1.13121  -1.13101  -1.13100
  Beta  occ. eigenvalues --   -0.15161  -0.13421  -0.12296
  Beta virt. eigenvalues --   -0.07901  -0.07317  -0.04510  -0.04186  -0.03374
  Beta virt. eigenvalues --   -0.03089  -0.02067  -0.01788  -0.01412  -0.01126
  Beta virt. eigenvalues --   -0.01044  -0.00531   0.00131   0.00256   0.00418

 Mulliken charges and spin densities:
               1          2
     1  Na  -0.152675   0.087241
     2  Na  -0.113899   0.111853
     3  Na   0.149984   0.157297
     4  Na   0.019309   0.085658
     5  Na   0.022763   0.366727
     6  Na  -0.306497   0.076974
     7  Na   0.381016   0.114250
 Sum of Mulliken charges =  -0.00000   1.00000

 Dipole moment (field-independent basis, Debye):
    X=             -0.1010    Y=             -0.4906    Z=             -0.2183  Tot=              0.5464
 Quadrupole moment (field-independent basis, Debye-Ang):
   XX=            -63.5472   YY=            -69.3688   ZZ=            -69.2762
   XY=              0.0962   XZ=             -0.3856   YZ=             -1.8924

 Normal termination of Gaussian 16 at Sun Dec  3 17:44:43 2023.
