 Gaussian 16, Revision B.01,
 Gaussian 16:  ES64L-G16RevB.01 20-Dec-2017

 -------------------------
 #P B3LYP/6-311+g(d) force
 -------------------------

 -----
 DPGEN
 -----
 Symbolic Z-matrix:
 Charge =  0 Multiplicity = 2

                         Standard orientation:
 ---------------------------------------------------------------------
 Center     Atomic      Atomic             Coordinates (Angstroms)
 Number     Number       Type             X           Y           Z
 ---------------------------------------------------------------------
      1         11           0        2.987926    1.857840   -0.602913
      2         11           0       -3.385173    1.617002    0.726695
      3         11           0       -2.460506   -1.437434   -1.103585
      4         11           0       -1.025202   -1.388125    1.267204
      5         11           0        1.459874   -1.355096   -1.407632
      6         11           0        2.992890   -0.745707    1.554578
      7         11           0       -0.569810    1.451520   -0.434347
 ---------------------------------------------------------------------

 SCF Done:  E(UB3LYP) =  -1136.11880770     A.U. after   24 cycles

 The electronic state is 2-A.
 Alpha  occ. eigenvalues --  -38.44634 -38.44290 -38.44152 -38.44070 -38.43833
 Alpha  occ. eigenvalues --  -38.43660 -38.43327  -2.20544  -2.20131  -2.20000
 Alpha  occ. eigenvalues --   -2.19972  -2.19699  -2.19510  -2.19261  -1.14400
 Alpha  occ. eigenvalues --   -1.14188  -1.14119  -1.13795  -1.13774  -1.13766
 Alpha  occ. eigenvalues --   -1.13684  -1.13646  -1.13637  -1.13630  -1.13605
 Alpha  occ. eigenvalues --   -1.13567  -1.13392  -1.13370  -1.13297  -1.13234
 Alpha  occ. eigenvalues --   -1.13165  -1.13137  -1.12962  -1.12922  -1.12859
 Alpha  occ. eigenvalues --   -0.18493  -0.14501  -0.11278  -0.10652
 Alpha virt. eigenvalues --   -0.06385  -0.05901  -0.04876  -0.03256  -0.02408
 Alpha virt. eigenvalues --   -0.02295  -0.01992  -0.01327  -0.00756  -0.00239
 Alpha virt. eigenvalues --    0.00110   0.00168   0.00315   0.00405   0.00568

  Beta  occ. eigenvalues --  -38.44623 -38.44225 -38.44139 -38.44054 -38.43800
  Beta  occ. eigenvalues --  -38.43651 -38.43307  -2.20525  -2.20008  -2.19972
  Beta  occ. eigenvalues --   -2.19950  -2.19641  -2.19493  -2.19230  -1.14390
  Beta  occ. eigenvalues --   -1.14167  -1.14097  -1.13712  -1.13700  -1.13680
  Beta  occ. eigenvalues --   -1.13668  -1.13623  -1.13616  -1.13597  -1.13583
  Beta  occ. eigenvalues --   -1.13541  -1.13352  -1.13302  -1.13259  -1.13223
  Beta  occ. eigenvalues --   -1.13151  -1.13123  -1.12941  -1.12887  -1.12827
  Beta  occ. eigenvalues --   -0.17889  -0.14193  -0.11058
  Beta virt. eigenvalues --   -0.06999  -0.06208  -0.05740  -0.04164  -0.03103
  Beta virt. eigenvalues --   -0.02215  -0.01826  -0.01398  -0.01133  -0.00327
  Beta virt. eigenvalues --   -0.00170   0.00188   0.00232   0.00410   0.00501

 Mulliken charges and spin densities:
               1          2
     1  Na   0.390417  -0.022822
     2  Na   0.925562   0.062094
     3  Na   0.663716   0.098030
     4  Na  -0.178042   0.149050
     5  Na   0.004535   0.343957
     6  Na  -0.058116   0.326935
     7  Na  -1.748072   0.042756
 Sum of Mulliken charges =  -0.00000   1.00000

 Dipole moment (field-independent basis, Debye):
    X=             -0.1066    Y=             -0.3689    Z=             -0.3407  Tot=              0.5133
 Quadrupole moment (field-independent basis, Debye-Ang):
   XX=            -51.2257   YY=            -75.1845   ZZ=            -68.9948
   XY=              3.0637   XZ=             -0.0101   YZ=              1.4710

 Normal termination of Gaussian 16 at Tue Dec  5 13:25:16 2023.
