 Gaussian 16, Revision B.01,
 Gaussian 16:  ES64L-G16RevB.01 20-Dec-2017

 -------------------------
 #P B3LYP/6-311+g(d) force
 -------------------------

 -----
 DPGEN
 -----
 Symbolic Z-matrix:
 Charge =  0 Multiplicity = 2

                         Standard orientation:
 ---------------------------------------------------------------------
 Center     Atomic      Atomic             Coordinates (Angstroms)
 Number     Number       Type             X           Y           Z
 ---------------------------------------------------------------------
      1         11           0       -2.997658    1.385593   -0.123616
      2         11           0       -3.301444   -2.117058   -0.126390
      3         11           0       -0.140115   -0.522810    1.992671
      4         11           0        0.413679    2.622741    0.194445
      5         11           0        3.126037    0.887292   -0.041446
      6         11           0       -0.100313    0.000289   -1.686102
      7         11           0        2.999813   -2.256048   -0.209560
 ---------------------------------------------------------------------

 SCF Done:  E(UB3LYP) =  -1136.12263593     A.U. after   23 cycles

 The electronic state is 2-A.
 Alpha  occ. eigenvalues --  -38.44895 -38.44500 -38.44448 -38.44444 -38.43918
 Alpha  occ. eigenvalues --  -38.43910 -38.42445  -2.20702  -2.20367  -2.20307
 Alpha  occ. eigenvalues --   -2.20204  -2.19746  -2.19706  -2.18342  -1.14384
 Alpha  occ. eigenvalues --   -1.14364  -1.14329  -1.14040  -1.14033  -1.14026
 Alpha  occ. eigenvalues --   -1.14006  -1.13954  -1.13915  -1.13879  -1.13869
 Alpha  occ. eigenvalues --   -1.13842  -1.13419  -1.13383  -1.13375  -1.13359
 Alpha  occ. eigenvalues --   -1.13353  -1.13345  -1.12030  -1.11999  -1.11987
 Alpha  occ. eigenvalues --   -0.18049  -0.13735  -0.11507  -0.10416
 Alpha virt. eigenvalues --   -0.06553  -0.06347  -0.03942  -0.03464  -0.02677
 Alpha virt. eigenvalues --   -0.02368  -0.02215  -0.01591  -0.01092  -0.00231
 Alpha virt. eigenvalues --   -0.00135   0.00203   0.00538   0.00604   0.00630

  Beta  occ. eigenvalues --  -38.44889 -38.44496 -38.44452 -38.44393 -38.43910
  Beta  occ. eigenvalues --  -38.43814 -38.42437  -2.20692  -2.20362  -2.20216
  Beta  occ. eigenvalues --   -2.20211  -2.19709  -2.19555  -2.18331  -1.14364
  Beta  occ. eigenvalues --   -1.14352  -1.14328  -1.14041  -1.14028  -1.14002
  Beta  occ. eigenvalues --   -1.13938  -1.13888  -1.13884  -1.13864  -1.13851
  Beta  occ. eigenvalues --   -1.13843  -1.13387  -1.13351  -1.13346  -1.13290
  Beta  occ. eigenvalues --   -1.13237  -1.13218  -1.12026  -1.11994  -1.11947
  Beta  occ. eigenvalues --   -0.17336  -0.13570  -0.11343
  Beta virt. eigenvalues --   -0.06542  -0.06414  -0.06274  -0.03950  -0.02789
  Beta virt. eigenvalues --   -0.02235  -0.01838  -0.01656  -0.01220  -0.01095
  Beta virt. eigenvalues --   -0.00237   0.00051   0.00252   0.00621   0.00636

 Mulliken charges and spin densities:
               1          2
     1  Na   0.358670   0.086153
     2  Na   0.057070  -0.059287
     3  Na  -0.545498   0.565251
     4  Na   0.063639   0.068653
     5  Na   0.232143   0.073895
     6  Na  -0.357251   0.282461
     7  Na   0.191227  -0.017126
 Sum of Mulliken charges =  -0.00000   1.00000

 Dipole moment (field-independent basis, Debye):
    X=             -0.5639    Y=             -0.0481    Z=             -0.0849  Tot=              0.5722
 Quadrupole moment (field-independent basis, Debye-Ang):
   XX=            -54.0374   YY=            -64.9052   ZZ=            -76.2467
   XY=              0.3068   XZ=              0.2467   YZ=              1.5464

 Normal termination of Gaussian 16 at Thu Dec  7 16:57:59 2023.
