 Gaussian 16, Revision B.01,
 Gaussian 16:  ES64L-G16RevB.01 20-Dec-2017

 -------------------------
 #P B3LYP/6-311+g(d) force
 -------------------------

 -----
 DPGEN
 -----
 Symbolic Z-matrix:
 Charge =  0 Multiplicity = 2

                         Standard orientation:
 ---------------------------------------------------------------------
 Center     Atomic      Atomic             Coordinates (Angstroms)
 Number     Number       Type             X           Y           Z
 ---------------------------------------------------------------------
      1         11           0       -2.179514    2.254813   -0.111333
      2         11           0       -2.771274   -1.413170    0.253182
      3         11           0        1.649053    2.199990    0.234434
      4         11           0        0.002032    0.481514   -1.739129
      5         11           0        0.239929   -2.521205   -0.668683
      6         11           0        3.172526   -0.651032    0.141668
      7         11           0       -0.112752   -0.350910    1.889861
 ---------------------------------------------------------------------

 SCF Done:  E(UB3LYP) =  -1136.13646027     A.U. after   19 cycles

 The electronic state is 2-A.
 Alpha  occ. eigenvalues --  -38.44030 -38.43899 -38.43626 -38.43574 -38.43498
 Alpha  occ. eigenvalues --  -38.43263 -38.43013  -2.19868  -2.19749  -2.19504
 Alpha  occ. eigenvalues --   -2.19449  -2.19396  -2.19255  -2.18925  -1.13547
 Alpha  occ. eigenvalues --   -1.13528  -1.13514  -1.13442  -1.13409  -1.13383
 Alpha  occ. eigenvalues --   -1.13190  -1.13159  -1.13145  -1.13135  -1.13121
 Alpha  occ. eigenvalues --   -1.13100  -1.13082  -1.13052  -1.13002  -1.12930
 Alpha  occ. eigenvalues --   -1.12881  -1.12854  -1.12611  -1.12577  -1.12538
 Alpha  occ. eigenvalues --   -0.18919  -0.13172  -0.12360  -0.10939
 Alpha virt. eigenvalues --   -0.05634  -0.05289  -0.04232  -0.03307  -0.02950
 Alpha virt. eigenvalues --   -0.02570  -0.01635  -0.01109  -0.00154  -0.00125
 Alpha virt. eigenvalues --    0.00034   0.00353   0.00783   0.00879   0.00940

  Beta  occ. eigenvalues --  -38.44028 -38.43893 -38.43624 -38.43497 -38.43489
  Beta  occ. eigenvalues --  -38.43188 -38.42990  -2.19867  -2.19741  -2.19448
  Beta  occ. eigenvalues --   -2.19383  -2.19361  -2.19118  -2.18887  -1.13549
  Beta  occ. eigenvalues --   -1.13519  -1.13503  -1.13427  -1.13391  -1.13380
  Beta  occ. eigenvalues --   -1.13147  -1.13125  -1.13096  -1.13088  -1.13081
  Beta  occ. eigenvalues --   -1.13050  -1.13021  -1.13005  -1.12993  -1.12841
  Beta  occ. eigenvalues --   -1.12790  -1.12761  -1.12581  -1.12528  -1.12512
  Beta  occ. eigenvalues --   -0.18178  -0.12923  -0.12115
  Beta virt. eigenvalues --   -0.07003  -0.05568  -0.05288  -0.04189  -0.02520
  Beta virt. eigenvalues --   -0.02208  -0.01550  -0.01501  -0.01063  -0.00174
  Beta virt. eigenvalues --   -0.00102   0.00120   0.00375   0.00843   0.00870

 Mulliken charges and spin densities:
               1          2
     1  Na   0.030652  -0.123418
     2  Na   0.118364  -0.018613
     3  Na   0.141571  -0.051716
     4  Na  -0.163724   0.519911
     5  Na   0.206955   0.053999
     6  Na   0.061523  -0.034990
     7  Na  -0.395341   0.654827
 Sum of Mulliken charges =  -0.00000   1.00000

 Dipole moment (field-independent basis, Debye):
    X=             -0.0532    Y=              0.0226    Z=              0.2076  Tot=              0.2155
 Quadrupole moment (field-independent basis, Debye-Ang):
   XX=            -54.5395   YY=            -65.5746   ZZ=            -73.3430
   XY=             -0.6400   XZ=              0.0876   YZ=              1.4632

 Normal termination of Gaussian 16 at Thu Dec  7 19:54:59 2023.
