 Gaussian 16, Revision B.01,
 Gaussian 16:  ES64L-G16RevB.01 20-Dec-2017

 -------------------------
 #P B3LYP/6-311+g(d) force
 -------------------------

 -----
 DPGEN
 -----
 Symbolic Z-matrix:
 Charge =  0 Multiplicity = 2

                         Standard orientation:
 ---------------------------------------------------------------------
 Center     Atomic      Atomic             Coordinates (Angstroms)
 Number     Number       Type             X           Y           Z
 ---------------------------------------------------------------------
      1         11           0       -0.836677   -1.528145   -1.375426
      2         11           0        1.809408   -2.401877   -0.497614
      3         11           0       -3.614287    1.586119   -0.281100
      4         11           0       -1.798897   -0.222793    0.998211
      5         11           0        0.663368   -1.088997    1.853477
      6         11           0        0.873846    0.735010   -0.652862
      7         11           0        2.903239    2.920683   -0.044686
 ---------------------------------------------------------------------

 SCF Done:  E(UB3LYP) =  -1136.09172807     A.U. after   22 cycles

 The electronic state is 2-A.
 Alpha  occ. eigenvalues --  -38.45263 -38.44886 -38.44646 -38.44547 -38.44036
 Alpha  occ. eigenvalues --  -38.43151 -38.42731  -2.21075  -2.20857  -2.20707
 Alpha  occ. eigenvalues --   -2.20616  -2.20152  -2.18943  -2.18810  -1.14838
 Alpha  occ. eigenvalues --   -1.14709  -1.14700  -1.14645  -1.14616  -1.14512
 Alpha  occ. eigenvalues --   -1.14467  -1.14439  -1.14375  -1.14216  -1.14201
 Alpha  occ. eigenvalues --   -1.14137  -1.13773  -1.13742  -1.13720  -1.12694
 Alpha  occ. eigenvalues --   -1.12593  -1.12591  -1.12494  -1.12433  -1.12414
 Alpha  occ. eigenvalues --   -0.19956  -0.13556  -0.11807  -0.11661
 Alpha virt. eigenvalues --   -0.06788  -0.05476  -0.03699  -0.03100  -0.02901
 Alpha virt. eigenvalues --   -0.02372  -0.02240  -0.01081  -0.00509   0.00025
 Alpha virt. eigenvalues --    0.00076   0.00308   0.00456   0.00749   0.00843

  Beta  occ. eigenvalues --  -38.45269 -38.44865 -38.44583 -38.44448 -38.43991
  Beta  occ. eigenvalues --  -38.43162 -38.42705  -2.21087  -2.20823  -2.20595
  Beta  occ. eigenvalues --   -2.20438  -2.20078  -2.18963  -2.18768  -1.14841
  Beta  occ. eigenvalues --   -1.14716  -1.14702  -1.14614  -1.14540  -1.14443
  Beta  occ. eigenvalues --   -1.14422  -1.14336  -1.14272  -1.14144  -1.14083
  Beta  occ. eigenvalues --   -1.14022  -1.13728  -1.13678  -1.13625  -1.12698
  Beta  occ. eigenvalues --   -1.12607  -1.12603  -1.12457  -1.12392  -1.12382
  Beta  occ. eigenvalues --   -0.19097  -0.13398  -0.11637
  Beta virt. eigenvalues --   -0.07385  -0.06650  -0.05289  -0.03066  -0.02940
  Beta virt. eigenvalues --   -0.02329  -0.01880  -0.01728  -0.00947  -0.00163
  Beta virt. eigenvalues --    0.00005   0.00129   0.00480   0.00510   0.00813

 Mulliken charges and spin densities:
               1          2
     1  Na  -0.049883   0.204711
     2  Na   1.068959   0.130039
     3  Na   0.257312  -0.002341
     4  Na  -0.102924   0.219355
     5  Na   0.006440   0.175947
     6  Na  -1.588231   0.435228
     7  Na   0.408326  -0.162940
 Sum of Mulliken charges =  -0.00000   1.00000

 Dipole moment (field-independent basis, Debye):
    X=             -0.8037    Y=             -0.6949    Z=             -0.1210  Tot=              1.0693
 Quadrupole moment (field-independent basis, Debye-Ang):
   XX=            -56.9384   YY=            -64.3206   ZZ=            -71.2288
   XY=             -9.1712   XZ=              3.3869   YZ=              0.9582

 Normal termination of Gaussian 16 at Sat Dec  9 05:56:44 2023.
