 Gaussian 16, Revision B.01,
 Gaussian 16:  ES64L-G16RevB.01 20-Dec-2017

 -------------------------
 #P B3LYP/6-311+g(d) force
 -------------------------

 -----
 DPGEN
 -----
 Symbolic Z-matrix:
 Charge =  0 Multiplicity = 2

                         Standard orientation:
 ---------------------------------------------------------------------
 Center     Atomic      Atomic             Coordinates (Angstroms)
 Number     Number       Type             X           Y           Z
 ---------------------------------------------------------------------
      1         11           0        3.123596   -1.441837   -1.175941
      2         11           0        0.493996    2.186013    0.679160
      3         11           0       -4.954932    0.838283   -1.157025
      4         11           0        3.874912    1.956074   -0.289400
      5         11           0        0.294745   -1.530691    2.201883
      6         11           0       -2.783202   -0.128160    0.707958
      7         11           0       -0.049115   -1.879684   -0.966635
 ---------------------------------------------------------------------

 SCF Done:  E(UB3LYP) =  -1136.11575343     A.U. after   23 cycles

 The electronic state is 2-A.
 Alpha  occ. eigenvalues --  -38.44905 -38.44895 -38.44567 -38.44252 -38.43989
 Alpha  occ. eigenvalues --  -38.43559 -38.43351  -2.20719  -2.20675  -2.20393
 Alpha  occ. eigenvalues --   -2.20119  -2.19812  -2.19334  -2.19220  -1.14379
 Alpha  occ. eigenvalues --   -1.14374  -1.14359  -1.14355  -1.14329  -1.14279
 Alpha  occ. eigenvalues --   -1.14087  -1.14038  -1.14002  -1.13784  -1.13763
 Alpha  occ. eigenvalues --   -1.13756  -1.13504  -1.13442  -1.13439  -1.13009
 Alpha  occ. eigenvalues --   -1.12994  -1.12984  -1.12909  -1.12890  -1.12852
 Alpha  occ. eigenvalues --   -0.17317  -0.13695  -0.11878  -0.11498
 Alpha virt. eigenvalues --   -0.06567  -0.05409  -0.04899  -0.03502  -0.02648
 Alpha virt. eigenvalues --   -0.02341  -0.02236  -0.01669  -0.01342  -0.00408
 Alpha virt. eigenvalues --   -0.00102  -0.00038   0.00280   0.00371   0.00465

  Beta  occ. eigenvalues --  -38.44863 -38.44853 -38.44503 -38.44238 -38.43935
  Beta  occ. eigenvalues --  -38.43567 -38.43348  -2.20661  -2.20579  -2.20274
  Beta  occ. eigenvalues --   -2.20095  -2.19711  -2.19350  -2.19221  -1.14345
  Beta  occ. eigenvalues --   -1.14334  -1.14303  -1.14289  -1.14264  -1.14214
  Beta  occ. eigenvalues --   -1.14004  -1.13961  -1.13921  -1.13769  -1.13752
  Beta  occ. eigenvalues --   -1.13714  -1.13438  -1.13373  -1.13371  -1.13022
  Beta  occ. eigenvalues --   -1.13001  -1.12988  -1.12914  -1.12892  -1.12812
  Beta  occ. eigenvalues --   -0.16696  -0.13119  -0.11501
  Beta virt. eigenvalues --   -0.08176  -0.06174  -0.05131  -0.04431  -0.03151
  Beta virt. eigenvalues --   -0.02371  -0.02176  -0.01841  -0.01379  -0.01006
  Beta virt. eigenvalues --   -0.00296   0.00021   0.00081   0.00384   0.00492

 Mulliken charges and spin densities:
               1          2
     1  Na  -0.073964   0.288780
     2  Na  -0.254331   0.273966
     3  Na   0.366841   0.212753
     4  Na   0.223100  -0.071163
     5  Na   0.449896   0.061269
     6  Na  -0.776061   0.144334
     7  Na   0.064520   0.090061
 Sum of Mulliken charges =  -0.00000   1.00000

 Dipole moment (field-independent basis, Debye):
    X=              0.6389    Y=             -0.6754    Z=              0.5035  Tot=              1.0573
 Quadrupole moment (field-independent basis, Debye-Ang):
   XX=            -64.9126   YY=            -72.6399   ZZ=            -64.2643
   XY=             -2.7227   XZ=              3.2706   YZ=             -1.9376

 Normal termination of Gaussian 16 at Sun Dec  3 12:49:14 2023.
