 Gaussian 16, Revision B.01,
 Gaussian 16:  ES64L-G16RevB.01 20-Dec-2017

 -------------------------
 #P B3LYP/6-311+g(d) force
 -------------------------

 -----
 DPGEN
 -----
 Symbolic Z-matrix:
 Charge =  0 Multiplicity = 2

                         Standard orientation:
 ---------------------------------------------------------------------
 Center     Atomic      Atomic             Coordinates (Angstroms)
 Number     Number       Type             X           Y           Z
 ---------------------------------------------------------------------
      1         11           0        0.840007   -0.369387    1.599931
      2         11           0        2.794226    1.874706    0.028933
      3         11           0       -1.280658    2.182583    0.185163
      4         11           0        3.139811   -1.814289   -0.376837
      5         11           0       -4.206530   -0.112103   -0.372663
      6         11           0       -1.845202   -1.695648    0.406779
      7         11           0        0.558347   -0.065862   -1.471306
 ---------------------------------------------------------------------

 SCF Done:  E(UB3LYP) =  -1136.11586688     A.U. after   27 cycles

 The electronic state is 2-A.
 Alpha  occ. eigenvalues --  -38.45109 -38.44461 -38.44332 -38.43654 -38.43427
 Alpha  occ. eigenvalues --  -38.43342 -38.43254  -2.21079  -2.20312  -2.20171
 Alpha  occ. eigenvalues --   -2.19505  -2.19366  -2.19351  -2.19089  -1.14811
 Alpha  occ. eigenvalues --   -1.14731  -1.14693  -1.14027  -1.13943  -1.13918
 Alpha  occ. eigenvalues --   -1.13870  -1.13842  -1.13772  -1.13186  -1.13169
 Alpha  occ. eigenvalues --   -1.13129  -1.13118  -1.13031  -1.13020  -1.12983
 Alpha  occ. eigenvalues --   -1.12965  -1.12933  -1.12801  -1.12764  -1.12683
 Alpha  occ. eigenvalues --   -0.18841  -0.14429  -0.11251  -0.10469
 Alpha virt. eigenvalues --   -0.07285  -0.05651  -0.03856  -0.03202  -0.02863
 Alpha virt. eigenvalues --   -0.02195  -0.01778  -0.01611  -0.00848  -0.00387
 Alpha virt. eigenvalues --   -0.00061   0.00120   0.00446   0.00588   0.00692

  Beta  occ. eigenvalues --  -38.45097 -38.44404 -38.44324 -38.43633 -38.43405
  Beta  occ. eigenvalues --  -38.43263 -38.43246  -2.21060  -2.20205  -2.20158
  Beta  occ. eigenvalues --   -2.19467  -2.19320  -2.19225  -2.19079  -1.14778
  Beta  occ. eigenvalues --   -1.14709  -1.14686  -1.13959  -1.13869  -1.13858
  Beta  occ. eigenvalues --   -1.13846  -1.13833  -1.13750  -1.13157  -1.13146
  Beta  occ. eigenvalues --   -1.13089  -1.13033  -1.12999  -1.12962  -1.12940
  Beta  occ. eigenvalues --   -1.12869  -1.12836  -1.12797  -1.12738  -1.12676
  Beta  occ. eigenvalues --   -0.18216  -0.13882  -0.11058
  Beta virt. eigenvalues --   -0.07027  -0.06808  -0.05527  -0.03494  -0.02896
  Beta virt. eigenvalues --   -0.02611  -0.01606  -0.01569  -0.01267  -0.00594
  Beta virt. eigenvalues --   -0.00112   0.00082   0.00154   0.00648   0.00690

 Mulliken charges and spin densities:
               1          2
     1  Na   0.296773   0.279544
     2  Na   0.058418   0.106616
     3  Na  -0.158584  -0.114783
     4  Na   0.101987   0.212484
     5  Na  -0.038685   0.400666
     6  Na   0.077672  -0.088270
     7  Na  -0.337580   0.203744
 Sum of Mulliken charges =  -0.00000   1.00000

 Dipole moment (field-independent basis, Debye):
    X=              0.5727    Y=              0.4470    Z=              0.2894  Tot=              0.7820
 Quadrupole moment (field-independent basis, Debye-Ang):
   XX=            -56.6771   YY=            -72.9960   ZZ=            -68.4074
   XY=             -0.4781   XZ=              2.0133   YZ=              1.4489

 Normal termination of Gaussian 16 at Tue Dec  5 18:35:59 2023.
