 Gaussian 16, Revision B.01,
 Gaussian 16:  ES64L-G16RevB.01 20-Dec-2017

 -------------------------
 #P B3LYP/6-311+g(d) force
 -------------------------

 -----
 DPGEN
 -----
 Symbolic Z-matrix:
 Charge =  0 Multiplicity = 2

                         Standard orientation:
 ---------------------------------------------------------------------
 Center     Atomic      Atomic             Coordinates (Angstroms)
 Number     Number       Type             X           Y           Z
 ---------------------------------------------------------------------
      1         11           0       -2.145135    2.109434    0.504420
      2         11           0        0.066716    0.472011   -1.865257
      3         11           0       -0.076047    0.062308    2.024022
      4         11           0        2.167839    2.233963   -0.331850
      5         11           0       -0.020457   -2.188652   -0.037079
      6         11           0       -2.953447   -1.280302   -0.498853
      7         11           0        2.960530   -1.408762    0.204597
 ---------------------------------------------------------------------

 SCF Done:  E(UB3LYP) =  -1136.12883304     A.U. after   19 cycles

 The electronic state is 2-A.
 Alpha  occ. eigenvalues --  -38.44132 -38.44058 -38.44043 -38.43896 -38.43758
 Alpha  occ. eigenvalues --  -38.43726 -38.42617  -2.19969  -2.19963  -2.19904
 Alpha  occ. eigenvalues --   -2.19722  -2.19660  -2.19576  -2.18624  -1.13676
 Alpha  occ. eigenvalues --   -1.13661  -1.13623  -1.13609  -1.13599  -1.13592
 Alpha  occ. eigenvalues --   -1.13569  -1.13557  -1.13534  -1.13398  -1.13382
 Alpha  occ. eigenvalues --   -1.13371  -1.13346  -1.13344  -1.13274  -1.13229
 Alpha  occ. eigenvalues --   -1.13200  -1.13194  -1.12318  -1.12287  -1.12249
 Alpha  occ. eigenvalues --   -0.18804  -0.13163  -0.12077  -0.11270
 Alpha virt. eigenvalues --   -0.05726  -0.05552  -0.03790  -0.03357  -0.02985
 Alpha virt. eigenvalues --   -0.02882  -0.01771  -0.01260  -0.00270  -0.00059
 Alpha virt. eigenvalues --    0.00168   0.00312   0.00689   0.00839   0.00923

  Beta  occ. eigenvalues --  -38.44132 -38.44047 -38.43953 -38.43880 -38.43752
  Beta  occ. eigenvalues --  -38.43656 -38.42604  -2.19966  -2.19887  -2.19802
  Beta  occ. eigenvalues --   -2.19695  -2.19567  -2.19531  -2.18606  -1.13668
  Beta  occ. eigenvalues --   -1.13610  -1.13592  -1.13590  -1.13560  -1.13533
  Beta  occ. eigenvalues --   -1.13519  -1.13497  -1.13456  -1.13358  -1.13346
  Beta  occ. eigenvalues --   -1.13332  -1.13322  -1.13260  -1.13211  -1.13202
  Beta  occ. eigenvalues --   -1.13181  -1.13139  -1.12308  -1.12258  -1.12212
  Beta  occ. eigenvalues --   -0.18050  -0.12925  -0.11770
  Beta virt. eigenvalues --   -0.07353  -0.05649  -0.05497  -0.03752  -0.02670
  Beta virt. eigenvalues --   -0.02220  -0.01855  -0.01638  -0.01148  -0.00275
  Beta virt. eigenvalues --    0.00054   0.00144   0.00339   0.00749   0.00852

 Mulliken charges and spin densities:
               1          2
     1  Na   0.102940  -0.003819
     2  Na  -0.415798   0.457436
     3  Na  -0.390545   0.493596
     4  Na   0.162242  -0.069212
     5  Na   0.207751   0.212102
     6  Na   0.256326  -0.011856
     7  Na   0.077084  -0.078247
 Sum of Mulliken charges =  -0.00000   1.00000

 Dipole moment (field-independent basis, Debye):
    X=              0.0133    Y=              0.3376    Z=              0.0721  Tot=              0.3455
 Quadrupole moment (field-independent basis, Debye-Ang):
   XX=            -53.1937   YY=            -69.0144   ZZ=            -71.7382
   XY=             -0.3239   XZ=              1.3545   YZ=              1.2514

 Normal termination of Gaussian 16 at Tue Dec  5 13:21:57 2023.
