 Gaussian 16, Revision B.01,
 Gaussian 16:  ES64L-G16RevB.01 20-Dec-2017

 -------------------------
 #P B3LYP/6-311+g(d) force
 -------------------------

 -----
 DPGEN
 -----
 Symbolic Z-matrix:
 Charge =  0 Multiplicity = 2

                         Standard orientation:
 ---------------------------------------------------------------------
 Center     Atomic      Atomic             Coordinates (Angstroms)
 Number     Number       Type             X           Y           Z
 ---------------------------------------------------------------------
      1         11           0       -3.443906    0.447560   -0.322311
      2         11           0        0.118688   -0.217207   -1.696388
      3         11           0       -0.389270    2.710388   -0.197642
      4         11           0        3.261005    1.114652    0.366675
      5         11           0       -0.328354   -0.079429    1.914597
      6         11           0       -1.911691   -2.099925    0.299176
      7         11           0        2.693530   -1.876039   -0.364107
 ---------------------------------------------------------------------

 SCF Done:  E(UB3LYP) =  -1136.12335634     A.U. after   22 cycles

 The electronic state is 2-A.
 Alpha  occ. eigenvalues --  -38.45391 -38.45060 -38.43860 -38.43796 -38.43744
 Alpha  occ. eigenvalues --  -38.43316 -38.42400  -2.21221  -2.20860  -2.19714
 Alpha  occ. eigenvalues --   -2.19698  -2.19670  -2.19243  -2.18237  -1.14915
 Alpha  occ. eigenvalues --   -1.14880  -1.14840  -1.14544  -1.14529  -1.14486
 Alpha  occ. eigenvalues --   -1.13438  -1.13397  -1.13368  -1.13363  -1.13341
 Alpha  occ. eigenvalues --   -1.13334  -1.13321  -1.13310  -1.13267  -1.12917
 Alpha  occ. eigenvalues --   -1.12897  -1.12868  -1.11935  -1.11910  -1.11859
 Alpha  occ. eigenvalues --   -0.18550  -0.13925  -0.11498  -0.10691
 Alpha virt. eigenvalues --   -0.06946  -0.05286  -0.03856  -0.03538  -0.02623
 Alpha virt. eigenvalues --   -0.02464  -0.02352  -0.01262  -0.00373  -0.00190
 Alpha virt. eigenvalues --   -0.00112   0.00255   0.00559   0.00667   0.00827

  Beta  occ. eigenvalues --  -38.45384 -38.45057 -38.43856 -38.43706 -38.43678
  Beta  occ. eigenvalues --  -38.43303 -38.42398  -2.21209  -2.20856  -2.19693
  Beta  occ. eigenvalues --   -2.19551  -2.19547  -2.19224  -2.18239  -1.14913
  Beta  occ. eigenvalues --   -1.14853  -1.14833  -1.14545  -1.14512  -1.14484
  Beta  occ. eigenvalues --   -1.13377  -1.13358  -1.13333  -1.13324  -1.13274
  Beta  occ. eigenvalues --   -1.13229  -1.13220  -1.13209  -1.13184  -1.12901
  Beta  occ. eigenvalues --   -1.12878  -1.12826  -1.11936  -1.11896  -1.11855
  Beta  occ. eigenvalues --   -0.17827  -0.13748  -0.11225
  Beta virt. eigenvalues --   -0.06850  -0.06816  -0.05231  -0.03744  -0.02926
  Beta virt. eigenvalues --   -0.02402  -0.01733  -0.01481  -0.01124  -0.00399
  Beta virt. eigenvalues --   -0.00184   0.00034   0.00284   0.00731   0.00768

 Mulliken charges and spin densities:
               1          2
     1  Na   0.066908   0.007884
     2  Na  -0.127657   0.493245
     3  Na  -0.239979  -0.043151
     4  Na  -0.044532  -0.006782
     5  Na  -0.275790   0.539326
     6  Na   0.417294   0.050008
     7  Na   0.203757  -0.040530
 Sum of Mulliken charges =  -0.00000   1.00000

 Dipole moment (field-independent basis, Debye):
    X=              0.0077    Y=              0.1609    Z=              0.0476  Tot=              0.1680
 Quadrupole moment (field-independent basis, Debye-Ang):
   XX=            -47.3550   YY=            -70.7998   ZZ=            -74.9136
   XY=              0.0853   XZ=              2.1067   YZ=              0.4759

 Normal termination of Gaussian 16 at Mon Dec  4 03:03:34 2023.
