 Gaussian 16, Revision B.01,
 Gaussian 16:  ES64L-G16RevB.01 20-Dec-2017

 -------------------------
 #P B3LYP/6-311+g(d) force
 -------------------------

 -----
 DPGEN
 -----
 Symbolic Z-matrix:
 Charge =  0 Multiplicity = 2

                         Standard orientation:
 ---------------------------------------------------------------------
 Center     Atomic      Atomic             Coordinates (Angstroms)
 Number     Number       Type             X           Y           Z
 ---------------------------------------------------------------------
      1         11           0        1.986801   -0.158096    2.102536
      2         11           0       -1.162163   -2.085533    0.714093
      3         11           0       -1.153329    1.350385    0.856625
      4         11           0        2.412524   -1.830502   -1.118191
      5         11           0       -3.660851    0.304561   -0.130250
      6         11           0       -0.519913    0.035909   -1.890080
      7         11           0        2.096931    2.383277   -0.534733
 ---------------------------------------------------------------------

 SCF Done:  E(UB3LYP) =  -1136.12617533     A.U. after   21 cycles

 The electronic state is 2-A.
 Alpha  occ. eigenvalues --  -38.44746 -38.44316 -38.44094 -38.43883 -38.43491
 Alpha  occ. eigenvalues --  -38.43277 -38.43201  -2.20621  -2.20138  -2.20020
 Alpha  occ. eigenvalues --   -2.19672  -2.19339  -2.19261  -2.18994  -1.14364
 Alpha  occ. eigenvalues --   -1.14261  -1.14234  -1.13814  -1.13776  -1.13748
 Alpha  occ. eigenvalues --   -1.13745  -1.13641  -1.13630  -1.13347  -1.13324
 Alpha  occ. eigenvalues --   -1.13303  -1.13056  -1.13014  -1.12962  -1.12937
 Alpha  occ. eigenvalues --   -1.12917  -1.12863  -1.12664  -1.12651  -1.12642
 Alpha  occ. eigenvalues --   -0.18517  -0.13615  -0.11438  -0.11158
 Alpha virt. eigenvalues --   -0.06154  -0.05029  -0.04745  -0.03117  -0.02936
 Alpha virt. eigenvalues --   -0.02711  -0.02030  -0.00902  -0.00682   0.00037
 Alpha virt. eigenvalues --    0.00236   0.00298   0.00391   0.00675   0.00869

  Beta  occ. eigenvalues --  -38.44746 -38.44252 -38.44022 -38.43867 -38.43475
  Beta  occ. eigenvalues --  -38.43257 -38.43199  -2.20623  -2.20018  -2.19889
  Beta  occ. eigenvalues --   -2.19643  -2.19313  -2.19229  -2.18992  -1.14365
  Beta  occ. eigenvalues --   -1.14251  -1.14237  -1.13723  -1.13699  -1.13665
  Beta  occ. eigenvalues --   -1.13660  -1.13545  -1.13532  -1.13309  -1.13308
  Beta  occ. eigenvalues --   -1.13286  -1.13039  -1.12972  -1.12940  -1.12921
  Beta  occ. eigenvalues --   -1.12877  -1.12834  -1.12653  -1.12648  -1.12638
  Beta  occ. eigenvalues --   -0.17792  -0.13369  -0.10967
  Beta virt. eigenvalues --   -0.07534  -0.06037  -0.04970  -0.04079  -0.02943
  Beta virt. eigenvalues --   -0.02161  -0.01960  -0.01930  -0.00836  -0.00279
  Beta virt. eigenvalues --    0.00086   0.00258   0.00299   0.00545   0.00757

 Mulliken charges and spin densities:
               1          2
     1  Na  -0.008114   0.303430
     2  Na  -0.229621   0.067887
     3  Na  -0.281177   0.283787
     4  Na  -0.022760  -0.072486
     5  Na   0.687818  -0.016132
     6  Na  -0.174868   0.549080
     7  Na   0.028722  -0.115565
 Sum of Mulliken charges =  -0.00000   1.00000

 Dipole moment (field-independent basis, Debye):
    X=             -0.6166    Y=             -0.2733    Z=             -0.0679  Tot=              0.6779
 Quadrupole moment (field-independent basis, Debye-Ang):
   XX=            -50.3777   YY=            -75.4853   ZZ=            -67.5698
   XY=              0.0297   XZ=              0.2964   YZ=             -1.2928

 Normal termination of Gaussian 16 at Thu Dec  7 22:29:07 2023.
