 Gaussian 16, Revision B.01,
 Gaussian 16:  ES64L-G16RevB.01 20-Dec-2017

 -------------------------
 #P B3LYP/6-311+g(d) force
 -------------------------

 -----
 DPGEN
 -----
 Symbolic Z-matrix:
 Charge =  0 Multiplicity = 2

                         Standard orientation:
 ---------------------------------------------------------------------
 Center     Atomic      Atomic             Coordinates (Angstroms)
 Number     Number       Type             X           Y           Z
 ---------------------------------------------------------------------
      1         11           0       -2.961396   -1.180410   -1.375334
      2         11           0        1.562030    2.290144    0.041656
      3         11           0        2.327631   -2.465731   -0.035792
      4         11           0        4.156960    0.337152    0.051452
      5         11           0       -2.185127    2.265294   -0.268002
      6         11           0        0.057612   -0.488115   -0.054119
      7         11           0       -2.957709   -0.758332    1.640138
 ---------------------------------------------------------------------

 SCF Done:  E(UB3LYP) =  -1136.11209456     A.U. after   30 cycles

 The electronic state is 2-A.
 Alpha  occ. eigenvalues --  -38.45655 -38.45018 -38.43989 -38.43711 -38.43579
 Alpha  occ. eigenvalues --  -38.43186 -38.42917  -2.21502  -2.20896  -2.19812
 Alpha  occ. eigenvalues --   -2.19563  -2.19439  -2.19039  -2.18945  -1.15200
 Alpha  occ. eigenvalues --   -1.15166  -1.15141  -1.14551  -1.14529  -1.14515
 Alpha  occ. eigenvalues --   -1.13508  -1.13470  -1.13429  -1.13288  -1.13210
 Alpha  occ. eigenvalues --   -1.13201  -1.13107  -1.13087  -1.13039  -1.12782
 Alpha  occ. eigenvalues --   -1.12714  -1.12647  -1.12647  -1.12572  -1.12539
 Alpha  occ. eigenvalues --   -0.18022  -0.14765  -0.11588  -0.09860
 Alpha virt. eigenvalues --   -0.07080  -0.06278  -0.04065  -0.03278  -0.03022
 Alpha virt. eigenvalues --   -0.01922  -0.01753  -0.01617  -0.01186  -0.00420
 Alpha virt. eigenvalues --   -0.00170   0.00031   0.00372   0.00522   0.00603

  Beta  occ. eigenvalues --  -38.45658 -38.44966 -38.43982 -38.43690 -38.43506
  Beta  occ. eigenvalues --  -38.43175 -38.42869  -2.21514  -2.20801  -2.19802
  Beta  occ. eigenvalues --   -2.19527  -2.19303  -2.19025  -2.18859  -1.15204
  Beta  occ. eigenvalues --   -1.15157  -1.15140  -1.14474  -1.14467  -1.14451
  Beta  occ. eigenvalues --   -1.13501  -1.13464  -1.13410  -1.13251  -1.13189
  Beta  occ. eigenvalues --   -1.13163  -1.13013  -1.12995  -1.12951  -1.12768
  Beta  occ. eigenvalues --   -1.12710  -1.12601  -1.12585  -1.12534  -1.12467
  Beta  occ. eigenvalues --   -0.17565  -0.14150  -0.11225
  Beta virt. eigenvalues --   -0.06852  -0.06352  -0.06221  -0.03766  -0.02966
  Beta virt. eigenvalues --   -0.02579  -0.01658  -0.01462  -0.01326  -0.00969
  Beta virt. eigenvalues --   -0.00138  -0.00060   0.00233   0.00582   0.00629

 Mulliken charges and spin densities:
               1          2
     1  Na   1.121960   0.099447
     2  Na   0.867431   0.102023
     3  Na   0.650730  -0.003966
     4  Na  -0.599478   0.410606
     5  Na   1.284163  -0.023592
     6  Na  -4.151463   0.094856
     7  Na   0.826657   0.320625
 Sum of Mulliken charges =  -0.00000   1.00000

 Dipole moment (field-independent basis, Debye):
    X=             -1.8888    Y=             -0.4954    Z=             -0.4781  Tot=              2.0104
 Quadrupole moment (field-independent basis, Debye-Ang):
   XX=            -65.7389   YY=            -72.6199   ZZ=            -62.6832
   XY=             -6.2446   XZ=              3.7688   YZ=              0.9917

 Normal termination of Gaussian 16 at Tue Dec  5 11:26:55 2023.
