 Gaussian 16, Revision B.01,
 Gaussian 16:  ES64L-G16RevB.01 20-Dec-2017

 -------------------------
 #P B3LYP/6-311+g(d) force
 -------------------------

 -----
 DPGEN
 -----
 Symbolic Z-matrix:
 Charge =  0 Multiplicity = 2

                         Standard orientation:
 ---------------------------------------------------------------------
 Center     Atomic      Atomic             Coordinates (Angstroms)
 Number     Number       Type             X           Y           Z
 ---------------------------------------------------------------------
      1         11           0        0.213871   -0.253935    2.003084
      2         11           0        2.812500    0.978504   -0.544248
      3         11           0        0.034900   -0.540482   -1.667173
      4         11           0        2.325550   -1.926662    0.428034
      5         11           0       -0.132317    2.827364   -0.099610
      6         11           0       -2.843334    1.017728    0.318548
      7         11           0       -2.411171   -2.102517   -0.438636
 ---------------------------------------------------------------------

 SCF Done:  E(UB3LYP) =  -1136.13268680     A.U. after   19 cycles

 The electronic state is 2-A.
 Alpha  occ. eigenvalues --  -38.44077 -38.44052 -38.43975 -38.43819 -38.43624
 Alpha  occ. eigenvalues --  -38.43549 -38.42686  -2.19968  -2.19914  -2.19880
 Alpha  occ. eigenvalues --   -2.19727  -2.19506  -2.19478  -2.18536  -1.13674
 Alpha  occ. eigenvalues --   -1.13638  -1.13610  -1.13590  -1.13584  -1.13583
 Alpha  occ. eigenvalues --   -1.13569  -1.13517  -1.13496  -1.13368  -1.13363
 Alpha  occ. eigenvalues --   -1.13349  -1.13245  -1.13176  -1.13136  -1.13120
 Alpha  occ. eigenvalues --   -1.13108  -1.13073  -1.12212  -1.12199  -1.12186
 Alpha  occ. eigenvalues --   -0.18821  -0.13711  -0.12040  -0.11115
 Alpha virt. eigenvalues --   -0.05817  -0.05331  -0.04324  -0.03528  -0.02768
 Alpha virt. eigenvalues --   -0.02712  -0.01689  -0.01050  -0.00315  -0.00068
 Alpha virt. eigenvalues --   -0.00025   0.00334   0.00718   0.00867   0.00894

  Beta  occ. eigenvalues --  -38.44060 -38.44048 -38.43882 -38.43803 -38.43615
  Beta  occ. eigenvalues --  -38.43486 -38.42686  -2.19939  -2.19909  -2.19713
  Beta  occ. eigenvalues --   -2.19702  -2.19466  -2.19391  -2.18539  -1.13660
  Beta  occ. eigenvalues --   -1.13600  -1.13582  -1.13582  -1.13580  -1.13553
  Beta  occ. eigenvalues --   -1.13495  -1.13401  -1.13384  -1.13343  -1.13337
  Beta  occ. eigenvalues --   -1.13293  -1.13199  -1.13119  -1.13105  -1.13087
  Beta  occ. eigenvalues --   -1.13053  -1.13011  -1.12216  -1.12201  -1.12170
  Beta  occ. eigenvalues --   -0.18105  -0.13466  -0.11768
  Beta virt. eigenvalues --   -0.07203  -0.05735  -0.05283  -0.04160  -0.02851
  Beta virt. eigenvalues --   -0.02059  -0.01719  -0.01542  -0.00946  -0.00334
  Beta virt. eigenvalues --   -0.00070   0.00105   0.00377   0.00815   0.00865

 Mulliken charges and spin densities:
               1          2
     1  Na  -0.286933   0.489815
     2  Na   0.176672   0.080680
     3  Na  -0.163235   0.327101
     4  Na   0.316243   0.094360
     5  Na  -0.210314   0.003993
     6  Na  -0.013757   0.007472
     7  Na   0.181324  -0.003421
 Sum of Mulliken charges =  -0.00000   1.00000

 Dipole moment (field-independent basis, Debye):
    X=              0.0933    Y=             -0.2908    Z=              0.1354  Tot=              0.3341
 Quadrupole moment (field-independent basis, Debye-Ang):
   XX=            -55.2917   YY=            -67.2815   ZZ=            -72.8662
   XY=              0.0066   XZ=             -1.3188   YZ=             -0.6209

 Normal termination of Gaussian 16 at Fri Dec  8 00:10:07 2023.
