 Gaussian 16, Revision B.01,
 Gaussian 16:  ES64L-G16RevB.01 20-Dec-2017

 -------------------------
 #P B3LYP/6-311+g(d) force
 -------------------------

 -----
 DPGEN
 -----
 Symbolic Z-matrix:
 Charge =  0 Multiplicity = 2

                         Standard orientation:
 ---------------------------------------------------------------------
 Center     Atomic      Atomic             Coordinates (Angstroms)
 Number     Number       Type             X           Y           Z
 ---------------------------------------------------------------------
      1         11           0        0.045932   -0.089288   -1.615306
      2         11           0        1.960117    2.318319   -0.179026
      3         11           0        3.108144   -1.326032   -0.004201
      4         11           0       -0.330968   -2.805466   -0.139595
      5         11           0        0.103422    0.334556    2.120308
      6         11           0       -3.137223   -0.980866    0.105227
      7         11           0       -1.749424    2.548777   -0.287407
 ---------------------------------------------------------------------

 SCF Done:  E(UB3LYP) =  -1136.13698603     A.U. after   19 cycles

 The electronic state is 2-A.
 Alpha  occ. eigenvalues --  -38.44136 -38.44023 -38.43889 -38.43737 -38.43649
 Alpha  occ. eigenvalues --  -38.43379 -38.43192  -2.19916  -2.19828  -2.19714
 Alpha  occ. eigenvalues --   -2.19549  -2.19504  -2.19246  -2.19155  -1.13591
 Alpha  occ. eigenvalues --   -1.13568  -1.13565  -1.13497  -1.13493  -1.13474
 Alpha  occ. eigenvalues --   -1.13402  -1.13388  -1.13335  -1.13233  -1.13213
 Alpha  occ. eigenvalues --   -1.13179  -1.13166  -1.13129  -1.13120  -1.13011
 Alpha  occ. eigenvalues --   -1.12903  -1.12857  -1.12829  -1.12777  -1.12760
 Alpha  occ. eigenvalues --   -0.18296  -0.12767  -0.12469  -0.10566
 Alpha virt. eigenvalues --   -0.05664  -0.05535  -0.04700  -0.03041  -0.02877
 Alpha virt. eigenvalues --   -0.02530  -0.01650  -0.01322  -0.00564  -0.00413
 Alpha virt. eigenvalues --   -0.00028   0.00338   0.00745   0.00821   0.00867

  Beta  occ. eigenvalues --  -38.44136 -38.44022 -38.43883 -38.43731 -38.43551
  Beta  occ. eigenvalues --  -38.43373 -38.43130  -2.19919  -2.19829  -2.19707
  Beta  occ. eigenvalues --   -2.19540  -2.19323  -2.19238  -2.19044  -1.13580
  Beta  occ. eigenvalues --   -1.13570  -1.13568  -1.13497  -1.13480  -1.13477
  Beta  occ. eigenvalues --   -1.13394  -1.13361  -1.13334  -1.13219  -1.13193
  Beta  occ. eigenvalues --   -1.13177  -1.13046  -1.13002  -1.12991  -1.12987
  Beta  occ. eigenvalues --   -1.12878  -1.12856  -1.12754  -1.12703  -1.12681
  Beta  occ. eigenvalues --   -0.17577  -0.12574  -0.12248
  Beta virt. eigenvalues --   -0.06648  -0.05649  -0.05507  -0.04648  -0.02286
  Beta virt. eigenvalues --   -0.02132  -0.01563  -0.01453  -0.01253  -0.00629
  Beta virt. eigenvalues --   -0.00449   0.00125   0.00363   0.00791   0.00825

 Mulliken charges and spin densities:
               1          2
     1  Na  -0.097736   0.455049
     2  Na   0.188387  -0.085568
     3  Na   0.069929  -0.072587
     4  Na   0.192276  -0.049557
     5  Na  -0.535035   0.836458
     6  Na   0.057335  -0.024532
     7  Na   0.124844  -0.059263
 Sum of Mulliken charges =  -0.00000   1.00000

 Dipole moment (field-independent basis, Debye):
    X=              0.0965    Y=              0.1364    Z=              0.1221  Tot=              0.2069
 Quadrupole moment (field-independent basis, Debye-Ang):
   XX=            -54.8192   YY=            -62.2647   ZZ=            -75.5772
   XY=             -0.4278   XZ=             -0.2027   YZ=             -1.0231

 Normal termination of Gaussian 16 at Thu Dec  7 17:35:28 2023.
