 Gaussian 16, Revision B.01,
 Gaussian 16:  ES64L-G16RevB.01 20-Dec-2017

 -------------------------
 #P B3LYP/6-311+g(d) force
 -------------------------

 -----
 DPGEN
 -----
 Symbolic Z-matrix:
 Charge =  0 Multiplicity = 2

                         Standard orientation:
 ---------------------------------------------------------------------
 Center     Atomic      Atomic             Coordinates (Angstroms)
 Number     Number       Type             X           Y           Z
 ---------------------------------------------------------------------
      1         11           0       -2.009861    1.540475    1.353764
      2         11           0        4.273591    0.476086   -0.008651
      3         11           0        0.523093    0.092951   -0.262563
      4         11           0       -2.890297   -0.414926   -1.102287
      5         11           0        1.844010   -2.465713    0.096217
      6         11           0       -0.096612    3.637363   -0.383826
      7         11           0       -1.643923   -2.866237    0.307346
 ---------------------------------------------------------------------

 SCF Done:  E(UB3LYP) =  -1136.11876684     A.U. after   22 cycles

 The electronic state is 2-A.
 Alpha  occ. eigenvalues --  -38.44972 -38.44265 -38.43893 -38.43714 -38.43504
 Alpha  occ. eigenvalues --  -38.43408 -38.43321  -2.20836  -2.20073  -2.19755
 Alpha  occ. eigenvalues --   -2.19671  -2.19386  -2.19322  -2.19119  -1.14534
 Alpha  occ. eigenvalues --   -1.14509  -1.14448  -1.13738  -1.13722  -1.13699
 Alpha  occ. eigenvalues --   -1.13464  -1.13456  -1.13421  -1.13395  -1.13390
 Alpha  occ. eigenvalues --   -1.13279  -1.13043  -1.13040  -1.12967  -1.12961
 Alpha  occ. eigenvalues --   -1.12956  -1.12947  -1.12772  -1.12768  -1.12716
 Alpha  occ. eigenvalues --   -0.17831  -0.13588  -0.12955  -0.09531
 Alpha virt. eigenvalues --   -0.06359  -0.05884  -0.04921  -0.02728  -0.02647
 Alpha virt. eigenvalues --   -0.02299  -0.02031  -0.01329  -0.00923  -0.00662
 Alpha virt. eigenvalues --   -0.00054   0.00239   0.00295   0.00386   0.00727

  Beta  occ. eigenvalues --  -38.44969 -38.44241 -38.43879 -38.43725 -38.43479
  Beta  occ. eigenvalues --  -38.43354 -38.43235  -2.20834  -2.20027  -2.19737
  Beta  occ. eigenvalues --   -2.19691  -2.19345  -2.19222  -2.18957  -1.14537
  Beta  occ. eigenvalues --   -1.14504  -1.14424  -1.13705  -1.13692  -1.13669
  Beta  occ. eigenvalues --   -1.13465  -1.13446  -1.13416  -1.13406  -1.13344
  Beta  occ. eigenvalues --   -1.13295  -1.13027  -1.13019  -1.12897  -1.12895
  Beta  occ. eigenvalues --   -1.12890  -1.12887  -1.12661  -1.12657  -1.12612
  Beta  occ. eigenvalues --   -0.17583  -0.12982  -0.12381
  Beta virt. eigenvalues --   -0.06287  -0.06227  -0.05512  -0.04750  -0.02490
  Beta virt. eigenvalues --   -0.02127  -0.02014  -0.01861  -0.00921  -0.00851
  Beta virt. eigenvalues --   -0.00369   0.00145   0.00319   0.00525   0.00571

 Mulliken charges and spin densities:
               1          2
     1  Na   0.796758   0.064634
     2  Na  -0.056474   0.528425
     3  Na  -4.042044  -0.254197
     4  Na   0.929770   0.359151
     5  Na   1.354586   0.327183
     6  Na   0.373160   0.016783
     7  Na   0.644243  -0.041981
 Sum of Mulliken charges =  -0.00000   1.00000

 Dipole moment (field-independent basis, Debye):
    X=             -1.3211    Y=              0.6235    Z=              0.4466  Tot=              1.5276
 Quadrupole moment (field-independent basis, Debye-Ang):
   XX=            -74.7456   YY=            -61.0865   ZZ=            -65.5993
   XY=              0.1518   XZ=             -2.5081   YZ=             -2.4353

 Normal termination of Gaussian 16 at Tue Dec  5 14:09:38 2023.
