 Gaussian 16, Revision B.01,
 Gaussian 16:  ES64L-G16RevB.01 20-Dec-2017

 -------------------------
 #P B3LYP/6-311+g(d) force
 -------------------------

 -----
 DPGEN
 -----
 Symbolic Z-matrix:
 Charge =  0 Multiplicity = 2

                         Standard orientation:
 ---------------------------------------------------------------------
 Center     Atomic      Atomic             Coordinates (Angstroms)
 Number     Number       Type             X           Y           Z
 ---------------------------------------------------------------------
      1         11           0        2.930861   -2.238091   -0.688383
      2         11           0       -0.735558   -2.607137    1.035085
      3         11           0       -1.570300    2.302508    0.746938
      4         11           0        1.384921    0.214864    1.534450
      5         11           0        1.873532    2.907845   -0.406394
      6         11           0       -3.779292   -0.667062   -0.641261
      7         11           0       -0.104163    0.087073   -1.580435
 ---------------------------------------------------------------------

 SCF Done:  E(UB3LYP) =  -1136.12877229     A.U. after   20 cycles

 The electronic state is 2-A.
 Alpha  occ. eigenvalues --  -38.44432 -38.44281 -38.44161 -38.44135 -38.43917
 Alpha  occ. eigenvalues --  -38.43653 -38.43190  -2.20228  -2.20042  -2.19945
 Alpha  occ. eigenvalues --   -2.19944  -2.19672  -2.19525  -2.19096  -1.13916
 Alpha  occ. eigenvalues --   -1.13911  -1.13833  -1.13717  -1.13699  -1.13670
 Alpha  occ. eigenvalues --   -1.13628  -1.13625  -1.13610  -1.13606  -1.13573
 Alpha  occ. eigenvalues --   -1.13552  -1.13346  -1.13334  -1.13306  -1.13238
 Alpha  occ. eigenvalues --   -1.13163  -1.13134  -1.12798  -1.12756  -1.12690
 Alpha  occ. eigenvalues --   -0.17710  -0.12543  -0.12394  -0.10148
 Alpha virt. eigenvalues --   -0.06032  -0.05736  -0.04983  -0.03041  -0.02863
 Alpha virt. eigenvalues --   -0.02038  -0.01823  -0.01692  -0.00898  -0.00427
 Alpha virt. eigenvalues --   -0.00014   0.00284   0.00487   0.00671   0.00711

  Beta  occ. eigenvalues --  -38.44421 -38.44266 -38.44132 -38.44130 -38.43912
  Beta  occ. eigenvalues --  -38.43599 -38.43141  -2.20210  -2.20016  -2.19943
  Beta  occ. eigenvalues --   -2.19889  -2.19663  -2.19427  -2.19008  -1.13905
  Beta  occ. eigenvalues --   -1.13881  -1.13820  -1.13698  -1.13671  -1.13653
  Beta  occ. eigenvalues --   -1.13622  -1.13595  -1.13586  -1.13569  -1.13561
  Beta  occ. eigenvalues --   -1.13517  -1.13336  -1.13326  -1.13301  -1.13164
  Beta  occ. eigenvalues --   -1.13096  -1.13058  -1.12742  -1.12673  -1.12629
  Beta  occ. eigenvalues --   -0.17049  -0.12321  -0.12206
  Beta virt. eigenvalues --   -0.06513  -0.05863  -0.05572  -0.04838  -0.02458
  Beta virt. eigenvalues --   -0.02387  -0.01660  -0.01631  -0.01244  -0.00609
  Beta virt. eigenvalues --   -0.00445   0.00110   0.00331   0.00581   0.00713

 Mulliken charges and spin densities:
               1          2
     1  Na  -0.023802   0.010899
     2  Na  -0.235091   0.022475
     3  Na  -0.154639  -0.025263
     4  Na   0.374724   0.440444
     5  Na   0.230624  -0.031780
     6  Na   0.189781   0.005755
     7  Na  -0.381597   0.577470
 Sum of Mulliken charges =  -0.00000   1.00000

 Dipole moment (field-independent basis, Debye):
    X=              0.2034    Y=              0.3121    Z=              0.0343  Tot=              0.3741
 Quadrupole moment (field-independent basis, Debye-Ang):
   XX=            -56.5500   YY=            -59.5165   ZZ=            -75.2596
   XY=              0.7417   XZ=             -2.1866   YZ=              0.2673

 Normal termination of Gaussian 16 at Thu Dec  7 03:01:10 2023.
