 Gaussian 16, Revision B.01,
 Gaussian 16:  ES64L-G16RevB.01 20-Dec-2017

 -------------------------
 #P B3LYP/6-311+g(d) force
 -------------------------

 -----
 DPGEN
 -----
 Symbolic Z-matrix:
 Charge =  0 Multiplicity = 2

                         Standard orientation:
 ---------------------------------------------------------------------
 Center     Atomic      Atomic             Coordinates (Angstroms)
 Number     Number       Type             X           Y           Z
 ---------------------------------------------------------------------
      1         11           0       -1.265388    0.123125    1.282150
      2         11           0        2.366651    0.435319    1.050034
      3         11           0        0.777038   -2.261741    0.139478
      4         11           0       -4.086852    1.189099   -0.754657
      5         11           0       -2.708945   -2.146440   -0.457819
      6         11           0        4.832934   -0.062526   -1.092780
      7         11           0        0.084562    2.723164   -0.166405
 ---------------------------------------------------------------------

 SCF Done:  E(UB3LYP) =  -1136.12307186     A.U. after   21 cycles

 The electronic state is 2-A.
 Alpha  occ. eigenvalues --  -38.44909 -38.44592 -38.43737 -38.43676 -38.43543
 Alpha  occ. eigenvalues --  -38.43517 -38.43436  -2.20716  -2.20379  -2.19630
 Alpha  occ. eigenvalues --   -2.19573  -2.19432  -2.19326  -2.19286  -1.14355
 Alpha  occ. eigenvalues --   -1.14345  -1.14329  -1.14046  -1.14014  -1.14001
 Alpha  occ. eigenvalues --   -1.13361  -1.13335  -1.13277  -1.13250  -1.13208
 Alpha  occ. eigenvalues --   -1.13187  -1.13142  -1.13116  -1.13078  -1.12995
 Alpha  occ. eigenvalues --   -1.12986  -1.12964  -1.12957  -1.12944  -1.12882
 Alpha  occ. eigenvalues --   -0.17496  -0.14189  -0.11583  -0.11389
 Alpha virt. eigenvalues --   -0.05785  -0.05384  -0.04972  -0.03545  -0.02399
 Alpha virt. eigenvalues --   -0.02310  -0.02204  -0.01316  -0.00641  -0.00543
 Alpha virt. eigenvalues --   -0.00256   0.00127   0.00302   0.00431   0.00582

  Beta  occ. eigenvalues --  -38.44798 -38.44535 -38.43732 -38.43653 -38.43538
  Beta  occ. eigenvalues --  -38.43509 -38.43425  -2.20510  -2.20273  -2.19594
  Beta  occ. eigenvalues --   -2.19567  -2.19430  -2.19313  -2.19266  -1.14214
  Beta  occ. eigenvalues --   -1.14205  -1.14193  -1.13975  -1.13942  -1.13929
  Beta  occ. eigenvalues --   -1.13348  -1.13306  -1.13248  -1.13236  -1.13192
  Beta  occ. eigenvalues --   -1.13160  -1.13141  -1.13116  -1.13030  -1.12987
  Beta  occ. eigenvalues --   -1.12970  -1.12946  -1.12938  -1.12936  -1.12875
  Beta  occ. eigenvalues --   -0.16964  -0.13272  -0.11448
  Beta virt. eigenvalues --   -0.07839  -0.05548  -0.05168  -0.04448  -0.03436
  Beta virt. eigenvalues --   -0.02080  -0.01841  -0.01598  -0.01145  -0.00485
  Beta virt. eigenvalues --   -0.00236  -0.00201   0.00270   0.00403   0.00565

 Mulliken charges and spin densities:
               1          2
     1  Na   0.413674  -0.145717
     2  Na   0.086726  -0.014919
     3  Na  -0.375304   0.019096
     4  Na   0.023660   0.372255
     5  Na   0.011632   0.173819
     6  Na   0.087274   0.535541
     7  Na  -0.247661   0.059926
 Sum of Mulliken charges =  -0.00000   1.00000

 Dipole moment (field-independent basis, Debye):
    X=             -0.2737    Y=              0.0853    Z=             -0.8610  Tot=              0.9075
 Quadrupole moment (field-independent basis, Debye-Ang):
   XX=            -59.1281   YY=            -70.8956   ZZ=            -66.3404
   XY=             -0.3903   XZ=             -0.1441   YZ=             -0.6574

 Normal termination of Gaussian 16 at Tue Nov 28 19:30:13 2023.
