 Gaussian 16, Revision B.01,
 Gaussian 16:  ES64L-G16RevB.01 20-Dec-2017

 -------------------------
 #P B3LYP/6-311+g(d) force
 -------------------------

 -----
 DPGEN
 -----
 Symbolic Z-matrix:
 Charge =  0 Multiplicity = 2

                         Standard orientation:
 ---------------------------------------------------------------------
 Center     Atomic      Atomic             Coordinates (Angstroms)
 Number     Number       Type             X           Y           Z
 ---------------------------------------------------------------------
      1         11           0       -0.194937    0.126433   -0.555499
      2         11           0       -3.086943   -0.833771   -1.955548
      3         11           0        3.882643    0.757351   -1.710496
      4         11           0        2.850901   -1.624566    0.514181
      5         11           0        0.779193    1.478839    2.178558
      6         11           0       -1.681682   -2.036342    1.417982
      7         11           0       -2.549175    2.132056    0.110823
 ---------------------------------------------------------------------

 SCF Done:  E(UB3LYP) =  -1136.11597602     A.U. after   25 cycles

 The electronic state is 2-A.
 Alpha  occ. eigenvalues --  -38.45194 -38.44732 -38.44575 -38.44467 -38.43360
 Alpha  occ. eigenvalues --  -38.43096 -38.42661  -2.21007  -2.20508  -2.20407
 Alpha  occ. eigenvalues --   -2.20239  -2.19354  -2.18912  -2.18470  -1.14681
 Alpha  occ. eigenvalues --   -1.14640  -1.14596  -1.14195  -1.14166  -1.14147
 Alpha  occ. eigenvalues --   -1.14109  -1.14058  -1.13988  -1.13899  -1.13894
 Alpha  occ. eigenvalues --   -1.13853  -1.13088  -1.13012  -1.12987  -1.12593
 Alpha  occ. eigenvalues --   -1.12565  -1.12553  -1.12163  -1.12131  -1.12094
 Alpha  occ. eigenvalues --   -0.17566  -0.13609  -0.11435  -0.10684
 Alpha virt. eigenvalues --   -0.06104  -0.05646  -0.04933  -0.03155  -0.02651
 Alpha virt. eigenvalues --   -0.02408  -0.02032  -0.01537  -0.00870  -0.00426
 Alpha virt. eigenvalues --   -0.00007   0.00149   0.00209   0.00366   0.00684

  Beta  occ. eigenvalues --  -38.45097 -38.44736 -38.44522 -38.44433 -38.43347
  Beta  occ. eigenvalues --  -38.43096 -38.42665  -2.20828  -2.20519  -2.20309
  Beta  occ. eigenvalues --   -2.20174  -2.19336  -2.18913  -2.18480  -1.14557
  Beta  occ. eigenvalues --   -1.14518  -1.14469  -1.14204  -1.14175  -1.14135
  Beta  occ. eigenvalues --   -1.14038  -1.13994  -1.13918  -1.13854  -1.13849
  Beta  occ. eigenvalues --   -1.13813  -1.13025  -1.13005  -1.12983  -1.12597
  Beta  occ. eigenvalues --   -1.12559  -1.12546  -1.12171  -1.12129  -1.12100
  Beta  occ. eigenvalues --   -0.16864  -0.13314  -0.10562
  Beta virt. eigenvalues --   -0.07734  -0.05482  -0.05346  -0.04810  -0.02677
  Beta virt. eigenvalues --   -0.02282  -0.02044  -0.01797  -0.00898  -0.00838
  Beta virt. eigenvalues --   -0.00260   0.00120   0.00236   0.00312   0.00457

 Mulliken charges and spin densities:
               1          2
     1  Na  -1.761326   0.160520
     2  Na   0.564424   0.028476
     3  Na   0.096892   0.068055
     4  Na   0.495679   0.061111
     5  Na   0.129672  -0.080387
     6  Na   0.203299   0.572225
     7  Na   0.271362   0.189999
 Sum of Mulliken charges =  -0.00000   1.00000

 Dipole moment (field-independent basis, Debye):
    X=             -0.0935    Y=              0.0327    Z=              0.5862  Tot=              0.5945
 Quadrupole moment (field-independent basis, Debye-Ang):
   XX=            -59.3980   YY=            -66.5519   ZZ=            -69.1461
   XY=             -0.6629   XZ=             -0.4600   YZ=             -7.1814

 Normal termination of Gaussian 16 at Tue Dec  5 21:58:03 2023.
