 Gaussian 16, Revision B.01,
 Gaussian 16:  ES64L-G16RevB.01 20-Dec-2017

 -------------------------
 #P B3LYP/6-311+g(d) force
 -------------------------

 -----
 DPGEN
 -----
 Symbolic Z-matrix:
 Charge =  0 Multiplicity = 2

                         Standard orientation:
 ---------------------------------------------------------------------
 Center     Atomic      Atomic             Coordinates (Angstroms)
 Number     Number       Type             X           Y           Z
 ---------------------------------------------------------------------
      1         11           0       -0.608832    2.805881   -0.457856
      2         11           0        2.761845   -1.997560   -0.086829
      3         11           0       -1.136659   -2.325934    0.311049
      4         11           0        2.759319    1.573155    0.165836
      5         11           0       -0.319926    0.457209    1.954227
      6         11           0       -3.604825   -0.123430   -0.203374
      7         11           0        0.149077   -0.389319   -1.683053
 ---------------------------------------------------------------------

 SCF Done:  E(UB3LYP) =  -1136.13224528     A.U. after   21 cycles

 The electronic state is 2-A.
 Alpha  occ. eigenvalues --  -38.45002 -38.44277 -38.43831 -38.43436 -38.43410
 Alpha  occ. eigenvalues --  -38.43339 -38.43185  -2.20777  -2.20080  -2.19627
 Alpha  occ. eigenvalues --   -2.19349  -2.19330  -2.19242  -2.19019  -1.14444
 Alpha  occ. eigenvalues --   -1.14443  -1.14412  -1.13760  -1.13743  -1.13712
 Alpha  occ. eigenvalues --   -1.13302  -1.13284  -1.13273  -1.13127  -1.13027
 Alpha  occ. eigenvalues --   -1.13000  -1.12979  -1.12948  -1.12944  -1.12893
 Alpha  occ. eigenvalues --   -1.12884  -1.12831  -1.12696  -1.12688  -1.12640
 Alpha  occ. eigenvalues --   -0.18329  -0.13099  -0.12114  -0.10495
 Alpha virt. eigenvalues --   -0.06404  -0.05258  -0.04296  -0.03183  -0.02809
 Alpha virt. eigenvalues --   -0.02333  -0.02162  -0.01245  -0.00466  -0.00245
 Alpha virt. eigenvalues --   -0.00059   0.00287   0.00697   0.00788   0.00824

  Beta  occ. eigenvalues --  -38.45002 -38.44274 -38.43832 -38.43349 -38.43346
  Beta  occ. eigenvalues --  -38.43324 -38.43174  -2.20778  -2.20077  -2.19631
  Beta  occ. eigenvalues --   -2.19235  -2.19218  -2.19172  -2.19001  -1.14447
  Beta  occ. eigenvalues --   -1.14428  -1.14415  -1.13744  -1.13737  -1.13714
  Beta  occ. eigenvalues --   -1.13295  -1.13285  -1.13276  -1.13069  -1.12937
  Beta  occ. eigenvalues --   -1.12920  -1.12878  -1.12864  -1.12850  -1.12832
  Beta  occ. eigenvalues --   -1.12824  -1.12805  -1.12681  -1.12655  -1.12627
  Beta  occ. eigenvalues --   -0.17598  -0.12923  -0.11891
  Beta virt. eigenvalues --   -0.06602  -0.06329  -0.05255  -0.04236  -0.02466
  Beta virt. eigenvalues --   -0.02129  -0.02014  -0.01340  -0.01174  -0.00507
  Beta virt. eigenvalues --   -0.00227   0.00088   0.00311   0.00749   0.00812

 Mulliken charges and spin densities:
               1          2
     1  Na  -0.058964  -0.077977
     2  Na   0.123618  -0.075926
     3  Na   0.218655  -0.012468
     4  Na   0.095369  -0.059393
     5  Na  -0.245162   0.620810
     6  Na   0.082864  -0.070053
     7  Na  -0.216381   0.675007
 Sum of Mulliken charges =  -0.00000   1.00000

 Dipole moment (field-independent basis, Debye):
    X=             -0.2701    Y=              0.1309    Z=              0.0405  Tot=              0.3029
 Quadrupole moment (field-independent basis, Debye-Ang):
   XX=            -49.8157   YY=            -66.4395   ZZ=            -75.5024
   XY=             -0.6320   XZ=              1.4621   YZ=             -1.4513

 Normal termination of Gaussian 16 at Thu Dec  7 05:22:39 2023.
