 Gaussian 16, Revision B.01,
 Gaussian 16:  ES64L-G16RevB.01 20-Dec-2017

 -------------------------
 #P B3LYP/6-311+g(d) force
 -------------------------

 -----
 DPGEN
 -----
 Symbolic Z-matrix:
 Charge =  0 Multiplicity = 2

                         Standard orientation:
 ---------------------------------------------------------------------
 Center     Atomic      Atomic             Coordinates (Angstroms)
 Number     Number       Type             X           Y           Z
 ---------------------------------------------------------------------
      1         11           0        3.169243    0.866872    0.023693
      2         11           0       -0.107875    2.976851   -0.109240
      3         11           0       -3.195487    0.669078    0.119263
      4         11           0       -0.043545    0.085959    1.559599
      5         11           0       -1.906868   -2.388295   -0.155368
      6         11           0        0.012393    0.125357   -1.478583
      7         11           0        2.072139   -2.335821    0.040636
 ---------------------------------------------------------------------

 SCF Done:  E(UB3LYP) =  -1136.13424309     A.U. after   24 cycles

 The electronic state is 2-A.
 Alpha  occ. eigenvalues --  -38.44534 -38.44468 -38.43723 -38.43593 -38.43260
 Alpha  occ. eigenvalues --  -38.42829 -38.42653  -2.20352  -2.20300  -2.19554
 Alpha  occ. eigenvalues --   -2.19441  -2.19122  -2.18831  -2.18684  -1.14025
 Alpha  occ. eigenvalues --   -1.14013  -1.13990  -1.13970  -1.13965  -1.13939
 Alpha  occ. eigenvalues --   -1.13223  -1.13223  -1.13194  -1.13118  -1.13104
 Alpha  occ. eigenvalues --   -1.13079  -1.12841  -1.12793  -1.12738  -1.12626
 Alpha  occ. eigenvalues --   -1.12441  -1.12427  -1.12358  -1.12296  -1.12279
 Alpha  occ. eigenvalues --   -0.18784  -0.13399  -0.12362  -0.09824
 Alpha virt. eigenvalues --   -0.06133  -0.05373  -0.04742  -0.02963  -0.02409
 Alpha virt. eigenvalues --   -0.02023  -0.01658  -0.01314  -0.00610  -0.00574
 Alpha virt. eigenvalues --    0.00047   0.00330   0.00735   0.00821   0.00843

  Beta  occ. eigenvalues --  -38.44530 -38.44462 -38.43719 -38.43587 -38.43252
  Beta  occ. eigenvalues --  -38.42759 -38.42584  -2.20349  -2.20293  -2.19550
  Beta  occ. eigenvalues --   -2.19433  -2.19112  -2.18704  -2.18558  -1.14016
  Beta  occ. eigenvalues --   -1.14000  -1.13989  -1.13964  -1.13939  -1.13937
  Beta  occ. eigenvalues --   -1.13223  -1.13203  -1.13189  -1.13113  -1.13079
  Beta  occ. eigenvalues --   -1.13071  -1.12831  -1.12757  -1.12735  -1.12535
  Beta  occ. eigenvalues --   -1.12352  -1.12333  -1.12262  -1.12203  -1.12190
  Beta  occ. eigenvalues --   -0.18093  -0.13158  -0.12095
  Beta virt. eigenvalues --   -0.06113  -0.05970  -0.05376  -0.04731  -0.02204
  Beta virt. eigenvalues --   -0.01925  -0.01679  -0.01253  -0.00753  -0.00641
  Beta virt. eigenvalues --   -0.00607   0.00200   0.00376   0.00769   0.00822

 Mulliken charges and spin densities:
               1          2
     1  Na   0.200173  -0.065857
     2  Na   0.146408  -0.130024
     3  Na   0.281282  -0.017434
     4  Na  -0.388339   0.697560
     5  Na   0.110457  -0.058631
     6  Na  -0.433325   0.645431
     7  Na   0.083344  -0.071046
 Sum of Mulliken charges =  -0.00000   1.00000

 Dipole moment (field-independent basis, Debye):
    X=              0.0684    Y=              0.0871    Z=              0.0315  Tot=              0.1151
 Quadrupole moment (field-independent basis, Debye-Ang):
   XX=            -49.8412   YY=            -60.0580   ZZ=            -79.2614
   XY=              0.0194   XZ=              0.0595   YZ=              0.1518

 Normal termination of Gaussian 16 at Tue Nov 28 22:47:35 2023.
