 Gaussian 16, Revision B.01,
 Gaussian 16:  ES64L-G16RevB.01 20-Dec-2017

 -------------------------
 #P B3LYP/6-311+g(d) force
 -------------------------

 -----
 DPGEN
 -----
 Symbolic Z-matrix:
 Charge =  0 Multiplicity = 2

                         Standard orientation:
 ---------------------------------------------------------------------
 Center     Atomic      Atomic             Coordinates (Angstroms)
 Number     Number       Type             X           Y           Z
 ---------------------------------------------------------------------
      1         11           0       -2.203873   -1.165237    1.986496
      2         11           0        0.293663    3.184537   -0.517524
      3         11           0       -2.653030    1.252216   -0.506206
      4         11           0       -1.550019   -2.004459   -1.145891
      5         11           0        2.563798   -1.803331   -0.982181
      6         11           0        0.489651    0.118871   -0.141364
      7         11           0        3.059810    0.417403    1.306669
 ---------------------------------------------------------------------

 SCF Done:  E(UB3LYP) =  -1136.12090023     A.U. after   20 cycles

 The electronic state is 2-A.
 Alpha  occ. eigenvalues --  -38.44306 -38.44169 -38.44156 -38.43860 -38.43679
 Alpha  occ. eigenvalues --  -38.43075 -38.42556  -2.20181  -2.20039  -2.20017
 Alpha  occ. eigenvalues --   -2.19720  -2.19569  -2.18899  -2.18727  -1.13914
 Alpha  occ. eigenvalues --   -1.13831  -1.13796  -1.13761  -1.13708  -1.13701
 Alpha  occ. eigenvalues --   -1.13676  -1.13634  -1.13624  -1.13373  -1.13366
 Alpha  occ. eigenvalues --   -1.13345  -1.13284  -1.13218  -1.13164  -1.12638
 Alpha  occ. eigenvalues --   -1.12555  -1.12523  -1.12436  -1.12384  -1.12335
 Alpha  occ. eigenvalues --   -0.18281  -0.13903  -0.12010  -0.10453
 Alpha virt. eigenvalues --   -0.05765  -0.05331  -0.04686  -0.03595  -0.02449
 Alpha virt. eigenvalues --   -0.02135  -0.01722  -0.00997  -0.00456  -0.00090
 Alpha virt. eigenvalues --   -0.00036   0.00358   0.00407   0.00694   0.00774

  Beta  occ. eigenvalues --  -38.44272 -38.44155 -38.44146 -38.43785 -38.43653
  Beta  occ. eigenvalues --  -38.43077 -38.42533  -2.20116  -2.20017  -2.20002
  Beta  occ. eigenvalues --   -2.19577  -2.19525  -2.18906  -2.18693  -1.13875
  Beta  occ. eigenvalues --   -1.13792  -1.13753  -1.13735  -1.13698  -1.13676
  Beta  occ. eigenvalues --   -1.13663  -1.13610  -1.13600  -1.13293  -1.13266
  Beta  occ. eigenvalues --   -1.13257  -1.13237  -1.13181  -1.13112  -1.12641
  Beta  occ. eigenvalues --   -1.12557  -1.12520  -1.12378  -1.12338  -1.12321
  Beta  occ. eigenvalues --   -0.17671  -0.13635  -0.11732
  Beta virt. eigenvalues --   -0.06865  -0.05658  -0.04753  -0.04437  -0.03287
  Beta virt. eigenvalues --   -0.01977  -0.01694  -0.01378  -0.00855  -0.00224
  Beta virt. eigenvalues --    0.00062   0.00092   0.00446   0.00598   0.00774

 Mulliken charges and spin densities:
               1          2
     1  Na   0.172491   0.402311
     2  Na   0.460974  -0.076544
     3  Na   0.249758   0.106130
     4  Na   0.274132   0.035316
     5  Na   0.919391  -0.012023
     6  Na  -3.126470   0.487900
     7  Na   1.049723   0.056911
 Sum of Mulliken charges =  -0.00000   1.00000

 Dipole moment (field-independent basis, Debye):
    X=              0.2149    Y=             -0.2772    Z=             -0.0136  Tot=              0.3510
 Quadrupole moment (field-independent basis, Debye-Ang):
   XX=            -55.5159   YY=            -66.9881   ZZ=            -69.4217
   XY=             -0.8111   XZ=              2.3160   YZ=              2.0255

 Normal termination of Gaussian 16 at Thu Dec  7 05:16:22 2023.
