 Gaussian 16, Revision B.01,
 Gaussian 16:  ES64L-G16RevB.01 20-Dec-2017

 -------------------------
 #P B3LYP/6-311+g(d) force
 -------------------------

 -----
 DPGEN
 -----
 Symbolic Z-matrix:
 Charge =  0 Multiplicity = 2

                         Standard orientation:
 ---------------------------------------------------------------------
 Center     Atomic      Atomic             Coordinates (Angstroms)
 Number     Number       Type             X           Y           Z
 ---------------------------------------------------------------------
      1         11           0       -1.495800    2.738651   -0.330153
      2         11           0       -0.171080   -2.592525   -0.403274
      3         11           0       -0.031003   -0.126025    1.895476
      4         11           0        2.254230    2.111588    0.385599
      5         11           0        2.534663   -1.491810   -0.154710
      6         11           0       -2.920695   -0.931249    0.442993
      7         11           0       -0.170316    0.291370   -1.835931
 ---------------------------------------------------------------------

 SCF Done:  E(UB3LYP) =  -1136.13503250     A.U. after   19 cycles

 The electronic state is 2-A.
 Alpha  occ. eigenvalues --  -38.43905 -38.43848 -38.43616 -38.43602 -38.43523
 Alpha  occ. eigenvalues --  -38.43473 -38.43183  -2.19723  -2.19656  -2.19538
 Alpha  occ. eigenvalues --   -2.19476  -2.19463  -2.19369  -2.19158  -1.13448
 Alpha  occ. eigenvalues --   -1.13374  -1.13345  -1.13339  -1.13319  -1.13284
 Alpha  occ. eigenvalues --   -1.13240  -1.13199  -1.13170  -1.13168  -1.13152
 Alpha  occ. eigenvalues --   -1.13121  -1.13110  -1.13106  -1.13095  -1.13079
 Alpha  occ. eigenvalues --   -1.13013  -1.12993  -1.12815  -1.12792  -1.12750
 Alpha  occ. eigenvalues --   -0.18880  -0.12809  -0.12664  -0.11113
 Alpha virt. eigenvalues --   -0.05503  -0.05027  -0.04559  -0.03229  -0.03117
 Alpha virt. eigenvalues --   -0.02720  -0.01326  -0.01224  -0.00287  -0.00057
 Alpha virt. eigenvalues --    0.00027   0.00355   0.00832   0.00925   0.00952

  Beta  occ. eigenvalues --  -38.43897 -38.43841 -38.43605 -38.43522 -38.43469
  Beta  occ. eigenvalues --  -38.43447 -38.43169  -2.19710  -2.19644  -2.19447
  Beta  occ. eigenvalues --   -2.19391  -2.19365  -2.19335  -2.19136  -1.13423
  Beta  occ. eigenvalues --   -1.13357  -1.13341  -1.13316  -1.13311  -1.13276
  Beta  occ. eigenvalues --   -1.13178  -1.13163  -1.13117  -1.13101  -1.13082
  Beta  occ. eigenvalues --   -1.13066  -1.13059  -1.13026  -1.13014  -1.13005
  Beta  occ. eigenvalues --   -1.12980  -1.12976  -1.12797  -1.12760  -1.12722
  Beta  occ. eigenvalues --   -0.18140  -0.12524  -0.12393
  Beta virt. eigenvalues --   -0.07211  -0.05463  -0.04927  -0.04567  -0.02443
  Beta virt. eigenvalues --   -0.02377  -0.01691  -0.01211  -0.01126  -0.00308
  Beta virt. eigenvalues --   -0.00064   0.00110   0.00381   0.00845   0.00937

 Mulliken charges and spin densities:
               1          2
     1  Na  -0.023668  -0.110457
     2  Na   0.439731   0.113763
     3  Na  -0.384376   0.644888
     4  Na  -0.004815  -0.056352
     5  Na  -0.027695  -0.082223
     6  Na   0.195058   0.005796
     7  Na  -0.194235   0.484585
 Sum of Mulliken charges =  -0.00000   1.00000

 Dipole moment (field-independent basis, Debye):
    X=             -0.0992    Y=              0.4646    Z=              0.1240  Tot=              0.4910
 Quadrupole moment (field-independent basis, Debye-Ang):
   XX=            -59.4912   YY=            -62.2285   ZZ=            -72.6447
   XY=              0.1024   XZ=             -0.3696   YZ=              0.9614

 Normal termination of Gaussian 16 at Thu Dec  7 23:44:08 2023.
