 Gaussian 16, Revision B.01,
 Gaussian 16:  ES64L-G16RevB.01 20-Dec-2017

 -------------------------
 #P B3LYP/6-311+g(d) force
 -------------------------

 -----
 DPGEN
 -----
 Symbolic Z-matrix:
 Charge =  0 Multiplicity = 2

                         Standard orientation:
 ---------------------------------------------------------------------
 Center     Atomic      Atomic             Coordinates (Angstroms)
 Number     Number       Type             X           Y           Z
 ---------------------------------------------------------------------
      1         11           0       -4.613120   -0.915062   -0.593633
      2         11           0       -0.127192    2.477562    1.092513
      3         11           0        1.176719   -1.252432    1.203296
      4         11           0        3.417108    1.694583   -0.254144
      5         11           0       -1.529682   -2.771279    0.412778
      6         11           0        4.228712   -1.549167   -1.071398
      7         11           0       -2.552545    2.315795   -0.789412
 ---------------------------------------------------------------------

 SCF Done:  E(UB3LYP) =  -1136.11368865     A.U. after   21 cycles

 The electronic state is 2-A.
 Alpha  occ. eigenvalues --  -38.45443 -38.44972 -38.44535 -38.44474 -38.44173
 Alpha  occ. eigenvalues --  -38.43530 -38.43291  -2.21210  -2.20760  -2.20301
 Alpha  occ. eigenvalues --   -2.20257  -2.20004  -2.19320  -2.19116  -1.14898
 Alpha  occ. eigenvalues --   -1.14866  -1.14841  -1.14418  -1.14405  -1.14379
 Alpha  occ. eigenvalues --   -1.13965  -1.13960  -1.13942  -1.13931  -1.13927
 Alpha  occ. eigenvalues --   -1.13884  -1.13691  -1.13660  -1.13625  -1.13003
 Alpha  occ. eigenvalues --   -1.12989  -1.12949  -1.12791  -1.12767  -1.12753
 Alpha  occ. eigenvalues --   -0.16354  -0.13859  -0.12153  -0.11169
 Alpha virt. eigenvalues --   -0.07033  -0.05226  -0.04478  -0.03672  -0.03377
 Alpha virt. eigenvalues --   -0.02262  -0.01965  -0.01422  -0.01207  -0.00645
 Alpha virt. eigenvalues --   -0.00354  -0.00182   0.00076   0.00476   0.00630

  Beta  occ. eigenvalues --  -38.45429 -38.44920 -38.44479 -38.44477 -38.44115
  Beta  occ. eigenvalues --  -38.43516 -38.43273  -2.21187  -2.20664  -2.20267
  Beta  occ. eigenvalues --   -2.20192  -2.19901  -2.19300  -2.19082  -1.14885
  Beta  occ. eigenvalues --   -1.14854  -1.14799  -1.14353  -1.14333  -1.14317
  Beta  occ. eigenvalues --   -1.13965  -1.13937  -1.13891  -1.13888  -1.13862
  Beta  occ. eigenvalues --   -1.13854  -1.13622  -1.13583  -1.13543  -1.12983
  Beta  occ. eigenvalues --   -1.12976  -1.12920  -1.12776  -1.12740  -1.12728
  Beta  occ. eigenvalues --   -0.15746  -0.13197  -0.11900
  Beta virt. eigenvalues --   -0.07790  -0.06909  -0.04785  -0.04052  -0.03347
  Beta virt. eigenvalues --   -0.03022  -0.01975  -0.01700  -0.01249  -0.00934
  Beta virt. eigenvalues --   -0.00445  -0.00312   0.00041   0.00297   0.00538

 Mulliken charges and spin densities:
               1          2
     1  Na  -0.043292   0.319727
     2  Na  -0.155442   0.051316
     3  Na  -0.606410   0.285243
     4  Na   0.198804   0.122396
     5  Na   0.202454  -0.059315
     6  Na   0.297114   0.242773
     7  Na   0.106773   0.037861
 Sum of Mulliken charges =  -0.00000   1.00000

 Dipole moment (field-independent basis, Debye):
    X=              1.3463    Y=              0.0705    Z=             -0.6649  Tot=              1.5032
 Quadrupole moment (field-independent basis, Debye-Ang):
   XX=            -58.5145   YY=            -67.8427   ZZ=            -70.2268
   XY=              0.4056   XZ=              0.0984   YZ=              1.1974

 Normal termination of Gaussian 16 at Sun Dec  3 13:02:51 2023.
