 Gaussian 16, Revision B.01,
 Gaussian 16:  ES64L-G16RevB.01 20-Dec-2017

 -------------------------
 #P B3LYP/6-311+g(d) force
 -------------------------

 -----
 DPGEN
 -----
 Symbolic Z-matrix:
 Charge =  0 Multiplicity = 2

                         Standard orientation:
 ---------------------------------------------------------------------
 Center     Atomic      Atomic             Coordinates (Angstroms)
 Number     Number       Type             X           Y           Z
 ---------------------------------------------------------------------
      1         11           0        1.261655    0.033789    1.796169
      2         11           0       -2.108516   -1.964761    0.027759
      3         11           0        1.767060    2.928828   -0.756446
      4         11           0        1.137405   -2.315479   -1.347399
      5         11           0       -4.466832    0.565276    0.599968
      6         11           0        4.108060   -0.503545    0.481816
      7         11           0       -1.698833    1.255891   -0.801867
 ---------------------------------------------------------------------

 SCF Done:  E(UB3LYP) =  -1136.11766313     A.U. after   22 cycles

 The electronic state is 2-A.
 Alpha  occ. eigenvalues --  -38.45713 -38.44489 -38.43973 -38.43786 -38.43778
 Alpha  occ. eigenvalues --  -38.43592 -38.43578  -2.21508  -2.20312  -2.19823
 Alpha  occ. eigenvalues --   -2.19631  -2.19627  -2.19375  -2.19343  -1.15203
 Alpha  occ. eigenvalues --   -1.15169  -1.15128  -1.13980  -1.13941  -1.13926
 Alpha  occ. eigenvalues --   -1.13505  -1.13463  -1.13454  -1.13358  -1.13325
 Alpha  occ. eigenvalues --   -1.13314  -1.13290  -1.13237  -1.13214  -1.13052
 Alpha  occ. eigenvalues --   -1.13026  -1.13020  -1.13015  -1.12988  -1.12977
 Alpha  occ. eigenvalues --   -0.17120  -0.14271  -0.11532  -0.10542
 Alpha virt. eigenvalues --   -0.06828  -0.05431  -0.04610  -0.03348  -0.03189
 Alpha virt. eigenvalues --   -0.02442  -0.01602  -0.01398  -0.01322  -0.00627
 Alpha virt. eigenvalues --   -0.00426  -0.00031   0.00266   0.00589   0.00651

  Beta  occ. eigenvalues --  -38.45705 -38.44423 -38.43911 -38.43775 -38.43763
  Beta  occ. eigenvalues --  -38.43580 -38.43550  -2.21497  -2.20189  -2.19707
  Beta  occ. eigenvalues --   -2.19611  -2.19608  -2.19355  -2.19293  -1.15187
  Beta  occ. eigenvalues --   -1.15143  -1.15128  -1.13890  -1.13862  -1.13847
  Beta  occ. eigenvalues --   -1.13434  -1.13384  -1.13381  -1.13341  -1.13316
  Beta  occ. eigenvalues --   -1.13304  -1.13263  -1.13192  -1.13179  -1.13039
  Beta  occ. eigenvalues --   -1.13013  -1.12988  -1.12987  -1.12948  -1.12940
  Beta  occ. eigenvalues --   -0.16640  -0.13638  -0.11024
  Beta virt. eigenvalues --   -0.07252  -0.06692  -0.05362  -0.04039  -0.03049
  Beta virt. eigenvalues --   -0.02843  -0.02202  -0.01296  -0.01204  -0.00931
  Beta virt. eigenvalues --   -0.00374  -0.00126   0.00037   0.00353   0.00674

 Mulliken charges and spin densities:
               1          2
     1  Na  -0.194359  -0.005253
     2  Na   0.180648   0.062557
     3  Na  -0.086557   0.103438
     4  Na  -0.188578   0.024833
     5  Na   0.444168   0.335076
     6  Na   0.339670   0.372042
     7  Na  -0.494992   0.107307
 Sum of Mulliken charges =  -0.00000   1.00000

 Dipole moment (field-independent basis, Debye):
    X=              0.3203    Y=             -0.2929    Z=              0.3416  Tot=              0.5523
 Quadrupole moment (field-independent basis, Debye-Ang):
   XX=            -59.0993   YY=            -76.3440   ZZ=            -65.1603
   XY=              1.2110   XZ=             -5.9965   YZ=             -0.6306

 Normal termination of Gaussian 16 at Sun Dec  3 22:21:47 2023.
