 Gaussian 16, Revision B.01,
 Gaussian 16:  ES64L-G16RevB.01 20-Dec-2017

 -------------------------
 #P B3LYP/6-311+g(d) force
 -------------------------

 -----
 DPGEN
 -----
 Symbolic Z-matrix:
 Charge =  0 Multiplicity = 2

                         Standard orientation:
 ---------------------------------------------------------------------
 Center     Atomic      Atomic             Coordinates (Angstroms)
 Number     Number       Type             X           Y           Z
 ---------------------------------------------------------------------
      1         11           0        4.743077   -0.309607    0.276307
      2         11           0       -1.605242   -0.824791    2.193746
      3         11           0       -1.126486    2.290815    0.135698
      4         11           0        1.546973   -1.858830   -0.256373
      5         11           0       -2.017504   -1.918007   -1.340306
      6         11           0       -3.865751    0.704487   -0.388062
      7         11           0        2.324934    1.915933   -0.621010
 ---------------------------------------------------------------------

 SCF Done:  E(UB3LYP) =  -1136.11573404     A.U. after   28 cycles

 The electronic state is 2-A.
 Alpha  occ. eigenvalues --  -38.44995 -38.44987 -38.44317 -38.44182 -38.44117
 Alpha  occ. eigenvalues --  -38.43929 -38.43169  -2.20791  -2.20789  -2.20113
 Alpha  occ. eigenvalues --   -2.19983  -2.19887  -2.19803  -2.19003  -1.14454
 Alpha  occ. eigenvalues --   -1.14450  -1.14447  -1.14422  -1.14416  -1.14406
 Alpha  occ. eigenvalues --   -1.13806  -1.13785  -1.13732  -1.13680  -1.13659
 Alpha  occ. eigenvalues --   -1.13623  -1.13601  -1.13576  -1.13485  -1.13473
 Alpha  occ. eigenvalues --   -1.13439  -1.13432  -1.12678  -1.12666  -1.12641
 Alpha  occ. eigenvalues --   -0.17203  -0.14419  -0.11509  -0.10514
 Alpha virt. eigenvalues --   -0.07543  -0.05853  -0.03998  -0.03326  -0.03286
 Alpha virt. eigenvalues --   -0.02314  -0.02182  -0.01937  -0.00751  -0.00566
 Alpha virt. eigenvalues --   -0.00501  -0.00029   0.00199   0.00564   0.00688

  Beta  occ. eigenvalues --  -38.44963 -38.44913 -38.44301 -38.44184 -38.44127
  Beta  occ. eigenvalues --  -38.43878 -38.43144  -2.20730  -2.20651  -2.20087
  Beta  occ. eigenvalues --   -2.19990  -2.19905  -2.19708  -2.18958  -1.14407
  Beta  occ. eigenvalues --   -1.14405  -1.14377  -1.14346  -1.14330  -1.14317
  Beta  occ. eigenvalues --   -1.13791  -1.13766  -1.13693  -1.13688  -1.13663
  Beta  occ. eigenvalues --   -1.13621  -1.13597  -1.13582  -1.13498  -1.13409
  Beta  occ. eigenvalues --   -1.13377  -1.13361  -1.12649  -1.12619  -1.12609
  Beta  occ. eigenvalues --   -0.16684  -0.14005  -0.11385
  Beta virt. eigenvalues --   -0.07288  -0.06720  -0.05704  -0.03732  -0.03179
  Beta virt. eigenvalues --   -0.02883  -0.01993  -0.01732  -0.01409  -0.00596
  Beta virt. eigenvalues --   -0.00341  -0.00161  -0.00008   0.00372   0.00664

 Mulliken charges and spin densities:
               1          2
     1  Na   0.452994   0.145158
     2  Na   0.105175   0.399753
     3  Na  -0.514798   0.080066
     4  Na  -0.554431  -0.072676
     5  Na   0.025214   0.075710
     6  Na   0.540364   0.375685
     7  Na  -0.054518  -0.003696
 Sum of Mulliken charges =  -0.00000   1.00000

 Dipole moment (field-independent basis, Debye):
    X=              1.0369    Y=             -0.4336    Z=              0.6762  Tot=              1.3117
 Quadrupole moment (field-independent basis, Debye-Ang):
   XX=            -54.5075   YY=            -75.8992   ZZ=            -67.8692
   XY=             -0.1199   XZ=             -1.9407   YZ=             -0.4551

 Normal termination of Gaussian 16 at Mon Dec  4 05:31:11 2023.
