 Gaussian 16, Revision B.01,
 Gaussian 16:  ES64L-G16RevB.01 20-Dec-2017

 -------------------------
 #P B3LYP/6-311+g(d) force
 -------------------------

 -----
 DPGEN
 -----
 Symbolic Z-matrix:
 Charge =  0 Multiplicity = 2

                         Standard orientation:
 ---------------------------------------------------------------------
 Center     Atomic      Atomic             Coordinates (Angstroms)
 Number     Number       Type             X           Y           Z
 ---------------------------------------------------------------------
      1         11           0       -1.524303   -1.943332    0.750573
      2         11           0       -4.615217   -2.333115   -0.325238
      3         11           0       -3.028583    0.729749   -0.807950
      4         11           0       -0.982127    3.457659   -0.791393
      5         11           0        0.655155    2.104076    1.690553
      6         11           0        3.572398   -1.034694    0.693275
      7         11           0        5.922677   -0.980343   -1.209818
 ---------------------------------------------------------------------

 SCF Done:  E(UB3LYP) =  -1136.11404616     A.U. after   20 cycles

 The electronic state is 2-A.
 Alpha  occ. eigenvalues --  -38.45201 -38.45162 -38.44636 -38.44563 -38.43767
 Alpha  occ. eigenvalues --  -38.43400 -38.43301  -2.21011  -2.20968  -2.20414
 Alpha  occ. eigenvalues --   -2.20406  -2.19590  -2.19218  -2.19092  -1.14694
 Alpha  occ. eigenvalues --   -1.14682  -1.14667  -1.14630  -1.14625  -1.14551
 Alpha  occ. eigenvalues --   -1.14101  -1.14088  -1.14087  -1.14062  -1.14050
 Alpha  occ. eigenvalues --   -1.13996  -1.13251  -1.13246  -1.13232  -1.12957
 Alpha  occ. eigenvalues --   -1.12857  -1.12856  -1.12760  -1.12753  -1.12690
 Alpha  occ. eigenvalues --   -0.16526  -0.13556  -0.12708  -0.10594
 Alpha virt. eigenvalues --   -0.06664  -0.05629  -0.04842  -0.03765  -0.02539
 Alpha virt. eigenvalues --   -0.02469  -0.02214  -0.01815  -0.01269  -0.00886
 Alpha virt. eigenvalues --   -0.00462  -0.00162   0.00116   0.00191   0.00468

  Beta  occ. eigenvalues --  -38.45161 -38.45158 -38.44603 -38.44515 -38.43751
  Beta  occ. eigenvalues --  -38.43356 -38.43310  -2.20966  -2.20931  -2.20350
  Beta  occ. eigenvalues --   -2.20320  -2.19562  -2.19137  -2.19111  -1.14644
  Beta  occ. eigenvalues --   -1.14641  -1.14635  -1.14621  -1.14612  -1.14512
  Beta  occ. eigenvalues --   -1.14044  -1.14042  -1.14024  -1.14018  -1.14005
  Beta  occ. eigenvalues --   -1.13927  -1.13231  -1.13220  -1.13210  -1.12917
  Beta  occ. eigenvalues --   -1.12806  -1.12803  -1.12772  -1.12765  -1.12661
  Beta  occ. eigenvalues --   -0.15974  -0.13359  -0.12262
  Beta virt. eigenvalues --   -0.07331  -0.06312  -0.04991  -0.04489  -0.03556
  Beta virt. eigenvalues --   -0.02420  -0.02327  -0.01798  -0.01625  -0.01062
  Beta virt. eigenvalues --   -0.00528  -0.00159   0.00042   0.00232   0.00371

 Mulliken charges and spin densities:
               1          2
     1  Na  -0.737549   0.255699
     2  Na   1.893296   0.038335
     3  Na  -0.781119   0.375689
     4  Na   0.095993   0.034148
     5  Na  -0.221325   0.175713
     6  Na  -0.620843  -0.089368
     7  Na   0.371547   0.209783
 Sum of Mulliken charges =  -0.00000   1.00000

 Dipole moment (field-independent basis, Debye):
    X=             -2.8651    Y=             -0.4854    Z=             -0.1907  Tot=              2.9121
 Quadrupole moment (field-independent basis, Debye-Ang):
   XX=            -62.1680   YY=            -64.2755   ZZ=            -69.3463
   XY=             12.1349   XZ=             -1.6426   YZ=              0.3665

 Normal termination of Gaussian 16 at Tue Nov 28 22:08:33 2023.
