 Gaussian 16, Revision B.01,
 Gaussian 16:  ES64L-G16RevB.01 20-Dec-2017

 -------------------------
 #P B3LYP/6-311+g(d) force
 -------------------------

 -----
 DPGEN
 -----
 Symbolic Z-matrix:
 Charge =  0 Multiplicity = 2

                         Standard orientation:
 ---------------------------------------------------------------------
 Center     Atomic      Atomic             Coordinates (Angstroms)
 Number     Number       Type             X           Y           Z
 ---------------------------------------------------------------------
      1         11           0        0.086485   -1.892154   -1.283075
      2         11           0        1.363945    2.092092   -0.906425
      3         11           0       -1.860797   -1.551168    1.692495
      4         11           0        1.065495    0.424118    2.304694
      5         11           0       -2.452771   -0.255394   -1.463492
      6         11           0        3.146887   -1.125210   -0.447716
      7         11           0       -1.349245    2.307716    0.103518
 ---------------------------------------------------------------------

 SCF Done:  E(UB3LYP) =  -1136.12759905     A.U. after   19 cycles

 The electronic state is 2-A.
 Alpha  occ. eigenvalues --  -38.44840 -38.44597 -38.43872 -38.43755 -38.43523
 Alpha  occ. eigenvalues --  -38.43325 -38.42977  -2.20668  -2.20428  -2.19778
 Alpha  occ. eigenvalues --   -2.19629  -2.19341  -2.19219  -2.18884  -1.14342
 Alpha  occ. eigenvalues --   -1.14296  -1.14291  -1.14096  -1.14075  -1.14048
 Alpha  occ. eigenvalues --   -1.13506  -1.13433  -1.13387  -1.13379  -1.13274
 Alpha  occ. eigenvalues --   -1.13249  -1.13037  -1.13001  -1.12975  -1.12903
 Alpha  occ. eigenvalues --   -1.12867  -1.12821  -1.12569  -1.12522  -1.12513
 Alpha  occ. eigenvalues --   -0.18388  -0.12930  -0.12212  -0.12050
 Alpha virt. eigenvalues --   -0.05181  -0.05151  -0.04564  -0.03728  -0.03532
 Alpha virt. eigenvalues --   -0.03173  -0.01147  -0.00713  -0.00519   0.00108
 Alpha virt. eigenvalues --    0.00341   0.00410   0.00552   0.00684   0.00730

  Beta  occ. eigenvalues --  -38.44764 -38.44541 -38.43846 -38.43742 -38.43520
  Beta  occ. eigenvalues --  -38.43300 -38.42972  -2.20529  -2.20327  -2.19731
  Beta  occ. eigenvalues --   -2.19606  -2.19335  -2.19174  -2.18879  -1.14245
  Beta  occ. eigenvalues --   -1.14204  -1.14183  -1.14023  -1.14008  -1.13965
  Beta  occ. eigenvalues --   -1.13467  -1.13404  -1.13366  -1.13351  -1.13249
  Beta  occ. eigenvalues --   -1.13235  -1.13027  -1.12992  -1.12973  -1.12866
  Beta  occ. eigenvalues --   -1.12833  -1.12792  -1.12561  -1.12520  -1.12493
  Beta  occ. eigenvalues --   -0.17634  -0.12801  -0.11866
  Beta virt. eigenvalues --   -0.08118  -0.05097  -0.04553  -0.04377  -0.03525
  Beta virt. eigenvalues --   -0.02663  -0.02416  -0.01098  -0.00575  -0.00218
  Beta virt. eigenvalues --    0.00224   0.00377   0.00457   0.00730   0.00801

 Mulliken charges and spin densities:
               1          2
     1  Na  -0.338283   0.209796
     2  Na  -0.248702   0.054518
     3  Na  -0.139194   0.232253
     4  Na  -0.164670   0.340289
     5  Na   0.377816   0.007979
     6  Na   0.319452  -0.008409
     7  Na   0.193582   0.163574
 Sum of Mulliken charges =  -0.00000   1.00000

 Dipole moment (field-independent basis, Debye):
    X=             -0.0007    Y=             -0.1780    Z=              0.5237  Tot=              0.5531
 Quadrupole moment (field-independent basis, Debye-Ang):
   XX=            -60.9920   YY=            -73.3137   ZZ=            -63.7160
   XY=              1.0660   XZ=             -0.4269   YZ=             -1.9590

 Normal termination of Gaussian 16 at Sun Dec  3 22:42:22 2023.
