 Gaussian 16, Revision B.01,
 Gaussian 16:  ES64L-G16RevB.01 20-Dec-2017

 -------------------------
 #P B3LYP/6-311+g(d) force
 -------------------------

 -----
 DPGEN
 -----
 Symbolic Z-matrix:
 Charge =  0 Multiplicity = 2

                         Standard orientation:
 ---------------------------------------------------------------------
 Center     Atomic      Atomic             Coordinates (Angstroms)
 Number     Number       Type             X           Y           Z
 ---------------------------------------------------------------------
      1         11           0       -0.686658    1.108364   -0.740418
      2         11           0        2.866257    0.110368   -1.204546
      3         11           0        1.318268    3.401113    0.240328
      4         11           0        0.303139    0.042781    2.139357
      5         11           0       -1.563953   -2.390312   -0.229929
      6         11           0        2.001744   -2.791750    0.120360
      7         11           0       -4.238797    0.519438   -0.325152
 ---------------------------------------------------------------------

 SCF Done:  E(UB3LYP) =  -1136.12572527     A.U. after   19 cycles

 The electronic state is 2-A.
 Alpha  occ. eigenvalues --  -38.44582 -38.44289 -38.44200 -38.44156 -38.43952
 Alpha  occ. eigenvalues --  -38.43488 -38.43442  -2.20360  -2.20051  -2.20049
 Alpha  occ. eigenvalues --   -2.19956  -2.19778  -2.19353  -2.19303  -1.14064
 Alpha  occ. eigenvalues --   -1.14040  -1.13962  -1.13746  -1.13716  -1.13713
 Alpha  occ. eigenvalues --   -1.13681  -1.13664  -1.13651  -1.13637  -1.13605
 Alpha  occ. eigenvalues --   -1.13592  -1.13455  -1.13437  -1.13386  -1.13077
 Alpha  occ. eigenvalues --   -1.13040  -1.12976  -1.12969  -1.12942  -1.12935
 Alpha  occ. eigenvalues --   -0.17658  -0.12863  -0.12522  -0.10420
 Alpha virt. eigenvalues --   -0.06360  -0.05611  -0.04803  -0.03008  -0.02889
 Alpha virt. eigenvalues --   -0.02222  -0.02072  -0.01664  -0.00840  -0.00501
 Alpha virt. eigenvalues --   -0.00183   0.00164   0.00594   0.00619   0.00736

  Beta  occ. eigenvalues --  -38.44583 -38.44267 -38.44157 -38.44099 -38.43893
  Beta  occ. eigenvalues --  -38.43486 -38.43435  -2.20364  -2.20008  -2.19961
  Beta  occ. eigenvalues --   -2.19864  -2.19669  -2.19343  -2.19303  -1.14067
  Beta  occ. eigenvalues --   -1.14033  -1.13965  -1.13686  -1.13685  -1.13656
  Beta  occ. eigenvalues --   -1.13639  -1.13621  -1.13598  -1.13593  -1.13557
  Beta  occ. eigenvalues --   -1.13499  -1.13379  -1.13365  -1.13307  -1.13051
  Beta  occ. eigenvalues --   -1.13025  -1.12980  -1.12963  -1.12934  -1.12925
  Beta  occ. eigenvalues --   -0.17047  -0.12583  -0.12232
  Beta virt. eigenvalues --   -0.06877  -0.05986  -0.05505  -0.04642  -0.02403
  Beta virt. eigenvalues --   -0.02340  -0.01962  -0.01658  -0.01408  -0.00725
  Beta virt. eigenvalues --   -0.00409   0.00041   0.00259   0.00630   0.00717

 Mulliken charges and spin densities:
               1          2
     1  Na  -0.582038   0.291860
     2  Na  -0.022411   0.179748
     3  Na   0.276353  -0.050157
     4  Na   0.018071   0.353784
     5  Na   0.119119  -0.026304
     6  Na   0.029289   0.094492
     7  Na   0.161617   0.156577
 Sum of Mulliken charges =  -0.00000   1.00000

 Dipole moment (field-independent basis, Debye):
    X=             -0.2859    Y=              0.3238    Z=              0.6164  Tot=              0.7527
 Quadrupole moment (field-independent basis, Debye-Ang):
   XX=            -61.6853   YY=            -59.1299   ZZ=            -73.4496
   XY=              2.2870   XZ=              0.3564   YZ=              0.9882

 Normal termination of Gaussian 16 at Sat Dec  9 06:17:53 2023.
