 Gaussian 16, Revision B.01,
 Gaussian 16:  ES64L-G16RevB.01 20-Dec-2017

 -------------------------
 #P B3LYP/6-311+g(d) force
 -------------------------

 -----
 DPGEN
 -----
 Symbolic Z-matrix:
 Charge =  0 Multiplicity = 2

                         Standard orientation:
 ---------------------------------------------------------------------
 Center     Atomic      Atomic             Coordinates (Angstroms)
 Number     Number       Type             X           Y           Z
 ---------------------------------------------------------------------
      1         11           0       -3.820641    0.727160   -0.469946
      2         11           0        4.657799   -1.461677   -0.180188
      3         11           0        0.758723   -2.492282    0.145786
      4         11           0       -1.262320    0.108690    2.305003
      5         11           0       -2.510890   -2.566460   -0.990418
      6         11           0        2.681205    2.522633   -0.330373
      7         11           0       -0.503876    3.161935   -0.479864
 ---------------------------------------------------------------------

 SCF Done:  E(UB3LYP) =  -1136.10409902     A.U. after   27 cycles

 The electronic state is 2-A.
 Alpha  occ. eigenvalues --  -38.45282 -38.44938 -38.44862 -38.44816 -38.44650
 Alpha  occ. eigenvalues --  -38.44328 -38.44168  -2.20997  -2.20710  -2.20642
 Alpha  occ. eigenvalues --   -2.20563  -2.20435  -2.20078  -2.19937  -1.14671
 Alpha  occ. eigenvalues --   -1.14647  -1.14633  -1.14387  -1.14363  -1.14346
 Alpha  occ. eigenvalues --   -1.14321  -1.14290  -1.14273  -1.14247  -1.14236
 Alpha  occ. eigenvalues --   -1.14195  -1.14090  -1.14063  -1.14055  -1.13772
 Alpha  occ. eigenvalues --   -1.13755  -1.13700  -1.13617  -1.13605  -1.13570
 Alpha  occ. eigenvalues --   -0.16278  -0.13100  -0.12407  -0.10508
 Alpha virt. eigenvalues --   -0.07987  -0.06133  -0.04190  -0.03537  -0.03032
 Alpha virt. eigenvalues --   -0.02659  -0.02230  -0.02127  -0.01418  -0.00790
 Alpha virt. eigenvalues --   -0.00654  -0.00139   0.00072   0.00355   0.00585

  Beta  occ. eigenvalues --  -38.45263 -38.44902 -38.44838 -38.44816 -38.44550
  Beta  occ. eigenvalues --  -38.44324 -38.44168  -2.20960  -2.20645  -2.20597
  Beta  occ. eigenvalues --   -2.20562  -2.20251  -2.20072  -2.19937  -1.14646
  Beta  occ. eigenvalues --   -1.14621  -1.14610  -1.14340  -1.14321  -1.14294
  Beta  occ. eigenvalues --   -1.14289  -1.14254  -1.14247  -1.14234  -1.14233
  Beta  occ. eigenvalues --   -1.14194  -1.13963  -1.13940  -1.13925  -1.13768
  Beta  occ. eigenvalues --   -1.13743  -1.13694  -1.13618  -1.13600  -1.13572
  Beta  occ. eigenvalues --   -0.15693  -0.12800  -0.12299
  Beta virt. eigenvalues --   -0.07860  -0.06799  -0.05870  -0.03829  -0.03324
  Beta virt. eigenvalues --   -0.02590  -0.02349  -0.02037  -0.01581  -0.01226
  Beta virt. eigenvalues --   -0.00784  -0.00367  -0.00076   0.00309   0.00496

 Mulliken charges and spin densities:
               1          2
     1  Na  -0.080936   0.333056
     2  Na   0.375870   0.074098
     3  Na  -0.710453   0.038881
     4  Na   0.002149   0.481308
     5  Na   0.452956   0.101150
     6  Na  -0.050819   0.019204
     7  Na   0.011232  -0.047696
 Sum of Mulliken charges =  -0.00000   1.00000

 Dipole moment (field-independent basis, Debye):
    X=             -0.0324    Y=             -0.0249    Z=              0.0490  Tot=              0.0638
 Quadrupole moment (field-independent basis, Debye-Ang):
   XX=            -58.0468   YY=            -67.0519   ZZ=            -74.5123
   XY=             -2.0532   XZ=             -0.8353   YZ=              1.1606

 Normal termination of Gaussian 16 at Sun Dec  3 23:15:26 2023.
