 Gaussian 16, Revision B.01,
 Gaussian 16:  ES64L-G16RevB.01 20-Dec-2017

 -------------------------
 #P B3LYP/6-311+g(d) force
 -------------------------

 -----
 DPGEN
 -----
 Symbolic Z-matrix:
 Charge =  0 Multiplicity = 2

                         Standard orientation:
 ---------------------------------------------------------------------
 Center     Atomic      Atomic             Coordinates (Angstroms)
 Number     Number       Type             X           Y           Z
 ---------------------------------------------------------------------
      1         11           0       -1.387059   -0.845335    1.664009
      2         11           0        2.449256    1.576417   -1.158443
      3         11           0        1.684239    0.554079    1.736635
      4         11           0       -0.956510    1.980657    0.020593
      5         11           0       -3.972738   -0.092161   -0.789986
      6         11           0        2.476744   -1.938599   -0.480433
      7         11           0       -0.293933   -1.235058   -0.992375
 ---------------------------------------------------------------------

 SCF Done:  E(UB3LYP) =  -1136.12221906     A.U. after   25 cycles

 The electronic state is 2-A.
 Alpha  occ. eigenvalues --  -38.45216 -38.44120 -38.43773 -38.43732 -38.43451
 Alpha  occ. eigenvalues --  -38.43058 -38.42974  -2.21000  -2.20083  -2.19720
 Alpha  occ. eigenvalues --   -2.19599  -2.19444  -2.18955  -2.18865  -1.14671
 Alpha  occ. eigenvalues --   -1.14654  -1.14609  -1.13869  -1.13722  -1.13663
 Alpha  occ. eigenvalues --   -1.13427  -1.13399  -1.13335  -1.13266  -1.13231
 Alpha  occ. eigenvalues --   -1.13203  -1.13146  -1.13136  -1.13082  -1.12620
 Alpha  occ. eigenvalues --   -1.12594  -1.12588  -1.12568  -1.12555  -1.12444
 Alpha  occ. eigenvalues --   -0.19028  -0.13989  -0.11415  -0.11131
 Alpha virt. eigenvalues --   -0.06646  -0.04860  -0.04382  -0.03110  -0.02643
 Alpha virt. eigenvalues --   -0.02401  -0.02310  -0.00846  -0.00759   0.00007
 Alpha virt. eigenvalues --    0.00160   0.00323   0.00433   0.00728   0.00819

  Beta  occ. eigenvalues --  -38.45188 -38.44056 -38.43727 -38.43698 -38.43438
  Beta  occ. eigenvalues --  -38.43053 -38.42966  -2.20946  -2.19969  -2.19640
  Beta  occ. eigenvalues --   -2.19537  -2.19424  -2.18948  -2.18854  -1.14630
  Beta  occ. eigenvalues --   -1.14616  -1.14576  -1.13800  -1.13631  -1.13565
  Beta  occ. eigenvalues --   -1.13371  -1.13324  -1.13285  -1.13217  -1.13184
  Beta  occ. eigenvalues --   -1.13155  -1.13127  -1.13109  -1.13061  -1.12611
  Beta  occ. eigenvalues --   -1.12591  -1.12585  -1.12550  -1.12516  -1.12440
  Beta  occ. eigenvalues --   -0.18277  -0.13699  -0.10973
  Beta virt. eigenvalues --   -0.07498  -0.06355  -0.04635  -0.03966  -0.02969
  Beta virt. eigenvalues --   -0.02301  -0.01863  -0.01578  -0.00695  -0.00441
  Beta virt. eigenvalues --    0.00124   0.00234   0.00362   0.00546   0.00782

 Mulliken charges and spin densities:
               1          2
     1  Na  -0.037334   0.012099
     2  Na  -0.153856   0.142561
     3  Na   0.611978   0.169095
     4  Na  -0.693783   0.136549
     5  Na   0.722866   0.146902
     6  Na   0.062505   0.012364
     7  Na  -0.512377   0.380430
 Sum of Mulliken charges =  -0.00000   1.00000

 Dipole moment (field-independent basis, Debye):
    X=             -1.0744    Y=              0.1812    Z=              0.0403  Tot=              1.0903
 Quadrupole moment (field-independent basis, Debye-Ang):
   XX=            -47.5997   YY=            -77.9689   ZZ=            -66.6831
   XY=              0.3872   XZ=              1.8113   YZ=             -2.9888

 Normal termination of Gaussian 16 at Tue Dec  5 15:18:09 2023.
