 Gaussian 16, Revision B.01,
 Gaussian 16:  ES64L-G16RevB.01 20-Dec-2017

 -------------------------
 #P B3LYP/6-311+g(d) force
 -------------------------

 -----
 DPGEN
 -----
 Symbolic Z-matrix:
 Charge =  0 Multiplicity = 2

                         Standard orientation:
 ---------------------------------------------------------------------
 Center     Atomic      Atomic             Coordinates (Angstroms)
 Number     Number       Type             X           Y           Z
 ---------------------------------------------------------------------
      1         11           0       -2.411426   -2.265352   -0.730589
      2         11           0       -1.366365    2.809987   -0.869150
      3         11           0        3.626331   -0.635768   -0.604390
      4         11           0       -2.060307    0.473988    1.287558
      5         11           0        1.437519    1.916746    0.986919
      6         11           0        0.541514   -1.817994    1.595969
      7         11           0        0.232734   -0.481606   -1.666318
 ---------------------------------------------------------------------

 SCF Done:  E(UB3LYP) =  -1136.13623390     A.U. after   19 cycles

 The electronic state is 2-A.
 Alpha  occ. eigenvalues --  -38.43973 -38.43959 -38.43895 -38.43628 -38.43580
 Alpha  occ. eigenvalues --  -38.43508 -38.43226  -2.19802  -2.19755  -2.19718
 Alpha  occ. eigenvalues --   -2.19477  -2.19459  -2.19414  -2.19066  -1.13500
 Alpha  occ. eigenvalues --   -1.13459  -1.13430  -1.13419  -1.13412  -1.13401
 Alpha  occ. eigenvalues --   -1.13398  -1.13384  -1.13321  -1.13169  -1.13164
 Alpha  occ. eigenvalues --   -1.13152  -1.13131  -1.13099  -1.13090  -1.13064
 Alpha  occ. eigenvalues --   -1.13051  -1.13017  -1.12729  -1.12722  -1.12698
 Alpha  occ. eigenvalues --   -0.18224  -0.12745  -0.12227  -0.11068
 Alpha virt. eigenvalues --   -0.05617  -0.05209  -0.04532  -0.03290  -0.03132
 Alpha virt. eigenvalues --   -0.02625  -0.01606  -0.01115  -0.00655   0.00019
 Alpha virt. eigenvalues --    0.00211   0.00333   0.00567   0.00693   0.00749

  Beta  occ. eigenvalues --  -38.43969 -38.43906 -38.43881 -38.43616 -38.43552
  Beta  occ. eigenvalues --  -38.43445 -38.43216  -2.19749  -2.19707  -2.19694
  Beta  occ. eigenvalues --   -2.19441  -2.19427  -2.19299  -2.19048  -1.13435
  Beta  occ. eigenvalues --   -1.13417  -1.13414  -1.13395  -1.13385  -1.13374
  Beta  occ. eigenvalues --   -1.13361  -1.13334  -1.13310  -1.13143  -1.13122
  Beta  occ. eigenvalues --   -1.13119  -1.13091  -1.13077  -1.13041  -1.13013
  Beta  occ. eigenvalues --   -1.12971  -1.12937  -1.12718  -1.12703  -1.12683
  Beta  occ. eigenvalues --   -0.17463  -0.12577  -0.12054
  Beta virt. eigenvalues --   -0.07164  -0.05480  -0.05066  -0.04320  -0.02760
  Beta virt. eigenvalues --   -0.02592  -0.01715  -0.01490  -0.01046  -0.00276
  Beta virt. eigenvalues --   -0.00012   0.00279   0.00375   0.00694   0.00772

 Mulliken charges and spin densities:
               1          2
     1  Na   0.063174  -0.101945
     2  Na   0.160081  -0.142525
     3  Na   0.381864  -0.061742
     4  Na   0.312688   0.354627
     5  Na  -0.251582   0.087293
     6  Na  -0.297532   0.268966
     7  Na  -0.368693   0.595326
 Sum of Mulliken charges =  -0.00000   1.00000

 Dipole moment (field-independent basis, Debye):
    X=              0.2665    Y=             -0.2060    Z=              0.0840  Tot=              0.3472
 Quadrupole moment (field-independent basis, Debye-Ang):
   XX=            -57.6138   YY=            -66.1871   ZZ=            -69.5505
   XY=              0.5556   XZ=              0.9965   YZ=             -0.6482

 Normal termination of Gaussian 16 at Wed Nov 29 16:57:48 2023.
