 Gaussian 16, Revision B.01,
 Gaussian 16:  ES64L-G16RevB.01 20-Dec-2017

 -------------------------
 #P B3LYP/6-311+g(d) force
 -------------------------

 -----
 DPGEN
 -----
 Symbolic Z-matrix:
 Charge =  0 Multiplicity = 2

                         Standard orientation:
 ---------------------------------------------------------------------
 Center     Atomic      Atomic             Coordinates (Angstroms)
 Number     Number       Type             X           Y           Z
 ---------------------------------------------------------------------
      1         11           0        4.314300    0.657288    0.835889
      2         11           0       -5.445429   -1.895427   -0.621719
      3         11           0        0.965782   -0.703305    0.197032
      4         11           0       -3.175369   -0.707192    1.253357
      5         11           0        4.994104   -2.160724   -0.723508
      6         11           0       -2.382286    2.390780   -0.352592
      7         11           0        0.728896    2.418580   -0.588459
 ---------------------------------------------------------------------

 SCF Done:  E(UB3LYP) =  -1136.10892435     A.U. after   23 cycles

 The electronic state is 2-A.
 Alpha  occ. eigenvalues --  -38.45030 -38.44592 -38.44484 -38.44104 -38.44077
 Alpha  occ. eigenvalues --  -38.43831 -38.43445  -2.20817  -2.20356  -2.20319
 Alpha  occ. eigenvalues --   -2.19914  -2.19879  -2.19687  -2.19296  -1.14501
 Alpha  occ. eigenvalues --   -1.14477  -1.14460  -1.14026  -1.14019  -1.14014
 Alpha  occ. eigenvalues --   -1.13994  -1.13980  -1.13909  -1.13586  -1.13577
 Alpha  occ. eigenvalues --   -1.13540  -1.13530  -1.13528  -1.13497  -1.13374
 Alpha  occ. eigenvalues --   -1.13358  -1.13339  -1.12949  -1.12925  -1.12917
 Alpha  occ. eigenvalues --   -0.16472  -0.14190  -0.12131  -0.09948
 Alpha virt. eigenvalues --   -0.07224  -0.05845  -0.04281  -0.03554  -0.03254
 Alpha virt. eigenvalues --   -0.02643  -0.01739  -0.01704  -0.01091  -0.00577
 Alpha virt. eigenvalues --   -0.00394  -0.00235   0.00052   0.00201   0.00424

  Beta  occ. eigenvalues --  -38.45037 -38.44603 -38.44416 -38.44096 -38.44016
  Beta  occ. eigenvalues --  -38.43823 -38.43373  -2.20834  -2.20377  -2.20192
  Beta  occ. eigenvalues --   -2.19899  -2.19764  -2.19679  -2.19161  -1.14518
  Beta  occ. eigenvalues --   -1.14489  -1.14442  -1.14040  -1.14033  -1.14027
  Beta  occ. eigenvalues --   -1.13907  -1.13891  -1.13832  -1.13569  -1.13558
  Beta  occ. eigenvalues --   -1.13538  -1.13450  -1.13445  -1.13425  -1.13373
  Beta  occ. eigenvalues --   -1.13352  -1.13291  -1.12856  -1.12839  -1.12822
  Beta  occ. eigenvalues --   -0.15899  -0.13834  -0.11748
  Beta virt. eigenvalues --   -0.06972  -0.06543  -0.05740  -0.03849  -0.03317
  Beta virt. eigenvalues --   -0.02955  -0.02223  -0.01593  -0.01428  -0.00988
  Beta virt. eigenvalues --   -0.00445  -0.00159   0.00032   0.00204   0.00369

 Mulliken charges and spin densities:
               1          2
     1  Na   0.381860   0.069888
     2  Na   0.178266  -0.122562
     3  Na  -0.934806   0.085048
     4  Na  -0.138664   0.233745
     5  Na   0.306405   0.346562
     6  Na   0.121718   0.296156
     7  Na   0.085221   0.091164
 Sum of Mulliken charges =  -0.00000   1.00000

 Dipole moment (field-independent basis, Debye):
    X=              0.2518    Y=             -0.3202    Z=             -0.1409  Tot=              0.4310
 Quadrupole moment (field-independent basis, Debye-Ang):
   XX=            -67.0063   YY=            -68.2964   ZZ=            -68.2915
   XY=              9.9005   XZ=              5.2955   YZ=              5.3640

 Normal termination of Gaussian 16 at Sun Dec  3 23:29:40 2023.
