 Gaussian 16, Revision B.01,
 Gaussian 16:  ES64L-G16RevB.01 20-Dec-2017

 -------------------------
 #P B3LYP/6-311+g(d) force
 -------------------------

 -----
 DPGEN
 -----
 Symbolic Z-matrix:
 Charge =  0 Multiplicity = 2

                         Standard orientation:
 ---------------------------------------------------------------------
 Center     Atomic      Atomic             Coordinates (Angstroms)
 Number     Number       Type             X           Y           Z
 ---------------------------------------------------------------------
      1         11           0        2.878301    1.574058   -0.387348
      2         11           0       -1.959031   -1.000212    1.386307
      3         11           0       -3.995397   -0.956095   -0.853449
      4         11           0       -2.840079    1.599418    0.261299
      5         11           0        0.130296    0.947615   -0.022145
      6         11           0        1.818960   -1.255383   -1.253170
      7         11           0        3.966949   -0.909400    0.868505
 ---------------------------------------------------------------------

 SCF Done:  E(UB3LYP) =  -1136.08468955     A.U. after   28 cycles

 The electronic state is 2-A.
 Alpha  occ. eigenvalues --  -38.45190 -38.44671 -38.44575 -38.44411 -38.44068
 Alpha  occ. eigenvalues --  -38.44004 -38.41918  -2.21147  -2.20632  -2.20562
 Alpha  occ. eigenvalues --   -2.20414  -2.19965  -2.19901  -2.18003  -1.14886
 Alpha  occ. eigenvalues --   -1.14816  -1.14773  -1.14357  -1.14307  -1.14264
 Alpha  occ. eigenvalues --   -1.14244  -1.14235  -1.14172  -1.14114  -1.14089
 Alpha  occ. eigenvalues --   -1.14024  -1.13613  -1.13607  -1.13592  -1.13563
 Alpha  occ. eigenvalues --   -1.13554  -1.13522  -1.11737  -1.11640  -1.11623
 Alpha  occ. eigenvalues --   -0.18673  -0.15982  -0.10566  -0.10388
 Alpha virt. eigenvalues --   -0.07189  -0.06227  -0.04590  -0.03551  -0.02728
 Alpha virt. eigenvalues --   -0.01777  -0.01468  -0.01105  -0.01021  -0.00670
 Alpha virt. eigenvalues --   -0.00247   0.00169   0.00344   0.00540   0.00579

  Beta  occ. eigenvalues --  -38.45172 -38.44630 -38.44545 -38.44366 -38.44053
  Beta  occ. eigenvalues --  -38.43988 -38.41897  -2.21116  -2.20559  -2.20507
  Beta  occ. eigenvalues --   -2.20331  -2.19940  -2.19871  -2.17972  -1.14865
  Beta  occ. eigenvalues --   -1.14799  -1.14721  -1.14313  -1.14263  -1.14210
  Beta  occ. eigenvalues --   -1.14195  -1.14182  -1.14123  -1.14058  -1.14023
  Beta  occ. eigenvalues --   -1.13965  -1.13594  -1.13587  -1.13559  -1.13546
  Beta  occ. eigenvalues --   -1.13529  -1.13492  -1.11727  -1.11617  -1.11549
  Beta  occ. eigenvalues --   -0.18040  -0.15620  -0.10346
  Beta virt. eigenvalues --   -0.06898  -0.06759  -0.05772  -0.04473  -0.03124
  Beta virt. eigenvalues --   -0.02484  -0.01385  -0.01123  -0.00943  -0.00609
  Beta virt. eigenvalues --   -0.00411   0.00061   0.00224   0.00399   0.00564

 Mulliken charges and spin densities:
               1          2
     1  Na  -0.029736   0.365618
     2  Na   0.454599   0.064411
     3  Na   0.127086   0.177200
     4  Na   0.005006   0.402727
     5  Na  -0.984945  -0.358646
     6  Na   0.268183   0.184483
     7  Na   0.159808   0.164207
 Sum of Mulliken charges =  -0.00000   1.00000

 Dipole moment (field-independent basis, Debye):
    X=             -0.2549    Y=             -0.2721    Z=              0.1354  Tot=              0.3967
 Quadrupole moment (field-independent basis, Debye-Ang):
   XX=            -71.5599   YY=            -74.8284   ZZ=            -59.7759
   XY=             -0.9299   XZ=              1.5867   YZ=             -0.7729

 Normal termination of Gaussian 16 at Fri Dec  8 19:59:03 2023.
