 Gaussian 16, Revision B.01,
 Gaussian 16:  ES64L-G16RevB.01 20-Dec-2017

 -------------------------
 #P B3LYP/6-311+g(d) force
 -------------------------

 -----
 DPGEN
 -----
 Symbolic Z-matrix:
 Charge =  0 Multiplicity = 2

                         Standard orientation:
 ---------------------------------------------------------------------
 Center     Atomic      Atomic             Coordinates (Angstroms)
 Number     Number       Type             X           Y           Z
 ---------------------------------------------------------------------
      1         11           0        0.228074    2.705230   -0.523357
      2         11           0       -5.755793    0.059918   -0.007814
      3         11           0       -2.884920    0.598699    0.876644
      4         11           0       -2.784940   -2.181631   -0.442672
      5         11           0        0.317765   -0.379374    0.108518
      6         11           0        3.871491   -0.359118   -0.451240
      7         11           0        7.008322   -0.443724    0.439921
 ---------------------------------------------------------------------

 SCF Done:  E(UB3LYP) =  -1136.11443761     A.U. after   21 cycles

 The electronic state is 2-A.
 Alpha  occ. eigenvalues --  -38.44677 -38.44568 -38.44492 -38.44369 -38.43875
 Alpha  occ. eigenvalues --  -38.43695 -38.43557  -2.20547  -2.20497  -2.20305
 Alpha  occ. eigenvalues --   -2.20210  -2.19636  -2.19588  -2.19349  -1.14320
 Alpha  occ. eigenvalues --   -1.14214  -1.14199  -1.14149  -1.14142  -1.14091
 Alpha  occ. eigenvalues --   -1.13964  -1.13953  -1.13937  -1.13860  -1.13852
 Alpha  occ. eigenvalues --   -1.13809  -1.13302  -1.13301  -1.13295  -1.13272
 Alpha  occ. eigenvalues --   -1.13258  -1.13223  -1.13027  -1.13019  -1.12957
 Alpha  occ. eigenvalues --   -0.17388  -0.13984  -0.11894  -0.11196
 Alpha virt. eigenvalues --   -0.06794  -0.05883  -0.04149  -0.03561  -0.02992
 Alpha virt. eigenvalues --   -0.02538  -0.01838  -0.01665  -0.01375  -0.00814
 Alpha virt. eigenvalues --   -0.00303  -0.00149   0.00054   0.00289   0.00585

  Beta  occ. eigenvalues --  -38.44607 -38.44549 -38.44445 -38.44323 -38.43886
  Beta  occ. eigenvalues --  -38.43676 -38.43553  -2.20471  -2.20418  -2.20217
  Beta  occ. eigenvalues --   -2.20125  -2.19657  -2.19558  -2.19340  -1.14257
  Beta  occ. eigenvalues --   -1.14171  -1.14126  -1.14108  -1.14055  -1.14016
  Beta  occ. eigenvalues --   -1.13910  -1.13894  -1.13873  -1.13796  -1.13794
  Beta  occ. eigenvalues --   -1.13760  -1.13316  -1.13315  -1.13307  -1.13258
  Beta  occ. eigenvalues --   -1.13241  -1.13157  -1.13020  -1.13012  -1.12960
  Beta  occ. eigenvalues --   -0.16636  -0.13811  -0.11749
  Beta virt. eigenvalues --   -0.07384  -0.06634  -0.05361  -0.03832  -0.03356
  Beta virt. eigenvalues --   -0.02409  -0.02380  -0.01595  -0.01556  -0.00874
  Beta virt. eigenvalues --   -0.00737  -0.00062   0.00129   0.00220   0.00409

 Mulliken charges and spin densities:
               1          2
     1  Na   0.440800   0.245909
     2  Na   0.144361   0.179993
     3  Na   0.578661   0.212780
     4  Na   0.469562   0.163158
     5  Na  -1.404899   0.249629
     6  Na  -0.408654  -0.004637
     7  Na   0.180169  -0.046831
 Sum of Mulliken charges =  -0.00000   1.00000

 Dipole moment (field-independent basis, Debye):
    X=             -1.9904    Y=              0.2688    Z=             -0.3660  Tot=              2.0416
 Quadrupole moment (field-independent basis, Debye-Ang):
   XX=            -58.2784   YY=            -66.9012   ZZ=            -70.6484
   XY=              4.2507   XZ=              4.3340   YZ=              0.1341

 Normal termination of Gaussian 16 at Tue Nov 28 19:43:45 2023.
