 Gaussian 16, Revision B.01,
 Gaussian 16:  ES64L-G16RevB.01 20-Dec-2017

 -------------------------
 #P B3LYP/6-311+g(d) force
 -------------------------

 -----
 DPGEN
 -----
 Symbolic Z-matrix:
 Charge =  0 Multiplicity = 2

                         Standard orientation:
 ---------------------------------------------------------------------
 Center     Atomic      Atomic             Coordinates (Angstroms)
 Number     Number       Type             X           Y           Z
 ---------------------------------------------------------------------
      1         11           0        3.670541    1.071723    0.000229
      2         11           0        0.599358   -0.344758    2.286084
      3         11           0        1.988379   -2.356212   -0.656575
      4         11           0       -2.748987   -1.041296    0.936273
      5         11           0       -3.692536    1.094876   -0.483237
      6         11           0       -0.526638   -0.824652   -1.781168
      7         11           0        0.709881    2.400320   -0.301606
 ---------------------------------------------------------------------

 SCF Done:  E(UB3LYP) =  -1136.11269141     A.U. after   24 cycles

 The electronic state is 2-A.
 Alpha  occ. eigenvalues --  -38.45000 -38.44973 -38.44771 -38.44606 -38.43924
 Alpha  occ. eigenvalues --  -38.43643 -38.43021  -2.20857  -2.20756  -2.20668
 Alpha  occ. eigenvalues --   -2.20424  -2.19793  -2.19450  -2.18845  -1.14812
 Alpha  occ. eigenvalues --   -1.14478  -1.14466  -1.14431  -1.14408  -1.14398
 Alpha  occ. eigenvalues --   -1.14294  -1.14287  -1.14208  -1.14095  -1.14045
 Alpha  occ. eigenvalues --   -1.14037  -1.13469  -1.13450  -1.13419  -1.13132
 Alpha  occ. eigenvalues --   -1.13122  -1.13072  -1.12529  -1.12494  -1.12486
 Alpha  occ. eigenvalues --   -0.17877  -0.13989  -0.11302  -0.11171
 Alpha virt. eigenvalues --   -0.07183  -0.05355  -0.04398  -0.03301  -0.02986
 Alpha virt. eigenvalues --   -0.02731  -0.02475  -0.01514  -0.00584  -0.00275
 Alpha virt. eigenvalues --    0.00025   0.00157   0.00258   0.00671   0.00732

  Beta  occ. eigenvalues --  -38.44997 -38.44977 -38.44751 -38.44506 -38.43872
  Beta  occ. eigenvalues --  -38.43635 -38.43017  -2.20851  -2.20762  -2.20635
  Beta  occ. eigenvalues --   -2.20240  -2.19699  -2.19436  -2.18841  -1.14803
  Beta  occ. eigenvalues --   -1.14469  -1.14456  -1.14430  -1.14412  -1.14404
  Beta  occ. eigenvalues --   -1.14270  -1.14253  -1.14183  -1.13971  -1.13922
  Beta  occ. eigenvalues --   -1.13899  -1.13407  -1.13383  -1.13346  -1.13122
  Beta  occ. eigenvalues --   -1.13100  -1.13064  -1.12516  -1.12493  -1.12478
  Beta  occ. eigenvalues --   -0.17167  -0.13903  -0.10978
  Beta virt. eigenvalues --   -0.07346  -0.06991  -0.05206  -0.03845  -0.03110
  Beta virt. eigenvalues --   -0.02586  -0.02034  -0.01945  -0.01403  -0.00349
  Beta virt. eigenvalues --   -0.00150   0.00038   0.00192   0.00441   0.00752

 Mulliken charges and spin densities:
               1          2
     1  Na   0.211034  -0.038114
     2  Na   0.039581   0.504662
     3  Na  -0.191080   0.027254
     4  Na  -0.065986   0.095606
     5  Na   0.256203   0.020957
     6  Na   0.094323   0.347632
     7  Na  -0.344074   0.042003
 Sum of Mulliken charges =  -0.00000   1.00000

 Dipole moment (field-independent basis, Debye):
    X=             -0.1007    Y=              0.1862    Z=              0.1484  Tot=              0.2585
 Quadrupole moment (field-independent basis, Debye-Ang):
   XX=            -49.2260   YY=            -76.4366   ZZ=            -71.9115
   XY=             -3.7707   XZ=              1.2867   YZ=             -3.3200

 Normal termination of Gaussian 16 at Tue Dec  5 23:40:50 2023.
