 Gaussian 16, Revision B.01,
 Gaussian 16:  ES64L-G16RevB.01 20-Dec-2017

 -------------------------
 #P B3LYP/6-311+g(d) force
 -------------------------

 -----
 DPGEN
 -----
 Symbolic Z-matrix:
 Charge =  0 Multiplicity = 2

                         Standard orientation:
 ---------------------------------------------------------------------
 Center     Atomic      Atomic             Coordinates (Angstroms)
 Number     Number       Type             X           Y           Z
 ---------------------------------------------------------------------
      1         11           0       -4.180627   -1.305933   -0.781298
      2         11           0       -1.233583   -0.459576    1.719260
      3         11           0        1.636780   -2.122568    0.747862
      4         11           0        1.770218    1.569895    0.340184
      5         11           0       -0.350719   -0.275055   -1.273805
      6         11           0       -1.544498    2.854420    0.088688
      7         11           0        3.902429   -0.261182   -0.840892
 ---------------------------------------------------------------------

 SCF Done:  E(UB3LYP) =  -1136.12072754     A.U. after   23 cycles

 The electronic state is 2-A.
 Alpha  occ. eigenvalues --  -38.45107 -38.44215 -38.44126 -38.43824 -38.43508
 Alpha  occ. eigenvalues --  -38.43447 -38.43347  -2.21012  -2.19998  -2.19989
 Alpha  occ. eigenvalues --   -2.19719  -2.19396  -2.19270  -2.19252  -1.14756
 Alpha  occ. eigenvalues --   -1.14645  -1.14640  -1.13698  -1.13645  -1.13638
 Alpha  occ. eigenvalues --   -1.13634  -1.13621  -1.13590  -1.13431  -1.13357
 Alpha  occ. eigenvalues --   -1.13328  -1.13077  -1.13063  -1.13009  -1.12985
 Alpha  occ. eigenvalues --   -1.12944  -1.12932  -1.12904  -1.12902  -1.12855
 Alpha  occ. eigenvalues --   -0.18418  -0.13832  -0.11560  -0.10767
 Alpha virt. eigenvalues --   -0.06757  -0.05451  -0.04536  -0.03176  -0.02833
 Alpha virt. eigenvalues --   -0.02125  -0.01877  -0.01486  -0.01014  -0.00417
 Alpha virt. eigenvalues --   -0.00076   0.00049   0.00341   0.00558   0.00698

  Beta  occ. eigenvalues --  -38.45109 -38.44129 -38.44086 -38.43780 -38.43478
  Beta  occ. eigenvalues --  -38.43449 -38.43344  -2.21018  -2.19925  -2.19829
  Beta  occ. eigenvalues --   -2.19643  -2.19344  -2.19270  -2.19257  -1.14735
  Beta  occ. eigenvalues --   -1.14653  -1.14650  -1.13650  -1.13584  -1.13574
  Beta  occ. eigenvalues --   -1.13534  -1.13523  -1.13487  -1.13380  -1.13280
  Beta  occ. eigenvalues --   -1.13275  -1.13049  -1.13021  -1.12989  -1.12956
  Beta  occ. eigenvalues --   -1.12931  -1.12916  -1.12910  -1.12903  -1.12851
  Beta  occ. eigenvalues --   -0.17923  -0.13343  -0.11226
  Beta virt. eigenvalues --   -0.07184  -0.06475  -0.05354  -0.03991  -0.02966
  Beta virt. eigenvalues --   -0.02503  -0.01803  -0.01476  -0.01304  -0.00611
  Beta virt. eigenvalues --   -0.00168   0.00049   0.00147   0.00479   0.00659

 Mulliken charges and spin densities:
               1          2
     1  Na  -0.131566   0.505569
     2  Na   0.327437   0.054371
     3  Na  -0.130037   0.180087
     4  Na  -0.393563   0.076991
     5  Na  -0.427972  -0.038235
     6  Na  -0.068328  -0.009809
     7  Na   0.824030   0.231026
 Sum of Mulliken charges =  -0.00000   1.00000

 Dipole moment (field-independent basis, Debye):
    X=              0.3684    Y=              0.0042    Z=              0.3125  Tot=              0.4831
 Quadrupole moment (field-independent basis, Debye-Ang):
   XX=            -59.9323   YY=            -72.4113   ZZ=            -66.7038
   XY=             -5.9028   XZ=             -2.2961   YZ=              1.4357

 Normal termination of Gaussian 16 at Tue Dec  5 14:52:57 2023.
