 Gaussian 16, Revision B.01,
 Gaussian 16:  ES64L-G16RevB.01 20-Dec-2017

 -------------------------
 #P B3LYP/6-311+g(d) force
 -------------------------

 -----
 DPGEN
 -----
 Symbolic Z-matrix:
 Charge =  0 Multiplicity = 2

                         Standard orientation:
 ---------------------------------------------------------------------
 Center     Atomic      Atomic             Coordinates (Angstroms)
 Number     Number       Type             X           Y           Z
 ---------------------------------------------------------------------
      1         11           0       -2.301712   -1.772638    1.468466
      2         11           0       -1.192770    0.938484   -0.560017
      3         11           0        2.470342    0.862330    1.090944
      4         11           0        0.838131   -1.844316   -0.631275
      5         11           0        4.077115   -1.509061   -0.597690
      6         11           0        0.245805    3.733644   -0.046601
      7         11           0       -4.136910   -0.408442   -0.723827
 ---------------------------------------------------------------------

 SCF Done:  E(UB3LYP) =  -1136.12087809     A.U. after   23 cycles

 The electronic state is 2-A.
 Alpha  occ. eigenvalues --  -38.44972 -38.44822 -38.43838 -38.43575 -38.43465
 Alpha  occ. eigenvalues --  -38.43390 -38.43202  -2.20779  -2.20654  -2.19713
 Alpha  occ. eigenvalues --   -2.19498  -2.19349  -2.19244  -2.19007  -1.14482
 Alpha  occ. eigenvalues --   -1.14458  -1.14381  -1.14335  -1.14319  -1.14288
 Alpha  occ. eigenvalues --   -1.13418  -1.13381  -1.13324  -1.13211  -1.13189
 Alpha  occ. eigenvalues --   -1.13140  -1.12995  -1.12974  -1.12959  -1.12899
 Alpha  occ. eigenvalues --   -1.12888  -1.12871  -1.12681  -1.12667  -1.12636
 Alpha  occ. eigenvalues --   -0.17496  -0.14268  -0.12200  -0.10006
 Alpha virt. eigenvalues --   -0.06882  -0.05408  -0.04403  -0.03513  -0.03062
 Alpha virt. eigenvalues --   -0.02319  -0.01509  -0.01264  -0.00917  -0.00430
 Alpha virt. eigenvalues --   -0.00313  -0.00183   0.00271   0.00588   0.00646

  Beta  occ. eigenvalues --  -38.44962 -38.44807 -38.43803 -38.43559 -38.43387
  Beta  occ. eigenvalues --  -38.43347 -38.43206  -2.20763  -2.20634  -2.19651
  Beta  occ. eigenvalues --   -2.19476  -2.19203  -2.19164  -2.19015  -1.14465
  Beta  occ. eigenvalues --   -1.14447  -1.14357  -1.14323  -1.14301  -1.14240
  Beta  occ. eigenvalues --   -1.13376  -1.13338  -1.13264  -1.13197  -1.13130
  Beta  occ. eigenvalues --   -1.13127  -1.12896  -1.12879  -1.12865  -1.12839
  Beta  occ. eigenvalues --   -1.12833  -1.12824  -1.12685  -1.12672  -1.12640
  Beta  occ. eigenvalues --   -0.16885  -0.13725  -0.12068
  Beta virt. eigenvalues --   -0.06723  -0.06378  -0.05229  -0.04072  -0.03163
  Beta virt. eigenvalues --   -0.02590  -0.02229  -0.01398  -0.01053  -0.00349
  Beta virt. eigenvalues --   -0.00337   0.00033   0.00173   0.00349   0.00644

 Mulliken charges and spin densities:
               1          2
     1  Na   0.475598   0.149671
     2  Na  -1.474250   0.131163
     3  Na  -0.110520   0.162511
     4  Na  -0.504748  -0.123806
     5  Na   0.524653   0.345243
     6  Na   0.782233  -0.010936
     7  Na   0.307033   0.346153
 Sum of Mulliken charges =  -0.00000   1.00000

 Dipole moment (field-independent basis, Debye):
    X=              0.3558    Y=             -0.6661    Z=              0.8796  Tot=              1.1593
 Quadrupole moment (field-independent basis, Debye-Ang):
   XX=            -71.9403   YY=            -66.9354   ZZ=            -62.9354
   XY=              3.6552   XZ=             -1.3143   YZ=              0.2737

 Normal termination of Gaussian 16 at Tue Nov 28 22:58:30 2023.
