 Gaussian 16, Revision B.01,
 Gaussian 16:  ES64L-G16RevB.01 20-Dec-2017

 -------------------------
 #P B3LYP/6-311+g(d) force
 -------------------------

 -----
 DPGEN
 -----
 Symbolic Z-matrix:
 Charge =  0 Multiplicity = 2

                         Standard orientation:
 ---------------------------------------------------------------------
 Center     Atomic      Atomic             Coordinates (Angstroms)
 Number     Number       Type             X           Y           Z
 ---------------------------------------------------------------------
      1         11           0       -0.095421   -0.471351   -1.751836
      2         11           0        2.225092   -2.237250   -0.070265
      3         11           0        2.813496    1.068319   -0.170482
      4         11           0        0.135775    2.750910    0.245717
      5         11           0       -0.121652   -0.103776    1.918589
      6         11           0       -2.770340    1.132455   -0.502790
      7         11           0       -2.186949   -2.139307    0.331067
 ---------------------------------------------------------------------

 SCF Done:  E(UB3LYP) =  -1136.13760856     A.U. after   19 cycles

 The electronic state is 2-A.
 Alpha  occ. eigenvalues --  -38.43888 -38.43878 -38.43829 -38.43748 -38.43498
 Alpha  occ. eigenvalues --  -38.43408 -38.42806  -2.19754  -2.19743  -2.19684
 Alpha  occ. eigenvalues --   -2.19577  -2.19429  -2.19352  -2.18699  -1.13443
 Alpha  occ. eigenvalues --   -1.13426  -1.13415  -1.13407  -1.13402  -1.13398
 Alpha  occ. eigenvalues --   -1.13369  -1.13345  -1.13303  -1.13257  -1.13235
 Alpha  occ. eigenvalues --   -1.13211  -1.13102  -1.13060  -1.13044  -1.13025
 Alpha  occ. eigenvalues --   -1.12984  -1.12970  -1.12378  -1.12358  -1.12340
 Alpha  occ. eigenvalues --   -0.18812  -0.13301  -0.12311  -0.10899
 Alpha virt. eigenvalues --   -0.05569  -0.05435  -0.04341  -0.03375  -0.02872
 Alpha virt. eigenvalues --   -0.02607  -0.01518  -0.01170  -0.00337  -0.00143
 Alpha virt. eigenvalues --    0.00026   0.00358   0.00793   0.00850   0.00921

  Beta  occ. eigenvalues --  -38.43876 -38.43873 -38.43818 -38.43746 -38.43409
  Beta  occ. eigenvalues --  -38.43342 -38.42800  -2.19741  -2.19729  -2.19668
  Beta  occ. eigenvalues --   -2.19577  -2.19265  -2.19230  -2.18692  -1.13427
  Beta  occ. eigenvalues --   -1.13422  -1.13406  -1.13395  -1.13379  -1.13375
  Beta  occ. eigenvalues --   -1.13347  -1.13318  -1.13292  -1.13247  -1.13229
  Beta  occ. eigenvalues --   -1.13208  -1.12996  -1.12944  -1.12938  -1.12930
  Beta  occ. eigenvalues --   -1.12900  -1.12878  -1.12373  -1.12353  -1.12316
  Beta  occ. eigenvalues --   -0.18082  -0.13050  -0.12063
  Beta virt. eigenvalues --   -0.06985  -0.05565  -0.05354  -0.04323  -0.02586
  Beta virt. eigenvalues --   -0.02119  -0.01575  -0.01398  -0.01081  -0.00390
  Beta virt. eigenvalues --   -0.00138   0.00132   0.00390   0.00838   0.00876

 Mulliken charges and spin densities:
               1          2
     1  Na  -0.224647   0.453092
     2  Na   0.152539  -0.084868
     3  Na  -0.020717  -0.026370
     4  Na   0.098984  -0.000054
     5  Na  -0.297196   0.649270
     6  Na   0.149452   0.072639
     7  Na   0.141586  -0.063709
 Sum of Mulliken charges =  -0.00000   1.00000

 Dipole moment (field-independent basis, Debye):
    X=             -0.0710    Y=             -0.3792    Z=             -0.0191  Tot=              0.3862
 Quadrupole moment (field-independent basis, Debye-Ang):
   XX=            -56.4132   YY=            -64.0483   ZZ=            -73.6331
   XY=             -0.1111   XZ=              0.2808   YZ=             -1.1425

 Normal termination of Gaussian 16 at Thu Dec  7 21:09:24 2023.
