 Gaussian 16, Revision B.01,
 Gaussian 16:  ES64L-G16RevB.01 20-Dec-2017

 -------------------------
 #P B3LYP/6-311+g(d) force
 -------------------------

 -----
 DPGEN
 -----
 Symbolic Z-matrix:
 Charge =  0 Multiplicity = 2

                         Standard orientation:
 ---------------------------------------------------------------------
 Center     Atomic      Atomic             Coordinates (Angstroms)
 Number     Number       Type             X           Y           Z
 ---------------------------------------------------------------------
      1         11           0       -3.359360   -0.244335    1.555036
      2         11           0       -3.101016    2.147512   -0.982599
      3         11           0        3.332633   -0.681028   -1.044275
      4         11           0        2.918557    2.936528    0.440749
      5         11           0       -0.039756    0.630809    0.153381
      6         11           0       -1.792909   -2.436228   -1.206465
      7         11           0        2.041852   -2.353257    1.084172
 ---------------------------------------------------------------------

 SCF Done:  E(UB3LYP) =  -1136.10801635     A.U. after   25 cycles

 The electronic state is 2-A.
 Alpha  occ. eigenvalues --  -38.45833 -38.44543 -38.44491 -38.44072 -38.43738
 Alpha  occ. eigenvalues --  -38.43631 -38.43276  -2.21606  -2.20335  -2.20331
 Alpha  occ. eigenvalues --   -2.19904  -2.19530  -2.19471  -2.19051  -1.15304
 Alpha  occ. eigenvalues --   -1.15243  -1.15236  -1.14046  -1.14000  -1.13994
 Alpha  occ. eigenvalues --   -1.13989  -1.13956  -1.13934  -1.13665  -1.13551
 Alpha  occ. eigenvalues --   -1.13503  -1.13196  -1.13158  -1.13148  -1.13146
 Alpha  occ. eigenvalues --   -1.13124  -1.13081  -1.12716  -1.12703  -1.12668
 Alpha  occ. eigenvalues --   -0.16815  -0.14154  -0.11547  -0.09671
 Alpha virt. eigenvalues --   -0.06901  -0.06184  -0.04990  -0.03042  -0.02659
 Alpha virt. eigenvalues --   -0.02274  -0.01966  -0.01594  -0.01190  -0.00936
 Alpha virt. eigenvalues --   -0.00219  -0.00060   0.00090   0.00293   0.00391

  Beta  occ. eigenvalues --  -38.45828 -38.44510 -38.44463 -38.44078 -38.43662
  Beta  occ. eigenvalues --  -38.43599 -38.43230  -2.21601  -2.20282  -2.20273
  Beta  occ. eigenvalues --   -2.19913  -2.19416  -2.19389  -2.18964  -1.15303
  Beta  occ. eigenvalues --   -1.15243  -1.15208  -1.14003  -1.13965  -1.13952
  Beta  occ. eigenvalues --   -1.13949  -1.13914  -1.13886  -1.13669  -1.13569
  Beta  occ. eigenvalues --   -1.13510  -1.13102  -1.13099  -1.13088  -1.13065
  Beta  occ. eigenvalues --   -1.13054  -1.13037  -1.12656  -1.12643  -1.12611
  Beta  occ. eigenvalues --   -0.16585  -0.13547  -0.10786
  Beta virt. eigenvalues --   -0.06831  -0.06485  -0.06005  -0.04671  -0.02876
  Beta virt. eigenvalues --   -0.02430  -0.01985  -0.01628  -0.01310  -0.00950
  Beta virt. eigenvalues --   -0.00559  -0.00090   0.00114   0.00188   0.00375

 Mulliken charges and spin densities:
               1          2
     1  Na   0.937412  -0.030204
     2  Na   0.828194   0.224544
     3  Na   0.213897   0.203848
     4  Na  -0.104944   0.281424
     5  Na  -2.662425  -0.014602
     6  Na   0.467305   0.255056
     7  Na   0.320562   0.079933
 Sum of Mulliken charges =  -0.00000   1.00000

 Dipole moment (field-independent basis, Debye):
    X=             -1.3345    Y=             -0.3962    Z=              0.1992  Tot=              1.4063
 Quadrupole moment (field-independent basis, Debye-Ang):
   XX=            -63.1927   YY=            -79.5589   ZZ=            -59.1611
   XY=              2.1469   XZ=             -4.4138   YZ=             -3.5690

 Normal termination of Gaussian 16 at Sat Dec  9 06:25:02 2023.
