 Gaussian 16, Revision B.01,
 Gaussian 16:  ES64L-G16RevB.01 20-Dec-2017

 -------------------------
 #P B3LYP/6-311+g(d) force
 -------------------------

 -----
 DPGEN
 -----
 Symbolic Z-matrix:
 Charge =  0 Multiplicity = 2

                         Standard orientation:
 ---------------------------------------------------------------------
 Center     Atomic      Atomic             Coordinates (Angstroms)
 Number     Number       Type             X           Y           Z
 ---------------------------------------------------------------------
      1         11           0        4.156702   -1.843841   -0.339557
      2         11           0        2.879973    1.072595   -0.541796
      3         11           0       -2.458498   -2.315102    0.968322
      4         11           0        0.628272   -1.699668    0.210227
      5         11           0        0.833052    3.318518    1.005062
      6         11           0       -4.465931    0.174202   -0.806909
      7         11           0       -1.573570    1.293296   -0.495349
 ---------------------------------------------------------------------

 SCF Done:  E(UB3LYP) =  -1136.12605201     A.U. after   23 cycles

 The electronic state is 2-A.
 Alpha  occ. eigenvalues --  -38.44430 -38.44178 -38.44177 -38.44176 -38.43902
 Alpha  occ. eigenvalues --  -38.43569 -38.43289  -2.20258  -2.20033  -2.20029
 Alpha  occ. eigenvalues --   -2.20023  -2.19755  -2.19407  -2.19095  -1.13944
 Alpha  occ. eigenvalues --   -1.13921  -1.13871  -1.13786  -1.13728  -1.13727
 Alpha  occ. eigenvalues --   -1.13711  -1.13695  -1.13660  -1.13655  -1.13636
 Alpha  occ. eigenvalues --   -1.13571  -1.13449  -1.13430  -1.13361  -1.13069
 Alpha  occ. eigenvalues --   -1.13054  -1.13025  -1.12767  -1.12756  -1.12729
 Alpha  occ. eigenvalues --   -0.17061  -0.14363  -0.12401  -0.10924
 Alpha virt. eigenvalues --   -0.06347  -0.05185  -0.04164  -0.03865  -0.02748
 Alpha virt. eigenvalues --   -0.02686  -0.01934  -0.01202  -0.01114  -0.00480
 Alpha virt. eigenvalues --   -0.00417  -0.00016   0.00442   0.00622   0.00653

  Beta  occ. eigenvalues --  -38.44389 -38.44166 -38.44161 -38.44091 -38.43861
  Beta  occ. eigenvalues --  -38.43535 -38.43286  -2.20188  -2.20012  -2.20001
  Beta  occ. eigenvalues --   -2.19872  -2.19686  -2.19342  -2.19091  -1.13878
  Beta  occ. eigenvalues --   -1.13872  -1.13816  -1.13722  -1.13718  -1.13703
  Beta  occ. eigenvalues --   -1.13693  -1.13672  -1.13620  -1.13554  -1.13533
  Beta  occ. eigenvalues --   -1.13504  -1.13406  -1.13386  -1.13283  -1.13017
  Beta  occ. eigenvalues --   -1.13010  -1.12990  -1.12765  -1.12752  -1.12724
  Beta  occ. eigenvalues --   -0.16530  -0.13737  -0.11961
  Beta virt. eigenvalues --   -0.07323  -0.06237  -0.05089  -0.03669  -0.03598
  Beta virt. eigenvalues --   -0.02551  -0.02106  -0.01695  -0.01032  -0.00766
  Beta virt. eigenvalues --   -0.00214  -0.00147   0.00195   0.00573   0.00681

 Mulliken charges and spin densities:
               1          2
     1  Na   0.857249   0.462419
     2  Na  -0.108423   0.144722
     3  Na   1.722049  -0.466763
     4  Na  -2.289271   0.414399
     5  Na   1.016535  -0.004790
     6  Na  -0.196928   0.254482
     7  Na  -1.001211   0.195532
 Sum of Mulliken charges =  -0.00000   1.00000

 Dipole moment (field-independent basis, Debye):
    X=             -0.2794    Y=             -0.5258    Z=              0.4118  Tot=              0.7240
 Quadrupole moment (field-independent basis, Debye-Ang):
   XX=            -58.6781   YY=            -67.2124   ZZ=            -69.7429
   XY=              4.2356   XZ=             -1.5436   YZ=              0.2817

 Normal termination of Gaussian 16 at Sun Dec  3 23:44:03 2023.
