 Gaussian 16, Revision B.01,
 Gaussian 16:  ES64L-G16RevB.01 20-Dec-2017

 -------------------------
 #P B3LYP/6-311+g(d) force
 -------------------------

 -----
 DPGEN
 -----
 Symbolic Z-matrix:
 Charge =  0 Multiplicity = 2

                         Standard orientation:
 ---------------------------------------------------------------------
 Center     Atomic      Atomic             Coordinates (Angstroms)
 Number     Number       Type             X           Y           Z
 ---------------------------------------------------------------------
      1         11           0        1.305040    2.576801    0.286983
      2         11           0        0.166988    0.163635   -1.713484
      3         11           0        3.032516   -0.311791   -0.030283
      4         11           0       -2.371337    1.854114   -0.289709
      5         11           0       -2.746276   -1.487393    0.015334
      6         11           0       -0.239147   -0.228660    1.939560
      7         11           0        0.852216   -2.566706   -0.208402
 ---------------------------------------------------------------------

 SCF Done:  E(UB3LYP) =  -1136.13850339     A.U. after   19 cycles

 The electronic state is 2-A.
 Alpha  occ. eigenvalues --  -38.43940 -38.43898 -38.43766 -38.43454 -38.43227
 Alpha  occ. eigenvalues --  -38.43208 -38.43052  -2.19830  -2.19738  -2.19611
 Alpha  occ. eigenvalues --   -2.19381  -2.19221  -2.19067  -2.18971  -1.13519
 Alpha  occ. eigenvalues --   -1.13489  -1.13478  -1.13421  -1.13406  -1.13383
 Alpha  occ. eigenvalues --   -1.13297  -1.13268  -1.13236  -1.13060  -1.13011
 Alpha  occ. eigenvalues --   -1.12998  -1.12915  -1.12883  -1.12841  -1.12733
 Alpha  occ. eigenvalues --   -1.12728  -1.12699  -1.12646  -1.12627  -1.12590
 Alpha  occ. eigenvalues --   -0.18999  -0.13323  -0.12345  -0.10850
 Alpha virt. eigenvalues --   -0.05596  -0.05273  -0.04366  -0.03328  -0.02859
 Alpha virt. eigenvalues --   -0.02524  -0.01543  -0.01060  -0.00229  -0.00156
 Alpha virt. eigenvalues --   -0.00003   0.00366   0.00792   0.00902   0.00930

  Beta  occ. eigenvalues --  -38.43935 -38.43895 -38.43759 -38.43366 -38.43201
  Beta  occ. eigenvalues --  -38.43156 -38.43043  -2.19826  -2.19736  -2.19601
  Beta  occ. eigenvalues --   -2.19220  -2.19091  -2.19057  -2.18958  -1.13517
  Beta  occ. eigenvalues --   -1.13488  -1.13452  -1.13418  -1.13386  -1.13382
  Beta  occ. eigenvalues --   -1.13280  -1.13248  -1.13233  -1.12956  -1.12899
  Beta  occ. eigenvalues --   -1.12881  -1.12832  -1.12805  -1.12750  -1.12714
  Beta  occ. eigenvalues --   -1.12701  -1.12688  -1.12633  -1.12596  -1.12570
  Beta  occ. eigenvalues --   -0.18256  -0.13072  -0.12086
  Beta virt. eigenvalues --   -0.06926  -0.05543  -0.05274  -0.04350  -0.02515
  Beta virt. eigenvalues --   -0.02072  -0.01490  -0.01430  -0.00995  -0.00271
  Beta virt. eigenvalues --   -0.00207   0.00126   0.00387   0.00858   0.00892

 Mulliken charges and spin densities:
               1          2
     1  Na   0.077232  -0.043666
     2  Na  -0.316650   0.537212
     3  Na   0.197884  -0.015980
     4  Na   0.083635  -0.072375
     5  Na   0.175080  -0.083620
     6  Na  -0.493688   0.752220
     7  Na   0.276508  -0.073792
 Sum of Mulliken charges =  -0.00000   1.00000

 Dipole moment (field-independent basis, Debye):
    X=             -0.1975    Y=              0.0360    Z=              0.1018  Tot=              0.2251
 Quadrupole moment (field-independent basis, Debye-Ang):
   XX=            -55.4399   YY=            -64.4029   ZZ=            -73.7773
   XY=              0.3434   XZ=              0.8670   YZ=              0.7814

 Normal termination of Gaussian 16 at Fri Dec  8 04:22:05 2023.
