 Gaussian 16, Revision B.01,
 Gaussian 16:  ES64L-G16RevB.01 20-Dec-2017

 -------------------------
 #P B3LYP/6-311+g(d) force
 -------------------------

 -----
 DPGEN
 -----
 Symbolic Z-matrix:
 Charge =  0 Multiplicity = 2

                         Standard orientation:
 ---------------------------------------------------------------------
 Center     Atomic      Atomic             Coordinates (Angstroms)
 Number     Number       Type             X           Y           Z
 ---------------------------------------------------------------------
      1         11           0       -0.117199    0.026084   -1.636749
      2         11           0        2.558649   -2.155999   -0.027933
      3         11           0        2.772072    1.604308   -0.233822
      4         11           0       -0.740135    3.176483   -0.000288
      5         11           0       -3.324165    0.121030   -0.056560
      6         11           0       -1.303412   -2.917804   -0.026134
      7         11           0        0.154190    0.145899    1.981486
 ---------------------------------------------------------------------

 SCF Done:  E(UB3LYP) =  -1136.13595939     A.U. after   19 cycles

 The electronic state is 2-A.
 Alpha  occ. eigenvalues --  -38.44229 -38.44136 -38.44074 -38.43965 -38.43942
 Alpha  occ. eigenvalues --  -38.43363 -38.43237  -2.20012  -2.19932  -2.19846
 Alpha  occ. eigenvalues --   -2.19751  -2.19733  -2.19222  -2.19143  -1.13690
 Alpha  occ. eigenvalues --   -1.13671  -1.13652  -1.13612  -1.13597  -1.13565
 Alpha  occ. eigenvalues --   -1.13523  -1.13501  -1.13490  -1.13428  -1.13414
 Alpha  occ. eigenvalues --   -1.13413  -1.13398  -1.13390  -1.13365  -1.12905
 Alpha  occ. eigenvalues --   -1.12846  -1.12837  -1.12835  -1.12771  -1.12766
 Alpha  occ. eigenvalues --   -0.17917  -0.12697  -0.12372  -0.10172
 Alpha virt. eigenvalues --   -0.05710  -0.05604  -0.05261  -0.02913  -0.02759
 Alpha virt. eigenvalues --   -0.02270  -0.01626  -0.01493  -0.00869  -0.00861
 Alpha virt. eigenvalues --   -0.00014   0.00335   0.00747   0.00773   0.00789

  Beta  occ. eigenvalues --  -38.44228 -38.44130 -38.44073 -38.43962 -38.43940
  Beta  occ. eigenvalues --  -38.43270 -38.43176  -2.20012  -2.19923  -2.19848
  Beta  occ. eigenvalues --   -2.19750  -2.19732  -2.19050  -2.19032  -1.13676
  Beta  occ. eigenvalues --   -1.13668  -1.13654  -1.13596  -1.13580  -1.13562
  Beta  occ. eigenvalues --   -1.13508  -1.13502  -1.13494  -1.13415  -1.13403
  Beta  occ. eigenvalues --   -1.13403  -1.13392  -1.13389  -1.13366  -1.12794
  Beta  occ. eigenvalues --   -1.12747  -1.12725  -1.12713  -1.12691  -1.12684
  Beta  occ. eigenvalues --   -0.17212  -0.12494  -0.12184
  Beta virt. eigenvalues --   -0.06314  -0.05718  -0.05625  -0.05135  -0.02184
  Beta virt. eigenvalues --   -0.02047  -0.01525  -0.01402  -0.01236  -0.00931
  Beta virt. eigenvalues --   -0.00918   0.00138   0.00370   0.00766   0.00778

 Mulliken charges and spin densities:
               1          2
     1  Na  -0.017290   0.623465
     2  Na   0.011509  -0.097193
     3  Na   0.119586  -0.076699
     4  Na   0.076121  -0.113303
     5  Na   0.079612  -0.100402
     6  Na   0.024347  -0.107685
     7  Na  -0.293883   0.871817
 Sum of Mulliken charges =  -0.00000   1.00000

 Dipole moment (field-independent basis, Debye):
    X=             -0.0456    Y=              0.0564    Z=             -0.0007  Tot=              0.0725
 Quadrupole moment (field-independent basis, Debye-Ang):
   XX=            -55.8291   YY=            -57.9223   ZZ=            -77.7815
   XY=             -0.4105   XZ=             -0.6295   YZ=             -0.3206

 Normal termination of Gaussian 16 at Thu Dec  7 18:40:53 2023.
