 Gaussian 16, Revision B.01,
 Gaussian 16:  ES64L-G16RevB.01 20-Dec-2017

 -------------------------
 #P B3LYP/6-311+g(d) force
 -------------------------

 -----
 DPGEN
 -----
 Symbolic Z-matrix:
 Charge =  0 Multiplicity = 2

                         Standard orientation:
 ---------------------------------------------------------------------
 Center     Atomic      Atomic             Coordinates (Angstroms)
 Number     Number       Type             X           Y           Z
 ---------------------------------------------------------------------
      1         11           0        2.920581   -1.993416    0.450085
      2         11           0       -1.518996    2.177252   -0.918676
      3         11           0       -0.280851   -1.232399   -1.545462
      4         11           0       -3.432138   -1.311668   -0.186159
      5         11           0       -1.325368   -0.046994    2.190551
      6         11           0        2.109189    0.931389   -1.537846
      7         11           0        1.527584    1.475836    1.547507
 ---------------------------------------------------------------------

 SCF Done:  E(UB3LYP) =  -1136.12622930     A.U. after   24 cycles

 The electronic state is 2-A.
 Alpha  occ. eigenvalues --  -38.44794 -38.44478 -38.44281 -38.44009 -38.43836
 Alpha  occ. eigenvalues --  -38.43188 -38.42933  -2.20590  -2.20257  -2.20167
 Alpha  occ. eigenvalues --   -2.19857  -2.19648  -2.19047  -2.18798  -1.14270
 Alpha  occ. eigenvalues --   -1.14229  -1.14210  -1.13925  -1.13907  -1.13883
 Alpha  occ. eigenvalues --   -1.13868  -1.13843  -1.13755  -1.13538  -1.13494
 Alpha  occ. eigenvalues --   -1.13490  -1.13316  -1.13304  -1.13285  -1.12754
 Alpha  occ. eigenvalues --   -1.12729  -1.12651  -1.12492  -1.12472  -1.12408
 Alpha  occ. eigenvalues --   -0.18090  -0.13392  -0.11836  -0.11123
 Alpha virt. eigenvalues --   -0.05785  -0.05661  -0.04657  -0.03309  -0.03003
 Alpha virt. eigenvalues --   -0.02718  -0.01700  -0.01288  -0.00517  -0.00060
 Alpha virt. eigenvalues --    0.00227   0.00318   0.00342   0.00445   0.00678

  Beta  occ. eigenvalues --  -38.44745 -38.44447 -38.44252 -38.43957 -38.43832
  Beta  occ. eigenvalues --  -38.43173 -38.42920  -2.20502  -2.20197  -2.20116
  Beta  occ. eigenvalues --   -2.19760  -2.19641  -2.19023  -2.18776  -1.14201
  Beta  occ. eigenvalues --   -1.14163  -1.14151  -1.13882  -1.13863  -1.13848
  Beta  occ. eigenvalues --   -1.13825  -1.13813  -1.13703  -1.13472  -1.13431
  Beta  occ. eigenvalues --   -1.13421  -1.13303  -1.13297  -1.13282  -1.12730
  Beta  occ. eigenvalues --   -1.12694  -1.12641  -1.12464  -1.12457  -1.12388
  Beta  occ. eigenvalues --   -0.17327  -0.13184  -0.10934
  Beta virt. eigenvalues --   -0.08005  -0.05500  -0.05283  -0.04268  -0.03002
  Beta virt. eigenvalues --   -0.02460  -0.02101  -0.01616  -0.00959  -0.00295
  Beta virt. eigenvalues --    0.00066   0.00305   0.00367   0.00427   0.00543

 Mulliken charges and spin densities:
               1          2
     1  Na   0.019291   0.037800
     2  Na  -0.098544   0.191148
     3  Na  -0.594686   0.190695
     4  Na   0.280343  -0.123257
     5  Na  -0.141724   0.295293
     6  Na   0.640817   0.245795
     7  Na  -0.105497   0.162527
 Sum of Mulliken charges =  -0.00000   1.00000

 Dipole moment (field-independent basis, Debye):
    X=             -0.2046    Y=              0.1271    Z=             -0.0009  Tot=              0.2409
 Quadrupole moment (field-independent basis, Debye-Ang):
   XX=            -55.9063   YY=            -70.1199   ZZ=            -69.4787
   XY=             -1.4972   XZ=              1.3535   YZ=             -8.2787

 Normal termination of Gaussian 16 at Thu Dec  7 15:54:40 2023.
