 Gaussian 16, Revision B.01,
 Gaussian 16:  ES64L-G16RevB.01 20-Dec-2017

 -------------------------
 #P B3LYP/6-311+g(d) force
 -------------------------

 -----
 DPGEN
 -----
 Symbolic Z-matrix:
 Charge =  0 Multiplicity = 2

                         Standard orientation:
 ---------------------------------------------------------------------
 Center     Atomic      Atomic             Coordinates (Angstroms)
 Number     Number       Type             X           Y           Z
 ---------------------------------------------------------------------
      1         11           0        1.091696   -1.107091   -1.312503
      2         11           0       -1.595868    1.343193   -1.177279
      3         11           0       -3.401629    0.025624    1.467728
      4         11           0        0.210327    0.047235    1.642715
      5         11           0        1.693576    2.139993   -0.399753
      6         11           0       -2.100719   -1.588222   -0.932489
      7         11           0        4.102616   -0.860732    0.711582
 ---------------------------------------------------------------------

 SCF Done:  E(UB3LYP) =  -1136.11854315     A.U. after   49 cycles

 The electronic state is 2-A.
 Alpha  occ. eigenvalues --  -38.44893 -38.44194 -38.44166 -38.44139 -38.44061
 Alpha  occ. eigenvalues --  -38.43195 -38.43052  -2.20786  -2.20159  -2.20029
 Alpha  occ. eigenvalues --   -2.20002  -2.19884  -2.19075  -2.19010  -1.14507
 Alpha  occ. eigenvalues --   -1.14439  -1.14384  -1.13881  -1.13849  -1.13801
 Alpha  occ. eigenvalues --   -1.13708  -1.13683  -1.13676  -1.13647  -1.13629
 Alpha  occ. eigenvalues --   -1.13591  -1.13570  -1.13567  -1.13519  -1.12771
 Alpha  occ. eigenvalues --   -1.12735  -1.12714  -1.12685  -1.12662  -1.12594
 Alpha  occ. eigenvalues --   -0.19126  -0.14067  -0.11952  -0.10757
 Alpha virt. eigenvalues --   -0.06931  -0.04885  -0.04822  -0.03291  -0.02764
 Alpha virt. eigenvalues --   -0.02416  -0.02239  -0.01196  -0.00899  -0.00058
 Alpha virt. eigenvalues --    0.00104   0.00255   0.00401   0.00624   0.00762

  Beta  occ. eigenvalues --  -38.44841 -38.44181 -38.44140 -38.44140 -38.43993
  Beta  occ. eigenvalues --  -38.43177 -38.43024  -2.20692  -2.20066  -2.19983
  Beta  occ. eigenvalues --   -2.19963  -2.19882  -2.19042  -2.18962  -1.14436
  Beta  occ. eigenvalues --   -1.14366  -1.14308  -1.13823  -1.13769  -1.13732
  Beta  occ. eigenvalues --   -1.13645  -1.13637  -1.13630  -1.13629  -1.13621
  Beta  occ. eigenvalues --   -1.13594  -1.13576  -1.13538  -1.13484  -1.12742
  Beta  occ. eigenvalues --   -1.12715  -1.12669  -1.12663  -1.12603  -1.12578
  Beta  occ. eigenvalues --   -0.18232  -0.14095  -0.10549
  Beta virt. eigenvalues --   -0.07746  -0.06739  -0.04781  -0.04282  -0.02736
  Beta virt. eigenvalues --   -0.02644  -0.01752  -0.01643  -0.01012  -0.00606
  Beta virt. eigenvalues --   -0.00068   0.00111   0.00366   0.00450   0.00689

 Mulliken charges and spin densities:
               1          2
     1  Na  -0.283099   0.274351
     2  Na  -0.229111   0.393064
     3  Na   0.457822  -0.014001
     4  Na  -0.727322   0.641963
     5  Na   0.142078  -0.054120
     6  Na   0.317312   0.047068
     7  Na   0.322321  -0.288324
 Sum of Mulliken charges =  -0.00000   1.00000

 Dipole moment (field-independent basis, Debye):
    X=             -0.2040    Y=              0.5007    Z=              0.1016  Tot=              0.5501
 Quadrupole moment (field-independent basis, Debye-Ang):
   XX=            -54.9884   YY=            -73.4813   ZZ=            -69.4163
   XY=              1.6550   XZ=             -0.4096   YZ=              4.2728

 Normal termination of Gaussian 16 at Fri Dec  8 01:03:19 2023.
