 Gaussian 16, Revision B.01,
 Gaussian 16:  ES64L-G16RevB.01 20-Dec-2017

 -------------------------
 #P B3LYP/6-311+g(d) force
 -------------------------

 -----
 DPGEN
 -----
 Symbolic Z-matrix:
 Charge =  0 Multiplicity = 2

                         Standard orientation:
 ---------------------------------------------------------------------
 Center     Atomic      Atomic             Coordinates (Angstroms)
 Number     Number       Type             X           Y           Z
 ---------------------------------------------------------------------
      1         11           0        0.599924   -1.271628    0.641722
      2         11           0       -3.007741   -0.739197    1.828967
      3         11           0        3.837635   -0.531731   -0.141015
      4         11           0        6.850087    0.819564   -0.088031
      5         11           0       -1.233150    1.907184   -0.038565
      6         11           0       -4.649308    1.387152   -0.413411
      7         11           0       -2.397448   -1.571344   -1.789666
 ---------------------------------------------------------------------

 SCF Done:  E(UB3LYP) =  -1136.10584311     A.U. after   34 cycles

 The electronic state is 2-A.
 Alpha  occ. eigenvalues --  -38.47434 -38.45582 -38.45254 -38.43767 -38.43371
 Alpha  occ. eigenvalues --  -38.43110 -38.42799  -2.23209  -2.21409  -2.21062
 Alpha  occ. eigenvalues --   -2.19585  -2.19137  -2.18906  -2.18626  -1.16899
 Alpha  occ. eigenvalues --   -1.16863  -1.16833  -1.15094  -1.15045  -1.15004
 Alpha  occ. eigenvalues --   -1.14735  -1.14686  -1.14664  -1.13267  -1.13236
 Alpha  occ. eigenvalues --   -1.13233  -1.12799  -1.12799  -1.12791  -1.12586
 Alpha  occ. eigenvalues --   -1.12580  -1.12532  -1.12307  -1.12292  -1.12269
 Alpha  occ. eigenvalues --   -0.17783  -0.13240  -0.11420  -0.10903
 Alpha virt. eigenvalues --   -0.08177  -0.06300  -0.03682  -0.03374  -0.03016
 Alpha virt. eigenvalues --   -0.02530  -0.02488  -0.02155  -0.01370  -0.01193
 Alpha virt. eigenvalues --   -0.00762  -0.00040   0.00018   0.00375   0.00384

  Beta  occ. eigenvalues --  -38.47436 -38.45505 -38.45155 -38.43762 -38.43366
  Beta  occ. eigenvalues --  -38.43111 -38.42798  -2.23216  -2.21268  -2.20878
  Beta  occ. eigenvalues --   -2.19578  -2.19129  -2.18909  -2.18625  -1.16873
  Beta  occ. eigenvalues --   -1.16869  -1.16847  -1.14991  -1.14954  -1.14898
  Beta  occ. eigenvalues --   -1.14605  -1.14562  -1.14533  -1.13266  -1.13235
  Beta  occ. eigenvalues --   -1.13205  -1.12794  -1.12793  -1.12786  -1.12588
  Beta  occ. eigenvalues --   -1.12582  -1.12533  -1.12309  -1.12280  -1.12264
  Beta  occ. eigenvalues --   -0.17047  -0.13180  -0.10953
  Beta virt. eigenvalues --   -0.07912  -0.07217  -0.06162  -0.03576  -0.02807
  Beta virt. eigenvalues --   -0.02570  -0.02404  -0.01920  -0.01525  -0.01261
  Beta virt. eigenvalues --   -0.00935  -0.00706   0.00028   0.00190   0.00436

 Mulliken charges and spin densities:
               1          2
     1  Na  -0.201424   0.153022
     2  Na   0.600022   0.225459
     3  Na  -0.885701  -0.197921
     4  Na   0.421897   0.013509
     5  Na  -0.156682   0.309375
     6  Na   0.220934   0.021014
     7  Na   0.000953   0.475543
 Sum of Mulliken charges =  -0.00000   1.00000

 Dipole moment (field-independent basis, Debye):
    X=             -3.4943    Y=              0.1564    Z=              0.7293  Tot=              3.5730
 Quadrupole moment (field-independent basis, Debye-Ang):
   XX=            -72.5258   YY=            -72.0751   ZZ=            -62.9400
   XY=              5.3874   XZ=             -5.2608   YZ=             -5.5466

 Normal termination of Gaussian 16 at Thu Dec  7 23:19:28 2023.
