 Gaussian 16, Revision B.01,
 Gaussian 16:  ES64L-G16RevB.01 20-Dec-2017

 -------------------------
 #P B3LYP/6-311+g(d) force
 -------------------------

 -----
 DPGEN
 -----
 Symbolic Z-matrix:
 Charge =  0 Multiplicity = 2

                         Standard orientation:
 ---------------------------------------------------------------------
 Center     Atomic      Atomic             Coordinates (Angstroms)
 Number     Number       Type             X           Y           Z
 ---------------------------------------------------------------------
      1         11           0       -1.285468    2.897087   -0.455834
      2         11           0        3.903446    0.067714   -0.217286
      3         11           0        0.612705   -2.416366    0.297560
      4         11           0       -2.744379   -1.507494   -1.551001
      5         11           0        0.997889    0.387005    1.928319
      6         11           0        0.837076    0.552468   -1.932967
      7         11           0       -2.321269    0.019586    1.931208
 ---------------------------------------------------------------------

 SCF Done:  E(UB3LYP) =  -1136.12234207     A.U. after   26 cycles

 The electronic state is 2-A.
 Alpha  occ. eigenvalues --  -38.44863 -38.44748 -38.44522 -38.44425 -38.43975
 Alpha  occ. eigenvalues --  -38.43619 -38.42631  -2.20626  -2.20521  -2.20328
 Alpha  occ. eigenvalues --   -2.20310  -2.19810  -2.19427  -2.18408  -1.14290
 Alpha  occ. eigenvalues --   -1.14265  -1.14247  -1.14205  -1.14179  -1.14149
 Alpha  occ. eigenvalues --   -1.14056  -1.13994  -1.13965  -1.13943  -1.13932
 Alpha  occ. eigenvalues --   -1.13914  -1.13492  -1.13460  -1.13430  -1.13135
 Alpha  occ. eigenvalues --   -1.13116  -1.13019  -1.12080  -1.12073  -1.12058
 Alpha  occ. eigenvalues --   -0.17729  -0.12939  -0.11997  -0.11051
 Alpha virt. eigenvalues --   -0.06408  -0.05148  -0.04566  -0.03354  -0.03015
 Alpha virt. eigenvalues --   -0.02945  -0.02175  -0.01176  -0.00585  -0.00082
 Alpha virt. eigenvalues --    0.00044   0.00243   0.00275   0.00534   0.00814

  Beta  occ. eigenvalues --  -38.44806 -38.44751 -38.44482 -38.44358 -38.43930
  Beta  occ. eigenvalues --  -38.43616 -38.42636  -2.20527  -2.20520  -2.20258
  Beta  occ. eigenvalues --   -2.20189  -2.19728  -2.19424  -2.18419  -1.14211
  Beta  occ. eigenvalues --   -1.14203  -1.14193  -1.14182  -1.14180  -1.14153
  Beta  occ. eigenvalues --   -1.13982  -1.13920  -1.13918  -1.13896  -1.13849
  Beta  occ. eigenvalues --   -1.13817  -1.13440  -1.13397  -1.13371  -1.13135
  Beta  occ. eigenvalues --   -1.13090  -1.13021  -1.12084  -1.12080  -1.12062
  Beta  occ. eigenvalues --   -0.16966  -0.12698  -0.10878
  Beta virt. eigenvalues --   -0.08100  -0.06295  -0.04499  -0.04359  -0.02994
  Beta virt. eigenvalues --   -0.02538  -0.02352  -0.01960  -0.00740  -0.00546
  Beta virt. eigenvalues --    0.00043   0.00133   0.00258   0.00314   0.00639

 Mulliken charges and spin densities:
               1          2
     1  Na  -0.193688  -0.077581
     2  Na   0.346938  -0.110119
     3  Na  -0.356833  -0.003274
     4  Na   0.088290   0.248790
     5  Na   0.274265   0.381777
     6  Na  -0.270202   0.466192
     7  Na   0.111229   0.094216
 Sum of Mulliken charges =  -0.00000   1.00000

 Dipole moment (field-independent basis, Debye):
    X=              0.5275    Y=             -0.5018    Z=              0.1133  Tot=              0.7368
 Quadrupole moment (field-independent basis, Debye-Ang):
   XX=            -52.2528   YY=            -76.4225   ZZ=            -66.1068
   XY=              0.7082   XZ=              0.2965   YZ=              4.1717

 Normal termination of Gaussian 16 at Sun Dec  3 19:02:40 2023.
