 Gaussian 16, Revision B.01,
 Gaussian 16:  ES64L-G16RevB.01 20-Dec-2017

 -------------------------
 #P B3LYP/6-311+g(d) force
 -------------------------

 -----
 DPGEN
 -----
 Symbolic Z-matrix:
 Charge =  0 Multiplicity = 2

                         Standard orientation:
 ---------------------------------------------------------------------
 Center     Atomic      Atomic             Coordinates (Angstroms)
 Number     Number       Type             X           Y           Z
 ---------------------------------------------------------------------
      1         11           0        2.442674   -2.256475   -0.559093
      2         11           0       -4.254544   -0.097466    0.148265
      3         11           0        2.605901    2.016583    0.763547
      4         11           0        0.745075   -0.728686    1.844251
      5         11           0        0.968328    0.601031   -1.849701
      6         11           0       -1.159139    2.273520   -0.235009
      7         11           0       -1.348295   -1.808506   -0.112259
 ---------------------------------------------------------------------

 SCF Done:  E(UB3LYP) =  -1136.12626920     A.U. after   20 cycles

 The electronic state is 2-A.
 Alpha  occ. eigenvalues --  -38.44823 -38.44130 -38.43937 -38.43868 -38.43680
 Alpha  occ. eigenvalues --  -38.43552 -38.43316  -2.20582  -2.19950  -2.19767
 Alpha  occ. eigenvalues --   -2.19683  -2.19601  -2.19424  -2.19245  -1.14258
 Alpha  occ. eigenvalues --   -1.14246  -1.14215  -1.13621  -1.13614  -1.13571
 Alpha  occ. eigenvalues --   -1.13441  -1.13435  -1.13423  -1.13404  -1.13363
 Alpha  occ. eigenvalues --   -1.13354  -1.13268  -1.13227  -1.13207  -1.13112
 Alpha  occ. eigenvalues --   -1.13100  -1.12994  -1.12926  -1.12881  -1.12844
 Alpha  occ. eigenvalues --   -0.18238  -0.13132  -0.12039  -0.10851
 Alpha virt. eigenvalues --   -0.06744  -0.05285  -0.03894  -0.03171  -0.03021
 Alpha virt. eigenvalues --   -0.02483  -0.02208  -0.01555  -0.00454  -0.00241
 Alpha virt. eigenvalues --    0.00066   0.00143   0.00457   0.00709   0.00777

  Beta  occ. eigenvalues --  -38.44831 -38.44100 -38.43920 -38.43860 -38.43616
  Beta  occ. eigenvalues --  -38.43544 -38.43245  -2.20599  -2.19898  -2.19738
  Beta  occ. eigenvalues --   -2.19671  -2.19483  -2.19411  -2.19116  -1.14270
  Beta  occ. eigenvalues --   -1.14256  -1.14226  -1.13584  -1.13564  -1.13534
  Beta  occ. eigenvalues --   -1.13421  -1.13406  -1.13391  -1.13386  -1.13341
  Beta  occ. eigenvalues --   -1.13291  -1.13265  -1.13150  -1.13131  -1.13086
  Beta  occ. eigenvalues --   -1.13058  -1.12988  -1.12838  -1.12795  -1.12746
  Beta  occ. eigenvalues --   -0.17531  -0.12982  -0.11835
  Beta virt. eigenvalues --   -0.06912  -0.06535  -0.05247  -0.03775  -0.02648
  Beta virt. eigenvalues --   -0.02431  -0.02072  -0.01511  -0.01402  -0.00354
  Beta virt. eigenvalues --   -0.00056   0.00059   0.00187   0.00655   0.00774

 Mulliken charges and spin densities:
               1          2
     1  Na   0.420271   0.062547
     2  Na  -0.030931  -0.193592
     3  Na  -0.022928   0.014439
     4  Na  -0.255987   0.384450
     5  Na  -0.188441   0.350760
     6  Na  -0.011099   0.114930
     7  Na   0.089116   0.266466
 Sum of Mulliken charges =  -0.00000   1.00000

 Dipole moment (field-independent basis, Debye):
    X=             -0.2144    Y=              0.1325    Z=              0.0668  Tot=              0.2607
 Quadrupole moment (field-independent basis, Debye-Ang):
   XX=            -49.3252   YY=            -69.2542   ZZ=            -73.7168
   XY=             -1.6980   XZ=             -0.7579   YZ=              2.6968

 Normal termination of Gaussian 16 at Mon Dec  4 01:15:46 2023.
