 Gaussian 16, Revision B.01,
 Gaussian 16:  ES64L-G16RevB.01 20-Dec-2017

 -------------------------
 #P B3LYP/6-311+g(d) force
 -------------------------

 -----
 DPGEN
 -----
 Symbolic Z-matrix:
 Charge =  0 Multiplicity = 2

                         Standard orientation:
 ---------------------------------------------------------------------
 Center     Atomic      Atomic             Coordinates (Angstroms)
 Number     Number       Type             X           Y           Z
 ---------------------------------------------------------------------
      1         11           0        0.032812   -0.052739    1.860403
      2         11           0       -2.710023    1.119580    0.322190
      3         11           0       -2.055950   -2.099217   -0.318188
      4         11           0        0.216360   -0.039189   -1.822703
      5         11           0        0.221555    2.941503   -0.302060
      6         11           0        2.842956    0.569799    0.173361
      7         11           0        1.452289   -2.439737    0.086996
 ---------------------------------------------------------------------

 SCF Done:  E(UB3LYP) =  -1136.14123081     A.U. after   19 cycles

 The electronic state is 2-A.
 Alpha  occ. eigenvalues --  -38.43559 -38.43533 -38.43423 -38.43403 -38.43363
 Alpha  occ. eigenvalues --  -38.43348 -38.43321  -2.19453  -2.19396  -2.19371
 Alpha  occ. eigenvalues --   -2.19299  -2.19287  -2.19253  -2.19216  -1.13170
 Alpha  occ. eigenvalues --   -1.13134  -1.13110  -1.13092  -1.13068  -1.13049
 Alpha  occ. eigenvalues --   -1.13045  -1.13003  -1.13000  -1.12979  -1.12970
 Alpha  occ. eigenvalues --   -1.12965  -1.12939  -1.12920  -1.12908  -1.12904
 Alpha  occ. eigenvalues --   -1.12892  -1.12871  -1.12863  -1.12857  -1.12846
 Alpha  occ. eigenvalues --   -0.19111  -0.13002  -0.12674  -0.11018
 Alpha virt. eigenvalues --   -0.05150  -0.04988  -0.04831  -0.03220  -0.03040
 Alpha virt. eigenvalues --   -0.02647  -0.01213  -0.01101  -0.00196  -0.00072
 Alpha virt. eigenvalues --    0.00025   0.00379   0.00902   0.00936   0.00946

  Beta  occ. eigenvalues --  -38.43551 -38.43527 -38.43416 -38.43356 -38.43340
  Beta  occ. eigenvalues --  -38.43321 -38.43241  -2.19444  -2.19387  -2.19279
  Beta  occ. eigenvalues --   -2.19244  -2.19220  -2.19208  -2.19152  -1.13156
  Beta  occ. eigenvalues --   -1.13103  -1.13088  -1.13078  -1.13051  -1.13032
  Beta  occ. eigenvalues --   -1.12995  -1.12951  -1.12931  -1.12928  -1.12916
  Beta  occ. eigenvalues --   -1.12910  -1.12904  -1.12874  -1.12863  -1.12855
  Beta  occ. eigenvalues --   -1.12850  -1.12842  -1.12841  -1.12809  -1.12783
  Beta  occ. eigenvalues --   -0.18361  -0.12735  -0.12403
  Beta virt. eigenvalues --   -0.07080  -0.05141  -0.04985  -0.04782  -0.02398
  Beta virt. eigenvalues --   -0.02244  -0.01583  -0.01132  -0.01025  -0.00213
  Beta virt. eigenvalues --   -0.00137   0.00125   0.00392   0.00919   0.00926

 Mulliken charges and spin densities:
               1          2
     1  Na  -0.318252   0.638410
     2  Na   0.067863  -0.040837
     3  Na   0.072642  -0.059051
     4  Na  -0.334398   0.680959
     5  Na   0.048912  -0.077640
     6  Na   0.226958  -0.070515
     7  Na   0.236275  -0.071326
 Sum of Mulliken charges =  -0.00000   1.00000

 Dipole moment (field-independent basis, Debye):
    X=              0.0341    Y=              0.0205    Z=              0.0223  Tot=              0.0456
 Quadrupole moment (field-independent basis, Debye-Ang):
   XX=            -59.7153   YY=            -61.3540   ZZ=            -72.9768
   XY=              0.1375   XZ=              0.3823   YZ=              0.1354

 Normal termination of Gaussian 16 at Fri Dec  8 01:11:14 2023.
