 Gaussian 16, Revision B.01,
 Gaussian 16:  ES64L-G16RevB.01 20-Dec-2017

 -------------------------
 #P B3LYP/6-311+g(d) force
 -------------------------

 -----
 DPGEN
 -----
 Symbolic Z-matrix:
 Charge =  0 Multiplicity = 2

                         Standard orientation:
 ---------------------------------------------------------------------
 Center     Atomic      Atomic             Coordinates (Angstroms)
 Number     Number       Type             X           Y           Z
 ---------------------------------------------------------------------
      1         11           0       -3.136644   -0.297368   -0.382762
      2         11           0        1.944391    2.021319   -0.183046
      3         11           0        0.064783    0.175681   -1.764077
      4         11           0       -1.109481    2.135801    0.488334
      5         11           0       -0.600525   -2.358208    0.131718
      6         11           0        2.660266   -1.459357   -0.166125
      7         11           0        0.177211   -0.217869    1.875957
 ---------------------------------------------------------------------

 SCF Done:  E(UB3LYP) =  -1136.13051282     A.U. after   18 cycles

 The electronic state is 2-A.
 Alpha  occ. eigenvalues --  -38.43874 -38.43693 -38.43667 -38.43443 -38.43263
 Alpha  occ. eigenvalues --  -38.43081 -38.43002  -2.19741  -2.19735  -2.19537
 Alpha  occ. eigenvalues --   -2.19483  -2.19197  -2.19058  -2.18995  -1.13488
 Alpha  occ. eigenvalues --   -1.13424  -1.13407  -1.13404  -1.13386  -1.13329
 Alpha  occ. eigenvalues --   -1.13223  -1.13203  -1.13190  -1.13176  -1.13149
 Alpha  occ. eigenvalues --   -1.13088  -1.12888  -1.12852  -1.12820  -1.12754
 Alpha  occ. eigenvalues --   -1.12716  -1.12683  -1.12641  -1.12631  -1.12585
 Alpha  occ. eigenvalues --   -0.19728  -0.13228  -0.12605  -0.11361
 Alpha virt. eigenvalues --   -0.05480  -0.04774  -0.04106  -0.03312  -0.03093
 Alpha virt. eigenvalues --   -0.02752  -0.01552  -0.00840  -0.00087   0.00254
 Alpha virt. eigenvalues --    0.00288   0.00351   0.00877   0.00974   0.00999

  Beta  occ. eigenvalues --  -38.43868 -38.43663 -38.43599 -38.43367 -38.43256
  Beta  occ. eigenvalues --  -38.43069 -38.42983  -2.19731  -2.19567  -2.19533
  Beta  occ. eigenvalues --   -2.19346  -2.19188  -2.19042  -2.18967  -1.13406
  Beta  occ. eigenvalues --   -1.13399  -1.13374  -1.13365  -1.13302  -1.13235
  Beta  occ. eigenvalues --   -1.13198  -1.13179  -1.13158  -1.13117  -1.13058
  Beta  occ. eigenvalues --   -1.12993  -1.12875  -1.12818  -1.12807  -1.12732
  Beta  occ. eigenvalues --   -1.12670  -1.12658  -1.12626  -1.12585  -1.12573
  Beta  occ. eigenvalues --   -0.18961  -0.12951  -0.12307
  Beta virt. eigenvalues --   -0.07343  -0.05445  -0.04767  -0.04111  -0.02526
  Beta virt. eigenvalues --   -0.02227  -0.01647  -0.01458  -0.00796   0.00043
  Beta virt. eigenvalues --    0.00220   0.00253   0.00367   0.00927   0.00964

 Mulliken charges and spin densities:
               1          2
     1  Na  -0.053276  -0.042915
     2  Na   0.223036  -0.070118
     3  Na  -0.733213   0.666885
     4  Na   0.537355   0.103675
     5  Na   0.477293  -0.000859
     6  Na   0.064388  -0.105700
     7  Na  -0.515584   0.449032
 Sum of Mulliken charges =  -0.00000   1.00000

 Dipole moment (field-independent basis, Debye):
    X=              0.0823    Y=             -0.1162    Z=             -0.1307  Tot=              0.1933
 Quadrupole moment (field-independent basis, Debye-Ang):
   XX=            -55.1655   YY=            -67.4546   ZZ=            -71.4822
   XY=             -0.1015   XZ=              0.1576   YZ=              0.8238

 Normal termination of Gaussian 16 at Thu Dec  7 23:44:28 2023.
