 Gaussian 16, Revision B.01,
 Gaussian 16:  ES64L-G16RevB.01 20-Dec-2017

 -------------------------
 #P B3LYP/6-311+g(d) force
 -------------------------

 -----
 DPGEN
 -----
 Symbolic Z-matrix:
 Charge =  0 Multiplicity = 2

                         Standard orientation:
 ---------------------------------------------------------------------
 Center     Atomic      Atomic             Coordinates (Angstroms)
 Number     Number       Type             X           Y           Z
 ---------------------------------------------------------------------
      1         11           0        2.350752   -1.618038    0.733196
      2         11           0        3.739214    0.427975   -0.996663
      3         11           0       -0.383823   -1.040700   -1.389326
      4         11           0        1.143555    1.853172    0.637470
      5         11           0       -1.401468   -0.853376    2.186643
      6         11           0       -2.124155    2.150574   -0.073433
      7         11           0       -3.324075   -0.919607   -1.097888
 ---------------------------------------------------------------------

 SCF Done:  E(UB3LYP) =  -1136.12114896     A.U. after   24 cycles

 The electronic state is 2-A.
 Alpha  occ. eigenvalues --  -38.45056 -38.44775 -38.44238 -38.44099 -38.44071
 Alpha  occ. eigenvalues --  -38.43144 -38.42680  -2.20909  -2.20594  -2.20108
 Alpha  occ. eigenvalues --   -2.19984  -2.19954  -2.18985  -2.18537  -1.14605
 Alpha  occ. eigenvalues --   -1.14546  -1.14542  -1.14254  -1.14224  -1.14211
 Alpha  occ. eigenvalues --   -1.13814  -1.13773  -1.13760  -1.13753  -1.13638
 Alpha  occ. eigenvalues --   -1.13624  -1.13597  -1.13586  -1.13504  -1.12666
 Alpha  occ. eigenvalues --   -1.12642  -1.12628  -1.12239  -1.12217  -1.12157
 Alpha  occ. eigenvalues --   -0.18272  -0.14496  -0.11306  -0.10914
 Alpha virt. eigenvalues --   -0.06680  -0.05497  -0.04775  -0.03197  -0.02642
 Alpha virt. eigenvalues --   -0.02478  -0.02372  -0.01165  -0.00883  -0.00245
 Alpha virt. eigenvalues --    0.00135   0.00276   0.00307   0.00620   0.00674

  Beta  occ. eigenvalues --  -38.45031 -38.44683 -38.44224 -38.44070 -38.44053
  Beta  occ. eigenvalues --  -38.43137 -38.42680  -2.20863  -2.20425  -2.20085
  Beta  occ. eigenvalues --   -2.19937  -2.19917  -2.18973  -2.18538  -1.14578
  Beta  occ. eigenvalues --   -1.14513  -1.14510  -1.14132  -1.14110  -1.14089
  Beta  occ. eigenvalues --   -1.13785  -1.13756  -1.13741  -1.13715  -1.13607
  Beta  occ. eigenvalues --   -1.13585  -1.13561  -1.13547  -1.13478  -1.12660
  Beta  occ. eigenvalues --   -1.12632  -1.12610  -1.12242  -1.12199  -1.12157
  Beta  occ. eigenvalues --   -0.17637  -0.14180  -0.10768
  Beta virt. eigenvalues --   -0.07458  -0.06431  -0.05273  -0.04315  -0.02975
  Beta virt. eigenvalues --   -0.02358  -0.01854  -0.01743  -0.00876  -0.00589
  Beta virt. eigenvalues --   -0.00165   0.00188   0.00293   0.00442   0.00703

 Mulliken charges and spin densities:
               1          2
     1  Na   0.444869   0.183412
     2  Na   0.758668   0.043972
     3  Na  -0.910991   0.118061
     4  Na  -0.624636   0.063333
     5  Na  -0.232057   0.426331
     6  Na  -0.168594   0.028945
     7  Na   0.732741   0.135947
 Sum of Mulliken charges =  -0.00000   1.00000

 Dipole moment (field-independent basis, Debye):
    X=              0.4621    Y=             -0.4110    Z=              0.0433  Tot=              0.6199
 Quadrupole moment (field-independent basis, Debye-Ang):
   XX=            -48.1942   YY=            -78.9051   ZZ=            -68.2428
   XY=              0.0126   XZ=             -3.5908   YZ=             -4.8585

 Normal termination of Gaussian 16 at Thu Dec  7 14:14:16 2023.
