 Gaussian 16, Revision B.01,
 Gaussian 16:  ES64L-G16RevB.01 20-Dec-2017

 -------------------------
 #P B3LYP/6-311+g(d) force
 -------------------------

 -----
 DPGEN
 -----
 Symbolic Z-matrix:
 Charge =  0 Multiplicity = 2

                         Standard orientation:
 ---------------------------------------------------------------------
 Center     Atomic      Atomic             Coordinates (Angstroms)
 Number     Number       Type             X           Y           Z
 ---------------------------------------------------------------------
      1         11           0       -1.114498    2.131837   -0.672287
      2         11           0        3.474054   -1.802814   -0.322164
      3         11           0        0.256060   -1.090631   -0.702611
      4         11           0       -3.751132   -0.993227   -0.995809
      5         11           0        2.062345    1.574880   -0.803122
      6         11           0       -1.858929   -0.636633    1.715440
      7         11           0        0.932100    0.816588    1.780552
 ---------------------------------------------------------------------

 SCF Done:  E(UB3LYP) =  -1136.12267158     A.U. after   23 cycles

 The electronic state is 2-A.
 Alpha  occ. eigenvalues --  -38.44385 -38.43822 -38.43812 -38.43765 -38.43712
 Alpha  occ. eigenvalues --  -38.43284 -38.43238  -2.20183  -2.19831  -2.19759
 Alpha  occ. eigenvalues --   -2.19737  -2.19688  -2.19136  -2.19089  -1.13853
 Alpha  occ. eigenvalues --   -1.13835  -1.13810  -1.13674  -1.13613  -1.13480
 Alpha  occ. eigenvalues --   -1.13436  -1.13425  -1.13385  -1.13373  -1.13357
 Alpha  occ. eigenvalues --   -1.13345  -1.13318  -1.13290  -1.13254  -1.12832
 Alpha  occ. eigenvalues --   -1.12790  -1.12760  -1.12752  -1.12737  -1.12723
 Alpha  occ. eigenvalues --   -0.19081  -0.13775  -0.11568  -0.11350
 Alpha virt. eigenvalues --   -0.06294  -0.05142  -0.04393  -0.03140  -0.02601
 Alpha virt. eigenvalues --   -0.02325  -0.02131  -0.01205  -0.00713  -0.00011
 Alpha virt. eigenvalues --    0.00125   0.00351   0.00495   0.00656   0.00781

  Beta  occ. eigenvalues --  -38.44359 -38.43764 -38.43747 -38.43745 -38.43697
  Beta  occ. eigenvalues --  -38.43288 -38.43210  -2.20133  -2.19725  -2.19694
  Beta  occ. eigenvalues --   -2.19666  -2.19658  -2.19097  -2.19085  -1.13818
  Beta  occ. eigenvalues --   -1.13799  -1.13777  -1.13618  -1.13530  -1.13435
  Beta  occ. eigenvalues --   -1.13381  -1.13362  -1.13330  -1.13314  -1.13307
  Beta  occ. eigenvalues --   -1.13288  -1.13257  -1.13241  -1.13228  -1.12794
  Beta  occ. eigenvalues --   -1.12766  -1.12753  -1.12744  -1.12729  -1.12702
  Beta  occ. eigenvalues --   -0.18327  -0.13549  -0.11240
  Beta virt. eigenvalues --   -0.07417  -0.06060  -0.05045  -0.03849  -0.02921
  Beta virt. eigenvalues --   -0.02124  -0.01860  -0.01680  -0.01023  -0.00288
  Beta virt. eigenvalues --    0.00046   0.00182   0.00420   0.00610   0.00716

 Mulliken charges and spin densities:
               1          2
     1  Na  -0.498954   0.292142
     2  Na   0.557860  -0.192177
     3  Na  -2.007893   0.482916
     4  Na   0.694557   0.214488
     5  Na   0.862592   0.113823
     6  Na   0.116657  -0.061835
     7  Na   0.275182   0.150642
 Sum of Mulliken charges =  -0.00000   1.00000

 Dipole moment (field-independent basis, Debye):
    X=             -0.4336    Y=              0.4862    Z=              0.0036  Tot=              0.6514
 Quadrupole moment (field-independent basis, Debye-Ang):
   XX=            -53.3112   YY=            -72.8716   ZZ=            -67.9461
   XY=              1.3804   XZ=              2.5816   YZ=             -0.7883

 Normal termination of Gaussian 16 at Thu Dec  7 09:13:53 2023.
