 Gaussian 16, Revision B.01,
 Gaussian 16:  ES64L-G16RevB.01 20-Dec-2017

 -------------------------
 #P B3LYP/6-311+g(d) force
 -------------------------

 -----
 DPGEN
 -----
 Symbolic Z-matrix:
 Charge =  0 Multiplicity = 2

                         Standard orientation:
 ---------------------------------------------------------------------
 Center     Atomic      Atomic             Coordinates (Angstroms)
 Number     Number       Type             X           Y           Z
 ---------------------------------------------------------------------
      1         11           0        3.173007   -1.946231   -0.089190
      2         11           0       -3.464725   -1.662928   -0.002145
      3         11           0       -0.122902   -2.100528    0.185736
      4         11           0       -2.240612    1.124197   -0.262061
      5         11           0        0.975339    0.694945    1.796907
      6         11           0        0.420275    3.459682   -0.012933
      7         11           0        1.259617    0.430862   -1.616314
 ---------------------------------------------------------------------

 SCF Done:  E(UB3LYP) =  -1136.13340958     A.U. after   19 cycles

 The electronic state is 2-A.
 Alpha  occ. eigenvalues --  -38.44329 -38.43888 -38.43710 -38.43668 -38.43581
 Alpha  occ. eigenvalues --  -38.43462 -38.43317  -2.20153  -2.19758  -2.19553
 Alpha  occ. eigenvalues --   -2.19505  -2.19489  -2.19377  -2.19226  -1.13830
 Alpha  occ. eigenvalues --   -1.13810  -1.13791  -1.13463  -1.13439  -1.13427
 Alpha  occ. eigenvalues --   -1.13221  -1.13216  -1.13194  -1.13184  -1.13180
 Alpha  occ. eigenvalues --   -1.13177  -1.13166  -1.13146  -1.13076  -1.13058
 Alpha  occ. eigenvalues --   -1.13041  -1.12957  -1.12902  -1.12868  -1.12813
 Alpha  occ. eigenvalues --   -0.18387  -0.13268  -0.12865  -0.10226
 Alpha virt. eigenvalues --   -0.05986  -0.05307  -0.05021  -0.03090  -0.02679
 Alpha virt. eigenvalues --   -0.02171  -0.01975  -0.01528  -0.00580  -0.00155
 Alpha virt. eigenvalues --   -0.00072   0.00245   0.00715   0.00764   0.00835

  Beta  occ. eigenvalues --  -38.44327 -38.43879 -38.43714 -38.43665 -38.43567
  Beta  occ. eigenvalues --  -38.43398 -38.43232  -2.20152  -2.19744  -2.19560
  Beta  occ. eigenvalues --   -2.19503  -2.19468  -2.19259  -2.19071  -1.13831
  Beta  occ. eigenvalues --   -1.13799  -1.13780  -1.13459  -1.13427  -1.13404
  Beta  occ. eigenvalues --   -1.13223  -1.13205  -1.13193  -1.13186  -1.13177
  Beta  occ. eigenvalues --   -1.13151  -1.13136  -1.13125  -1.13062  -1.12988
  Beta  occ. eigenvalues --   -1.12955  -1.12871  -1.12798  -1.12759  -1.12703
  Beta  occ. eigenvalues --   -0.17709  -0.13091  -0.12674
  Beta virt. eigenvalues --   -0.06345  -0.05843  -0.05240  -0.04924  -0.02347
  Beta virt. eigenvalues --   -0.02162  -0.01913  -0.01520  -0.01204  -0.00604
  Beta virt. eigenvalues --   -0.00037   0.00171   0.00322   0.00764   0.00800

 Mulliken charges and spin densities:
               1          2
     1  Na   0.735497   0.087835
     2  Na   0.269502  -0.191650
     3  Na  -0.557032   0.236716
     4  Na  -0.475114   0.165978
     5  Na  -0.291052   0.334059
     6  Na   0.706207   0.089807
     7  Na  -0.388008   0.277256
 Sum of Mulliken charges =  -0.00000   1.00000

 Dipole moment (field-independent basis, Debye):
    X=              0.4042    Y=             -0.0939    Z=              0.0652  Tot=              0.4201
 Quadrupole moment (field-independent basis, Debye-Ang):
   XX=            -56.1853   YY=            -58.6499   ZZ=            -77.0051
   XY=             -1.5716   XZ=              0.4845   YZ=             -0.6616

 Normal termination of Gaussian 16 at Tue Dec  5 19:49:41 2023.
