 Gaussian 16, Revision B.01,
 Gaussian 16:  ES64L-G16RevB.01 20-Dec-2017

 -------------------------
 #P B3LYP/6-311+g(d) force
 -------------------------

 -----
 DPGEN
 -----
 Symbolic Z-matrix:
 Charge =  0 Multiplicity = 2

                         Standard orientation:
 ---------------------------------------------------------------------
 Center     Atomic      Atomic             Coordinates (Angstroms)
 Number     Number       Type             X           Y           Z
 ---------------------------------------------------------------------
      1         11           0       -2.292434    1.943443    0.065227
      2         11           0       -1.329618   -1.052949   -0.545191
      3         11           0        2.383391   -1.673109   -1.056414
      4         11           0        1.200540    1.069652    0.674080
      5         11           0        4.341535    1.165799   -0.684898
      6         11           0        0.517936   -1.181296    2.166264
      7         11           0       -4.821350   -0.271540   -0.619068
 ---------------------------------------------------------------------

 SCF Done:  E(UB3LYP) =  -1136.11519015     A.U. after   23 cycles

 The electronic state is 2-A.
 Alpha  occ. eigenvalues --  -38.44589 -38.44390 -38.44245 -38.44041 -38.44008
 Alpha  occ. eigenvalues --  -38.43544 -38.42635  -2.20439  -2.20235  -2.20046
 Alpha  occ. eigenvalues --   -2.19945  -2.19936  -2.19558  -2.18448  -1.14151
 Alpha  occ. eigenvalues --   -1.14100  -1.14042  -1.13932  -1.13897  -1.13826
 Alpha  occ. eigenvalues --   -1.13815  -1.13712  -1.13707  -1.13666  -1.13653
 Alpha  occ. eigenvalues --   -1.13640  -1.13579  -1.13555  -1.13486  -1.13242
 Alpha  occ. eigenvalues --   -1.13181  -1.13116  -1.12121  -1.12110  -1.12082
 Alpha  occ. eigenvalues --   -0.18290  -0.14198  -0.11306  -0.11055
 Alpha virt. eigenvalues --   -0.07004  -0.05369  -0.04323  -0.03068  -0.02970
 Alpha virt. eigenvalues --   -0.02417  -0.01999  -0.01282  -0.01247  -0.00438
 Alpha virt. eigenvalues --   -0.00211   0.00123   0.00439   0.00512   0.00740

  Beta  occ. eigenvalues --  -38.44554 -38.44346 -38.44222 -38.44052 -38.43977
  Beta  occ. eigenvalues --  -38.43492 -38.42630  -2.20376  -2.20154  -2.20003
  Beta  occ. eigenvalues --   -2.19970  -2.19882  -2.19465  -2.18438  -1.14111
  Beta  occ. eigenvalues --   -1.14061  -1.13971  -1.13878  -1.13851  -1.13816
  Beta  occ. eigenvalues --   -1.13754  -1.13679  -1.13675  -1.13640  -1.13635
  Beta  occ. eigenvalues --   -1.13606  -1.13553  -1.13543  -1.13452  -1.13187
  Beta  occ. eigenvalues --   -1.13116  -1.13033  -1.12109  -1.12102  -1.12077
  Beta  occ. eigenvalues --   -0.17555  -0.13962  -0.10967
  Beta virt. eigenvalues --   -0.07465  -0.06600  -0.04863  -0.04167  -0.02918
  Beta virt. eigenvalues --   -0.02377  -0.02004  -0.01761  -0.01096  -0.00749
  Beta virt. eigenvalues --   -0.00246  -0.00133   0.00271   0.00510   0.00607

 Mulliken charges and spin densities:
               1          2
     1  Na   0.201260   0.054872
     2  Na  -1.118683   0.251632
     3  Na   0.162279   0.099121
     4  Na  -0.901558   0.155041
     5  Na   0.396312   0.074136
     6  Na   0.708210   0.215844
     7  Na   0.552181   0.149354
 Sum of Mulliken charges =  -0.00000   1.00000

 Dipole moment (field-independent basis, Debye):
    X=             -1.3830    Y=             -0.7116    Z=              0.7091  Tot=              1.7093
 Quadrupole moment (field-independent basis, Debye-Ang):
   XX=            -64.2751   YY=            -66.4066   ZZ=            -68.8876
   XY=             -1.5097   XZ=              1.8238   YZ=              1.1566

 Normal termination of Gaussian 16 at Tue Nov 28 23:43:05 2023.
