 Gaussian 16, Revision B.01,
 Gaussian 16:  ES64L-G16RevB.01 20-Dec-2017

 -------------------------
 #P B3LYP/6-311+g(d) force
 -------------------------

 -----
 DPGEN
 -----
 Symbolic Z-matrix:
 Charge =  0 Multiplicity = 2

                         Standard orientation:
 ---------------------------------------------------------------------
 Center     Atomic      Atomic             Coordinates (Angstroms)
 Number     Number       Type             X           Y           Z
 ---------------------------------------------------------------------
      1         11           0       -0.267343   -2.854827   -0.443794
      2         11           0       -2.428473   -1.112514    0.704253
      3         11           0        1.327647    2.742912   -0.199823
      4         11           0        0.089266    0.000135   -1.735535
      5         11           0        3.038843   -0.975831   -0.011993
      6         11           0        0.590015    0.350016    2.045054
      7         11           0       -2.349956    1.850109   -0.358162
 ---------------------------------------------------------------------

 SCF Done:  E(UB3LYP) =  -1136.13378310     A.U. after   19 cycles

 The electronic state is 2-A.
 Alpha  occ. eigenvalues --  -38.44122 -38.43917 -38.43791 -38.43688 -38.43501
 Alpha  occ. eigenvalues --  -38.43321 -38.43315  -2.19924  -2.19745  -2.19679
 Alpha  occ. eigenvalues --   -2.19540  -2.19391  -2.19300  -2.19239  -1.13609
 Alpha  occ. eigenvalues --   -1.13587  -1.13556  -1.13441  -1.13430  -1.13363
 Alpha  occ. eigenvalues --   -1.13335  -1.13302  -1.13297  -1.13250  -1.13216
 Alpha  occ. eigenvalues --   -1.13170  -1.13163  -1.13104  -1.13009  -1.12960
 Alpha  occ. eigenvalues --   -1.12920  -1.12908  -1.12884  -1.12869  -1.12847
 Alpha  occ. eigenvalues --   -0.18739  -0.12879  -0.12550  -0.11108
 Alpha virt. eigenvalues --   -0.05761  -0.04963  -0.04392  -0.03440  -0.03089
 Alpha virt. eigenvalues --   -0.02788  -0.01407  -0.01170  -0.00178  -0.00121
 Alpha virt. eigenvalues --    0.00071   0.00384   0.00809   0.00878   0.00931

  Beta  occ. eigenvalues --  -38.44120 -38.43912 -38.43705 -38.43682 -38.43493
  Beta  occ. eigenvalues --  -38.43299 -38.43249  -2.19923  -2.19739  -2.19534
  Beta  occ. eigenvalues --   -2.19520  -2.19380  -2.19212  -2.19169  -1.13595
  Beta  occ. eigenvalues --   -1.13584  -1.13555  -1.13428  -1.13407  -1.13359
  Beta  occ. eigenvalues --   -1.13249  -1.13231  -1.13197  -1.13188  -1.13182
  Beta  occ. eigenvalues --   -1.13165  -1.13154  -1.13068  -1.12997  -1.12879
  Beta  occ. eigenvalues --   -1.12864  -1.12844  -1.12833  -1.12821  -1.12814
  Beta  occ. eigenvalues --   -0.18000  -0.12655  -0.12289
  Beta virt. eigenvalues --   -0.07190  -0.05782  -0.04834  -0.04349  -0.02650
  Beta virt. eigenvalues --   -0.02336  -0.01747  -0.01342  -0.01100  -0.00165
  Beta virt. eigenvalues --   -0.00092   0.00131   0.00413   0.00811   0.00947

 Mulliken charges and spin densities:
               1          2
     1  Na   0.117791   0.027890
     2  Na   0.090501   0.138355
     3  Na   0.040270  -0.107995
     4  Na  -0.034768   0.396349
     5  Na  -0.002118  -0.101961
     6  Na  -0.265050   0.625597
     7  Na   0.053375   0.021765
 Sum of Mulliken charges =  -0.00000   1.00000

 Dipole moment (field-independent basis, Debye):
    X=              0.5552    Y=              0.2909    Z=              0.0768  Tot=              0.6314
 Quadrupole moment (field-independent basis, Debye-Ang):
   XX=            -60.1926   YY=            -62.0053   ZZ=            -72.3206
   XY=             -0.7397   XZ=             -0.8394   YZ=             -0.6543

 Normal termination of Gaussian 16 at Tue Dec  5 12:25:03 2023.
