 Gaussian 16, Revision B.01,
 Gaussian 16:  ES64L-G16RevB.01 20-Dec-2017

 -------------------------
 #P B3LYP/6-311+g(d) force
 -------------------------

 -----
 DPGEN
 -----
 Symbolic Z-matrix:
 Charge =  0 Multiplicity = 2

                         Standard orientation:
 ---------------------------------------------------------------------
 Center     Atomic      Atomic             Coordinates (Angstroms)
 Number     Number       Type             X           Y           Z
 ---------------------------------------------------------------------
      1         11           0       -0.103654    0.068550   -1.770999
      2         11           0       -3.086844    0.003413    0.004894
      3         11           0        2.585062    1.585987   -0.199897
      4         11           0        2.300651   -1.703742   -0.056421
      5         11           0       -0.980283    2.803993    0.203313
      6         11           0       -1.039904   -2.551535   -0.063180
      7         11           0        0.324972   -0.206665    1.882290
 ---------------------------------------------------------------------

 SCF Done:  E(UB3LYP) =  -1136.13968540     A.U. after   20 cycles

 The electronic state is 2-A.
 Alpha  occ. eigenvalues --  -38.43904 -38.43770 -38.43484 -38.43433 -38.43373
 Alpha  occ. eigenvalues --  -38.43220 -38.43088  -2.19755  -2.19623  -2.19402
 Alpha  occ. eigenvalues --   -2.19331  -2.19261  -2.19198  -2.19006  -1.13432
 Alpha  occ. eigenvalues --   -1.13419  -1.13401  -1.13310  -1.13292  -1.13264
 Alpha  occ. eigenvalues --   -1.13144  -1.13069  -1.13026  -1.12994  -1.12955
 Alpha  occ. eigenvalues --   -1.12941  -1.12939  -1.12919  -1.12894  -1.12885
 Alpha  occ. eigenvalues --   -1.12833  -1.12813  -1.12675  -1.12663  -1.12632
 Alpha  occ. eigenvalues --   -0.19067  -0.13191  -0.12516  -0.10833
 Alpha virt. eigenvalues --   -0.05528  -0.05096  -0.04615  -0.03244  -0.02900
 Alpha virt. eigenvalues --   -0.02510  -0.01421  -0.01037  -0.00292  -0.00135
 Alpha virt. eigenvalues --   -0.00001   0.00373   0.00841   0.00914   0.00934

  Beta  occ. eigenvalues --  -38.43902 -38.43764 -38.43476 -38.43429 -38.43288
  Beta  occ. eigenvalues --  -38.43144 -38.43080  -2.19754  -2.19616  -2.19391
  Beta  occ. eigenvalues --   -2.19257  -2.19175  -2.19059  -2.18996  -1.13431
  Beta  occ. eigenvalues --   -1.13409  -1.13394  -1.13307  -1.13265  -1.13258
  Beta  occ. eigenvalues --   -1.13116  -1.13032  -1.13020  -1.12938  -1.12913
  Beta  occ. eigenvalues --   -1.12897  -1.12895  -1.12840  -1.12826  -1.12799
  Beta  occ. eigenvalues --   -1.12740  -1.12713  -1.12660  -1.12634  -1.12612
  Beta  occ. eigenvalues --   -0.18314  -0.12942  -0.12259
  Beta virt. eigenvalues --   -0.06897  -0.05508  -0.05082  -0.04593  -0.02426
  Beta virt. eigenvalues --   -0.02105  -0.01453  -0.01338  -0.00971  -0.00343
  Beta virt. eigenvalues --   -0.00197   0.00131   0.00390   0.00895   0.00902

 Mulliken charges and spin densities:
               1          2
     1  Na  -0.350563   0.629162
     2  Na   0.030382  -0.081164
     3  Na   0.082998  -0.092459
     4  Na   0.453723  -0.022897
     5  Na  -0.033858  -0.114932
     6  Na   0.299604  -0.067842
     7  Na  -0.482285   0.750133
 Sum of Mulliken charges =  -0.00000   1.00000

 Dipole moment (field-independent basis, Debye):
    X=             -0.0037    Y=              0.1838    Z=              0.0394  Tot=              0.1881
 Quadrupole moment (field-independent basis, Debye-Ang):
   XX=            -56.8649   YY=            -62.9669   ZZ=            -73.8391
   XY=              0.2438   XZ=             -0.9396   YZ=              0.6015

 Normal termination of Gaussian 16 at Thu Dec  7 20:23:04 2023.
