 Gaussian 16, Revision B.01,
 Gaussian 16:  ES64L-G16RevB.01 20-Dec-2017

 -------------------------
 #P B3LYP/6-311+g(d) force
 -------------------------

 -----
 DPGEN
 -----
 Symbolic Z-matrix:
 Charge =  0 Multiplicity = 2

                         Standard orientation:
 ---------------------------------------------------------------------
 Center     Atomic      Atomic             Coordinates (Angstroms)
 Number     Number       Type             X           Y           Z
 ---------------------------------------------------------------------
      1         11           0        3.349409   -0.524672   -0.464951
      2         11           0        0.001706    0.039602   -1.610296
      3         11           0       -2.775866    1.516830    0.022105
      4         11           0        0.978888    2.928278   -0.101123
      5         11           0        0.422403   -2.585924    0.355437
      6         11           0       -2.444825   -1.660463   -0.249872
      7         11           0        0.468285    0.286348    2.048701
 ---------------------------------------------------------------------

 SCF Done:  E(UB3LYP) =  -1136.13341722     A.U. after   20 cycles

 The electronic state is 2-A.
 Alpha  occ. eigenvalues --  -38.44568 -38.44116 -38.43755 -38.43532 -38.43410
 Alpha  occ. eigenvalues --  -38.43264 -38.43073  -2.20352  -2.19936  -2.19564
 Alpha  occ. eigenvalues --   -2.19424  -2.19323  -2.19240  -2.18994  -1.14026
 Alpha  occ. eigenvalues --   -1.13998  -1.13991  -1.13623  -1.13605  -1.13567
 Alpha  occ. eigenvalues --   -1.13250  -1.13246  -1.13187  -1.13100  -1.13055
 Alpha  occ. eigenvalues --   -1.13048  -1.13038  -1.12994  -1.12965  -1.12926
 Alpha  occ. eigenvalues --   -1.12878  -1.12846  -1.12670  -1.12645  -1.12608
 Alpha  occ. eigenvalues --   -0.18631  -0.13015  -0.12397  -0.10746
 Alpha virt. eigenvalues --   -0.06114  -0.05042  -0.04442  -0.03177  -0.02927
 Alpha virt. eigenvalues --   -0.02512  -0.01867  -0.01090  -0.00444  -0.00181
 Alpha virt. eigenvalues --   -0.00004   0.00325   0.00796   0.00808   0.00915

  Beta  occ. eigenvalues --  -38.44555 -38.44116 -38.43752 -38.43438 -38.43406
  Beta  occ. eigenvalues --  -38.43207 -38.43060  -2.20329  -2.19937  -2.19562
  Beta  occ. eigenvalues --   -2.19319  -2.19249  -2.19135  -2.18975  -1.13994
  Beta  occ. eigenvalues --   -1.13983  -1.13978  -1.13627  -1.13591  -1.13567
  Beta  occ. eigenvalues --   -1.13246  -1.13224  -1.13187  -1.13050  -1.12986
  Beta  occ. eigenvalues --   -1.12979  -1.12946  -1.12922  -1.12919  -1.12858
  Beta  occ. eigenvalues --   -1.12808  -1.12769  -1.12657  -1.12606  -1.12590
  Beta  occ. eigenvalues --   -0.17918  -0.12763  -0.12169
  Beta virt. eigenvalues --   -0.06848  -0.06063  -0.04988  -0.04415  -0.02457
  Beta virt. eigenvalues --   -0.02157  -0.01741  -0.01481  -0.01027  -0.00484
  Beta virt. eigenvalues --   -0.00177   0.00118   0.00366   0.00802   0.00862

 Mulliken charges and spin densities:
               1          2
     1  Na   0.079135  -0.019157
     2  Na  -0.312565   0.439968
     3  Na   0.123958  -0.038897
     4  Na  -0.010077  -0.117238
     5  Na   0.391019   0.143780
     6  Na   0.128228  -0.002896
     7  Na  -0.399698   0.594440
 Sum of Mulliken charges =  -0.00000   1.00000

 Dipole moment (field-independent basis, Debye):
    X=              0.3778    Y=              0.4079    Z=              0.0538  Tot=              0.5586
 Quadrupole moment (field-independent basis, Debye-Ang):
   XX=            -54.8720   YY=            -63.9039   ZZ=            -74.3248
   XY=             -0.5016   XZ=             -1.1474   YZ=             -0.2467

 Normal termination of Gaussian 16 at Fri Dec  8 05:06:24 2023.
