 Gaussian 16, Revision B.01,
 Gaussian 16:  ES64L-G16RevB.01 20-Dec-2017

 -------------------------
 #P B3LYP/6-311+g(d) force
 -------------------------

 -----
 DPGEN
 -----
 Symbolic Z-matrix:
 Charge =  0 Multiplicity = 2

                         Standard orientation:
 ---------------------------------------------------------------------
 Center     Atomic      Atomic             Coordinates (Angstroms)
 Number     Number       Type             X           Y           Z
 ---------------------------------------------------------------------
      1         11           0       -3.781016    1.563530   -0.222622
      2         11           0        1.085875   -1.465129   -1.553692
      3         11           0       -0.782509   -1.070649    2.034096
      4         11           0        3.381376    1.537286   -1.040368
      5         11           0       -2.365692   -1.373047   -1.166819
      6         11           0       -0.197414    1.375762    0.696442
      7         11           0        2.659379   -0.567753    1.252963
 ---------------------------------------------------------------------

 SCF Done:  E(UB3LYP) =  -1136.11855078     A.U. after   38 cycles

 The electronic state is 2-A.
 Alpha  occ. eigenvalues --  -38.44924 -38.44780 -38.44497 -38.44341 -38.43704
 Alpha  occ. eigenvalues --  -38.43253 -38.42758  -2.20785  -2.20706  -2.20347
 Alpha  occ. eigenvalues --   -2.20244  -2.19496  -2.19076  -2.18674  -1.14476
 Alpha  occ. eigenvalues --   -1.14447  -1.14433  -1.14379  -1.14372  -1.14290
 Alpha  occ. eigenvalues --   -1.14033  -1.13995  -1.13965  -1.13943  -1.13919
 Alpha  occ. eigenvalues --   -1.13841  -1.13164  -1.13157  -1.13133  -1.12757
 Alpha  occ. eigenvalues --   -1.12733  -1.12716  -1.12421  -1.12297  -1.12266
 Alpha  occ. eigenvalues --   -0.18495  -0.14021  -0.12063  -0.10777
 Alpha virt. eigenvalues --   -0.06370  -0.05582  -0.04650  -0.03554  -0.02631
 Alpha virt. eigenvalues --   -0.02470  -0.02205  -0.01231  -0.00719  -0.00227
 Alpha virt. eigenvalues --    0.00094   0.00177   0.00291   0.00463   0.00645

  Beta  occ. eigenvalues --  -38.44840 -38.44728 -38.44453 -38.44334 -38.43695
  Beta  occ. eigenvalues --  -38.43257 -38.42740  -2.20632  -2.20613  -2.20268
  Beta  occ. eigenvalues --   -2.20232  -2.19481  -2.19084  -2.18646  -1.14383
  Beta  occ. eigenvalues --   -1.14369  -1.14332  -1.14296  -1.14259  -1.14220
  Beta  occ. eigenvalues --   -1.13972  -1.13949  -1.13922  -1.13911  -1.13893
  Beta  occ. eigenvalues --   -1.13834  -1.13152  -1.13145  -1.13123  -1.12761
  Beta  occ. eigenvalues --   -1.12735  -1.12721  -1.12390  -1.12265  -1.12250
  Beta  occ. eigenvalues --   -0.17747  -0.13861  -0.10611
  Beta virt. eigenvalues --   -0.07939  -0.06182  -0.05295  -0.04203  -0.02828
  Beta virt. eigenvalues --   -0.02366  -0.02033  -0.01915  -0.00932  -0.00431
  Beta virt. eigenvalues --   -0.00153   0.00170   0.00229   0.00424   0.00538

 Mulliken charges and spin densities:
               1          2
     1  Na   0.204214  -0.040723
     2  Na  -0.433608   0.288191
     3  Na   0.082157   0.012189
     4  Na   0.190234  -0.079473
     5  Na   0.103567   0.224941
     6  Na  -1.137525   0.434571
     7  Na   0.990962   0.160305
 Sum of Mulliken charges =  -0.00000   1.00000

 Dipole moment (field-independent basis, Debye):
    X=              0.2239    Y=             -0.6286    Z=              0.2451  Tot=              0.7109
 Quadrupole moment (field-independent basis, Debye-Ang):
   XX=            -60.4075   YY=            -68.2064   ZZ=            -71.3765
   XY=              0.0032   XZ=              0.6867   YZ=              3.0957

 Normal termination of Gaussian 16 at Tue Dec  5 13:36:57 2023.
