 Gaussian 16, Revision B.01,
 Gaussian 16:  ES64L-G16RevB.01 20-Dec-2017

 -------------------------
 #P B3LYP/6-311+g(d) force
 -------------------------

 -----
 DPGEN
 -----
 Symbolic Z-matrix:
 Charge =  0 Multiplicity = 2

                         Standard orientation:
 ---------------------------------------------------------------------
 Center     Atomic      Atomic             Coordinates (Angstroms)
 Number     Number       Type             X           Y           Z
 ---------------------------------------------------------------------
      1         11           0       -3.706550    1.370336   -0.344886
      2         11           0       -3.419348   -1.871435   -0.521631
      3         11           0       -0.629851   -2.643488    1.021274
      4         11           0        2.435792   -2.958672   -0.377283
      5         11           0        3.643930    0.009687   -0.005278
      6         11           0        2.249568    2.720920   -0.478144
      7         11           0       -0.573541    3.372652    0.705949
 ---------------------------------------------------------------------

 SCF Done:  E(UB3LYP) =  -1136.10906292     A.U. after   27 cycles

 The electronic state is 2-A.
 Alpha  occ. eigenvalues --  -38.45350 -38.44787 -38.44466 -38.44460 -38.44457
 Alpha  occ. eigenvalues --  -38.43697 -38.43600  -2.21130  -2.20587  -2.20309
 Alpha  occ. eigenvalues --   -2.20282  -2.20270  -2.19559  -2.19422  -1.14801
 Alpha  occ. eigenvalues --   -1.14786  -1.14767  -1.14266  -1.14254  -1.14247
 Alpha  occ. eigenvalues --   -1.14015  -1.13994  -1.13980  -1.13962  -1.13943
 Alpha  occ. eigenvalues --   -1.13934  -1.13917  -1.13915  -1.13866  -1.13222
 Alpha  occ. eigenvalues --   -1.13197  -1.13181  -1.13078  -1.13063  -1.13050
 Alpha  occ. eigenvalues --   -0.16132  -0.14194  -0.13547  -0.10314
 Alpha virt. eigenvalues --   -0.07745  -0.04822  -0.04089  -0.03784  -0.03313
 Alpha virt. eigenvalues --   -0.02472  -0.02136  -0.01796  -0.01340  -0.00581
 Alpha virt. eigenvalues --   -0.00235   0.00119   0.00265   0.00495   0.00717

  Beta  occ. eigenvalues --  -38.45315 -38.44789 -38.44454 -38.44442 -38.44415
  Beta  occ. eigenvalues --  -38.43638 -38.43541  -2.21069  -2.20596  -2.20296
  Beta  occ. eigenvalues --   -2.20253  -2.20192  -2.19451  -2.19313  -1.14762
  Beta  occ. eigenvalues --   -1.14749  -1.14696  -1.14274  -1.14264  -1.14220
  Beta  occ. eigenvalues --   -1.13986  -1.13962  -1.13961  -1.13937  -1.13925
  Beta  occ. eigenvalues --   -1.13902  -1.13867  -1.13863  -1.13816  -1.13152
  Beta  occ. eigenvalues --   -1.13125  -1.13106  -1.13007  -1.12989  -1.12977
  Beta  occ. eigenvalues --   -0.15647  -0.13505  -0.12872
  Beta virt. eigenvalues --   -0.07855  -0.07098  -0.04545  -0.03737  -0.03374
  Beta virt. eigenvalues --   -0.02809  -0.02261  -0.01908  -0.01675  -0.01204
  Beta virt. eigenvalues --   -0.00348  -0.00104   0.00375   0.00438   0.00545

 Mulliken charges and spin densities:
               1          2
     1  Na  -0.067155   0.152520
     2  Na   0.335447   0.084969
     3  Na  -0.454227   0.220976
     4  Na   0.320509  -0.022759
     5  Na  -0.148681   0.287916
     6  Na  -0.008322   0.024022
     7  Na   0.022429   0.252357
 Sum of Mulliken charges =  -0.00000   1.00000

 Dipole moment (field-independent basis, Debye):
    X=             -0.7078    Y=             -0.6592    Z=             -0.2465  Tot=              0.9981
 Quadrupole moment (field-independent basis, Debye-Ang):
   XX=            -65.4860   YY=            -65.8015   ZZ=            -70.4251
   XY=             -3.5309   XZ=             -0.9155   YZ=              0.9861

 Normal termination of Gaussian 16 at Sun Dec  3 15:48:30 2023.
