 Gaussian 16, Revision B.01,
 Gaussian 16:  ES64L-G16RevB.01 20-Dec-2017

 -------------------------
 #P B3LYP/6-311+g(d) force
 -------------------------

 -----
 DPGEN
 -----
 Symbolic Z-matrix:
 Charge =  0 Multiplicity = 2

                         Standard orientation:
 ---------------------------------------------------------------------
 Center     Atomic      Atomic             Coordinates (Angstroms)
 Number     Number       Type             X           Y           Z
 ---------------------------------------------------------------------
      1         11           0        0.589821    1.249852   -0.725277
      2         11           0       -0.877091    4.013308    0.017063
      3         11           0       -2.725532    0.957161    0.715890
      4         11           0       -4.914872   -2.397817    0.096692
      5         11           0       -1.166067   -1.939300   -0.318972
      6         11           0        3.064914   -0.910559   -0.406019
      7         11           0        6.028827   -0.972645    0.620623
 ---------------------------------------------------------------------

 SCF Done:  E(UB3LYP) =  -1136.12113741     A.U. after   20 cycles

 The electronic state is 2-A.
 Alpha  occ. eigenvalues --  -38.45074 -38.44859 -38.44567 -38.44090 -38.43840
 Alpha  occ. eigenvalues --  -38.43815 -38.43042  -2.20873  -2.20609  -2.20372
 Alpha  occ. eigenvalues --   -2.19909  -2.19707  -2.19662  -2.18877  -1.14594
 Alpha  occ. eigenvalues --   -1.14579  -1.14437  -1.14279  -1.14274  -1.14215
 Alpha  occ. eigenvalues --   -1.14075  -1.14065  -1.13945  -1.13557  -1.13538
 Alpha  occ. eigenvalues --   -1.13537  -1.13404  -1.13392  -1.13382  -1.13314
 Alpha  occ. eigenvalues --   -1.13303  -1.13252  -1.12574  -1.12549  -1.12525
 Alpha  occ. eigenvalues --   -0.16865  -0.13596  -0.12750  -0.11008
 Alpha virt. eigenvalues --   -0.06613  -0.05198  -0.04450  -0.03877  -0.02731
 Alpha virt. eigenvalues --   -0.02113  -0.02038  -0.01913  -0.01370  -0.00888
 Alpha virt. eigenvalues --   -0.00322  -0.00050   0.00023   0.00360   0.00624

  Beta  occ. eigenvalues --  -38.45064 -38.44831 -38.44533 -38.44004 -38.43820
  Beta  occ. eigenvalues --  -38.43789 -38.43044  -2.20855  -2.20557  -2.20313
  Beta  occ. eigenvalues --   -2.19747  -2.19664  -2.19624  -2.18889  -1.14573
  Beta  occ. eigenvalues --   -1.14568  -1.14424  -1.14243  -1.14237  -1.14183
  Beta  occ. eigenvalues --   -1.14038  -1.14027  -1.13879  -1.13452  -1.13428
  Beta  occ. eigenvalues --   -1.13427  -1.13372  -1.13366  -1.13354  -1.13288
  Beta  occ. eigenvalues --   -1.13269  -1.13216  -1.12585  -1.12566  -1.12472
  Beta  occ. eigenvalues --   -0.16298  -0.13004  -0.12332
  Beta virt. eigenvalues --   -0.07700  -0.06327  -0.04816  -0.04087  -0.03666
  Beta virt. eigenvalues --   -0.02556  -0.01955  -0.01805  -0.01372  -0.01142
  Beta virt. eigenvalues --   -0.00616  -0.00058   0.00107   0.00214   0.00449

 Mulliken charges and spin densities:
               1          2
     1  Na  -1.434848  -0.036340
     2  Na   1.099482   0.124462
     3  Na  -0.063970   0.198693
     4  Na   0.622664   0.213658
     5  Na  -0.771336   0.111182
     6  Na   0.076298  -0.046647
     7  Na   0.471709   0.434993
 Sum of Mulliken charges =  -0.00000   1.00000

 Dipole moment (field-independent basis, Debye):
    X=             -1.7992    Y=              0.1227    Z=              0.2095  Tot=              1.8155
 Quadrupole moment (field-independent basis, Debye-Ang):
   XX=            -58.8177   YY=            -61.4707   ZZ=            -72.1761
   XY=              5.4107   XZ=              0.8913   YZ=              0.4059

 Normal termination of Gaussian 16 at Wed Nov 29 02:35:00 2023.
