 Gaussian 16, Revision B.01,
 Gaussian 16:  ES64L-G16RevB.01 20-Dec-2017

 -------------------------
 #P B3LYP/6-311+g(d) force
 -------------------------

 -----
 DPGEN
 -----
 Symbolic Z-matrix:
 Charge =  0 Multiplicity = 2

                         Standard orientation:
 ---------------------------------------------------------------------
 Center     Atomic      Atomic             Coordinates (Angstroms)
 Number     Number       Type             X           Y           Z
 ---------------------------------------------------------------------
      1         11           0       -1.592805   -2.332089    1.667157
      2         11           0       -1.607715    2.827473    0.103821
      3         11           0        4.223413   -0.433696    0.236097
      4         11           0        0.051691    0.404135    2.110853
      5         11           0        0.103060   -1.866131   -2.150672
      6         11           0       -3.209070    0.001966   -1.132356
      7         11           0        2.031426    1.398342   -0.834901
 ---------------------------------------------------------------------

 SCF Done:  E(UB3LYP) =  -1136.11398393     A.U. after   23 cycles

 The electronic state is 2-A.
 Alpha  occ. eigenvalues --  -38.45145 -38.45023 -38.44695 -38.44525 -38.44025
 Alpha  occ. eigenvalues --  -38.43983 -38.42629  -2.20917  -2.20801  -2.20441
 Alpha  occ. eigenvalues --   -2.20373  -2.19833  -2.19820  -2.18435  -1.14594
 Alpha  occ. eigenvalues --   -1.14566  -1.14536  -1.14499  -1.14454  -1.14443
 Alpha  occ. eigenvalues --   -1.14120  -1.14090  -1.14052  -1.14050  -1.14020
 Alpha  occ. eigenvalues --   -1.13992  -1.13517  -1.13500  -1.13494  -1.13482
 Alpha  occ. eigenvalues --   -1.13435  -1.13435  -1.12107  -1.12101  -1.12081
 Alpha  occ. eigenvalues --   -0.17070  -0.13179  -0.11849  -0.11334
 Alpha virt. eigenvalues --   -0.06922  -0.04790  -0.04460  -0.03493  -0.03277
 Alpha virt. eigenvalues --   -0.03114  -0.02295  -0.00989  -0.00675  -0.00390
 Alpha virt. eigenvalues --   -0.00132  -0.00029   0.00327   0.00666   0.00696

  Beta  occ. eigenvalues --  -38.45107 -38.45037 -38.44643 -38.44450 -38.43977
  Beta  occ. eigenvalues --  -38.43973 -38.42628  -2.20847  -2.20826  -2.20345
  Beta  occ. eigenvalues --   -2.20236  -2.19810  -2.19741  -2.18434  -1.14539
  Beta  occ. eigenvalues --   -1.14522  -1.14515  -1.14486  -1.14469  -1.14460
  Beta  occ. eigenvalues --   -1.14051  -1.14022  -1.13987  -1.13960  -1.13919
  Beta  occ. eigenvalues --   -1.13889  -1.13490  -1.13482  -1.13440  -1.13434
  Beta  occ. eigenvalues --   -1.13424  -1.13367  -1.12102  -1.12098  -1.12078
  Beta  occ. eigenvalues --   -0.16377  -0.13022  -0.11130
  Beta virt. eigenvalues --   -0.07882  -0.06651  -0.04609  -0.04105  -0.03245
  Beta virt. eigenvalues --   -0.02767  -0.02450  -0.01942  -0.00944  -0.00444
  Beta virt. eigenvalues --   -0.00290  -0.00048   0.00126   0.00343   0.00754

 Mulliken charges and spin densities:
               1          2
     1  Na  -0.333221   0.010440
     2  Na  -0.022652   0.010014
     3  Na   0.103326  -0.151325
     4  Na   0.557063   0.414805
     5  Na   0.005951   0.290678
     6  Na  -0.032944   0.279599
     7  Na  -0.277522   0.145790
 Sum of Mulliken charges =  -0.00000   1.00000

 Dipole moment (field-independent basis, Debye):
    X=              0.6846    Y=             -0.7125    Z=             -0.0558  Tot=              0.9896
 Quadrupole moment (field-independent basis, Debye-Ang):
   XX=            -54.9985   YY=            -73.6198   ZZ=            -68.4123
   XY=             -1.7329   XZ=              2.9357   YZ=             -2.6689

 Normal termination of Gaussian 16 at Mon Dec  4 02:21:30 2023.
