 Gaussian 16, Revision B.01,
 Gaussian 16:  ES64L-G16RevB.01 20-Dec-2017

 -------------------------
 #P B3LYP/6-311+g(d) force
 -------------------------

 -----
 DPGEN
 -----
 Symbolic Z-matrix:
 Charge =  0 Multiplicity = 2

                         Standard orientation:
 ---------------------------------------------------------------------
 Center     Atomic      Atomic             Coordinates (Angstroms)
 Number     Number       Type             X           Y           Z
 ---------------------------------------------------------------------
      1         11           0        1.232753    2.342146   -0.096475
      2         11           0        0.064408   -0.021983   -1.614767
      3         11           0        3.041384   -0.387105   -0.204607
      4         11           0       -2.701172   -1.113551   -0.345236
      5         11           0       -2.049361    1.997836    0.232804
      6         11           0        0.222620   -2.665391    0.171114
      7         11           0        0.189368   -0.151951    1.857167
 ---------------------------------------------------------------------

 SCF Done:  E(UB3LYP) =  -1136.13515431     A.U. after   19 cycles

 The electronic state is 2-A.
 Alpha  occ. eigenvalues --  -38.43910 -38.43654 -38.43307 -38.43300 -38.43156
 Alpha  occ. eigenvalues --  -38.43123 -38.43088  -2.19790  -2.19555  -2.19315
 Alpha  occ. eigenvalues --   -2.19199  -2.19171  -2.19108  -2.19061  -1.13475
 Alpha  occ. eigenvalues --   -1.13454  -1.13425  -1.13258  -1.13217  -1.13197
 Alpha  occ. eigenvalues --   -1.13050  -1.13003  -1.12941  -1.12920  -1.12867
 Alpha  occ. eigenvalues --   -1.12858  -1.12852  -1.12850  -1.12773  -1.12757
 Alpha  occ. eigenvalues --   -1.12727  -1.12716  -1.12706  -1.12685  -1.12657
 Alpha  occ. eigenvalues --   -0.19599  -0.13306  -0.12699  -0.10982
 Alpha virt. eigenvalues --   -0.05497  -0.04812  -0.04493  -0.03208  -0.02948
 Alpha virt. eigenvalues --   -0.02455  -0.01509  -0.00906  -0.00071   0.00069
 Alpha virt. eigenvalues --    0.00101   0.00359   0.00876   0.00963   0.00978

  Beta  occ. eigenvalues --  -38.43903 -38.43646 -38.43294 -38.43217 -38.43147
  Beta  occ. eigenvalues --  -38.43112 -38.43018  -2.19781  -2.19542  -2.19193
  Beta  occ. eigenvalues --   -2.19150  -2.19098  -2.19048  -2.19039  -1.13467
  Beta  occ. eigenvalues --   -1.13437  -1.13411  -1.13245  -1.13206  -1.13174
  Beta  occ. eigenvalues --   -1.12959  -1.12937  -1.12864  -1.12857  -1.12848
  Beta  occ. eigenvalues --   -1.12821  -1.12790  -1.12784  -1.12725  -1.12702
  Beta  occ. eigenvalues --   -1.12699  -1.12671  -1.12657  -1.12649  -1.12628
  Beta  occ. eigenvalues --   -0.18857  -0.13022  -0.12403
  Beta virt. eigenvalues --   -0.07007  -0.05475  -0.04805  -0.04494  -0.02397
  Beta virt. eigenvalues --   -0.02101  -0.01425  -0.01380  -0.00845  -0.00055
  Beta virt. eigenvalues --    0.00030   0.00152   0.00379   0.00915   0.00953

 Mulliken charges and spin densities:
               1          2
     1  Na   0.244570  -0.023664
     2  Na  -0.539019   0.500534
     3  Na   0.222495  -0.076100
     4  Na   0.169548  -0.013458
     5  Na   0.109830  -0.011189
     6  Na   0.317759  -0.060528
     7  Na  -0.525182   0.684405
 Sum of Mulliken charges =  -0.00000   1.00000

 Dipole moment (field-independent basis, Debye):
    X=              0.1398    Y=             -0.0912    Z=              0.0956  Tot=              0.1924
 Quadrupole moment (field-independent basis, Debye-Ang):
   XX=            -55.8220   YY=            -64.1974   ZZ=            -73.4744
   XY=             -0.4188   XZ=             -0.2523   YZ=              0.5753

 Normal termination of Gaussian 16 at Thu Dec  7 07:58:41 2023.
