 Gaussian 16, Revision B.01,
 Gaussian 16:  ES64L-G16RevB.01 20-Dec-2017

 -------------------------
 #P B3LYP/6-311+g(d) force
 -------------------------

 -----
 DPGEN
 -----
 Symbolic Z-matrix:
 Charge =  0 Multiplicity = 2

                         Standard orientation:
 ---------------------------------------------------------------------
 Center     Atomic      Atomic             Coordinates (Angstroms)
 Number     Number       Type             X           Y           Z
 ---------------------------------------------------------------------
      1         11           0        0.268512    0.010127    1.909823
      2         11           0        3.227451   -0.932745    0.046554
      3         11           0       -0.178232   -2.982173   -0.441392
      4         11           0       -2.978627   -0.861291    0.757311
      5         11           0       -0.025928   -0.146366   -1.832527
      6         11           0       -1.814049    2.252260   -0.641505
      7         11           0        1.500873    2.660187    0.201735
 ---------------------------------------------------------------------

 SCF Done:  E(UB3LYP) =  -1136.13638210     A.U. after   19 cycles

 The electronic state is 2-A.
 Alpha  occ. eigenvalues --  -38.44186 -38.43744 -38.43727 -38.43717 -38.43685
 Alpha  occ. eigenvalues --  -38.43551 -38.43381  -2.19957  -2.19619  -2.19560
 Alpha  occ. eigenvalues --   -2.19546  -2.19511  -2.19486  -2.19240  -1.13643
 Alpha  occ. eigenvalues --   -1.13611  -1.13596  -1.13308  -1.13299  -1.13276
 Alpha  occ. eigenvalues --   -1.13252  -1.13217  -1.13210  -1.13206  -1.13193
 Alpha  occ. eigenvalues --   -1.13184  -1.13177  -1.13159  -1.13152  -1.13139
 Alpha  occ. eigenvalues --   -1.13114  -1.13094  -1.12919  -1.12883  -1.12864
 Alpha  occ. eigenvalues --   -0.18319  -0.12567  -0.12528  -0.11018
 Alpha virt. eigenvalues --   -0.05686  -0.05040  -0.04676  -0.03219  -0.03133
 Alpha virt. eigenvalues --   -0.02713  -0.01530  -0.01197  -0.00433  -0.00240
 Alpha virt. eigenvalues --    0.00013   0.00359   0.00795   0.00862   0.00868

  Beta  occ. eigenvalues --  -38.44188 -38.43723 -38.43706 -38.43682 -38.43652
  Beta  occ. eigenvalues --  -38.43474 -38.43366  -2.19964  -2.19531  -2.19522
  Beta  occ. eigenvalues --   -2.19509  -2.19480  -2.19345  -2.19216  -1.13638
  Beta  occ. eigenvalues --   -1.13617  -1.13597  -1.13267  -1.13231  -1.13212
  Beta  occ. eigenvalues --   -1.13191  -1.13183  -1.13176  -1.13175  -1.13165
  Beta  occ. eigenvalues --   -1.13149  -1.13143  -1.13139  -1.13110  -1.13069
  Beta  occ. eigenvalues --   -1.13023  -1.13004  -1.12883  -1.12861  -1.12846
  Beta  occ. eigenvalues --   -0.17597  -0.12309  -0.12268
  Beta virt. eigenvalues --   -0.07161  -0.05672  -0.04917  -0.04614  -0.02519
  Beta virt. eigenvalues --   -0.02389  -0.01732  -0.01405  -0.01112  -0.00411
  Beta virt. eigenvalues --   -0.00261   0.00107   0.00388   0.00808   0.00888

 Mulliken charges and spin densities:
               1          2
     1  Na  -0.065228   0.627114
     2  Na  -0.132377  -0.127949
     3  Na   0.032374  -0.048320
     4  Na  -0.056867   0.102808
     5  Na   0.115748   0.483098
     6  Na   0.135663   0.046650
     7  Na  -0.029314  -0.083401
 Sum of Mulliken charges =  -0.00000   1.00000

 Dipole moment (field-independent basis, Debye):
    X=              0.3273    Y=             -0.1320    Z=              0.1054  Tot=              0.3683
 Quadrupole moment (field-independent basis, Debye-Ang):
   XX=            -58.2640   YY=            -62.2284   ZZ=            -73.1563
   XY=             -0.0052   XZ=             -0.8543   YZ=             -0.3809

 Normal termination of Gaussian 16 at Sun Dec  3 15:54:56 2023.
