 Gaussian 16, Revision B.01,
 Gaussian 16:  ES64L-G16RevB.01 20-Dec-2017

 -------------------------
 #P B3LYP/6-311+g(d) force
 -------------------------

 -----
 DPGEN
 -----
 Symbolic Z-matrix:
 Charge =  0 Multiplicity = 2

                         Standard orientation:
 ---------------------------------------------------------------------
 Center     Atomic      Atomic             Coordinates (Angstroms)
 Number     Number       Type             X           Y           Z
 ---------------------------------------------------------------------
      1         11           0        3.112446    0.263740   -0.909425
      2         11           0       -2.376514    1.439608   -0.124100
      3         11           0        0.529769    2.653007    0.132824
      4         11           0        0.651229    0.286828    1.944651
      5         11           0       -0.373378   -0.581372   -1.603390
      6         11           0        1.278604   -2.602453    0.531362
      7         11           0       -2.822156   -1.459359    0.028078
 ---------------------------------------------------------------------

 SCF Done:  E(UB3LYP) =  -1136.12888984     A.U. after   19 cycles

 The electronic state is 2-A.
 Alpha  occ. eigenvalues --  -38.44453 -38.44116 -38.43605 -38.43540 -38.43508
 Alpha  occ. eigenvalues --  -38.43486 -38.42883  -2.20269  -2.20007  -2.19558
 Alpha  occ. eigenvalues --   -2.19487  -2.19466  -2.19356  -2.18803  -1.13938
 Alpha  occ. eigenvalues --   -1.13910  -1.13900  -1.13772  -1.13686  -1.13621
 Alpha  occ. eigenvalues --   -1.13275  -1.13211  -1.13200  -1.13178  -1.13165
 Alpha  occ. eigenvalues --   -1.13134  -1.13104  -1.13099  -1.13082  -1.13014
 Alpha  occ. eigenvalues --   -1.13000  -1.12974  -1.12493  -1.12456  -1.12419
 Alpha  occ. eigenvalues --   -0.18926  -0.13505  -0.12314  -0.10970
 Alpha virt. eigenvalues --   -0.05891  -0.05002  -0.04303  -0.03570  -0.02955
 Alpha virt. eigenvalues --   -0.02516  -0.01723  -0.00899  -0.00296  -0.00072
 Alpha virt. eigenvalues --    0.00062   0.00329   0.00813   0.00856   0.00924

  Beta  occ. eigenvalues --  -38.44418 -38.44117 -38.43602 -38.43491 -38.43458
  Beta  occ. eigenvalues --  -38.43440 -38.42877  -2.20204  -2.20011  -2.19554
  Beta  occ. eigenvalues --   -2.19381  -2.19337  -2.19328  -2.18796  -1.13879
  Beta  occ. eigenvalues --   -1.13869  -1.13859  -1.13775  -1.13685  -1.13613
  Beta  occ. eigenvalues --   -1.13262  -1.13210  -1.13161  -1.13102  -1.13091
  Beta  occ. eigenvalues --   -1.13060  -1.13051  -1.13019  -1.13002  -1.12972
  Beta  occ. eigenvalues --   -1.12954  -1.12951  -1.12479  -1.12448  -1.12396
  Beta  occ. eigenvalues --   -0.18246  -0.13220  -0.12077
  Beta virt. eigenvalues --   -0.07092  -0.05738  -0.04981  -0.04255  -0.02869
  Beta virt. eigenvalues --   -0.02229  -0.01690  -0.01369  -0.00828  -0.00274
  Beta virt. eigenvalues --   -0.00017   0.00136   0.00389   0.00875   0.00879

 Mulliken charges and spin densities:
               1          2
     1  Na  -0.023578   0.130273
     2  Na   0.001213  -0.053924
     3  Na   0.339672   0.132422
     4  Na  -0.378891   0.440450
     5  Na  -0.434280   0.283354
     6  Na   0.037361   0.024615
     7  Na   0.458502   0.042809
 Sum of Mulliken charges =  -0.00000   1.00000

 Dipole moment (field-independent basis, Debye):
    X=              0.1807    Y=             -0.3526    Z=             -0.0086  Tot=              0.3963
 Quadrupole moment (field-independent basis, Debye-Ang):
   XX=            -56.2452   YY=            -65.9736   ZZ=            -72.6356
   XY=              0.9130   XZ=             -2.4556   YZ=             -2.0050

 Normal termination of Gaussian 16 at Thu Dec  7 08:31:47 2023.
