 Gaussian 16, Revision B.01,
 Gaussian 16:  ES64L-G16RevB.01 20-Dec-2017

 -------------------------
 #P B3LYP/6-311+g(d) force
 -------------------------

 -----
 DPGEN
 -----
 Symbolic Z-matrix:
 Charge =  0 Multiplicity = 2

                         Standard orientation:
 ---------------------------------------------------------------------
 Center     Atomic      Atomic             Coordinates (Angstroms)
 Number     Number       Type             X           Y           Z
 ---------------------------------------------------------------------
      1         11           0       -0.074276   -0.105717   -1.631946
      2         11           0       -1.741304    2.737436    0.354847
      3         11           0       -0.587241   -2.767833    0.267358
      4         11           0        2.452622    2.018486   -0.552624
      5         11           0        2.639743   -1.385692   -0.073561
      6         11           0        0.249499    0.119490    2.198905
      7         11           0       -2.939044   -0.616169   -0.562978
 ---------------------------------------------------------------------

 SCF Done:  E(UB3LYP) =  -1136.13578971     A.U. after   19 cycles

 The electronic state is 2-A.
 Alpha  occ. eigenvalues --  -38.44057 -38.43944 -38.43766 -38.43719 -38.43688
 Alpha  occ. eigenvalues --  -38.43402 -38.43088  -2.19912  -2.19751  -2.19590
 Alpha  occ. eigenvalues --   -2.19549  -2.19541  -2.19382  -2.18977  -1.13573
 Alpha  occ. eigenvalues --   -1.13545  -1.13526  -1.13433  -1.13408  -1.13387
 Alpha  occ. eigenvalues --   -1.13336  -1.13248  -1.13241  -1.13218  -1.13215
 Alpha  occ. eigenvalues --   -1.13214  -1.13192  -1.13178  -1.13175  -1.13059
 Alpha  occ. eigenvalues --   -1.13004  -1.13003  -1.12653  -1.12640  -1.12610
 Alpha  occ. eigenvalues --   -0.18487  -0.13005  -0.12218  -0.11098
 Alpha virt. eigenvalues --   -0.05514  -0.05145  -0.04683  -0.03247  -0.03060
 Alpha virt. eigenvalues --   -0.02815  -0.01397  -0.01182  -0.00442  -0.00184
 Alpha virt. eigenvalues --   -0.00022   0.00354   0.00783   0.00858   0.00872

  Beta  occ. eigenvalues --  -38.43957 -38.43932 -38.43762 -38.43707 -38.43684
  Beta  occ. eigenvalues --  -38.43346 -38.43082  -2.19733  -2.19726  -2.19571
  Beta  occ. eigenvalues --   -2.19544  -2.19536  -2.19279  -2.18969  -1.13451
  Beta  occ. eigenvalues --   -1.13422  -1.13409  -1.13396  -1.13389  -1.13370
  Beta  occ. eigenvalues --   -1.13308  -1.13235  -1.13229  -1.13209  -1.13199
  Beta  occ. eigenvalues --   -1.13196  -1.13189  -1.13171  -1.13162  -1.12992
  Beta  occ. eigenvalues --   -1.12937  -1.12926  -1.12650  -1.12627  -1.12586
  Beta  occ. eigenvalues --   -0.17766  -0.12730  -0.11991
  Beta virt. eigenvalues --   -0.07193  -0.05477  -0.05053  -0.04606  -0.02538
  Beta virt. eigenvalues --   -0.02299  -0.01802  -0.01289  -0.01088  -0.00448
  Beta virt. eigenvalues --   -0.00221   0.00105   0.00387   0.00840   0.00893

 Mulliken charges and spin densities:
               1          2
     1  Na  -0.124466   0.233770
     2  Na  -0.093868  -0.015447
     3  Na   0.154452   0.084231
     4  Na   0.046605  -0.023996
     5  Na   0.185508   0.006026
     6  Na  -0.498349   0.683826
     7  Na   0.330119   0.031590
 Sum of Mulliken charges =  -0.00000   1.00000

 Dipole moment (field-independent basis, Debye):
    X=              0.1866    Y=              0.1896    Z=              0.1764  Tot=              0.3192
 Quadrupole moment (field-independent basis, Debye-Ang):
   XX=            -59.0884   YY=            -62.6883   ZZ=            -72.6062
   XY=              0.1953   XZ=             -0.2694   YZ=             -0.5261

 Normal termination of Gaussian 16 at Tue Dec  5 21:04:48 2023.
