 Gaussian 16, Revision B.01,
 Gaussian 16:  ES64L-G16RevB.01 20-Dec-2017

 -------------------------
 #P B3LYP/6-311+g(d) force
 -------------------------

 -----
 DPGEN
 -----
 Symbolic Z-matrix:
 Charge =  0 Multiplicity = 2

                         Standard orientation:
 ---------------------------------------------------------------------
 Center     Atomic      Atomic             Coordinates (Angstroms)
 Number     Number       Type             X           Y           Z
 ---------------------------------------------------------------------
      1         11           0       -1.037265   -2.247165   -1.824710
      2         11           0        3.544189    1.741033    0.017002
      3         11           0        2.675081   -1.680878    0.102527
      4         11           0       -3.034906    0.056915    0.221853
      5         11           0        0.188437    0.188949   -0.616195
      6         11           0       -1.538939    3.127310   -0.316104
      7         11           0       -0.796597   -1.186164    2.415627
 ---------------------------------------------------------------------

 SCF Done:  E(UB3LYP) =  -1136.12099885     A.U. after   21 cycles

 The electronic state is 2-A.
 Alpha  occ. eigenvalues --  -38.44552 -38.44361 -38.44331 -38.44126 -38.43782
 Alpha  occ. eigenvalues --  -38.43377 -38.42845  -2.20306  -2.20173  -2.20170
 Alpha  occ. eigenvalues --   -2.19995  -2.19644  -2.19169  -2.18895  -1.13982
 Alpha  occ. eigenvalues --   -1.13963  -1.13948  -1.13874  -1.13841  -1.13832
 Alpha  occ. eigenvalues --   -1.13811  -1.13775  -1.13770  -1.13676  -1.13668
 Alpha  occ. eigenvalues --   -1.13612  -1.13380  -1.13257  -1.13245  -1.12845
 Alpha  occ. eigenvalues --   -1.12829  -1.12809  -1.12617  -1.12535  -1.12525
 Alpha  occ. eigenvalues --   -0.17940  -0.13228  -0.11631  -0.11192
 Alpha virt. eigenvalues --   -0.06283  -0.05365  -0.04483  -0.03237  -0.02672
 Alpha virt. eigenvalues --   -0.02488  -0.01817  -0.01297  -0.00790  -0.00452
 Alpha virt. eigenvalues --   -0.00213   0.00297   0.00393   0.00686   0.00788

  Beta  occ. eigenvalues --  -38.44559 -38.44360 -38.44223 -38.44116 -38.43714
  Beta  occ. eigenvalues --  -38.43376 -38.42822  -2.20319  -2.20171  -2.19983
  Beta  occ. eigenvalues --   -2.19970  -2.19519  -2.19168  -2.18859  -1.13990
  Beta  occ. eigenvalues --   -1.13973  -1.13957  -1.13874  -1.13828  -1.13778
  Beta  occ. eigenvalues --   -1.13715  -1.13679  -1.13655  -1.13638  -1.13620
  Beta  occ. eigenvalues --   -1.13598  -1.13290  -1.13172  -1.13159  -1.12841
  Beta  occ. eigenvalues --   -1.12826  -1.12810  -1.12547  -1.12517  -1.12504
  Beta  occ. eigenvalues --   -0.17253  -0.13089  -0.11390
  Beta virt. eigenvalues --   -0.07134  -0.06197  -0.05289  -0.04132  -0.02607
  Beta virt. eigenvalues --   -0.02022  -0.01910  -0.01699  -0.01188  -0.00772
  Beta virt. eigenvalues --   -0.00292  -0.00005   0.00342   0.00588   0.00685

 Mulliken charges and spin densities:
               1          2
     1  Na   0.840303   0.077018
     2  Na  -0.196256  -0.118622
     3  Na   0.644204   0.073403
     4  Na   0.944842   0.230730
     5  Na  -1.660307   0.531264
     6  Na  -0.277647  -0.160038
     7  Na  -0.295138   0.366245
 Sum of Mulliken charges =  -0.00000   1.00000

 Dipole moment (field-independent basis, Debye):
    X=              0.4851    Y=             -0.4177    Z=              0.3184  Tot=              0.7150
 Quadrupole moment (field-independent basis, Debye-Ang):
   XX=            -55.8597   YY=            -64.3455   ZZ=            -72.2016
   XY=              1.5422   XZ=              1.3769   YZ=              0.8345

 Normal termination of Gaussian 16 at Tue Dec  5 15:53:47 2023.
