 Gaussian 16, Revision B.01,
 Gaussian 16:  ES64L-G16RevB.01 20-Dec-2017

 -------------------------
 #P B3LYP/6-311+g(d) force
 -------------------------

 -----
 DPGEN
 -----
 Symbolic Z-matrix:
 Charge =  0 Multiplicity = 2

                         Standard orientation:
 ---------------------------------------------------------------------
 Center     Atomic      Atomic             Coordinates (Angstroms)
 Number     Number       Type             X           Y           Z
 ---------------------------------------------------------------------
      1         11           0       -0.566302    0.767442    2.068684
      2         11           0       -0.098346   -2.514835    0.082102
      3         11           0        1.964161    2.018555    0.161846
      4         11           0       -1.425606    2.452990   -0.820232
      5         11           0        2.988871   -1.203601    0.075145
      6         11           0       -0.022208   -0.355636   -1.768746
      7         11           0       -2.840569   -1.164915    0.201201
 ---------------------------------------------------------------------

 SCF Done:  E(UB3LYP) =  -1136.13362719     A.U. after   19 cycles

 The electronic state is 2-A.
 Alpha  occ. eigenvalues --  -38.43830 -38.43785 -38.43622 -38.43606 -38.43587
 Alpha  occ. eigenvalues --  -38.43562 -38.43296  -2.19713  -2.19659  -2.19623
 Alpha  occ. eigenvalues --   -2.19463  -2.19448  -2.19396  -2.19260  -1.13458
 Alpha  occ. eigenvalues --   -1.13384  -1.13372  -1.13356  -1.13343  -1.13309
 Alpha  occ. eigenvalues --   -1.13289  -1.13277  -1.13213  -1.13146  -1.13135
 Alpha  occ. eigenvalues --   -1.13122  -1.13110  -1.13088  -1.13071  -1.13062
 Alpha  occ. eigenvalues --   -1.13049  -1.13026  -1.12914  -1.12887  -1.12845
 Alpha  occ. eigenvalues --   -0.18872  -0.12922  -0.12695  -0.11188
 Alpha virt. eigenvalues --   -0.05324  -0.05151  -0.04488  -0.03391  -0.03202
 Alpha virt. eigenvalues --   -0.02758  -0.01327  -0.01044  -0.00164  -0.00021
 Alpha virt. eigenvalues --    0.00040   0.00371   0.00819   0.00927   0.00946

  Beta  occ. eigenvalues --  -38.43779 -38.43751 -38.43601 -38.43563 -38.43561
  Beta  occ. eigenvalues --  -38.43550 -38.43289  -2.19651  -2.19567  -2.19493
  Beta  occ. eigenvalues --   -2.19456  -2.19404  -2.19399  -2.19249  -1.13403
  Beta  occ. eigenvalues --   -1.13342  -1.13305  -1.13282  -1.13279  -1.13249
  Beta  occ. eigenvalues --   -1.13227  -1.13201  -1.13148  -1.13120  -1.13112
  Beta  occ. eigenvalues --   -1.13102  -1.13071  -1.13067  -1.13049  -1.13041
  Beta  occ. eigenvalues --   -1.13038  -1.13024  -1.12890  -1.12856  -1.12839
  Beta  occ. eigenvalues --   -0.18141  -0.12693  -0.12462
  Beta virt. eigenvalues --   -0.07235  -0.05280  -0.05077  -0.04411  -0.02631
  Beta virt. eigenvalues --   -0.02473  -0.01720  -0.01251  -0.00950  -0.00156
  Beta virt. eigenvalues --    0.00017   0.00108   0.00407   0.00864   0.00936

 Mulliken charges and spin densities:
               1          2
     1  Na  -0.513065   0.490842
     2  Na   0.293654   0.127943
     3  Na   0.156241   0.079620
     4  Na   0.161689   0.003819
     5  Na  -0.059159  -0.075410
     6  Na  -0.323805   0.346670
     7  Na   0.284445   0.026517
 Sum of Mulliken charges =  -0.00000   1.00000

 Dipole moment (field-independent basis, Debye):
    X=             -0.1576    Y=              0.2555    Z=              0.2155  Tot=              0.3695
 Quadrupole moment (field-independent basis, Debye-Ang):
   XX=            -58.4658   YY=            -65.2827   ZZ=            -71.4447
   XY=             -0.2616   XZ=              0.8417   YZ=             -1.7878

 Normal termination of Gaussian 16 at Thu Dec  7 02:30:53 2023.
