 Gaussian 16, Revision B.01,
 Gaussian 16:  ES64L-G16RevB.01 20-Dec-2017

 -------------------------
 #P B3LYP/6-311+g(d) force
 -------------------------

 -----
 DPGEN
 -----
 Symbolic Z-matrix:
 Charge =  0 Multiplicity = 2

                         Standard orientation:
 ---------------------------------------------------------------------
 Center     Atomic      Atomic             Coordinates (Angstroms)
 Number     Number       Type             X           Y           Z
 ---------------------------------------------------------------------
      1         11           0        2.589920   -1.613649    0.121204
      2         11           0        2.105786    2.159069   -0.290388
      3         11           0       -3.115279   -0.282344   -0.419913
      4         11           0       -0.522293   -2.760239    0.146905
      5         11           0       -1.068306    2.504844    0.377929
      6         11           0        0.148059   -0.047798   -1.822811
      7         11           0       -0.137887    0.040116    1.887075
 ---------------------------------------------------------------------

 SCF Done:  E(UB3LYP) =  -1136.13937223     A.U. after   17 cycles

 The electronic state is 2-A.
 Alpha  occ. eigenvalues --  -38.43637 -38.43584 -38.43539 -38.43494 -38.43446
 Alpha  occ. eigenvalues --  -38.43392 -38.43361  -2.19501  -2.19481  -2.19412
 Alpha  occ. eigenvalues --   -2.19353  -2.19348  -2.19332  -2.19278  -1.13242
 Alpha  occ. eigenvalues --   -1.13190  -1.13159  -1.13145  -1.13129  -1.13105
 Alpha  occ. eigenvalues --   -1.13091  -1.13077  -1.13068  -1.13061  -1.13031
 Alpha  occ. eigenvalues --   -1.13023  -1.13004  -1.12999  -1.12989  -1.12961
 Alpha  occ. eigenvalues --   -1.12942  -1.12938  -1.12937  -1.12914  -1.12870
 Alpha  occ. eigenvalues --   -0.18949  -0.12919  -0.12646  -0.11013
 Alpha virt. eigenvalues --   -0.05192  -0.05028  -0.04809  -0.03225  -0.03070
 Alpha virt. eigenvalues --   -0.02651  -0.01334  -0.01115  -0.00180  -0.00124
 Alpha virt. eigenvalues --    0.00036   0.00370   0.00865   0.00918   0.00936

  Beta  occ. eigenvalues --  -38.43634 -38.43576 -38.43489 -38.43454 -38.43439
  Beta  occ. eigenvalues --  -38.43348 -38.43316  -2.19479  -2.19400  -2.19348
  Beta  occ. eigenvalues --   -2.19343  -2.19323  -2.19259  -2.19208  -1.13171
  Beta  occ. eigenvalues --   -1.13154  -1.13138  -1.13119  -1.13084  -1.13069
  Beta  occ. eigenvalues --   -1.13057  -1.13054  -1.13044  -1.13003  -1.13001
  Beta  occ. eigenvalues --   -1.12995  -1.12983  -1.12962  -1.12934  -1.12924
  Beta  occ. eigenvalues --   -1.12903  -1.12879  -1.12864  -1.12862  -1.12848
  Beta  occ. eigenvalues --   -0.18206  -0.12646  -0.12391
  Beta virt. eigenvalues --   -0.07092  -0.05188  -0.04982  -0.04770  -0.02388
  Beta virt. eigenvalues --   -0.02317  -0.01606  -0.01240  -0.01042  -0.00189
  Beta virt. eigenvalues --   -0.00167   0.00125   0.00386   0.00890   0.00925

 Mulliken charges and spin densities:
               1          2
     1  Na   0.015214  -0.108229
     2  Na   0.055436  -0.090600
     3  Na   0.009465  -0.038263
     4  Na   0.143290  -0.061836
     5  Na   0.305355   0.024169
     6  Na  -0.332584   0.718851
     7  Na  -0.196175   0.555909
 Sum of Mulliken charges =  -0.00000   1.00000

 Dipole moment (field-independent basis, Debye):
    X=              0.0940    Y=             -0.1185    Z=             -0.0360  Tot=              0.1555
 Quadrupole moment (field-independent basis, Debye-Ang):
   XX=            -58.6653   YY=            -62.2690   ZZ=            -73.0357
   XY=              0.2724   XZ=              0.7721   YZ=             -0.2827

 Normal termination of Gaussian 16 at Thu Dec  7 18:41:51 2023.
