 Gaussian 16, Revision B.01,
 Gaussian 16:  ES64L-G16RevB.01 20-Dec-2017

 -------------------------
 #P B3LYP/6-311+g(d) force
 -------------------------

 -----
 DPGEN
 -----
 Symbolic Z-matrix:
 Charge =  0 Multiplicity = 2

                         Standard orientation:
 ---------------------------------------------------------------------
 Center     Atomic      Atomic             Coordinates (Angstroms)
 Number     Number       Type             X           Y           Z
 ---------------------------------------------------------------------
      1         11           0        3.206665   -1.564168   -0.411342
      2         11           0       -1.341597    2.348191    0.250355
      3         11           0       -3.652885   -0.968339   -0.227568
      4         11           0       -0.883858   -1.063021    1.594796
      5         11           0        1.463999    1.523422   -1.311326
      6         11           0       -0.610078   -0.807662   -1.631894
      7         11           0        1.817754    0.531575    1.736979
 ---------------------------------------------------------------------

 SCF Done:  E(UB3LYP) =  -1136.12595494     A.U. after   23 cycles

 The electronic state is 2-A.
 Alpha  occ. eigenvalues --  -38.44338 -38.44337 -38.44055 -38.43990 -38.43915
 Alpha  occ. eigenvalues --  -38.43080 -38.42817  -2.20264  -2.20161  -2.19987
 Alpha  occ. eigenvalues --   -2.19911  -2.19720  -2.19024  -2.18661  -1.13972
 Alpha  occ. eigenvalues --   -1.13933  -1.13883  -1.13836  -1.13806  -1.13791
 Alpha  occ. eigenvalues --   -1.13742  -1.13651  -1.13584  -1.13581  -1.13537
 Alpha  occ. eigenvalues --   -1.13504  -1.13386  -1.13378  -1.13356  -1.12737
 Alpha  occ. eigenvalues --   -1.12689  -1.12610  -1.12333  -1.12321  -1.12294
 Alpha  occ. eigenvalues --   -0.18840  -0.13672  -0.11896  -0.11123
 Alpha virt. eigenvalues --   -0.06339  -0.04943  -0.04355  -0.03339  -0.02778
 Alpha virt. eigenvalues --   -0.02675  -0.02125  -0.01103  -0.00543   0.00088
 Alpha virt. eigenvalues --    0.00251   0.00338   0.00490   0.00711   0.00883

  Beta  occ. eigenvalues --  -38.44336 -38.44276 -38.43997 -38.43937 -38.43912
  Beta  occ. eigenvalues --  -38.43051 -38.42811  -2.20160  -2.20154  -2.19883
  Beta  occ. eigenvalues --   -2.19817  -2.19716  -2.18972  -2.18652  -1.13902
  Beta  occ. eigenvalues --   -1.13861  -1.13829  -1.13816  -1.13804  -1.13757
  Beta  occ. eigenvalues --   -1.13656  -1.13579  -1.13524  -1.13513  -1.13462
  Beta  occ. eigenvalues --   -1.13425  -1.13383  -1.13361  -1.13353  -1.12691
  Beta  occ. eigenvalues --   -1.12649  -1.12573  -1.12324  -1.12302  -1.12291
  Beta  occ. eigenvalues --   -0.18019  -0.13543  -0.10970
  Beta virt. eigenvalues --   -0.07746  -0.06129  -0.04839  -0.03802  -0.02959
  Beta virt. eigenvalues --   -0.02143  -0.02048  -0.01928  -0.00960  -0.00235
  Beta virt. eigenvalues --    0.00119   0.00267   0.00467   0.00571   0.00778

 Mulliken charges and spin densities:
               1          2
     1  Na  -0.084910  -0.055803
     2  Na  -0.453070   0.016340
     3  Na   0.506590  -0.011308
     4  Na  -0.321776   0.262440
     5  Na   0.226892   0.236680
     6  Na  -0.226643   0.348021
     7  Na   0.352916   0.203630
 Sum of Mulliken charges =  -0.00000   1.00000

 Dipole moment (field-independent basis, Debye):
    X=             -0.5622    Y=             -0.1103    Z=             -0.1189  Tot=              0.5851
 Quadrupole moment (field-independent basis, Debye-Ang):
   XX=            -52.2664   YY=            -74.7631   ZZ=            -67.7676
   XY=             -0.9217   XZ=             -0.7184   YZ=              3.0071

 Normal termination of Gaussian 16 at Thu Dec  7 21:55:23 2023.
