 Gaussian 16, Revision B.01,
 Gaussian 16:  ES64L-G16RevB.01 20-Dec-2017

 -------------------------
 #P B3LYP/6-311+g(d) force
 -------------------------

 -----
 DPGEN
 -----
 Symbolic Z-matrix:
 Charge =  0 Multiplicity = 2

                         Standard orientation:
 ---------------------------------------------------------------------
 Center     Atomic      Atomic             Coordinates (Angstroms)
 Number     Number       Type             X           Y           Z
 ---------------------------------------------------------------------
      1         11           0        1.835304    0.500901   -1.467088
      2         11           0        1.074220    3.421747    0.643592
      3         11           0        2.532022   -2.766336    0.344306
      4         11           0       -0.936494   -1.819485   -0.821942
      5         11           0        0.334849    0.023809    2.109912
      6         11           0       -1.222034    1.256612   -1.366080
      7         11           0       -3.617867   -0.617248    0.557300
 ---------------------------------------------------------------------

 SCF Done:  E(UB3LYP) =  -1136.13179798     A.U. after   18 cycles

 The electronic state is 2-A.
 Alpha  occ. eigenvalues --  -38.44588 -38.43824 -38.43792 -38.43755 -38.43584
 Alpha  occ. eigenvalues --  -38.43496 -38.43435  -2.20400  -2.19671  -2.19637
 Alpha  occ. eigenvalues --   -2.19541  -2.19510  -2.19351  -2.19265  -1.14072
 Alpha  occ. eigenvalues --   -1.14034  -1.14011  -1.13433  -1.13322  -1.13319
 Alpha  occ. eigenvalues --   -1.13289  -1.13288  -1.13267  -1.13248  -1.13214
 Alpha  occ. eigenvalues --   -1.13203  -1.13171  -1.13153  -1.13103  -1.13034
 Alpha  occ. eigenvalues --   -1.13025  -1.12943  -1.12934  -1.12922  -1.12892
 Alpha  occ. eigenvalues --   -0.18158  -0.12674  -0.12079  -0.11334
 Alpha virt. eigenvalues --   -0.05801  -0.04831  -0.04693  -0.03316  -0.03082
 Alpha virt. eigenvalues --   -0.02881  -0.01519  -0.01403  -0.00643  -0.00085
 Alpha virt. eigenvalues --    0.00258   0.00319   0.00721   0.00765   0.00784

  Beta  occ. eigenvalues --  -38.44504 -38.43819 -38.43748 -38.43746 -38.43543
  Beta  occ. eigenvalues --  -38.43499 -38.43417  -2.20245  -2.19629  -2.19593
  Beta  occ. eigenvalues --   -2.19525  -2.19439  -2.19324  -2.19272  -1.13970
  Beta  occ. eigenvalues --   -1.13925  -1.13897  -1.13367  -1.13314  -1.13282
  Beta  occ. eigenvalues --   -1.13275  -1.13257  -1.13219  -1.13203  -1.13201
  Beta  occ. eigenvalues --   -1.13178  -1.13158  -1.13086  -1.13060  -1.13012
  Beta  occ. eigenvalues --   -1.12972  -1.12947  -1.12930  -1.12915  -1.12893
  Beta  occ. eigenvalues --   -0.17341  -0.12514  -0.11964
  Beta virt. eigenvalues --   -0.07351  -0.05543  -0.04663  -0.04614  -0.02758
  Beta virt. eigenvalues --   -0.02494  -0.02009  -0.01429  -0.01273  -0.00290
  Beta virt. eigenvalues --   -0.00132   0.00297   0.00427   0.00764   0.00804

 Mulliken charges and spin densities:
               1          2
     1  Na   0.043902   0.149418
     2  Na  -0.095508  -0.148611
     3  Na   0.250666  -0.110577
     4  Na  -0.097488   0.158398
     5  Na  -0.482072   0.809029
     6  Na   0.168063   0.280950
     7  Na   0.212438  -0.138608
 Sum of Mulliken charges =  -0.00000   1.00000

 Dipole moment (field-independent basis, Debye):
    X=             -0.1803    Y=              0.2674    Z=              0.3995  Tot=              0.5134
 Quadrupole moment (field-independent basis, Debye-Ang):
   XX=            -60.4657   YY=            -63.4796   ZZ=            -69.5933
   XY=             -0.1863   XZ=             -1.9609   YZ=              0.3383

 Normal termination of Gaussian 16 at Fri Dec  8 00:17:13 2023.
