 Gaussian 16, Revision B.01,
 Gaussian 16:  ES64L-G16RevB.01 20-Dec-2017

 -------------------------
 #P B3LYP/6-311+g(d) force
 -------------------------

 -----
 DPGEN
 -----
 Symbolic Z-matrix:
 Charge =  0 Multiplicity = 2

                         Standard orientation:
 ---------------------------------------------------------------------
 Center     Atomic      Atomic             Coordinates (Angstroms)
 Number     Number       Type             X           Y           Z
 ---------------------------------------------------------------------
      1         11           0       -2.030394   -1.346150   -0.020697
      2         11           0       -5.132267   -2.100913   -0.201411
      3         11           0       -4.369724    2.014263   -1.144404
      4         11           0       -1.340091    2.106473    1.036607
      5         11           0        1.478790   -0.330382    1.466034
      6         11           0        4.072100   -0.341891   -0.450227
      7         11           0        7.321586   -0.001400   -0.685902
 ---------------------------------------------------------------------

 SCF Done:  E(UB3LYP) =  -1136.11084205     A.U. after   22 cycles

 The electronic state is 2-A.
 Alpha  occ. eigenvalues --  -38.45576 -38.45076 -38.44756 -38.44196 -38.44128
 Alpha  occ. eigenvalues --  -38.43833 -38.43596  -2.21342  -2.20852  -2.20581
 Alpha  occ. eigenvalues --   -2.19998  -2.19901  -2.19645  -2.19405  -1.15010
 Alpha  occ. eigenvalues --   -1.14984  -1.14948  -1.14541  -1.14529  -1.14458
 Alpha  occ. eigenvalues --   -1.14280  -1.14248  -1.14194  -1.13664  -1.13649
 Alpha  occ. eigenvalues --   -1.13612  -1.13556  -1.13555  -1.13545  -1.13345
 Alpha  occ. eigenvalues --   -1.13312  -1.13263  -1.13079  -1.13074  -1.13033
 Alpha  occ. eigenvalues --   -0.16343  -0.13882  -0.12075  -0.11521
 Alpha virt. eigenvalues --   -0.07000  -0.05495  -0.04320  -0.03555  -0.03260
 Alpha virt. eigenvalues --   -0.02569  -0.02212  -0.01782  -0.01291  -0.00925
 Alpha virt. eigenvalues --   -0.00758  -0.00222   0.00087   0.00377   0.00439

  Beta  occ. eigenvalues --  -38.45499 -38.45052 -38.44720 -38.44155 -38.44106
  Beta  occ. eigenvalues --  -38.43818 -38.43602  -2.21201  -2.20809  -2.20515
  Beta  occ. eigenvalues --   -2.19925  -2.19859  -2.19616  -2.19418  -1.14916
  Beta  occ. eigenvalues --   -1.14880  -1.14849  -1.14515  -1.14504  -1.14404
  Beta  occ. eigenvalues --   -1.14236  -1.14198  -1.14139  -1.13604  -1.13597
  Beta  occ. eigenvalues --   -1.13569  -1.13528  -1.13527  -1.13518  -1.13329
  Beta  occ. eigenvalues --   -1.13288  -1.13249  -1.13088  -1.13084  -1.13029
  Beta  occ. eigenvalues --   -0.15703  -0.13568  -0.11410
  Beta virt. eigenvalues --   -0.08171  -0.06651  -0.05190  -0.04018  -0.03307
  Beta virt. eigenvalues --   -0.02670  -0.02407  -0.01976  -0.01586  -0.00934
  Beta virt. eigenvalues --   -0.00735  -0.00443  -0.00071   0.00239   0.00425

 Mulliken charges and spin densities:
               1          2
     1  Na  -1.033087   0.370166
     2  Na   0.517221   0.128782
     3  Na   0.160937   0.283366
     4  Na  -0.017614   0.172347
     5  Na  -0.189854   0.083823
     6  Na  -0.299935  -0.050350
     7  Na   0.862333   0.011865
 Sum of Mulliken charges =  -0.00000   1.00000

 Dipole moment (field-independent basis, Debye):
    X=             -1.8383    Y=              0.7528    Z=             -0.0203  Tot=              1.9866
 Quadrupole moment (field-independent basis, Debye-Ang):
   XX=            -56.0340   YY=            -68.4939   ZZ=            -70.4859
   XY=             -0.9472   XZ=              2.2813   YZ=             -0.7762

 Normal termination of Gaussian 16 at Tue Nov 28 21:48:08 2023.
