 Gaussian 16, Revision B.01,
 Gaussian 16:  ES64L-G16RevB.01 20-Dec-2017

 -------------------------
 #P B3LYP/6-311+g(d) force
 -------------------------

 -----
 DPGEN
 -----
 Symbolic Z-matrix:
 Charge =  0 Multiplicity = 2

                         Standard orientation:
 ---------------------------------------------------------------------
 Center     Atomic      Atomic             Coordinates (Angstroms)
 Number     Number       Type             X           Y           Z
 ---------------------------------------------------------------------
      1         11           0       -2.983509    1.852284   -0.426370
      2         11           0        0.548324    3.004406    0.867952
      3         11           0       -3.377965   -1.477467    0.355854
      4         11           0        0.152380   -2.800620   -0.551946
      5         11           0       -0.430922   -0.197099   -0.142882
      6         11           0        3.165511    1.446796   -0.932402
      7         11           0        2.926181   -1.828301    0.829794
 ---------------------------------------------------------------------

 SCF Done:  E(UB3LYP) =  -1136.11489267     A.U. after   29 cycles

 The electronic state is 2-A.
 Alpha  occ. eigenvalues --  -38.44997 -38.44889 -38.43838 -38.43581 -38.43527
 Alpha  occ. eigenvalues --  -38.43503 -38.43466  -2.20795  -2.20702  -2.19777
 Alpha  occ. eigenvalues --   -2.19566  -2.19436  -2.19316  -2.19277  -1.14481
 Alpha  occ. eigenvalues --   -1.14455  -1.14435  -1.14396  -1.14375  -1.14316
 Alpha  occ. eigenvalues --   -1.13770  -1.13393  -1.13353  -1.13248  -1.13186
 Alpha  occ. eigenvalues --   -1.13095  -1.13092  -1.13062  -1.13053  -1.12992
 Alpha  occ. eigenvalues --   -1.12973  -1.12952  -1.12942  -1.12913  -1.12894
 Alpha  occ. eigenvalues --   -0.17592  -0.13812  -0.12985  -0.09232
 Alpha virt. eigenvalues --   -0.06736  -0.05629  -0.04899  -0.02727  -0.02639
 Alpha virt. eigenvalues --   -0.02356  -0.02116  -0.01466  -0.01119  -0.00414
 Alpha virt. eigenvalues --    0.00071   0.00297   0.00476   0.00533   0.00598

  Beta  occ. eigenvalues --  -38.44990 -38.44876 -38.43812 -38.43531 -38.43519
  Beta  occ. eigenvalues --  -38.43477 -38.43404  -2.20787  -2.20684  -2.19730
  Beta  occ. eigenvalues --   -2.19548  -2.19345  -2.19270  -2.19163  -1.14480
  Beta  occ. eigenvalues --   -1.14448  -1.14397  -1.14391  -1.14368  -1.14258
  Beta  occ. eigenvalues --   -1.13737  -1.13361  -1.13330  -1.13234  -1.13177
  Beta  occ. eigenvalues --   -1.13069  -1.13035  -1.13008  -1.12984  -1.12960
  Beta  occ. eigenvalues --   -1.12942  -1.12903  -1.12868  -1.12836  -1.12811
  Beta  occ. eigenvalues --   -0.17293  -0.13122  -0.12570
  Beta virt. eigenvalues --   -0.06731  -0.05878  -0.05398  -0.04735  -0.02511
  Beta virt. eigenvalues --   -0.02179  -0.02029  -0.01745  -0.01074  -0.00962
  Beta virt. eigenvalues --   -0.00295   0.00286   0.00461   0.00530   0.00619

 Mulliken charges and spin densities:
               1          2
     1  Na   0.560539   0.114100
     2  Na   0.496545   0.055445
     3  Na   0.454356   0.348174
     4  Na   1.529162  -0.053636
     5  Na  -4.348397  -0.144713
     6  Na   0.590837   0.544292
     7  Na   0.716958   0.136337
 Sum of Mulliken charges =  -0.00000   1.00000

 Dipole moment (field-independent basis, Debye):
    X=             -0.4915    Y=             -0.3426    Z=              0.4338  Tot=              0.7396
 Quadrupole moment (field-independent basis, Debye-Ang):
   XX=            -73.4202   YY=            -60.3026   ZZ=            -66.8417
   XY=             -6.6244   XZ=              3.8068   YZ=             -1.7835

 Normal termination of Gaussian 16 at Fri Dec  8 17:40:35 2023.
