 Gaussian 16, Revision B.01,
 Gaussian 16:  ES64L-G16RevB.01 20-Dec-2017

 -------------------------
 #P B3LYP/6-311+g(d) force
 -------------------------

 -----
 DPGEN
 -----
 Symbolic Z-matrix:
 Charge =  0 Multiplicity = 2

                         Standard orientation:
 ---------------------------------------------------------------------
 Center     Atomic      Atomic             Coordinates (Angstroms)
 Number     Number       Type             X           Y           Z
 ---------------------------------------------------------------------
      1         11           0        3.150284    1.061602   -0.220481
      2         11           0       -3.118622    1.109996   -0.129453
      3         11           0        3.216014   -2.010181   -0.043108
      4         11           0       -0.073231   -0.321710   -1.376327
      5         11           0       -0.115576   -0.333726    1.931728
      6         11           0       -2.968915   -2.280123   -0.186653
      7         11           0       -0.089954    2.774142    0.024295
 ---------------------------------------------------------------------

 SCF Done:  E(UB3LYP) =  -1136.12485489     A.U. after   23 cycles

 The electronic state is 2-A.
 Alpha  occ. eigenvalues --  -38.44801 -38.44568 -38.44533 -38.44403 -38.43870
 Alpha  occ. eigenvalues --  -38.43261 -38.42403  -2.20636  -2.20421  -2.20412
 Alpha  occ. eigenvalues --   -2.20209  -2.19664  -2.19139  -2.18266  -1.14316
 Alpha  occ. eigenvalues --   -1.14296  -1.14268  -1.14157  -1.14127  -1.14083
 Alpha  occ. eigenvalues --   -1.14071  -1.14053  -1.14020  -1.13869  -1.13854
 Alpha  occ. eigenvalues --   -1.13836  -1.13338  -1.13322  -1.13305  -1.12824
 Alpha  occ. eigenvalues --   -1.12748  -1.12741  -1.11946  -1.11921  -1.11919
 Alpha  occ. eigenvalues --   -0.18189  -0.13974  -0.11600  -0.10089
 Alpha virt. eigenvalues --   -0.06705  -0.06133  -0.04089  -0.03347  -0.02574
 Alpha virt. eigenvalues --   -0.02326  -0.02026  -0.01583  -0.01108  -0.00297
 Alpha virt. eigenvalues --   -0.00108   0.00161   0.00536   0.00622   0.00746

  Beta  occ. eigenvalues --  -38.44789 -38.44557 -38.44508 -38.44403 -38.43868
  Beta  occ. eigenvalues --  -38.43146 -38.42398  -2.20616  -2.20395  -2.20377
  Beta  occ. eigenvalues --   -2.20211  -2.19663  -2.18927  -2.18261  -1.14292
  Beta  occ. eigenvalues --   -1.14277  -1.14254  -1.14122  -1.14105  -1.14061
  Beta  occ. eigenvalues --   -1.14039  -1.14033  -1.13992  -1.13871  -1.13841
  Beta  occ. eigenvalues --   -1.13837  -1.13339  -1.13309  -1.13301  -1.12681
  Beta  occ. eigenvalues --   -1.12600  -1.12592  -1.11945  -1.11919  -1.11891
  Beta  occ. eigenvalues --   -0.17520  -0.13720  -0.11433
  Beta virt. eigenvalues --   -0.06570  -0.06264  -0.06054  -0.04080  -0.02720
  Beta virt. eigenvalues --   -0.02410  -0.01669  -0.01560  -0.01118  -0.01021
  Beta virt. eigenvalues --   -0.00271   0.00089   0.00247   0.00626   0.00643

 Mulliken charges and spin densities:
               1          2
     1  Na   0.250372   0.094700
     2  Na   0.340171   0.101158
     3  Na   0.258039   0.001013
     4  Na  -0.480041   0.205577
     5  Na  -0.445321   0.617837
     6  Na   0.197020   0.015302
     7  Na  -0.120241  -0.035587
 Sum of Mulliken charges =  -0.00000   1.00000

 Dipole moment (field-independent basis, Debye):
    X=              0.0597    Y=             -0.2130    Z=              0.1013  Tot=              0.2433
 Quadrupole moment (field-independent basis, Debye-Ang):
   XX=            -53.1554   YY=            -64.5541   ZZ=            -76.7364
   XY=             -1.0237   XZ=             -0.3625   YZ=              1.0011

 Normal termination of Gaussian 16 at Tue Dec  5 14:00:04 2023.
