 Gaussian 16, Revision B.01,
 Gaussian 16:  ES64L-G16RevB.01 20-Dec-2017

 -------------------------
 #P B3LYP/6-311+g(d) force
 -------------------------

 -----
 DPGEN
 -----
 Symbolic Z-matrix:
 Charge =  0 Multiplicity = 2

                         Standard orientation:
 ---------------------------------------------------------------------
 Center     Atomic      Atomic             Coordinates (Angstroms)
 Number     Number       Type             X           Y           Z
 ---------------------------------------------------------------------
      1         11           0        0.106134   -0.233970   -0.321797
      2         11           0       -2.454649   -2.471180   -0.972950
      3         11           0       -3.851913    0.133543    0.609290
      4         11           0       -1.202215    3.034122    0.382311
      5         11           0        1.988758    2.632053   -0.380123
      6         11           0        3.200387   -0.267185   -0.308024
      7         11           0        2.213497   -2.827383    0.991293
 ---------------------------------------------------------------------

 SCF Done:  E(UB3LYP) =  -1136.12145001     A.U. after   23 cycles

 The electronic state is 2-A.
 Alpha  occ. eigenvalues --  -38.45140 -38.44164 -38.44147 -38.43745 -38.43516
 Alpha  occ. eigenvalues --  -38.43372 -38.43317  -2.20910  -2.20102  -2.20081
 Alpha  occ. eigenvalues --   -2.19575  -2.19381  -2.19217  -2.19203  -1.14598
 Alpha  occ. eigenvalues --   -1.14560  -1.14556  -1.13876  -1.13809  -1.13788
 Alpha  occ. eigenvalues --   -1.13750  -1.13722  -1.13666  -1.13232  -1.13216
 Alpha  occ. eigenvalues --   -1.13199  -1.13036  -1.13016  -1.12995  -1.12906
 Alpha  occ. eigenvalues --   -1.12885  -1.12874  -1.12861  -1.12857  -1.12788
 Alpha  occ. eigenvalues --   -0.17516  -0.14102  -0.12974  -0.09903
 Alpha virt. eigenvalues --   -0.06697  -0.05537  -0.04425  -0.03205  -0.02924
 Alpha virt. eigenvalues --   -0.02394  -0.01702  -0.01528  -0.01135  -0.00450
 Alpha virt. eigenvalues --    0.00027   0.00169   0.00332   0.00665   0.00700

  Beta  occ. eigenvalues --  -38.45137 -38.44169 -38.44128 -38.43692 -38.43457
  Beta  occ. eigenvalues --  -38.43334 -38.43289  -2.20908  -2.20093  -2.20073
  Beta  occ. eigenvalues --   -2.19476  -2.19271  -2.19168  -2.19131  -1.14602
  Beta  occ. eigenvalues --   -1.14563  -1.14519  -1.13876  -1.13802  -1.13745
  Beta  occ. eigenvalues --   -1.13736  -1.13694  -1.13671  -1.13163  -1.13148
  Beta  occ. eigenvalues --   -1.13138  -1.12961  -1.12940  -1.12923  -1.12865
  Beta  occ. eigenvalues --   -1.12848  -1.12831  -1.12817  -1.12808  -1.12740
  Beta  occ. eigenvalues --   -0.17178  -0.13485  -0.12494
  Beta virt. eigenvalues --   -0.06639  -0.06505  -0.05209  -0.04212  -0.02789
  Beta virt. eigenvalues --   -0.02490  -0.02217  -0.01526  -0.01196  -0.00911
  Beta virt. eigenvalues --   -0.00202   0.00271   0.00345   0.00463   0.00721

 Mulliken charges and spin densities:
               1          2
     1  Na  -3.762092  -0.027198
     2  Na   1.211971   0.196236
     3  Na   0.835453  -0.025638
     4  Na   0.084370   0.233961
     5  Na   0.580759   0.171053
     6  Na   0.511763   0.197363
     7  Na   0.537776   0.254223
 Sum of Mulliken charges =  -0.00000   1.00000

 Dipole moment (field-independent basis, Debye):
    X=             -0.3629    Y=             -0.2601    Z=              0.1881  Tot=              0.4845
 Quadrupole moment (field-independent basis, Debye-Ang):
   XX=            -58.1461   YY=            -66.7566   ZZ=            -71.7980
   XY=              2.6837   XZ=             -2.8723   YZ=             -0.1771

 Normal termination of Gaussian 16 at Fri Dec  8 19:02:08 2023.
