 Gaussian 16, Revision B.01,
 Gaussian 16:  ES64L-G16RevB.01 20-Dec-2017

 -------------------------
 #P B3LYP/6-311+g(d) force
 -------------------------

 -----
 DPGEN
 -----
 Symbolic Z-matrix:
 Charge =  0 Multiplicity = 2

                         Standard orientation:
 ---------------------------------------------------------------------
 Center     Atomic      Atomic             Coordinates (Angstroms)
 Number     Number       Type             X           Y           Z
 ---------------------------------------------------------------------
      1         11           0        0.108924    0.180249   -1.797747
      2         11           0       -0.084654   -0.139320    1.865745
      3         11           0        1.496841    2.485636    0.085164
      4         11           0        3.047976   -0.507075    0.045880
      5         11           0       -2.355450    1.955946   -0.022557
      6         11           0       -2.456825   -1.247193   -0.028233
      7         11           0        0.243188   -2.728243   -0.148251
 ---------------------------------------------------------------------

 SCF Done:  E(UB3LYP) =  -1136.13839259     A.U. after   19 cycles

 The electronic state is 2-A.
 Alpha  occ. eigenvalues --  -38.43961 -38.43584 -38.43562 -38.43434 -38.43356
 Alpha  occ. eigenvalues --  -38.43240 -38.42994  -2.19807  -2.19437  -2.19421
 Alpha  occ. eigenvalues --   -2.19390  -2.19325  -2.19221  -2.18921  -1.13477
 Alpha  occ. eigenvalues --   -1.13474  -1.13453  -1.13169  -1.13126  -1.13123
 Alpha  occ. eigenvalues --   -1.13102  -1.13096  -1.13076  -1.13054  -1.13040
 Alpha  occ. eigenvalues --   -1.13002  -1.12987  -1.12944  -1.12929  -1.12894
 Alpha  occ. eigenvalues --   -1.12851  -1.12831  -1.12594  -1.12571  -1.12549
 Alpha  occ. eigenvalues --   -0.19212  -0.13238  -0.12531  -0.10910
 Alpha virt. eigenvalues --   -0.05512  -0.05059  -0.04527  -0.03283  -0.02894
 Alpha virt. eigenvalues --   -0.02550  -0.01434  -0.01010  -0.00210  -0.00042
 Alpha virt. eigenvalues --   -0.00001   0.00374   0.00853   0.00913   0.00956

  Beta  occ. eigenvalues --  -38.43958 -38.43581 -38.43557 -38.43425 -38.43272
  Beta  occ. eigenvalues --  -38.43161 -38.42985  -2.19805  -2.19435  -2.19416
  Beta  occ. eigenvalues --   -2.19379  -2.19170  -2.19076  -2.18910  -1.13475
  Beta  occ. eigenvalues --   -1.13456  -1.13450  -1.13166  -1.13115  -1.13111
  Beta  occ. eigenvalues --   -1.13077  -1.13074  -1.13066  -1.13041  -1.13009
  Beta  occ. eigenvalues --   -1.12995  -1.12897  -1.12836  -1.12823  -1.12801
  Beta  occ. eigenvalues --   -1.12748  -1.12728  -1.12587  -1.12547  -1.12525
  Beta  occ. eigenvalues --   -0.18447  -0.12981  -0.12270
  Beta virt. eigenvalues --   -0.06955  -0.05503  -0.05042  -0.04522  -0.02437
  Beta virt. eigenvalues --   -0.02094  -0.01482  -0.01356  -0.00939  -0.00272
  Beta virt. eigenvalues --   -0.00095   0.00126   0.00387   0.00893   0.00917

 Mulliken charges and spin densities:
               1          2
     1  Na  -0.411766   0.657008
     2  Na  -0.481917   0.700534
     3  Na   0.067968  -0.140976
     4  Na   0.118391  -0.085294
     5  Na   0.101803  -0.113726
     6  Na   0.358517   0.028946
     7  Na   0.247005  -0.046492
 Sum of Mulliken charges =  -0.00000   1.00000

 Dipole moment (field-independent basis, Debye):
    X=              0.2853    Y=              0.2511    Z=              0.0494  Tot=              0.3832
 Quadrupole moment (field-independent basis, Debye-Ang):
   XX=            -57.3490   YY=            -62.9729   ZZ=            -73.5294
   XY=             -0.9040   XZ=              0.4041   YZ=              0.7035

 Normal termination of Gaussian 16 at Fri Dec  8 00:08:37 2023.
