 Gaussian 16, Revision B.01,
 Gaussian 16:  ES64L-G16RevB.01 20-Dec-2017

 -------------------------
 #P B3LYP/6-311+g(d) force
 -------------------------

 -----
 DPGEN
 -----
 Symbolic Z-matrix:
 Charge =  0 Multiplicity = 2

                         Standard orientation:
 ---------------------------------------------------------------------
 Center     Atomic      Atomic             Coordinates (Angstroms)
 Number     Number       Type             X           Y           Z
 ---------------------------------------------------------------------
      1         11           0       -1.475851    1.798535    0.720136
      2         11           0        1.545378    0.117245    1.541394
      3         11           0       -3.162639   -0.231506   -1.670452
      4         11           0       -2.278771   -1.415462    1.598279
      5         11           0       -0.069572   -1.112860   -1.021013
      6         11           0        1.639493    2.206256   -0.652410
      7         11           0        3.801963   -1.362209   -0.515934
 ---------------------------------------------------------------------

 SCF Done:  E(UB3LYP) =  -1136.12577799     A.U. after   22 cycles

 The electronic state is 2-A.
 Alpha  occ. eigenvalues --  -38.44296 -38.44243 -38.43950 -38.43924 -38.43821
 Alpha  occ. eigenvalues --  -38.43463 -38.42870  -2.20150  -2.20102  -2.19856
 Alpha  occ. eigenvalues --   -2.19774  -2.19704  -2.19338  -2.18768  -1.13829
 Alpha  occ. eigenvalues --   -1.13794  -1.13777  -1.13770  -1.13756  -1.13703
 Alpha  occ. eigenvalues --   -1.13606  -1.13535  -1.13491  -1.13465  -1.13436
 Alpha  occ. eigenvalues --   -1.13403  -1.13368  -1.13359  -1.13311  -1.13008
 Alpha  occ. eigenvalues --   -1.13003  -1.12936  -1.12457  -1.12447  -1.12382
 Alpha  occ. eigenvalues --   -0.18605  -0.14012  -0.11212  -0.11014
 Alpha virt. eigenvalues --   -0.06401  -0.05155  -0.04961  -0.03047  -0.02582
 Alpha virt. eigenvalues --   -0.02293  -0.02138  -0.01118  -0.00968  -0.00015
 Alpha virt. eigenvalues --    0.00156   0.00245   0.00341   0.00557   0.00704

  Beta  occ. eigenvalues --  -38.44243 -38.44183 -38.43932 -38.43926 -38.43797
  Beta  occ. eigenvalues --  -38.43451 -38.42855  -2.20052  -2.19993  -2.19817
  Beta  occ. eigenvalues --   -2.19730  -2.19719  -2.19315  -2.18746  -1.13755
  Beta  occ. eigenvalues --   -1.13728  -1.13709  -1.13694  -1.13678  -1.13620
  Beta  occ. eigenvalues --   -1.13565  -1.13487  -1.13464  -1.13429  -1.13409
  Beta  occ. eigenvalues --   -1.13399  -1.13375  -1.13357  -1.13296  -1.12991
  Beta  occ. eigenvalues --   -1.12984  -1.12920  -1.12443  -1.12393  -1.12376
  Beta  occ. eigenvalues --   -0.17881  -0.13812  -0.10893
  Beta virt. eigenvalues --   -0.07288  -0.06202  -0.04927  -0.04417  -0.02859
  Beta virt. eigenvalues --   -0.02295  -0.01806  -0.01517  -0.00969  -0.00533
  Beta virt. eigenvalues --    0.00039   0.00212   0.00382   0.00444   0.00657

 Mulliken charges and spin densities:
               1          2
     1  Na   0.156450   0.371445
     2  Na   0.137278   0.140693
     3  Na   0.305621   0.050320
     4  Na  -0.052801   0.222970
     5  Na  -0.625377   0.345513
     6  Na  -0.165408  -0.056855
     7  Na   0.244237  -0.074086
 Sum of Mulliken charges =  -0.00000   1.00000

 Dipole moment (field-independent basis, Debye):
    X=             -0.2846    Y=              0.1177    Z=             -0.0804  Tot=              0.3183
 Quadrupole moment (field-independent basis, Debye-Ang):
   XX=            -51.8884   YY=            -75.1603   ZZ=            -67.1728
   XY=              0.8157   XZ=             -1.4570   YZ=             -3.3283

 Normal termination of Gaussian 16 at Tue Dec  5 16:16:06 2023.
