 Gaussian 16, Revision B.01,
 Gaussian 16:  ES64L-G16RevB.01 20-Dec-2017

 -------------------------
 #P B3LYP/6-311+g(d) force
 -------------------------

 -----
 DPGEN
 -----
 Symbolic Z-matrix:
 Charge =  0 Multiplicity = 2

                         Standard orientation:
 ---------------------------------------------------------------------
 Center     Atomic      Atomic             Coordinates (Angstroms)
 Number     Number       Type             X           Y           Z
 ---------------------------------------------------------------------
      1         11           0       -0.990798    2.901692    0.354600
      2         11           0        3.127006    2.058123   -0.292514
      3         11           0        3.113444   -1.443399    0.323602
      4         11           0       -0.179863   -3.068777   -0.021802
      5         11           0       -2.680003   -0.133303    1.615650
      6         11           0       -2.979759   -0.058662   -1.611440
      7         11           0        0.589973   -0.255675   -0.368094
 ---------------------------------------------------------------------

 SCF Done:  E(UB3LYP) =  -1136.11801976     A.U. after   23 cycles

 The electronic state is 2-A.
 Alpha  occ. eigenvalues --  -38.44821 -38.44442 -38.44424 -38.44153 -38.43937
 Alpha  occ. eigenvalues --  -38.43390 -38.43327  -2.20680  -2.20253  -2.20213
 Alpha  occ. eigenvalues --   -2.19945  -2.19774  -2.19375  -2.19243  -1.14451
 Alpha  occ. eigenvalues --   -1.14337  -1.14261  -1.13938  -1.13906  -1.13890
 Alpha  occ. eigenvalues --   -1.13886  -1.13876  -1.13828  -1.13618  -1.13603
 Alpha  occ. eigenvalues --   -1.13584  -1.13557  -1.13423  -1.13372  -1.13063
 Alpha  occ. eigenvalues --   -1.13029  -1.12992  -1.12909  -1.12867  -1.12859
 Alpha  occ. eigenvalues --   -0.17737  -0.13981  -0.12280  -0.09563
 Alpha virt. eigenvalues --   -0.06647  -0.05864  -0.04854  -0.03392  -0.02281
 Alpha virt. eigenvalues --   -0.02161  -0.01548  -0.01434  -0.01158  -0.00966
 Alpha virt. eigenvalues --   -0.00276   0.00257   0.00433   0.00631   0.00706

  Beta  occ. eigenvalues --  -38.44822 -38.44424 -38.44386 -38.44148 -38.43932
  Beta  occ. eigenvalues --  -38.43319 -38.43302  -2.20682  -2.20186  -2.20181
  Beta  occ. eigenvalues --   -2.19935  -2.19768  -2.19364  -2.19080  -1.14453
  Beta  occ. eigenvalues --   -1.14337  -1.14257  -1.13876  -1.13871  -1.13857
  Beta  occ. eigenvalues --   -1.13848  -1.13830  -1.13802  -1.13610  -1.13597
  Beta  occ. eigenvalues --   -1.13577  -1.13554  -1.13408  -1.13365  -1.13043
  Beta  occ. eigenvalues --   -1.13010  -1.12986  -1.12795  -1.12757  -1.12746
  Beta  occ. eigenvalues --   -0.17323  -0.13609  -0.12105
  Beta virt. eigenvalues --   -0.06498  -0.05951  -0.05621  -0.04705  -0.02983
  Beta virt. eigenvalues --   -0.02036  -0.01718  -0.01364  -0.01074  -0.00937
  Beta virt. eigenvalues --   -0.00744   0.00126   0.00387   0.00606   0.00669

 Mulliken charges and spin densities:
               1          2
     1  Na   0.313657   0.169346
     2  Na   0.306386   0.009121
     3  Na   0.333200  -0.143561
     4  Na   1.350400   0.024312
     5  Na   0.460491   0.252365
     6  Na   0.592988   0.337877
     7  Na  -3.357121   0.350540
 Sum of Mulliken charges =  -0.00000   1.00000

 Dipole moment (field-independent basis, Debye):
    X=              1.1674    Y=             -0.0867    Z=              0.7462  Tot=              1.3882
 Quadrupole moment (field-independent basis, Debye-Ang):
   XX=            -55.5920   YY=            -60.5109   ZZ=            -77.4754
   XY=              0.2023   XZ=             -2.1604   YZ=             -2.5316

 Normal termination of Gaussian 16 at Thu Dec  7 04:32:49 2023.
