 Gaussian 16, Revision B.01,
 Gaussian 16:  ES64L-G16RevB.01 20-Dec-2017

 -------------------------
 #P B3LYP/6-311+g(d) force
 -------------------------

 -----
 DPGEN
 -----
 Symbolic Z-matrix:
 Charge =  0 Multiplicity = 2

                         Standard orientation:
 ---------------------------------------------------------------------
 Center     Atomic      Atomic             Coordinates (Angstroms)
 Number     Number       Type             X           Y           Z
 ---------------------------------------------------------------------
      1         11           0       -0.019946   -1.943517    0.717400
      2         11           0       -3.564085   -3.113028   -0.541388
      3         11           0       -3.171141    0.307635    0.065117
      4         11           0        0.014267    1.565649   -0.846997
      5         11           0        2.687175   -0.322812    0.845707
      6         11           0       -2.064310    3.759737    0.305765
      7         11           0        6.118039   -0.253664   -0.545604
 ---------------------------------------------------------------------

 SCF Done:  E(UB3LYP) =  -1136.12280041     A.U. after   19 cycles

 The electronic state is 2-A.
 Alpha  occ. eigenvalues --  -38.44827 -38.44585 -38.44180 -38.44114 -38.44044
 Alpha  occ. eigenvalues --  -38.43775 -38.43169  -2.20619  -2.20423  -2.19999
 Alpha  occ. eigenvalues --   -2.19947  -2.19854  -2.19553  -2.19003  -1.14248
 Alpha  occ. eigenvalues --   -1.14247  -1.14222  -1.14125  -1.14105  -1.14029
 Alpha  occ. eigenvalues --   -1.13711  -1.13703  -1.13632  -1.13620  -1.13579
 Alpha  occ. eigenvalues --   -1.13563  -1.13520  -1.13513  -1.13477  -1.13220
 Alpha  occ. eigenvalues --   -1.13215  -1.13173  -1.12691  -1.12671  -1.12653
 Alpha  occ. eigenvalues --   -0.16736  -0.13684  -0.12498  -0.11267
 Alpha virt. eigenvalues --   -0.05895  -0.05616  -0.04773  -0.03756  -0.02597
 Alpha virt. eigenvalues --   -0.02123  -0.02006  -0.01753  -0.01561  -0.00790
 Alpha virt. eigenvalues --   -0.00479  -0.00072   0.00201   0.00466   0.00551

  Beta  occ. eigenvalues --  -38.44690 -38.44576 -38.44169 -38.44080 -38.44039
  Beta  occ. eigenvalues --  -38.43758 -38.43167  -2.20407  -2.20363  -2.19979
  Beta  occ. eigenvalues --   -2.19888  -2.19846  -2.19522  -2.19008  -1.14117
  Beta  occ. eigenvalues --   -1.14095  -1.14074  -1.14074  -1.14052  -1.14009
  Beta  occ. eigenvalues --   -1.13699  -1.13686  -1.13594  -1.13579  -1.13561
  Beta  occ. eigenvalues --   -1.13515  -1.13513  -1.13508  -1.13471  -1.13199
  Beta  occ. eigenvalues --   -1.13190  -1.13155  -1.12696  -1.12682  -1.12602
  Beta  occ. eigenvalues --   -0.16375  -0.12792  -0.12304
  Beta virt. eigenvalues --   -0.07547  -0.05724  -0.05504  -0.04279  -0.03563
  Beta virt. eigenvalues --   -0.02373  -0.01960  -0.01775  -0.01242  -0.01047
  Beta virt. eigenvalues --   -0.00436  -0.00253   0.00125   0.00386   0.00556

 Mulliken charges and spin densities:
               1          2
     1  Na  -0.213898  -0.002118
     2  Na   0.531885   0.059946
     3  Na  -0.376525   0.210643
     4  Na  -0.899547  -0.062221
     5  Na   0.116155   0.074877
     6  Na   0.834574   0.032094
     7  Na   0.007356   0.686778
 Sum of Mulliken charges =  -0.00000   1.00000

 Dipole moment (field-independent basis, Debye):
    X=             -0.7573    Y=              0.6127    Z=             -0.1127  Tot=              0.9807
 Quadrupole moment (field-independent basis, Debye-Ang):
   XX=            -68.4006   YY=            -60.4363   ZZ=            -69.6204
   XY=             -0.4287   XZ=             -2.0210   YZ=              2.0515

 Normal termination of Gaussian 16 at Tue Nov 28 21:55:05 2023.
