 Gaussian 16, Revision B.01,
 Gaussian 16:  ES64L-G16RevB.01 20-Dec-2017

 -------------------------
 #P B3LYP/6-311+g(d) force
 -------------------------

 -----
 DPGEN
 -----
 Symbolic Z-matrix:
 Charge =  0 Multiplicity = 2

                         Standard orientation:
 ---------------------------------------------------------------------
 Center     Atomic      Atomic             Coordinates (Angstroms)
 Number     Number       Type             X           Y           Z
 ---------------------------------------------------------------------
      1         11           0        2.591068   -1.420361    0.805752
      2         11           0       -2.182729   -0.549193   -1.354104
      3         11           0       -3.194053   -0.112062    1.487034
      4         11           0       -0.665568    2.788690   -1.114114
      5         11           0        0.431480    0.231161    2.131955
      6         11           0        0.428823   -2.918776   -1.440303
      7         11           0        2.590979    1.980541   -0.516219
 ---------------------------------------------------------------------

 SCF Done:  E(UB3LYP) =  -1136.12147054     A.U. after   21 cycles

 The electronic state is 2-A.
 Alpha  occ. eigenvalues --  -38.44856 -38.44621 -38.44052 -38.43983 -38.43893
 Alpha  occ. eigenvalues --  -38.43890 -38.43662  -2.20710  -2.20447  -2.19842
 Alpha  occ. eigenvalues --   -2.19778  -2.19741  -2.19682  -2.19518  -1.14410
 Alpha  occ. eigenvalues --   -1.14347  -1.14321  -1.14141  -1.14089  -1.14074
 Alpha  occ. eigenvalues --   -1.13523  -1.13507  -1.13485  -1.13450  -1.13431
 Alpha  occ. eigenvalues --   -1.13421  -1.13413  -1.13397  -1.13367  -1.13354
 Alpha  occ. eigenvalues --   -1.13331  -1.13301  -1.13233  -1.13165  -1.13130
 Alpha  occ. eigenvalues --   -0.17436  -0.13259  -0.12178  -0.11650
 Alpha virt. eigenvalues --   -0.05872  -0.05363  -0.05046  -0.03711  -0.03220
 Alpha virt. eigenvalues --   -0.02732  -0.01591  -0.00738  -0.00519  -0.00303
 Alpha virt. eigenvalues --   -0.00061   0.00168   0.00357   0.00415   0.00650

  Beta  occ. eigenvalues --  -38.44783 -38.44584 -38.44053 -38.43936 -38.43873
  Beta  occ. eigenvalues --  -38.43866 -38.43660  -2.20576  -2.20378  -2.19844
  Beta  occ. eigenvalues --   -2.19711  -2.19691  -2.19633  -2.19518  -1.14319
  Beta  occ. eigenvalues --   -1.14255  -1.14224  -1.14101  -1.14030  -1.14028
  Beta  occ. eigenvalues --   -1.13522  -1.13509  -1.13479  -1.13396  -1.13390
  Beta  occ. eigenvalues --   -1.13376  -1.13372  -1.13359  -1.13330  -1.13316
  Beta  occ. eigenvalues --   -1.13301  -1.13270  -1.13219  -1.13164  -1.13128
  Beta  occ. eigenvalues --   -0.16790  -0.13103  -0.11731
  Beta virt. eigenvalues --   -0.08049  -0.05677  -0.04852  -0.04637  -0.03355
  Beta virt. eigenvalues --   -0.02823  -0.02077  -0.01431  -0.00660  -0.00328
  Beta virt. eigenvalues --   -0.00158   0.00005   0.00336   0.00491   0.00559

 Mulliken charges and spin densities:
               1          2
     1  Na   0.509403   0.090007
     2  Na   0.258149   0.222901
     3  Na   0.155917   0.154850
     4  Na  -0.332709   0.078988
     5  Na  -0.395805   0.268158
     6  Na  -0.277456   0.143599
     7  Na   0.082501   0.041498
 Sum of Mulliken charges =  -0.00000   1.00000

 Dipole moment (field-independent basis, Debye):
    X=             -0.1213    Y=              0.1649    Z=              0.2911  Tot=              0.3559
 Quadrupole moment (field-independent basis, Debye-Ang):
   XX=            -59.5093   YY=            -71.6307   ZZ=            -67.5932
   XY=             -0.9514   XZ=             -2.2049   YZ=              0.7588

 Normal termination of Gaussian 16 at Sun Dec  3 14:57:15 2023.
