 Gaussian 16, Revision B.01,
 Gaussian 16:  ES64L-G16RevB.01 20-Dec-2017

 -------------------------
 #P B3LYP/6-311+g(d) force
 -------------------------

 -----
 DPGEN
 -----
 Symbolic Z-matrix:
 Charge =  0 Multiplicity = 2

                         Standard orientation:
 ---------------------------------------------------------------------
 Center     Atomic      Atomic             Coordinates (Angstroms)
 Number     Number       Type             X           Y           Z
 ---------------------------------------------------------------------
      1         11           0       -2.049260    1.909338    0.209803
      2         11           0       -2.734761   -1.237753    0.036158
      3         11           0        0.235316   -2.783954   -0.459918
      4         11           0        3.182501   -0.777236   -0.088532
      5         11           0       -0.272168    0.494308   -1.524532
      6         11           0        0.281461   -0.502823    1.836658
      7         11           0        1.356911    2.898121   -0.009637
 ---------------------------------------------------------------------

 SCF Done:  E(UB3LYP) =  -1136.13379822     A.U. after   19 cycles

 The electronic state is 2-A.
 Alpha  occ. eigenvalues --  -38.44227 -38.43917 -38.43715 -38.43525 -38.43475
 Alpha  occ. eigenvalues --  -38.43137 -38.43041  -2.20019  -2.19731  -2.19648
 Alpha  occ. eigenvalues --   -2.19412  -2.19370  -2.19075  -2.19071  -1.13697
 Alpha  occ. eigenvalues --   -1.13675  -1.13662  -1.13466  -1.13417  -1.13391
 Alpha  occ. eigenvalues --   -1.13365  -1.13289  -1.13262  -1.13124  -1.13083
 Alpha  occ. eigenvalues --   -1.13058  -1.13031  -1.13020  -1.12989  -1.12771
 Alpha  occ. eigenvalues --   -1.12733  -1.12703  -1.12697  -1.12678  -1.12667
 Alpha  occ. eigenvalues --   -0.18909  -0.13019  -0.12759  -0.10379
 Alpha virt. eigenvalues --   -0.05749  -0.05190  -0.04814  -0.03105  -0.02823
 Alpha virt. eigenvalues --   -0.02101  -0.01481  -0.01310  -0.00426  -0.00304
 Alpha virt. eigenvalues --    0.00029   0.00353   0.00799   0.00845   0.00918

  Beta  occ. eigenvalues --  -38.44226 -38.43916 -38.43705 -38.43509 -38.43468
  Beta  occ. eigenvalues --  -38.43056 -38.42981  -2.20020  -2.19731  -2.19635
  Beta  occ. eigenvalues --   -2.19387  -2.19362  -2.18966  -2.18923  -1.13682
  Beta  occ. eigenvalues --   -1.13674  -1.13665  -1.13451  -1.13409  -1.13383
  Beta  occ. eigenvalues --   -1.13366  -1.13262  -1.13248  -1.13109  -1.13048
  Beta  occ. eigenvalues --   -1.13036  -1.13027  -1.12986  -1.12978  -1.12686
  Beta  occ. eigenvalues --   -1.12646  -1.12621  -1.12597  -1.12586  -1.12568
  Beta  occ. eigenvalues --   -0.18182  -0.12787  -0.12526
  Beta virt. eigenvalues --   -0.06478  -0.05740  -0.05152  -0.04761  -0.02314
  Beta virt. eigenvalues --   -0.02093  -0.01420  -0.01257  -0.01085  -0.00441
  Beta virt. eigenvalues --   -0.00349   0.00171   0.00391   0.00817   0.00855

 Mulliken charges and spin densities:
               1          2
     1  Na   0.337652   0.037919
     2  Na   0.333520   0.070051
     3  Na   0.155956   0.023654
     4  Na  -0.022583  -0.123504
     5  Na  -0.353099   0.442147
     6  Na  -0.457641   0.684413
     7  Na   0.006195  -0.134680
 Sum of Mulliken charges =  -0.00000   1.00000

 Dipole moment (field-independent basis, Debye):
    X=              0.4428    Y=              0.0847    Z=              0.1222  Tot=              0.4671
 Quadrupole moment (field-independent basis, Debye-Ang):
   XX=            -56.1801   YY=            -60.0353   ZZ=            -75.9897
   XY=              1.0844   XZ=             -1.1769   YZ=              2.0380

 Normal termination of Gaussian 16 at Tue Dec  5 15:13:54 2023.
