 Gaussian 16, Revision B.01,
 Gaussian 16:  ES64L-G16RevB.01 20-Dec-2017

 -------------------------
 #P B3LYP/6-311+g(d) force
 -------------------------

 -----
 DPGEN
 -----
 Symbolic Z-matrix:
 Charge =  0 Multiplicity = 2

                         Standard orientation:
 ---------------------------------------------------------------------
 Center     Atomic      Atomic             Coordinates (Angstroms)
 Number     Number       Type             X           Y           Z
 ---------------------------------------------------------------------
      1         11           0       -2.544755   -0.838431    0.979950
      2         11           0       -5.475426   -1.073614   -0.874182
      3         11           0       -3.381975    2.162910   -0.116305
      4         11           0        0.165589    1.414759    0.186054
      5         11           0        1.049457   -1.750988   -0.125822
      6         11           0        3.834732   -0.144525    0.901325
      7         11           0        6.352378    0.229889   -0.951019
 ---------------------------------------------------------------------

 SCF Done:  E(UB3LYP) =  -1136.11779063     A.U. after   20 cycles

 The electronic state is 2-A.
 Alpha  occ. eigenvalues --  -38.44736 -38.44614 -38.44326 -38.44261 -38.44200
 Alpha  occ. eigenvalues --  -38.43419 -38.43392  -2.20582  -2.20446  -2.20111
 Alpha  occ. eigenvalues --   -2.20107  -2.20047  -2.19261  -2.19175  -1.14299
 Alpha  occ. eigenvalues --   -1.14277  -1.14179  -1.14119  -1.14102  -1.14037
 Alpha  occ. eigenvalues --   -1.13802  -1.13776  -1.13773  -1.13771  -1.13751
 Alpha  occ. eigenvalues --   -1.13722  -1.13712  -1.13688  -1.13644  -1.12962
 Alpha  occ. eigenvalues --   -1.12950  -1.12913  -1.12831  -1.12830  -1.12775
 Alpha  occ. eigenvalues --   -0.17051  -0.14267  -0.11638  -0.11048
 Alpha virt. eigenvalues --   -0.06522  -0.05505  -0.04998  -0.03195  -0.02953
 Alpha virt. eigenvalues --   -0.02688  -0.02241  -0.01067  -0.00956  -0.00837
 Alpha virt. eigenvalues --   -0.00415  -0.00288   0.00017   0.00275   0.00575

  Beta  occ. eigenvalues --  -38.44720 -38.44553 -38.44284 -38.44235 -38.44161
  Beta  occ. eigenvalues --  -38.43418 -38.43390  -2.20555  -2.20335  -2.20062
  Beta  occ. eigenvalues --   -2.20033  -2.19974  -2.19259  -2.19172  -1.14264
  Beta  occ. eigenvalues --   -1.14249  -1.14158  -1.14048  -1.14030  -1.13941
  Beta  occ. eigenvalues --   -1.13775  -1.13749  -1.13719  -1.13711  -1.13696
  Beta  occ. eigenvalues --   -1.13675  -1.13662  -1.13631  -1.13596  -1.12961
  Beta  occ. eigenvalues --   -1.12945  -1.12915  -1.12829  -1.12827  -1.12773
  Beta  occ. eigenvalues --   -0.16429  -0.14008  -0.11213
  Beta virt. eigenvalues --   -0.07556  -0.06257  -0.04950  -0.04849  -0.02881
  Beta virt. eigenvalues --   -0.02760  -0.02144  -0.01905  -0.00928  -0.00761
  Beta virt. eigenvalues --   -0.00607  -0.00175  -0.00044   0.00170   0.00367

 Mulliken charges and spin densities:
               1          2
     1  Na  -0.178669   0.184074
     2  Na   0.181436   0.125273
     3  Na   0.376022  -0.025850
     4  Na  -0.537157   0.392865
     5  Na  -0.028160   0.213477
     6  Na   0.290440   0.102904
     7  Na  -0.103912   0.007256
 Sum of Mulliken charges =  -0.00000   1.00000

 Dipole moment (field-independent basis, Debye):
    X=             -1.9574    Y=             -0.0393    Z=             -0.4782  Tot=              2.0154
 Quadrupole moment (field-independent basis, Debye-Ang):
   XX=            -70.6707   YY=            -66.8701   ZZ=            -67.1330
   XY=             -0.6600   XZ=             -0.3217   YZ=              0.0699

 Normal termination of Gaussian 16 at Tue Nov 28 21:39:37 2023.
