 Gaussian 16, Revision B.01,
 Gaussian 16:  ES64L-G16RevB.01 20-Dec-2017

 -------------------------
 #P B3LYP/6-311+g(d) force
 -------------------------

 -----
 DPGEN
 -----
 Symbolic Z-matrix:
 Charge =  0 Multiplicity = 2

                         Standard orientation:
 ---------------------------------------------------------------------
 Center     Atomic      Atomic             Coordinates (Angstroms)
 Number     Number       Type             X           Y           Z
 ---------------------------------------------------------------------
      1         11           0        2.105760    2.042618   -0.460545
      2         11           0       -3.790667    1.138865   -0.008619
      3         11           0       -0.575317    3.189527   -0.299463
      4         11           0        2.084193   -2.686614   -0.491543
      5         11           0        4.504947    0.010657    1.254885
      6         11           0       -3.569074   -1.635515    1.373992
      7         11           0       -0.759843   -2.059538   -1.368706
 ---------------------------------------------------------------------

 SCF Done:  E(UB3LYP) =  -1136.11073869     A.U. after   20 cycles

 The electronic state is 2-A.
 Alpha  occ. eigenvalues --  -38.44942 -38.44893 -38.44668 -38.44291 -38.44099
 Alpha  occ. eigenvalues --  -38.44080 -38.43386  -2.20747  -2.20688  -2.20462
 Alpha  occ. eigenvalues --   -2.20109  -2.19903  -2.19899  -2.19223  -1.14485
 Alpha  occ. eigenvalues --   -1.14400  -1.14380  -1.14353  -1.14330  -1.14282
 Alpha  occ. eigenvalues --   -1.14105  -1.14098  -1.14074  -1.13838  -1.13759
 Alpha  occ. eigenvalues --   -1.13738  -1.13648  -1.13568  -1.13562  -1.13551
 Alpha  occ. eigenvalues --   -1.13543  -1.13515  -1.12892  -1.12859  -1.12842
 Alpha  occ. eigenvalues --   -0.16049  -0.14066  -0.12774  -0.11176
 Alpha virt. eigenvalues --   -0.06679  -0.05174  -0.04498  -0.03748  -0.03125
 Alpha virt. eigenvalues --   -0.02410  -0.01814  -0.01676  -0.01289  -0.00785
 Alpha virt. eigenvalues --   -0.00316  -0.00141   0.00067   0.00565   0.00634

  Beta  occ. eigenvalues --  -38.44910 -38.44883 -38.44566 -38.44243 -38.44087
  Beta  occ. eigenvalues --  -38.44077 -38.43357  -2.20690  -2.20672  -2.20272
  Beta  occ. eigenvalues --   -2.20025  -2.19904  -2.19883  -2.19169  -1.14448
  Beta  occ. eigenvalues --   -1.14365  -1.14348  -1.14335  -1.14316  -1.14251
  Beta  occ. eigenvalues --   -1.13975  -1.13968  -1.13950  -1.13776  -1.13703
  Beta  occ. eigenvalues --   -1.13679  -1.13623  -1.13563  -1.13556  -1.13542
  Beta  occ. eigenvalues --   -1.13536  -1.13472  -1.12856  -1.12821  -1.12807
  Beta  occ. eigenvalues --   -0.15572  -0.13253  -0.12205
  Beta virt. eigenvalues --   -0.07882  -0.06746  -0.04837  -0.04037  -0.03523
  Beta virt. eigenvalues --   -0.02665  -0.02083  -0.01596  -0.01401  -0.01042
  Beta virt. eigenvalues --   -0.00667  -0.00048   0.00078   0.00250   0.00579

 Mulliken charges and spin densities:
               1          2
     1  Na  -0.649085  -0.018673
     2  Na  -0.121046   0.073266
     3  Na   0.261866   0.116932
     4  Na   0.010488  -0.017951
     5  Na   0.366420   0.496800
     6  Na   0.318668   0.134154
     7  Na  -0.187312   0.215472
 Sum of Mulliken charges =  -0.00000   1.00000

 Dipole moment (field-independent basis, Debye):
    X=             -0.9184    Y=             -0.7740    Z=              0.6555  Tot=              1.3683
 Quadrupole moment (field-independent basis, Debye-Ang):
   XX=            -60.2008   YY=            -70.3499   ZZ=            -68.8783
   XY=             -2.5475   XZ=              1.4688   YZ=             -3.6348

 Normal termination of Gaussian 16 at Sun Dec  3 20:01:17 2023.
