 Gaussian 16, Revision B.01,
 Gaussian 16:  ES64L-G16RevB.01 20-Dec-2017

 -------------------------
 #P B3LYP/6-311+g(d) force
 -------------------------

 -----
 DPGEN
 -----
 Symbolic Z-matrix:
 Charge =  0 Multiplicity = 2

                         Standard orientation:
 ---------------------------------------------------------------------
 Center     Atomic      Atomic             Coordinates (Angstroms)
 Number     Number       Type             X           Y           Z
 ---------------------------------------------------------------------
      1         11           0        0.940072   -1.406126    1.680527
      2         11           0        3.620238   -1.393192   -0.618020
      3         11           0        2.858195    1.906395    0.566688
      4         11           0       -1.570490    1.834852    0.033492
      5         11           0       -4.943670   -0.011063    0.235416
      6         11           0        0.936159    0.731224   -1.166576
      7         11           0       -1.840504   -1.662089   -0.731527
 ---------------------------------------------------------------------

 SCF Done:  E(UB3LYP) =  -1136.11183268     A.U. after   25 cycles

 The electronic state is 2-A.
 Alpha  occ. eigenvalues --  -38.44504 -38.44315 -38.44232 -38.44163 -38.43996
 Alpha  occ. eigenvalues --  -38.43667 -38.43501  -2.20320  -2.20144  -2.20103
 Alpha  occ. eigenvalues --   -2.19970  -2.19810  -2.19549  -2.19520  -1.13993
 Alpha  occ. eigenvalues --   -1.13973  -1.13953  -1.13907  -1.13833  -1.13781
 Alpha  occ. eigenvalues --   -1.13766  -1.13761  -1.13680  -1.13615  -1.13609
 Alpha  occ. eigenvalues --   -1.13576  -1.13509  -1.13482  -1.13429  -1.13370
 Alpha  occ. eigenvalues --   -1.13218  -1.13190  -1.13139  -1.13130  -1.13069
 Alpha  occ. eigenvalues --   -0.18109  -0.14359  -0.11039  -0.10782
 Alpha virt. eigenvalues --   -0.07138  -0.05619  -0.04263  -0.03191  -0.03073
 Alpha virt. eigenvalues --   -0.02123  -0.01999  -0.01285  -0.01027  -0.00750
 Alpha virt. eigenvalues --   -0.00472   0.00052   0.00348   0.00536   0.00597

  Beta  occ. eigenvalues --  -38.44483 -38.44286 -38.44221 -38.44056 -38.43989
  Beta  occ. eigenvalues --  -38.43657 -38.43475  -2.20284  -2.20090  -2.20083
  Beta  occ. eigenvalues --   -2.19803  -2.19770  -2.19514  -2.19498  -1.13971
  Beta  occ. eigenvalues --   -1.13950  -1.13916  -1.13895  -1.13797  -1.13751
  Beta  occ. eigenvalues --   -1.13743  -1.13719  -1.13652  -1.13504  -1.13478
  Beta  occ. eigenvalues --   -1.13474  -1.13471  -1.13447  -1.13398  -1.13321
  Beta  occ. eigenvalues --   -1.13205  -1.13175  -1.13123  -1.13094  -1.13036
  Beta  occ. eigenvalues --   -0.17566  -0.13568  -0.10882
  Beta virt. eigenvalues --   -0.07204  -0.06908  -0.05508  -0.03620  -0.02977
  Beta virt. eigenvalues --   -0.02825  -0.02015  -0.01484  -0.01124  -0.00723
  Beta virt. eigenvalues --   -0.00296  -0.00154   0.00131   0.00480   0.00601

 Mulliken charges and spin densities:
               1          2
     1  Na  -0.087423  -0.019888
     2  Na   0.122068   0.301833
     3  Na  -0.166540   0.193441
     4  Na  -0.353845  -0.080812
     5  Na   0.098588   0.591539
     6  Na   0.509113   0.064715
     7  Na  -0.121962  -0.050828
 Sum of Mulliken charges =  -0.00000   1.00000

 Dipole moment (field-independent basis, Debye):
    X=              0.9512    Y=             -0.3167    Z=              0.4475  Tot=              1.0979
 Quadrupole moment (field-independent basis, Debye-Ang):
   XX=            -65.9431   YY=            -76.3234   ZZ=            -61.4551
   XY=             -0.4964   XZ=             -0.4343   YZ=              6.6137

 Normal termination of Gaussian 16 at Tue Dec  5 17:56:48 2023.
