 Gaussian 16, Revision B.01,
 Gaussian 16:  ES64L-G16RevB.01 20-Dec-2017

 -------------------------
 #P B3LYP/6-311+g(d) force
 -------------------------

 -----
 DPGEN
 -----
 Symbolic Z-matrix:
 Charge =  0 Multiplicity = 2

                         Standard orientation:
 ---------------------------------------------------------------------
 Center     Atomic      Atomic             Coordinates (Angstroms)
 Number     Number       Type             X           Y           Z
 ---------------------------------------------------------------------
      1         11           0        3.678331   -0.432232   -0.450721
      2         11           0        0.881183   -1.844189    0.597106
      3         11           0       -1.323910    0.013461    1.698411
      4         11           0       -1.649423    2.097142   -0.592986
      5         11           0       -0.009609   -0.441629   -1.536481
      6         11           0       -3.409556   -1.063257   -0.355865
      7         11           0        1.832986    1.670704    0.640535
 ---------------------------------------------------------------------

 SCF Done:  E(UB3LYP) =  -1136.11224410     A.U. after   25 cycles

 The electronic state is 2-A.
 Alpha  occ. eigenvalues --  -38.45254 -38.45205 -38.44360 -38.43370 -38.43318
 Alpha  occ. eigenvalues --  -38.43182 -38.42806  -2.21113  -2.21033  -2.20382
 Alpha  occ. eigenvalues --   -2.19367  -2.19346  -2.19085  -2.18722  -1.14818
 Alpha  occ. eigenvalues --   -1.14760  -1.14736  -1.14734  -1.14672  -1.14658
 Alpha  occ. eigenvalues --   -1.14261  -1.14025  -1.13935  -1.13148  -1.13068
 Alpha  occ. eigenvalues --   -1.13007  -1.12960  -1.12942  -1.12889  -1.12764
 Alpha  occ. eigenvalues --   -1.12750  -1.12720  -1.12421  -1.12392  -1.12315
 Alpha  occ. eigenvalues --   -0.19415  -0.14450  -0.11158  -0.10925
 Alpha virt. eigenvalues --   -0.07309  -0.04933  -0.04036  -0.03075  -0.02934
 Alpha virt. eigenvalues --   -0.02155  -0.02133  -0.01138  -0.00519   0.00049
 Alpha virt. eigenvalues --    0.00113   0.00284   0.00459   0.00820   0.00861

  Beta  occ. eigenvalues --  -38.45248 -38.45195 -38.44310 -38.43343 -38.43243
  Beta  occ. eigenvalues --  -38.43170 -38.42791  -2.21103  -2.21016  -2.20293
  Beta  occ. eigenvalues --   -2.19324  -2.19212  -2.19067  -2.18697  -1.14813
  Beta  occ. eigenvalues --   -1.14749  -1.14724  -1.14720  -1.14652  -1.14645
  Beta  occ. eigenvalues --   -1.14190  -1.13962  -1.13869  -1.13091  -1.12999
  Beta  occ. eigenvalues --   -1.12918  -1.12900  -1.12864  -1.12820  -1.12753
  Beta  occ. eigenvalues --   -1.12723  -1.12700  -1.12403  -1.12363  -1.12287
  Beta  occ. eigenvalues --   -0.18660  -0.14234  -0.10898
  Beta virt. eigenvalues --   -0.07176  -0.06931  -0.04891  -0.03468  -0.02929
  Beta virt. eigenvalues --   -0.02750  -0.01539  -0.01198  -0.01029  -0.00225
  Beta virt. eigenvalues --    0.00083   0.00142   0.00285   0.00624   0.00844

 Mulliken charges and spin densities:
               1          2
     1  Na   0.646228   0.032259
     2  Na  -0.112181   0.166947
     3  Na   0.328348   0.233048
     4  Na  -0.239196   0.187179
     5  Na  -0.258767   0.303530
     6  Na   0.158673   0.051281
     7  Na  -0.523105   0.025756
 Sum of Mulliken charges =  -0.00000   1.00000

 Dipole moment (field-independent basis, Debye):
    X=              0.1322    Y=             -0.2220    Z=             -0.1832  Tot=              0.3167
 Quadrupole moment (field-independent basis, Debye-Ang):
   XX=            -42.2344   YY=            -76.7105   ZZ=            -71.9070
   XY=              0.7928   XZ=             -0.0855   YZ=              0.3745

 Normal termination of Gaussian 16 at Thu Dec  7 10:38:40 2023.
