 Gaussian 16, Revision B.01,
 Gaussian 16:  ES64L-G16RevB.01 20-Dec-2017

 -------------------------
 #P B3LYP/6-311+g(d) force
 -------------------------

 -----
 DPGEN
 -----
 Symbolic Z-matrix:
 Charge =  0 Multiplicity = 2

                         Standard orientation:
 ---------------------------------------------------------------------
 Center     Atomic      Atomic             Coordinates (Angstroms)
 Number     Number       Type             X           Y           Z
 ---------------------------------------------------------------------
      1         11           0       -2.521229   -1.209968   -0.087253
      2         11           0        0.687950   -2.726068   -0.437574
      3         11           0       -0.432104   -0.625526    2.240530
      4         11           0        1.432614    2.597660    0.410354
      5         11           0       -2.055646    2.111301   -0.394227
      6         11           0       -0.155425    0.118213   -1.538580
      7         11           0        3.043840   -0.265612   -0.193249
 ---------------------------------------------------------------------

 SCF Done:  E(UB3LYP) =  -1136.13424587     A.U. after   19 cycles

 The electronic state is 2-A.
 Alpha  occ. eigenvalues --  -38.44072 -38.43671 -38.43564 -38.43542 -38.43520
 Alpha  occ. eigenvalues --  -38.43340 -38.43180  -2.19949  -2.19513  -2.19501
 Alpha  occ. eigenvalues --   -2.19429  -2.19350  -2.19250  -2.19229  -1.13622
 Alpha  occ. eigenvalues --   -1.13577  -1.13563  -1.13266  -1.13205  -1.13195
 Alpha  occ. eigenvalues --   -1.13180  -1.13170  -1.13167  -1.13119  -1.13068
 Alpha  occ. eigenvalues --   -1.13036  -1.13014  -1.13011  -1.12983  -1.12979
 Alpha  occ. eigenvalues --   -1.12895  -1.12876  -1.12853  -1.12841  -1.12820
 Alpha  occ. eigenvalues --   -0.18938  -0.13013  -0.12650  -0.11158
 Alpha virt. eigenvalues --   -0.05211  -0.05101  -0.04706  -0.03284  -0.03114
 Alpha virt. eigenvalues --   -0.02807  -0.01186  -0.01025  -0.00214  -0.00126
 Alpha virt. eigenvalues --   -0.00012   0.00357   0.00875   0.00921   0.00936

  Beta  occ. eigenvalues --  -38.43970 -38.43671 -38.43554 -38.43534 -38.43514
  Beta  occ. eigenvalues --  -38.43328 -38.43121  -2.19759  -2.19514  -2.19488
  Beta  occ. eigenvalues --   -2.19417  -2.19340  -2.19211  -2.19143  -1.13499
  Beta  occ. eigenvalues --   -1.13443  -1.13429  -1.13245  -1.13196  -1.13181
  Beta  occ. eigenvalues --   -1.13171  -1.13164  -1.13127  -1.13107  -1.13047
  Beta  occ. eigenvalues --   -1.13032  -1.13006  -1.12995  -1.12975  -1.12949
  Beta  occ. eigenvalues --   -1.12858  -1.12832  -1.12823  -1.12773  -1.12758
  Beta  occ. eigenvalues --   -0.18215  -0.12761  -0.12411
  Beta virt. eigenvalues --   -0.07182  -0.05187  -0.05053  -0.04617  -0.02502
  Beta virt. eigenvalues --   -0.02340  -0.01740  -0.01119  -0.00968  -0.00208
  Beta virt. eigenvalues --   -0.00164   0.00138   0.00398   0.00910   0.00931

 Mulliken charges and spin densities:
               1          2
     1  Na   0.608495   0.075259
     2  Na   0.279451  -0.014792
     3  Na  -0.779556   0.700048
     4  Na  -0.031253   0.070170
     5  Na   0.239866   0.042467
     6  Na  -0.288096   0.144971
     7  Na  -0.028908  -0.018123
 Sum of Mulliken charges =  -0.00000   1.00000

 Dipole moment (field-independent basis, Debye):
    X=              0.0252    Y=             -0.0272    Z=              0.3591  Tot=              0.3610
 Quadrupole moment (field-independent basis, Debye-Ang):
   XX=            -60.2596   YY=            -62.6642   ZZ=            -72.1230
   XY=             -0.5711   XZ=              0.6260   YZ=              1.5116

 Normal termination of Gaussian 16 at Thu Dec  7 05:30:53 2023.
