 Gaussian 16, Revision B.01,
 Gaussian 16:  ES64L-G16RevB.01 20-Dec-2017

 -------------------------
 #P B3LYP/6-311+g(d) force
 -------------------------

 -----
 DPGEN
 -----
 Symbolic Z-matrix:
 Charge =  0 Multiplicity = 2

                         Standard orientation:
 ---------------------------------------------------------------------
 Center     Atomic      Atomic             Coordinates (Angstroms)
 Number     Number       Type             X           Y           Z
 ---------------------------------------------------------------------
      1         11           0        0.200075   -1.992322    0.364712
      2         11           0        3.262426   -2.992637   -0.219715
      3         11           0        3.280933    0.388959   -0.187524
      4         11           0        1.330464    3.675097   -0.746450
      5         11           0        0.154165    1.756082    1.500568
      6         11           0       -2.442500   -0.331004   -0.626995
      7         11           0       -5.785565   -0.504174   -0.084597
 ---------------------------------------------------------------------

 SCF Done:  E(UB3LYP) =  -1136.12150746     A.U. after   20 cycles

 The electronic state is 2-A.
 Alpha  occ. eigenvalues --  -38.44745 -38.44608 -38.44498 -38.44029 -38.43844
 Alpha  occ. eigenvalues --  -38.43692 -38.43067  -2.20568  -2.20412  -2.20297
 Alpha  occ. eigenvalues --   -2.19831  -2.19669  -2.19558  -2.18887  -1.14267
 Alpha  occ. eigenvalues --   -1.14236  -1.14191  -1.14115  -1.14091  -1.14003
 Alpha  occ. eigenvalues --   -1.13958  -1.13953  -1.13917  -1.13464  -1.13464
 Alpha  occ. eigenvalues --   -1.13449  -1.13352  -1.13326  -1.13313  -1.13244
 Alpha  occ. eigenvalues --   -1.13221  -1.13157  -1.12577  -1.12561  -1.12535
 Alpha  occ. eigenvalues --   -0.16899  -0.13327  -0.12969  -0.10709
 Alpha virt. eigenvalues --   -0.06187  -0.05826  -0.04722  -0.03450  -0.02711
 Alpha virt. eigenvalues --   -0.02434  -0.01797  -0.01488  -0.01176  -0.00761
 Alpha virt. eigenvalues --   -0.00591  -0.00102   0.00392   0.00436   0.00473

  Beta  occ. eigenvalues --  -38.44728 -38.44577 -38.44490 -38.43921 -38.43836
  Beta  occ. eigenvalues --  -38.43654 -38.43071  -2.20536  -2.20356  -2.20282
  Beta  occ. eigenvalues --   -2.19656  -2.19629  -2.19489  -2.18903  -1.14247
  Beta  occ. eigenvalues --   -1.14218  -1.14156  -1.14077  -1.14050  -1.13960
  Beta  occ. eigenvalues --   -1.13947  -1.13939  -1.13906  -1.13339  -1.13327
  Beta  occ. eigenvalues --   -1.13326  -1.13318  -1.13317  -1.13298  -1.13201
  Beta  occ. eigenvalues --   -1.13171  -1.13110  -1.12588  -1.12579  -1.12494
  Beta  occ. eigenvalues --   -0.16419  -0.12917  -0.12402
  Beta virt. eigenvalues --   -0.07307  -0.05990  -0.05514  -0.04290  -0.03110
  Beta virt. eigenvalues --   -0.02565  -0.02204  -0.01713  -0.01069  -0.00872
  Beta virt. eigenvalues --   -0.00403  -0.00330   0.00133   0.00446   0.00584

 Mulliken charges and spin densities:
               1          2
     1  Na  -0.771271   0.019390
     2  Na   0.880885   0.120189
     3  Na  -0.362181   0.267258
     4  Na   0.121032   0.059153
     5  Na   0.152308   0.108810
     6  Na  -0.117590  -0.093407
     7  Na   0.096817   0.518606
 Sum of Mulliken charges =  -0.00000   1.00000

 Dipole moment (field-independent basis, Debye):
    X=              1.4203    Y=              0.7359    Z=              0.1963  Tot=              1.6116
 Quadrupole moment (field-independent basis, Debye-Ang):
   XX=            -72.1958   YY=            -60.7153   ZZ=            -67.2231
   XY=             -3.0839   XZ=             -2.7564   YZ=             -2.0217

 Normal termination of Gaussian 16 at Wed Nov 29 03:49:59 2023.
