 Gaussian 16, Revision B.01,
 Gaussian 16:  ES64L-G16RevB.01 20-Dec-2017

 -------------------------
 #P B3LYP/6-311+g(d) force
 -------------------------

 -----
 DPGEN
 -----
 Symbolic Z-matrix:
 Charge =  0 Multiplicity = 2

                         Standard orientation:
 ---------------------------------------------------------------------
 Center     Atomic      Atomic             Coordinates (Angstroms)
 Number     Number       Type             X           Y           Z
 ---------------------------------------------------------------------
      1         11           0        0.904141   -1.451124    1.962262
      2         11           0       -2.781984   -0.815064    1.296116
      3         11           0       -3.378960   -0.587632   -1.715938
      4         11           0        3.578494   -1.144973   -1.199850
      5         11           0       -0.076948    0.097137   -1.124192
      6         11           0        3.054600    1.431641    0.288530
      7         11           0       -1.299343    2.470016    0.493072
 ---------------------------------------------------------------------

 SCF Done:  E(UB3LYP) =  -1136.11101385     A.U. after   64 cycles

 The electronic state is 2-A.
 Alpha  occ. eigenvalues --  -38.45265 -38.45132 -38.44785 -38.44305 -38.44079
 Alpha  occ. eigenvalues --  -38.43715 -38.42362  -2.21077  -2.20966  -2.20632
 Alpha  occ. eigenvalues --   -2.20225  -2.19910  -2.19569  -2.18196  -1.14749
 Alpha  occ. eigenvalues --   -1.14701  -1.14676  -1.14665  -1.14630  -1.14579
 Alpha  occ. eigenvalues --   -1.14320  -1.14306  -1.14267  -1.13942  -1.13892
 Alpha  occ. eigenvalues --   -1.13847  -1.13599  -1.13563  -1.13538  -1.13235
 Alpha  occ. eigenvalues --   -1.13218  -1.13196  -1.11893  -1.11852  -1.11816
 Alpha  occ. eigenvalues --   -0.18051  -0.14484  -0.11735  -0.10267
 Alpha virt. eigenvalues --   -0.06815  -0.05751  -0.04986  -0.03467  -0.02860
 Alpha virt. eigenvalues --   -0.02319  -0.02152  -0.01216  -0.00931  -0.00473
 Alpha virt. eigenvalues --   -0.00172   0.00156   0.00195   0.00335   0.00600

  Beta  occ. eigenvalues --  -38.45153 -38.45120 -38.44780 -38.44286 -38.44079
  Beta  occ. eigenvalues --  -38.43690 -38.42354  -2.20943  -2.20871  -2.20626
  Beta  occ. eigenvalues --   -2.20194  -2.19911  -2.19521  -2.18182  -1.14642
  Beta  occ. eigenvalues --   -1.14613  -1.14609  -1.14571  -1.14559  -1.14522
  Beta  occ. eigenvalues --   -1.14309  -1.14283  -1.14265  -1.13897  -1.13871
  Beta  occ. eigenvalues --   -1.13819  -1.13595  -1.13560  -1.13538  -1.13210
  Beta  occ. eigenvalues --   -1.13183  -1.13159  -1.11882  -1.11839  -1.11806
  Beta  occ. eigenvalues --   -0.17360  -0.14344  -0.10169
  Beta virt. eigenvalues --   -0.07688  -0.06628  -0.05464  -0.04468  -0.02868
  Beta virt. eigenvalues --   -0.02672  -0.01898  -0.01630  -0.00986  -0.00671
  Beta virt. eigenvalues --   -0.00396   0.00011   0.00201   0.00286   0.00451

 Mulliken charges and spin densities:
               1          2
     1  Na  -0.063960   0.516519
     2  Na   0.142106   0.030393
     3  Na   0.505122  -0.020792
     4  Na   0.545765  -0.041267
     5  Na  -1.773051   0.396955
     6  Na   0.796055   0.057855
     7  Na  -0.152037   0.060337
 Sum of Mulliken charges =  -0.00000   1.00000

 Dipole moment (field-independent basis, Debye):
    X=              0.9440    Y=              0.1158    Z=              0.5706  Tot=              1.1091
 Quadrupole moment (field-independent basis, Debye-Ang):
   XX=            -57.0688   YY=            -76.9087   ZZ=            -65.8511
   XY=             -0.6260   XZ=             -0.7514   YZ=             -1.2498

 Normal termination of Gaussian 16 at Tue Dec  5 15:00:25 2023.
