 Gaussian 16, Revision B.01,
 Gaussian 16:  ES64L-G16RevB.01 20-Dec-2017

 -------------------------
 #P B3LYP/6-311+g(d) force
 -------------------------

 -----
 DPGEN
 -----
 Symbolic Z-matrix:
 Charge =  0 Multiplicity = 2

                         Standard orientation:
 ---------------------------------------------------------------------
 Center     Atomic      Atomic             Coordinates (Angstroms)
 Number     Number       Type             X           Y           Z
 ---------------------------------------------------------------------
      1         11           0        0.551963   -0.574566   -2.091349
      2         11           0       -4.586919   -0.243610    0.696428
      3         11           0        3.047964   -1.875432    0.218304
      4         11           0        2.797931    1.795386   -0.322599
      5         11           0        1.325924    0.669009    2.340928
      6         11           0       -1.752786    1.836691   -0.860147
      7         11           0       -1.384076   -1.607480    0.018435
 ---------------------------------------------------------------------

 SCF Done:  E(UB3LYP) =  -1136.11283305     A.U. after  120 cycles

 The electronic state is 2-A.
 Alpha  occ. eigenvalues --  -38.44933 -38.44885 -38.44705 -38.44474 -38.44022
 Alpha  occ. eigenvalues --  -38.43952 -38.42441  -2.20730  -2.20676  -2.20486
 Alpha  occ. eigenvalues --   -2.20299  -2.19892  -2.19736  -2.18342  -1.14410
 Alpha  occ. eigenvalues --   -1.14388  -1.14358  -1.14343  -1.14320  -1.14292
 Alpha  occ. eigenvalues --   -1.14148  -1.14140  -1.14097  -1.13965  -1.13942
 Alpha  occ. eigenvalues --   -1.13939  -1.13610  -1.13571  -1.13480  -1.13415
 Alpha  occ. eigenvalues --   -1.13410  -1.13380  -1.12054  -1.11999  -1.11954
 Alpha  occ. eigenvalues --   -0.17684  -0.13935  -0.11332  -0.10679
 Alpha virt. eigenvalues --   -0.07099  -0.05918  -0.03763  -0.03551  -0.03045
 Alpha virt. eigenvalues --   -0.02494  -0.02355  -0.01594  -0.00832  -0.00581
 Alpha virt. eigenvalues --   -0.00065   0.00063   0.00128   0.00546   0.00604

  Beta  occ. eigenvalues --  -38.44887 -38.44852 -38.44652 -38.44442 -38.43994
  Beta  occ. eigenvalues --  -38.43978 -38.42418  -2.20647  -2.20615  -2.20388
  Beta  occ. eigenvalues --   -2.20239  -2.19843  -2.19786  -2.18305  -1.14357
  Beta  occ. eigenvalues --   -1.14326  -1.14315  -1.14280  -1.14269  -1.14248
  Beta  occ. eigenvalues --   -1.14075  -1.14073  -1.14036  -1.13932  -1.13913
  Beta  occ. eigenvalues --   -1.13877  -1.13561  -1.13541  -1.13452  -1.13441
  Beta  occ. eigenvalues --   -1.13430  -1.13410  -1.12025  -1.11971  -1.11905
  Beta  occ. eigenvalues --   -0.17023  -0.13484  -0.10638
  Beta virt. eigenvalues --   -0.07694  -0.06908  -0.05215  -0.03573  -0.03334
  Beta virt. eigenvalues --   -0.02719  -0.02139  -0.01858  -0.01172  -0.00607
  Beta virt. eigenvalues --   -0.00337   0.00021   0.00130   0.00193   0.00617

 Mulliken charges and spin densities:
               1          2
     1  Na   0.340403   0.376467
     2  Na   0.061397   0.290882
     3  Na   0.077785   0.152693
     4  Na   0.023081   0.150056
     5  Na  -0.160409  -0.049774
     6  Na  -0.044615   0.059308
     7  Na  -0.297641   0.020369
 Sum of Mulliken charges =  -0.00000   1.00000

 Dipole moment (field-independent basis, Debye):
    X=             -0.1090    Y=             -0.0144    Z=             -0.0435  Tot=              0.1183
 Quadrupole moment (field-independent basis, Debye-Ang):
   XX=            -54.3035   YY=            -70.1991   ZZ=            -72.9260
   XY=             -3.4326   XZ=             -3.8102   YZ=             -8.5045

 Normal termination of Gaussian 16 at Fri Dec  8 18:27:53 2023.
