 Gaussian 16, Revision B.01,
 Gaussian 16:  ES64L-G16RevB.01 20-Dec-2017

 -------------------------
 #P B3LYP/6-311+g(d) force
 -------------------------

 -----
 DPGEN
 -----
 Symbolic Z-matrix:
 Charge =  0 Multiplicity = 2

                         Standard orientation:
 ---------------------------------------------------------------------
 Center     Atomic      Atomic             Coordinates (Angstroms)
 Number     Number       Type             X           Y           Z
 ---------------------------------------------------------------------
      1         11           0       -0.443443    2.986985   -0.117175
      2         11           0        2.451170   -2.143447   -0.114329
      3         11           0        0.139701   -0.067745    1.818444
      4         11           0        0.261254   -0.190380   -1.733701
      5         11           0       -3.168214    0.687510   -0.073257
      6         11           0       -2.041276   -2.556979    0.086977
      7         11           0        2.800809    1.284055    0.133042
 ---------------------------------------------------------------------

 SCF Done:  E(UB3LYP) =  -1136.13717747     A.U. after   21 cycles

 The electronic state is 2-A.
 Alpha  occ. eigenvalues --  -38.44271 -38.44114 -38.44038 -38.43876 -38.43312
 Alpha  occ. eigenvalues --  -38.43262 -38.43117  -2.20076  -2.19968  -2.19863
 Alpha  occ. eigenvalues --   -2.19669  -2.19217  -2.19182  -2.18943  -1.13751
 Alpha  occ. eigenvalues --   -1.13735  -1.13721  -1.13648  -1.13641  -1.13605
 Alpha  occ. eigenvalues --   -1.13539  -1.13518  -1.13498  -1.13340  -1.13327
 Alpha  occ. eigenvalues --   -1.13314  -1.12918  -1.12858  -1.12840  -1.12837
 Alpha  occ. eigenvalues --   -1.12809  -1.12803  -1.12612  -1.12609  -1.12587
 Alpha  occ. eigenvalues --   -0.18359  -0.13251  -0.12159  -0.10328
 Alpha virt. eigenvalues --   -0.05810  -0.05681  -0.04701  -0.03185  -0.02621
 Alpha virt. eigenvalues --   -0.02266  -0.01710  -0.01339  -0.00742  -0.00506
 Alpha virt. eigenvalues --   -0.00000   0.00345   0.00738   0.00790   0.00847

  Beta  occ. eigenvalues --  -38.44270 -38.44106 -38.44032 -38.43875 -38.43231
  Beta  occ. eigenvalues --  -38.43188 -38.43114  -2.20076  -2.19956  -2.19856
  Beta  occ. eigenvalues --   -2.19670  -2.19068  -2.19048  -2.18940  -1.13738
  Beta  occ. eigenvalues --   -1.13736  -1.13723  -1.13643  -1.13604  -1.13598
  Beta  occ. eigenvalues --   -1.13526  -1.13498  -1.13495  -1.13329  -1.13324
  Beta  occ. eigenvalues --   -1.13317  -1.12819  -1.12762  -1.12736  -1.12727
  Beta  occ. eigenvalues --   -1.12712  -1.12705  -1.12608  -1.12594  -1.12581
  Beta  occ. eigenvalues --   -0.17640  -0.13042  -0.11932
  Beta virt. eigenvalues --   -0.06463  -0.05789  -0.05625  -0.04684  -0.02415
  Beta virt. eigenvalues --   -0.01903  -0.01609  -0.01317  -0.01183  -0.00805
  Beta virt. eigenvalues --   -0.00552   0.00147   0.00374   0.00783   0.00804

 Mulliken charges and spin densities:
               1          2
     1  Na  -0.068734  -0.092918
     2  Na   0.154689  -0.129170
     3  Na  -0.202703   0.711695
     4  Na  -0.183254   0.696132
     5  Na  -0.000973  -0.057703
     6  Na   0.012103  -0.141507
     7  Na   0.288871   0.013472
 Sum of Mulliken charges =  -0.00000   1.00000

 Dipole moment (field-independent basis, Debye):
    X=              0.1022    Y=             -0.2433    Z=              0.0291  Tot=              0.2655
 Quadrupole moment (field-independent basis, Debye-Ang):
   XX=            -54.0777   YY=            -61.4202   ZZ=            -76.8057
   XY=             -0.4131   XZ=              0.3639   YZ=             -0.2881

 Normal termination of Gaussian 16 at Sun Dec  3 13:20:23 2023.
