 Gaussian 16, Revision B.01,
 Gaussian 16:  ES64L-G16RevB.01 20-Dec-2017

 -------------------------
 #P B3LYP/6-311+g(d) force
 -------------------------

 -----
 DPGEN
 -----
 Symbolic Z-matrix:
 Charge =  0 Multiplicity = 2

                         Standard orientation:
 ---------------------------------------------------------------------
 Center     Atomic      Atomic             Coordinates (Angstroms)
 Number     Number       Type             X           Y           Z
 ---------------------------------------------------------------------
      1         11           0        2.627969    1.127871    0.663851
      2         11           0       -0.149267    2.741150   -0.140250
      3         11           0       -2.986095    1.119815   -0.510350
      4         11           0       -0.359554   -0.586635    2.173830
      5         11           0        0.251733   -0.268210   -1.584667
      6         11           0       -2.826306   -2.372886    0.005700
      7         11           0        3.441520   -1.761106   -0.608114
 ---------------------------------------------------------------------

 SCF Done:  E(UB3LYP) =  -1136.12772924     A.U. after   20 cycles

 The electronic state is 2-A.
 Alpha  occ. eigenvalues --  -38.44473 -38.44388 -38.44380 -38.44076 -38.44021
 Alpha  occ. eigenvalues --  -38.43796 -38.42438  -2.20306  -2.20256  -2.20196
 Alpha  occ. eigenvalues --   -2.19901  -2.19880  -2.19576  -2.18325  -1.13985
 Alpha  occ. eigenvalues --   -1.13977  -1.13958  -1.13929  -1.13913  -1.13862
 Alpha  occ. eigenvalues --   -1.13859  -1.13838  -1.13798  -1.13602  -1.13575
 Alpha  occ. eigenvalues --   -1.13566  -1.13531  -1.13526  -1.13477  -1.13247
 Alpha  occ. eigenvalues --   -1.13240  -1.13219  -1.12005  -1.11992  -1.11969
 Alpha  occ. eigenvalues --   -0.18078  -0.13614  -0.11671  -0.10933
 Alpha virt. eigenvalues --   -0.06317  -0.05815  -0.04251  -0.03287  -0.02841
 Alpha virt. eigenvalues --   -0.02540  -0.02174  -0.01377  -0.00693  -0.00209
 Alpha virt. eigenvalues --   -0.00101   0.00226   0.00567   0.00621   0.00734

  Beta  occ. eigenvalues --  -38.44458 -38.44345 -38.44281 -38.44059 -38.44007
  Beta  occ. eigenvalues --  -38.43802 -38.42435  -2.20279  -2.20178  -2.20015
  Beta  occ. eigenvalues --   -2.19878  -2.19850  -2.19589  -2.18324  -1.13962
  Beta  occ. eigenvalues --   -1.13951  -1.13913  -1.13902  -1.13860  -1.13801
  Beta  occ. eigenvalues --   -1.13739  -1.13716  -1.13662  -1.13588  -1.13564
  Beta  occ. eigenvalues --   -1.13531  -1.13503  -1.13502  -1.13455  -1.13258
  Beta  occ. eigenvalues --   -1.13237  -1.13228  -1.12008  -1.11994  -1.11941
  Beta  occ. eigenvalues --   -0.17390  -0.13409  -0.11431
  Beta virt. eigenvalues --   -0.07148  -0.06150  -0.05616  -0.03997  -0.02866
  Beta virt. eigenvalues --   -0.02140  -0.01980  -0.01787  -0.01187  -0.00690
  Beta virt. eigenvalues --   -0.00074  -0.00014   0.00275   0.00677   0.00720

 Mulliken charges and spin densities:
               1          2
     1  Na   0.432787   0.133337
     2  Na  -0.063180   0.032865
     3  Na   0.201312   0.063953
     4  Na  -0.389933   0.479603
     5  Na  -0.431255   0.234356
     6  Na   0.084297  -0.031679
     7  Na   0.165973   0.087564
 Sum of Mulliken charges =  -0.00000   1.00000

 Dipole moment (field-independent basis, Debye):
    X=             -0.0981    Y=             -0.3153    Z=              0.0563  Tot=              0.3350
 Quadrupole moment (field-independent basis, Debye-Ang):
   XX=            -55.3301   YY=            -67.6495   ZZ=            -72.7333
   XY=             -0.7409   XZ=              1.8289   YZ=              1.8653

 Normal termination of Gaussian 16 at Thu Dec  7 01:57:21 2023.
