 Gaussian 16, Revision B.01,
 Gaussian 16:  ES64L-G16RevB.01 20-Dec-2017

 -------------------------
 #P B3LYP/6-311+g(d) force
 -------------------------

 -----
 DPGEN
 -----
 Symbolic Z-matrix:
 Charge =  0 Multiplicity = 2

                         Standard orientation:
 ---------------------------------------------------------------------
 Center     Atomic      Atomic             Coordinates (Angstroms)
 Number     Number       Type             X           Y           Z
 ---------------------------------------------------------------------
      1         11           0        2.842345    1.658625    0.997330
      2         11           0       -0.393486    3.072862   -0.370487
      3         11           0       -2.870371   -1.283726    2.809476
      4         11           0        0.227023   -0.349294    0.652949
      5         11           0       -2.424801    0.926793   -1.745027
      6         11           0       -0.569689   -2.121238   -2.176266
      7         11           0        3.188978   -1.904022   -0.167975
 ---------------------------------------------------------------------

 SCF Done:  E(UB3LYP) =  -1136.12064255     A.U. after   21 cycles

 The electronic state is 2-A.
 Alpha  occ. eigenvalues --  -38.45940 -38.44264 -38.43813 -38.43683 -38.43667
 Alpha  occ. eigenvalues --  -38.43448 -38.43136  -2.21723  -2.20033  -2.19632
 Alpha  occ. eigenvalues --   -2.19473  -2.19465  -2.19360  -2.18951  -1.15346
 Alpha  occ. eigenvalues --   -1.15339  -1.15322  -1.13717  -1.13692  -1.13662
 Alpha  occ. eigenvalues --   -1.13311  -1.13294  -1.13268  -1.13174  -1.13153
 Alpha  occ. eigenvalues --   -1.13143  -1.13141  -1.13091  -1.13079  -1.13067
 Alpha  occ. eigenvalues --   -1.13005  -1.12989  -1.12627  -1.12619  -1.12580
 Alpha  occ. eigenvalues --   -0.16921  -0.12929  -0.12245  -0.11556
 Alpha virt. eigenvalues --   -0.05910  -0.05374  -0.04901  -0.03277  -0.02833
 Alpha virt. eigenvalues --   -0.02543  -0.01731  -0.01172  -0.00870  -0.00584
 Alpha virt. eigenvalues --   -0.00482   0.00060   0.00273   0.00279   0.00844

  Beta  occ. eigenvalues --  -38.45781 -38.44265 -38.43798 -38.43671 -38.43662
  Beta  occ. eigenvalues --  -38.43441 -38.43133  -2.21428  -2.20034  -2.19606
  Beta  occ. eigenvalues --   -2.19472  -2.19434  -2.19348  -2.18946  -1.15143
  Beta  occ. eigenvalues --   -1.15139  -1.15123  -1.13718  -1.13693  -1.13663
  Beta  occ. eigenvalues --   -1.13290  -1.13276  -1.13249  -1.13176  -1.13146
  Beta  occ. eigenvalues --   -1.13129  -1.13113  -1.13085  -1.13063  -1.13035
  Beta  occ. eigenvalues --   -1.13001  -1.12986  -1.12621  -1.12618  -1.12575
  Beta  occ. eigenvalues --   -0.16576  -0.12466  -0.11529
  Beta virt. eigenvalues --   -0.07721  -0.05763  -0.05108  -0.04549  -0.03001
  Beta virt. eigenvalues --   -0.02338  -0.01992  -0.01353  -0.00961  -0.00560
  Beta virt. eigenvalues --   -0.00447  -0.00363   0.00343   0.00504   0.00668

 Mulliken charges and spin densities:
               1          2
     1  Na   0.465522  -0.085897
     2  Na  -0.163858   0.082737
     3  Na   0.186283   0.555284
     4  Na  -1.153750   0.298238
     5  Na   0.271193   0.019348
     6  Na  -0.087520   0.178862
     7  Na   0.482131  -0.048572
 Sum of Mulliken charges =  -0.00000   1.00000

 Dipole moment (field-independent basis, Debye):
    X=             -0.0964    Y=             -0.4622    Z=              0.0894  Tot=              0.4806
 Quadrupole moment (field-independent basis, Debye-Ang):
   XX=            -56.9983   YY=            -68.4753   ZZ=            -67.5934
   XY=             -0.8647   XZ=             -0.9699   YZ=             -0.0217

 Normal termination of Gaussian 16 at Tue Dec  5 12:52:22 2023.
