 Gaussian 16, Revision B.01,
 Gaussian 16:  ES64L-G16RevB.01 20-Dec-2017

 -------------------------
 #P B3LYP/6-311+g(d) force
 -------------------------

 -----
 DPGEN
 -----
 Symbolic Z-matrix:
 Charge =  0 Multiplicity = 2

                         Standard orientation:
 ---------------------------------------------------------------------
 Center     Atomic      Atomic             Coordinates (Angstroms)
 Number     Number       Type             X           Y           Z
 ---------------------------------------------------------------------
      1         11           0        0.080586   -0.254038    1.647688
      2         11           0       -0.328015    0.441770   -1.611370
      3         11           0        2.904275   -0.512149   -0.097722
      4         11           0        1.555319    2.600731   -0.008475
      5         11           0        0.543232   -2.845011   -0.088239
      6         11           0       -2.241080    2.134487    0.296994
      7         11           0       -2.514316   -1.565790   -0.138877
 ---------------------------------------------------------------------

 SCF Done:  E(UB3LYP) =  -1136.13800864     A.U. after   21 cycles

 The electronic state is 2-A.
 Alpha  occ. eigenvalues --  -38.43916 -38.43810 -38.43693 -38.43540 -38.43450
 Alpha  occ. eigenvalues --  -38.42837 -38.42832  -2.19759  -2.19662  -2.19572
 Alpha  occ. eigenvalues --   -2.19419  -2.19355  -2.18853  -2.18842  -1.13452
 Alpha  occ. eigenvalues --   -1.13421  -1.13386  -1.13352  -1.13327  -1.13296
 Alpha  occ. eigenvalues --   -1.13266  -1.13239  -1.13206  -1.13124  -1.13086
 Alpha  occ. eigenvalues --   -1.13063  -1.13044  -1.12999  -1.12971  -1.12582
 Alpha  occ. eigenvalues --   -1.12500  -1.12471  -1.12466  -1.12464  -1.12461
 Alpha  occ. eigenvalues --   -0.19104  -0.13002  -0.12966  -0.10298
 Alpha virt. eigenvalues --   -0.05562  -0.05101  -0.05009  -0.02941  -0.02876
 Alpha virt. eigenvalues --   -0.01965  -0.01372  -0.01347  -0.00391  -0.00307
 Alpha virt. eigenvalues --    0.00051   0.00367   0.00855   0.00882   0.00911

  Beta  occ. eigenvalues --  -38.43908 -38.43805 -38.43685 -38.43535 -38.43443
  Beta  occ. eigenvalues --  -38.42764 -38.42762  -2.19747  -2.19657  -2.19561
  Beta  occ. eigenvalues --   -2.19414  -2.19347  -2.18718  -2.18715  -1.13442
  Beta  occ. eigenvalues --   -1.13392  -1.13383  -1.13346  -1.13306  -1.13291
  Beta  occ. eigenvalues --   -1.13261  -1.13208  -1.13196  -1.13121  -1.13073
  Beta  occ. eigenvalues --   -1.13045  -1.13033  -1.12974  -1.12965  -1.12492
  Beta  occ. eigenvalues --   -1.12406  -1.12377  -1.12376  -1.12368  -1.12363
  Beta  occ. eigenvalues --   -0.18390  -0.12735  -0.12717
  Beta virt. eigenvalues --   -0.06412  -0.05557  -0.05054  -0.05000  -0.02158
  Beta virt. eigenvalues --   -0.02090  -0.01294  -0.01268  -0.00978  -0.00446
  Beta virt. eigenvalues --   -0.00358   0.00183   0.00400   0.00860   0.00894

 Mulliken charges and spin densities:
               1          2
     1  Na  -0.414676   0.679470
     2  Na  -0.401108   0.608656
     3  Na   0.128320  -0.052162
     4  Na   0.143688  -0.082296
     5  Na   0.222775  -0.016503
     6  Na   0.066642  -0.094300
     7  Na   0.254360  -0.042864
 Sum of Mulliken charges =  -0.00000   1.00000

 Dipole moment (field-independent basis, Debye):
    X=             -0.1378    Y=              0.2456    Z=              0.0239  Tot=              0.2826
 Quadrupole moment (field-independent basis, Debye-Ang):
   XX=            -57.3701   YY=            -57.7656   ZZ=            -76.5986
   XY=             -0.0371   XZ=             -0.9311   YZ=              1.5991

 Normal termination of Gaussian 16 at Thu Dec  7 20:39:09 2023.
