 Gaussian 16, Revision B.01,
 Gaussian 16:  ES64L-G16RevB.01 20-Dec-2017

 -------------------------
 #P B3LYP/6-311+g(d) force
 -------------------------

 -----
 DPGEN
 -----
 Symbolic Z-matrix:
 Charge =  0 Multiplicity = 2

                         Standard orientation:
 ---------------------------------------------------------------------
 Center     Atomic      Atomic             Coordinates (Angstroms)
 Number     Number       Type             X           Y           Z
 ---------------------------------------------------------------------
      1         11           0        3.024542    0.055422   -0.060275
      2         11           0        0.428205   -0.176096    1.925482
      3         11           0        0.884922   -2.621756   -0.337104
      4         11           0       -2.501283   -1.817133    0.224552
      5         11           0       -0.296244    0.070106   -1.776327
      6         11           0       -2.418780    1.892747    0.099849
      7         11           0        0.878639    2.596710   -0.076178
 ---------------------------------------------------------------------

 SCF Done:  E(UB3LYP) =  -1136.14032911     A.U. after   19 cycles

 The electronic state is 2-A.
 Alpha  occ. eigenvalues --  -38.43779 -38.43679 -38.43632 -38.43464 -38.43331
 Alpha  occ. eigenvalues --  -38.43225 -38.43214  -2.19601  -2.19517  -2.19513
 Alpha  occ. eigenvalues --   -2.19400  -2.19225  -2.19201  -2.19120  -1.13274
 Alpha  occ. eigenvalues --   -1.13268  -1.13245  -1.13217  -1.13200  -1.13182
 Alpha  occ. eigenvalues --   -1.13174  -1.13166  -1.13154  -1.13070  -1.13040
 Alpha  occ. eigenvalues --   -1.13007  -1.12948  -1.12901  -1.12882  -1.12844
 Alpha  occ. eigenvalues --   -1.12830  -1.12810  -1.12782  -1.12765  -1.12738
 Alpha  occ. eigenvalues --   -0.18973  -0.12928  -0.12712  -0.10858
 Alpha virt. eigenvalues --   -0.05333  -0.05216  -0.04651  -0.03171  -0.03048
 Alpha virt. eigenvalues --   -0.02548  -0.01359  -0.01084  -0.00226  -0.00161
 Alpha virt. eigenvalues --   -0.00007   0.00373   0.00836   0.00911   0.00934

  Beta  occ. eigenvalues --  -38.43775 -38.43677 -38.43627 -38.43381 -38.43320
  Beta  occ. eigenvalues --  -38.43206 -38.43149  -2.19597  -2.19516  -2.19508
  Beta  occ. eigenvalues --   -2.19247  -2.19208  -2.19110  -2.19064  -1.13267
  Beta  occ. eigenvalues --   -1.13250  -1.13245  -1.13204  -1.13196  -1.13172
  Beta  occ. eigenvalues --   -1.13169  -1.13152  -1.13140  -1.12981  -1.12943
  Beta  occ. eigenvalues --   -1.12907  -1.12899  -1.12845  -1.12836  -1.12833
  Beta  occ. eigenvalues --   -1.12762  -1.12753  -1.12740  -1.12713  -1.12697
  Beta  occ. eigenvalues --   -0.18220  -0.12702  -0.12454
  Beta virt. eigenvalues --   -0.06928  -0.05322  -0.05175  -0.04624  -0.02392
  Beta virt. eigenvalues --   -0.02235  -0.01496  -0.01273  -0.01021  -0.00269
  Beta virt. eigenvalues --   -0.00212   0.00126   0.00393   0.00883   0.00908

 Mulliken charges and spin densities:
               1          2
     1  Na   0.348303  -0.021699
     2  Na  -0.530705   0.757007
     3  Na   0.243466  -0.058223
     4  Na  -0.007857  -0.082316
     5  Na  -0.268181   0.575528
     6  Na   0.009931  -0.091385
     7  Na   0.205043  -0.078913
 Sum of Mulliken charges =  -0.00000   1.00000

 Dipole moment (field-independent basis, Debye):
    X=             -0.1639    Y=             -0.0776    Z=              0.1120  Tot=              0.2131
 Quadrupole moment (field-independent basis, Debye-Ang):
   XX=            -57.4140   YY=            -62.8796   ZZ=            -73.4603
   XY=              0.0171   XZ=             -1.6876   YZ=              0.4483

 Normal termination of Gaussian 16 at Thu Dec  7 09:12:27 2023.
