 Gaussian 16, Revision B.01,
 Gaussian 16:  ES64L-G16RevB.01 20-Dec-2017

 -------------------------
 #P B3LYP/6-311+g(d) force
 -------------------------

 -----
 DPGEN
 -----
 Symbolic Z-matrix:
 Charge =  0 Multiplicity = 2

                         Standard orientation:
 ---------------------------------------------------------------------
 Center     Atomic      Atomic             Coordinates (Angstroms)
 Number     Number       Type             X           Y           Z
 ---------------------------------------------------------------------
      1         11           0       -3.949994   -0.552640   -0.018757
      2         11           0        4.014046   -1.412889    0.326626
      3         11           0        2.948237    2.388650   -0.330857
      4         11           0       -1.885800   -3.473902   -0.913975
      5         11           0        1.518727   -3.002082    0.593918
      6         11           0       -2.956910    2.273818    0.961338
      7         11           0        0.311695    3.779044   -0.618292
 ---------------------------------------------------------------------

 SCF Done:  E(UB3LYP) =  -1136.10746625     A.U. after   20 cycles

 The electronic state is 2-A.
 Alpha  occ. eigenvalues --  -38.44732 -38.44700 -38.44656 -38.44536 -38.44388
 Alpha  occ. eigenvalues --  -38.44352 -38.44203  -2.20537  -2.20503  -2.20441
 Alpha  occ. eigenvalues --   -2.20345  -2.20179  -2.20163  -2.20036  -1.14266
 Alpha  occ. eigenvalues --   -1.14233  -1.14192  -1.14168  -1.14168  -1.14166
 Alpha  occ. eigenvalues --   -1.14155  -1.14116  -1.14093  -1.13991  -1.13976
 Alpha  occ. eigenvalues --   -1.13952  -1.13827  -1.13818  -1.13813  -1.13812
 Alpha  occ. eigenvalues --   -1.13802  -1.13791  -1.13685  -1.13670  -1.13655
 Alpha  occ. eigenvalues --   -0.15583  -0.13938  -0.13719  -0.11182
 Alpha virt. eigenvalues --   -0.07342  -0.04568  -0.04494  -0.03673  -0.03592
 Alpha virt. eigenvalues --   -0.02291  -0.02084  -0.01799  -0.01580  -0.01065
 Alpha virt. eigenvalues --   -0.00529  -0.00159  -0.00034   0.00472   0.00791

  Beta  occ. eigenvalues --  -38.44706 -38.44695 -38.44654 -38.44476 -38.44334
  Beta  occ. eigenvalues --  -38.44302 -38.44157  -2.20501  -2.20493  -2.20444
  Beta  occ. eigenvalues --   -2.20235  -2.20135  -2.20018  -2.19952  -1.14223
  Beta  occ. eigenvalues --   -1.14204  -1.14171  -1.14165  -1.14142  -1.14142
  Beta  occ. eigenvalues --   -1.14134  -1.14125  -1.14073  -1.13918  -1.13908
  Beta  occ. eigenvalues --   -1.13879  -1.13798  -1.13796  -1.13756  -1.13717
  Beta  occ. eigenvalues --   -1.13705  -1.13697  -1.13629  -1.13613  -1.13598
  Beta  occ. eigenvalues --   -0.15038  -0.13203  -0.12898
  Beta virt. eigenvalues --   -0.08053  -0.07472  -0.04171  -0.03947  -0.03458
  Beta virt. eigenvalues --   -0.03264  -0.02070  -0.01894  -0.01624  -0.01401
  Beta virt. eigenvalues --   -0.00700  -0.00235   0.00070   0.00166   0.00453

 Mulliken charges and spin densities:
               1          2
     1  Na  -0.007635   0.028692
     2  Na   0.408946   0.192283
     3  Na   0.044962   0.105265
     4  Na   0.237487   0.395661
     5  Na  -0.610154   0.029096
     6  Na   0.011363   0.231903
     7  Na  -0.084968   0.017100
 Sum of Mulliken charges =  -0.00000   1.00000

 Dipole moment (field-independent basis, Debye):
    X=              0.1586    Y=              0.2961    Z=             -0.0089  Tot=              0.3361
 Quadrupole moment (field-independent basis, Debye-Ang):
   XX=            -61.8881   YY=            -67.0974   ZZ=            -72.2484
   XY=              0.4938   XZ=              0.5322   YZ=              0.9591

 Normal termination of Gaussian 16 at Mon Dec  4 03:28:55 2023.
