 Gaussian 16, Revision B.01,
 Gaussian 16:  ES64L-G16RevB.01 20-Dec-2017

 -------------------------
 #P B3LYP/6-311+g(d) force
 -------------------------

 -----
 DPGEN
 -----
 Symbolic Z-matrix:
 Charge =  0 Multiplicity = 2

                         Standard orientation:
 ---------------------------------------------------------------------
 Center     Atomic      Atomic             Coordinates (Angstroms)
 Number     Number       Type             X           Y           Z
 ---------------------------------------------------------------------
      1         11           0       -2.332480   -2.148140   -0.634027
      2         11           0       -1.944323    1.308175   -0.600709
      3         11           0        0.775625    2.933764    0.193586
      4         11           0       -4.726281   -0.148273    0.749317
      5         11           0        3.481321   -2.318335    0.382609
      6         11           0        3.958192    0.736175   -0.162748
      7         11           0        0.787944   -0.363366    0.071971
 ---------------------------------------------------------------------

 SCF Done:  E(UB3LYP) =  -1136.12552362     A.U. after   21 cycles

 The electronic state is 2-A.
 Alpha  occ. eigenvalues --  -38.44544 -38.44192 -38.44095 -38.43832 -38.43685
 Alpha  occ. eigenvalues --  -38.43067 -38.42826  -2.20399  -2.20017  -2.19926
 Alpha  occ. eigenvalues --   -2.19738  -2.19528  -2.19049  -2.18679  -1.14068
 Alpha  occ. eigenvalues --   -1.14060  -1.14030  -1.13701  -1.13684  -1.13650
 Alpha  occ. eigenvalues --   -1.13593  -1.13580  -1.13569  -1.13451  -1.13434
 Alpha  occ. eigenvalues --   -1.13345  -1.13178  -1.13168  -1.13133  -1.12745
 Alpha  occ. eigenvalues --   -1.12704  -1.12691  -1.12343  -1.12333  -1.12327
 Alpha  occ. eigenvalues --   -0.17447  -0.14663  -0.11951  -0.10466
 Alpha virt. eigenvalues --   -0.06431  -0.05158  -0.04496  -0.03803  -0.02768
 Alpha virt. eigenvalues --   -0.02252  -0.01498  -0.01300  -0.01115  -0.00668
 Alpha virt. eigenvalues --   -0.00168   0.00185   0.00473   0.00503   0.00692

  Beta  occ. eigenvalues --  -38.44508 -38.44172 -38.44098 -38.43822 -38.43603
  Beta  occ. eigenvalues --  -38.43019 -38.42826  -2.20331  -2.19986  -2.19934
  Beta  occ. eigenvalues --   -2.19725  -2.19375  -2.18967  -2.18678  -1.14027
  Beta  occ. eigenvalues --   -1.14013  -1.13980  -1.13683  -1.13663  -1.13597
  Beta  occ. eigenvalues --   -1.13594  -1.13587  -1.13560  -1.13430  -1.13401
  Beta  occ. eigenvalues --   -1.13340  -1.13071  -1.13062  -1.13040  -1.12695
  Beta  occ. eigenvalues --   -1.12639  -1.12610  -1.12342  -1.12328  -1.12326
  Beta  occ. eigenvalues --   -0.16860  -0.14212  -0.11783
  Beta virt. eigenvalues --   -0.06861  -0.06110  -0.04773  -0.04377  -0.03352
  Beta virt. eigenvalues --   -0.02570  -0.01653  -0.01422  -0.01164  -0.00891
  Beta virt. eigenvalues --   -0.00343   0.00194   0.00332   0.00571   0.00660

 Mulliken charges and spin densities:
               1          2
     1  Na   0.024271  -0.008698
     2  Na   0.577990   0.280303
     3  Na   0.507720  -0.022583
     4  Na   0.632469   0.398999
     5  Na   0.764643   0.013223
     6  Na   0.787795   0.224746
     7  Na  -3.294889   0.114011
 Sum of Mulliken charges =  -0.00000   1.00000

 Dipole moment (field-independent basis, Debye):
    X=              0.9565    Y=             -0.5166    Z=             -0.0444  Tot=              1.0880
 Quadrupole moment (field-independent basis, Debye-Ang):
   XX=            -64.0327   YY=            -62.1487   ZZ=            -70.3578
   XY=              2.2110   XZ=              0.0149   YZ=             -0.4134

 Normal termination of Gaussian 16 at Wed Nov 29 16:40:50 2023.
