 Gaussian 16, Revision B.01,
 Gaussian 16:  ES64L-G16RevB.01 20-Dec-2017

 -------------------------
 #P B3LYP/6-311+g(d) force
 -------------------------

 -----
 DPGEN
 -----
 Symbolic Z-matrix:
 Charge =  0 Multiplicity = 2

                         Standard orientation:
 ---------------------------------------------------------------------
 Center     Atomic      Atomic             Coordinates (Angstroms)
 Number     Number       Type             X           Y           Z
 ---------------------------------------------------------------------
      1         11           0       -3.811001   -0.175004    1.027344
      2         11           0       -1.406285    1.856955   -0.696566
      3         11           0        3.678216   -0.241022    1.132054
      4         11           0       -1.707536   -1.232337   -1.362198
      5         11           0        1.791272   -1.470089   -1.272490
      6         11           0       -0.283210   -0.577173    1.638303
      7         11           0        1.738545    1.838669   -0.466448
 ---------------------------------------------------------------------

 SCF Done:  E(UB3LYP) =  -1136.12090354     A.U. after   28 cycles

 The electronic state is 2-A.
 Alpha  occ. eigenvalues --  -38.45149 -38.44792 -38.44588 -38.44230 -38.44136
 Alpha  occ. eigenvalues --  -38.42540 -38.42170  -2.20994  -2.20621  -2.20431
 Alpha  occ. eigenvalues --   -2.20158  -2.20024  -2.18455  -2.18098  -1.14711
 Alpha  occ. eigenvalues --   -1.14656  -1.14596  -1.14293  -1.14270  -1.14252
 Alpha  occ. eigenvalues --   -1.14103  -1.14091  -1.14065  -1.13849  -1.13817
 Alpha  occ. eigenvalues --   -1.13769  -1.13692  -1.13676  -1.13642  -1.12143
 Alpha  occ. eigenvalues --   -1.12130  -1.12099  -1.11787  -1.11768  -1.11706
 Alpha  occ. eigenvalues --   -0.18802  -0.14598  -0.11536  -0.10630
 Alpha virt. eigenvalues --   -0.07073  -0.05297  -0.04697  -0.03203  -0.02866
 Alpha virt. eigenvalues --   -0.02310  -0.02123  -0.01356  -0.00670  -0.00161
 Alpha virt. eigenvalues --    0.00069   0.00245   0.00420   0.00570   0.00709

  Beta  occ. eigenvalues --  -38.45116 -38.44772 -38.44572 -38.44173 -38.44084
  Beta  occ. eigenvalues --  -38.42536 -38.42166  -2.20936  -2.20584  -2.20401
  Beta  occ. eigenvalues --   -2.20058  -2.19932  -2.18448  -2.18090  -1.14657
  Beta  occ. eigenvalues --   -1.14613  -1.14551  -1.14267  -1.14240  -1.14226
  Beta  occ. eigenvalues --   -1.14084  -1.14065  -1.14043  -1.13783  -1.13735
  Beta  occ. eigenvalues --   -1.13679  -1.13632  -1.13610  -1.13556  -1.12146
  Beta  occ. eigenvalues --   -1.12116  -1.12089  -1.11779  -1.11758  -1.11699
  Beta  occ. eigenvalues --   -0.18090  -0.14397  -0.10503
  Beta virt. eigenvalues --   -0.07566  -0.06849  -0.04733  -0.04526  -0.02847
  Beta virt. eigenvalues --   -0.02683  -0.01660  -0.01549  -0.00974  -0.00526
  Beta virt. eigenvalues --   -0.00071   0.00102   0.00341   0.00467   0.00695

 Mulliken charges and spin densities:
               1          2
     1  Na   1.131646   0.043592
     2  Na  -0.576386   0.146173
     3  Na   1.184080   0.107541
     4  Na   0.073140   0.158096
     5  Na  -0.188161   0.079769
     6  Na  -1.074589   0.352642
     7  Na  -0.549730   0.112186
 Sum of Mulliken charges =  -0.00000   1.00000

 Dipole moment (field-independent basis, Debye):
    X=             -0.2724    Y=             -0.3746    Z=              0.4983  Tot=              0.6803
 Quadrupole moment (field-independent basis, Debye-Ang):
   XX=            -47.1979   YY=            -80.3430   ZZ=            -67.5959
   XY=             -0.4502   XZ=              0.9722   YZ=              4.6896

 Normal termination of Gaussian 16 at Thu Dec  7 12:30:46 2023.
