 Gaussian 16, Revision B.01,
 Gaussian 16:  ES64L-G16RevB.01 20-Dec-2017

 -------------------------
 #P B3LYP/6-311+g(d) force
 -------------------------

 -----
 DPGEN
 -----
 Symbolic Z-matrix:
 Charge =  0 Multiplicity = 2

                         Standard orientation:
 ---------------------------------------------------------------------
 Center     Atomic      Atomic             Coordinates (Angstroms)
 Number     Number       Type             X           Y           Z
 ---------------------------------------------------------------------
      1         11           0        0.196339   -0.479613    2.194482
      2         11           0        3.536899   -0.061964   -0.350608
      3         11           0       -2.403540    2.012851   -0.227643
      4         11           0        1.034071    2.602789    0.251206
      5         11           0       -0.327196    0.069005   -1.542815
      6         11           0        0.621008   -2.601159   -0.416404
      7         11           0       -2.657581   -1.541909    0.091783
 ---------------------------------------------------------------------

 SCF Done:  E(UB3LYP) =  -1136.13398246     A.U. after   19 cycles

 The electronic state is 2-A.
 Alpha  occ. eigenvalues --  -38.44523 -38.43907 -38.43790 -38.43526 -38.43413
 Alpha  occ. eigenvalues --  -38.43310 -38.43246  -2.20282  -2.19764  -2.19655
 Alpha  occ. eigenvalues --   -2.19379  -2.19266  -2.19247  -2.19204  -1.13957
 Alpha  occ. eigenvalues --   -1.13940  -1.13919  -1.13455  -1.13430  -1.13398
 Alpha  occ. eigenvalues --   -1.13314  -1.13291  -1.13264  -1.13128  -1.13038
 Alpha  occ. eigenvalues --   -1.13030  -1.13013  -1.12957  -1.12921  -1.12904
 Alpha  occ. eigenvalues --   -1.12864  -1.12860  -1.12859  -1.12818  -1.12795
 Alpha  occ. eigenvalues --   -0.18553  -0.12835  -0.12461  -0.10821
 Alpha virt. eigenvalues --   -0.05984  -0.05074  -0.04476  -0.03125  -0.02956
 Alpha virt. eigenvalues --   -0.02619  -0.01816  -0.01095  -0.00317  -0.00254
 Alpha virt. eigenvalues --   -0.00050   0.00305   0.00763   0.00851   0.00893

  Beta  occ. eigenvalues --  -38.44521 -38.43902 -38.43687 -38.43523 -38.43408
  Beta  occ. eigenvalues --  -38.43296 -38.43191  -2.20280  -2.19759  -2.19465
  Beta  occ. eigenvalues --   -2.19376  -2.19239  -2.19187  -2.19165  -1.13948
  Beta  occ. eigenvalues --   -1.13936  -1.13918  -1.13450  -1.13409  -1.13390
  Beta  occ. eigenvalues --   -1.13190  -1.13158  -1.13129  -1.13106  -1.13020
  Beta  occ. eigenvalues --   -1.13013  -1.12997  -1.12941  -1.12896  -1.12859
  Beta  occ. eigenvalues --   -1.12845  -1.12827  -1.12802  -1.12779  -1.12765
  Beta  occ. eigenvalues --   -0.17834  -0.12635  -0.12228
  Beta virt. eigenvalues --   -0.06872  -0.05915  -0.05060  -0.04412  -0.02402
  Beta virt. eigenvalues --   -0.02182  -0.01735  -0.01557  -0.01046  -0.00345
  Beta virt. eigenvalues --   -0.00267   0.00109   0.00345   0.00829   0.00854

 Mulliken charges and spin densities:
               1          2
     1  Na  -0.585717   0.702471
     2  Na  -0.032029  -0.045556
     3  Na   0.188438  -0.008123
     4  Na   0.055785   0.000188
     5  Na  -0.221731   0.329672
     6  Na   0.255075  -0.016271
     7  Na   0.340179   0.037620
 Sum of Mulliken charges =  -0.00000   1.00000

 Dipole moment (field-independent basis, Debye):
    X=              0.1359    Y=             -0.0915    Z=              0.2228  Tot=              0.2766
 Quadrupole moment (field-independent basis, Debye-Ang):
   XX=            -53.8990   YY=            -65.1870   ZZ=            -74.0240
   XY=              0.2091   XZ=             -1.2426   YZ=              0.8773

 Normal termination of Gaussian 16 at Tue Dec  5 16:41:14 2023.
