 Gaussian 16, Revision B.01,
 Gaussian 16:  ES64L-G16RevB.01 20-Dec-2017

 -------------------------
 #P B3LYP/6-311+g(d) force
 -------------------------

 -----
 DPGEN
 -----
 Symbolic Z-matrix:
 Charge =  0 Multiplicity = 2

                         Standard orientation:
 ---------------------------------------------------------------------
 Center     Atomic      Atomic             Coordinates (Angstroms)
 Number     Number       Type             X           Y           Z
 ---------------------------------------------------------------------
      1         11           0       -4.936521   -0.912454    1.183751
      2         11           0        5.861106   -1.200505    1.211162
      3         11           0        3.978375    2.117501    0.400072
      4         11           0       -1.395189   -1.070294   -0.781034
      5         11           0        0.872168    1.534509   -0.528174
      6         11           0        2.808214   -1.209777   -1.416094
      7         11           0       -7.188154    0.741021   -0.069682
 ---------------------------------------------------------------------

 SCF Done:  E(UB3LYP) =  -1136.10910870     A.U. after   21 cycles

 The electronic state is 2-A.
 Alpha  occ. eigenvalues --  -38.45805 -38.44601 -38.44277 -38.44219 -38.44117
 Alpha  occ. eigenvalues --  -38.43935 -38.43806  -2.21559  -2.20388  -2.20032
 Alpha  occ. eigenvalues --   -2.20014  -2.19938  -2.19707  -2.19671  -1.15261
 Alpha  occ. eigenvalues --   -1.15240  -1.15145  -1.14080  -1.14040  -1.14038
 Alpha  occ. eigenvalues --   -1.13700  -1.13688  -1.13676  -1.13667  -1.13650
 Alpha  occ. eigenvalues --   -1.13648  -1.13624  -1.13607  -1.13539  -1.13390
 Alpha  occ. eigenvalues --   -1.13385  -1.13350  -1.13344  -1.13327  -1.13263
 Alpha  occ. eigenvalues --   -0.16202  -0.13841  -0.11883  -0.10971
 Alpha virt. eigenvalues --   -0.07237  -0.05393  -0.04338  -0.03597  -0.02798
 Alpha virt. eigenvalues --   -0.02721  -0.02523  -0.01765  -0.01162  -0.00723
 Alpha virt. eigenvalues --   -0.00698  -0.00326   0.00125   0.00298   0.00424

  Beta  occ. eigenvalues --  -38.45780 -38.44595 -38.44233 -38.44220 -38.44055
  Beta  occ. eigenvalues --  -38.43916 -38.43763  -2.21513  -2.20377  -2.20018
  Beta  occ. eigenvalues --   -2.19949  -2.19829  -2.19672  -2.19598  -1.15224
  Beta  occ. eigenvalues --   -1.15204  -1.15111  -1.14073  -1.14032  -1.14030
  Beta  occ. eigenvalues --   -1.13679  -1.13669  -1.13647  -1.13644  -1.13627
  Beta  occ. eigenvalues --   -1.13596  -1.13543  -1.13534  -1.13448  -1.13365
  Beta  occ. eigenvalues --   -1.13360  -1.13308  -1.13303  -1.13295  -1.13179
  Beta  occ. eigenvalues --   -0.15511  -0.13684  -0.11606
  Beta virt. eigenvalues --   -0.07402  -0.06792  -0.05224  -0.03967  -0.03371
  Beta virt. eigenvalues --   -0.02663  -0.02409  -0.01957  -0.01636  -0.00882
  Beta virt. eigenvalues --   -0.00642  -0.00522   0.00078   0.00208   0.00412

 Mulliken charges and spin densities:
               1          2
     1  Na  -0.250545  -0.004440
     2  Na   0.137935   0.210763
     3  Na   0.242629   0.125813
     4  Na  -0.164210   0.138943
     5  Na  -0.215813   0.275242
     6  Na   0.002833   0.219612
     7  Na   0.247172   0.034067
 Sum of Mulliken charges =  -0.00000   1.00000

 Dipole moment (field-independent basis, Debye):
    X=             -0.3778    Y=              0.0476    Z=             -0.1945  Tot=              0.4276
 Quadrupole moment (field-independent basis, Debye-Ang):
   XX=            -59.1906   YY=            -68.4266   ZZ=            -68.1653
   XY=             -4.7445   XZ=              4.3093   YZ=             -0.7807

 Normal termination of Gaussian 16 at Mon Dec  4 03:22:31 2023.
