 Gaussian 16, Revision B.01,
 Gaussian 16:  ES64L-G16RevB.01 20-Dec-2017

 -------------------------
 #P B3LYP/6-311+g(d) force
 -------------------------

 -----
 DPGEN
 -----
 Symbolic Z-matrix:
 Charge =  0 Multiplicity = 2

                         Standard orientation:
 ---------------------------------------------------------------------
 Center     Atomic      Atomic             Coordinates (Angstroms)
 Number     Number       Type             X           Y           Z
 ---------------------------------------------------------------------
      1         11           0        0.394185    2.452254    0.423675
      2         11           0       -5.326077   -1.005712   -0.247406
      3         11           0        1.931502   -0.634054    1.839040
      4         11           0       -2.620398    1.640456   -0.506564
      5         11           0       -2.555328   -1.564383    0.027010
      6         11           0        3.710481    1.098246   -0.745442
      7         11           0        4.465633   -1.986807   -0.790314
 ---------------------------------------------------------------------

 SCF Done:  E(UB3LYP) =  -1136.11012845     A.U. after   22 cycles

 The electronic state is 2-A.
 Alpha  occ. eigenvalues --  -38.45076 -38.44866 -38.44539 -38.44254 -38.44205
 Alpha  occ. eigenvalues --  -38.43891 -38.42684  -2.20956  -2.20714  -2.20371
 Alpha  occ. eigenvalues --   -2.20103  -2.20002  -2.19711  -2.18500  -1.14762
 Alpha  occ. eigenvalues --   -1.14619  -1.14599  -1.14350  -1.14343  -1.14292
 Alpha  occ. eigenvalues --   -1.14050  -1.14028  -1.14010  -1.13798  -1.13776
 Alpha  occ. eigenvalues --   -1.13701  -1.13666  -1.13659  -1.13633  -1.13375
 Alpha  occ. eigenvalues --   -1.13354  -1.13318  -1.12177  -1.12172  -1.12149
 Alpha  occ. eigenvalues --   -0.16585  -0.15030  -0.11726  -0.10038
 Alpha virt. eigenvalues --   -0.06988  -0.05872  -0.04313  -0.03764  -0.03032
 Alpha virt. eigenvalues --   -0.02504  -0.02085  -0.01622  -0.01090  -0.00750
 Alpha virt. eigenvalues --   -0.00235   0.00040   0.00187   0.00345   0.00586

  Beta  occ. eigenvalues --  -38.45061 -38.44864 -38.44511 -38.44223 -38.44197
  Beta  occ. eigenvalues --  -38.43801 -38.42683  -2.20928  -2.20711  -2.20320
  Beta  occ. eigenvalues --   -2.20046  -2.19989  -2.19545  -2.18503  -1.14742
  Beta  occ. eigenvalues --   -1.14596  -1.14579  -1.14348  -1.14334  -1.14285
  Beta  occ. eigenvalues --   -1.14014  -1.13995  -1.13966  -1.13759  -1.13738
  Beta  occ. eigenvalues --   -1.13659  -1.13658  -1.13633  -1.13627  -1.13260
  Beta  occ. eigenvalues --   -1.13242  -1.13202  -1.12180  -1.12174  -1.12130
  Beta  occ. eigenvalues --   -0.16163  -0.14747  -0.11435
  Beta virt. eigenvalues --   -0.06905  -0.06518  -0.05257  -0.04168  -0.03595
  Beta virt. eigenvalues --   -0.02878  -0.01960  -0.01503  -0.01448  -0.01010
  Beta virt. eigenvalues --   -0.00343  -0.00067   0.00194   0.00303   0.00523

 Mulliken charges and spin densities:
               1          2
     1  Na  -0.195281   0.107844
     2  Na   1.330642  -0.001353
     3  Na  -0.329090   0.541174
     4  Na  -0.182158   0.104674
     5  Na  -0.930405   0.128717
     6  Na   0.100076   0.146754
     7  Na   0.206216  -0.027810
 Sum of Mulliken charges =  -0.00000   1.00000

 Dipole moment (field-independent basis, Debye):
    X=             -1.4994    Y=             -0.9927    Z=             -0.5261  Tot=              1.8737
 Quadrupole moment (field-independent basis, Debye-Ang):
   XX=            -53.3425   YY=            -67.4495   ZZ=            -74.4274
   XY=             -0.0534   XZ=              1.8642   YZ=              1.8072

 Normal termination of Gaussian 16 at Sun Dec  3 21:17:46 2023.
