 Gaussian 16, Revision B.01,
 Gaussian 16:  ES64L-G16RevB.01 20-Dec-2017

 -------------------------
 #P B3LYP/6-311+g(d) force
 -------------------------

 -----
 DPGEN
 -----
 Symbolic Z-matrix:
 Charge =  0 Multiplicity = 2

                         Standard orientation:
 ---------------------------------------------------------------------
 Center     Atomic      Atomic             Coordinates (Angstroms)
 Number     Number       Type             X           Y           Z
 ---------------------------------------------------------------------
      1         11           0       -3.357360    2.776754    0.344657
      2         11           0       -4.299160   -1.001705   -0.171662
      3         11           0        3.928029   -1.555978   -0.718718
      4         11           0        3.802502    2.756572   -0.096912
      5         11           0        1.693478   -2.628190    1.427531
      6         11           0       -0.028323    2.625982   -0.100396
      7         11           0       -1.739165   -2.973434   -0.684499
 ---------------------------------------------------------------------

 SCF Done:  E(UB3LYP) =  -1136.10492855     A.U. after   21 cycles

 The electronic state is 2-A.
 Alpha  occ. eigenvalues --  -38.45396 -38.44732 -38.44684 -38.44515 -38.44383
 Alpha  occ. eigenvalues --  -38.44373 -38.43973  -2.21149  -2.20510  -2.20456
 Alpha  occ. eigenvalues --   -2.20257  -2.20160  -2.20144  -2.19771  -1.14823
 Alpha  occ. eigenvalues --   -1.14812  -1.14787  -1.14170  -1.14159  -1.14146
 Alpha  occ. eigenvalues --   -1.14133  -1.14127  -1.14093  -1.13956  -1.13947
 Alpha  occ. eigenvalues --   -1.13891  -1.13827  -1.13820  -1.13795  -1.13782
 Alpha  occ. eigenvalues --   -1.13775  -1.13764  -1.13423  -1.13411  -1.13400
 Alpha  occ. eigenvalues --   -0.15282  -0.13692  -0.13034  -0.10883
 Alpha virt. eigenvalues --   -0.07243  -0.05357  -0.04499  -0.03451  -0.03128
 Alpha virt. eigenvalues --   -0.02690  -0.02341  -0.02116  -0.01033  -0.00761
 Alpha virt. eigenvalues --   -0.00570  -0.00525   0.00125   0.00251   0.00489

  Beta  occ. eigenvalues --  -38.45387 -38.44704 -38.44668 -38.44521 -38.44354
  Beta  occ. eigenvalues --  -38.44281 -38.43914  -2.21136  -2.20460  -2.20431
  Beta  occ. eigenvalues --   -2.20274  -2.20110  -2.19974  -2.19661  -1.14816
  Beta  occ. eigenvalues --   -1.14802  -1.14764  -1.14137  -1.14127  -1.14115
  Beta  occ. eigenvalues --   -1.14108  -1.14107  -1.14060  -1.13973  -1.13964
  Beta  occ. eigenvalues --   -1.13862  -1.13796  -1.13789  -1.13734  -1.13679
  Beta  occ. eigenvalues --   -1.13660  -1.13651  -1.13349  -1.13337  -1.13329
  Beta  occ. eigenvalues --   -0.14840  -0.13008  -0.12130
  Beta virt. eigenvalues --   -0.07800  -0.07422  -0.05042  -0.04006  -0.03195
  Beta virt. eigenvalues --   -0.02883  -0.02460  -0.02126  -0.01764  -0.00843
  Beta virt. eigenvalues --   -0.00559  -0.00282  -0.00194   0.00146   0.00292

 Mulliken charges and spin densities:
               1          2
     1  Na   0.933289   0.166598
     2  Na  -0.059629   0.026751
     3  Na   0.046643   0.003867
     4  Na   0.310177   0.355569
     5  Na  -0.119895   0.138203
     6  Na  -1.185142   0.181132
     7  Na   0.074556   0.127880
 Sum of Mulliken charges =  -0.00000   1.00000

 Dipole moment (field-independent basis, Debye):
    X=              0.4073    Y=             -0.8894    Z=              0.0129  Tot=              0.9783
 Quadrupole moment (field-independent basis, Debye-Ang):
   XX=            -55.1757   YY=            -75.3712   ZZ=            -69.6411
   XY=             -4.0777   XZ=             -3.9834   YZ=              0.7596

 Normal termination of Gaussian 16 at Mon Dec  4 01:25:04 2023.
