 Gaussian 16, Revision B.01,
 Gaussian 16:  ES64L-G16RevB.01 20-Dec-2017

 -------------------------
 #P B3LYP/6-311+g(d) force
 -------------------------

 -----
 DPGEN
 -----
 Symbolic Z-matrix:
 Charge =  0 Multiplicity = 2

                         Standard orientation:
 ---------------------------------------------------------------------
 Center     Atomic      Atomic             Coordinates (Angstroms)
 Number     Number       Type             X           Y           Z
 ---------------------------------------------------------------------
      1         11           0       -0.084567    3.214272   -0.092422
      2         11           0        3.240428    0.717546    0.710167
      3         11           0       -2.702568   -1.871342   -0.307108
      4         11           0        0.802696    0.392769   -1.677635
      5         11           0       -0.044414   -1.254155    1.698825
      6         11           0       -2.695027    1.364839    0.293100
      7         11           0        1.483451   -2.563928   -0.624927
 ---------------------------------------------------------------------

 SCF Done:  E(UB3LYP) =  -1136.12860872     A.U. after   21 cycles

 The electronic state is 2-A.
 Alpha  occ. eigenvalues --  -38.44613 -38.44257 -38.44041 -38.43788 -38.43719
 Alpha  occ. eigenvalues --  -38.43697 -38.43177  -2.20399  -2.20067  -2.19916
 Alpha  occ. eigenvalues --   -2.19624  -2.19586  -2.19540  -2.19096  -1.14067
 Alpha  occ. eigenvalues --   -1.14052  -1.14030  -1.13747  -1.13736  -1.13708
 Alpha  occ. eigenvalues --   -1.13641  -1.13598  -1.13517  -1.13330  -1.13294
 Alpha  occ. eigenvalues --   -1.13275  -1.13254  -1.13244  -1.13215  -1.13189
 Alpha  occ. eigenvalues --   -1.13183  -1.13160  -1.12767  -1.12733  -1.12728
 Alpha  occ. eigenvalues --   -0.18057  -0.13144  -0.12665  -0.10216
 Alpha virt. eigenvalues --   -0.06322  -0.05325  -0.04889  -0.03210  -0.02974
 Alpha virt. eigenvalues --   -0.02113  -0.01790  -0.01224  -0.00683  -0.00601
 Alpha virt. eigenvalues --   -0.00019   0.00351   0.00614   0.00707   0.00828

  Beta  occ. eigenvalues --  -38.44582 -38.44259 -38.44017 -38.43788 -38.43719
  Beta  occ. eigenvalues --  -38.43649 -38.43114  -2.20343  -2.20072  -2.19875
  Beta  occ. eigenvalues --   -2.19624  -2.19542  -2.19498  -2.18981  -1.14018
  Beta  occ. eigenvalues --   -1.14012  -1.13992  -1.13752  -1.13732  -1.13705
  Beta  occ. eigenvalues --   -1.13614  -1.13540  -1.13486  -1.13333  -1.13288
  Beta  occ. eigenvalues --   -1.13270  -1.13207  -1.13193  -1.13187  -1.13184
  Beta  occ. eigenvalues --   -1.13162  -1.13114  -1.12691  -1.12652  -1.12635
  Beta  occ. eigenvalues --   -0.17431  -0.12909  -0.12500
  Beta virt. eigenvalues --   -0.06457  -0.06208  -0.05244  -0.04745  -0.02575
  Beta virt. eigenvalues --   -0.02358  -0.01687  -0.01198  -0.01075  -0.00705
  Beta virt. eigenvalues --   -0.00581   0.00160   0.00433   0.00727   0.00744

 Mulliken charges and spin densities:
               1          2
     1  Na   0.068997   0.000620
     2  Na  -0.207602   0.128738
     3  Na   0.161077   0.020184
     4  Na   0.043828   0.402907
     5  Na  -0.198654   0.498591
     6  Na  -0.241520  -0.083898
     7  Na   0.373874   0.032859
 Sum of Mulliken charges =  -0.00000   1.00000

 Dipole moment (field-independent basis, Debye):
    X=              0.1340    Y=             -0.2104    Z=              0.0529  Tot=              0.2550
 Quadrupole moment (field-independent basis, Debye-Ang):
   XX=            -57.7652   YY=            -61.1215   ZZ=            -75.6194
   XY=              1.4713   XZ=              1.5682   YZ=              2.6576

 Normal termination of Gaussian 16 at Sun Dec  3 20:10:13 2023.
