 Gaussian 16, Revision B.01,
 Gaussian 16:  ES64L-G16RevB.01 20-Dec-2017

 -------------------------
 #P B3LYP/6-311+g(d) force
 -------------------------

 -----
 DPGEN
 -----
 Symbolic Z-matrix:
 Charge =  0 Multiplicity = 2

                         Standard orientation:
 ---------------------------------------------------------------------
 Center     Atomic      Atomic             Coordinates (Angstroms)
 Number     Number       Type             X           Y           Z
 ---------------------------------------------------------------------
      1         11           0        0.733416    2.866989   -0.932424
      2         11           0       -1.386675    0.824405    1.936714
      3         11           0        3.469515   -1.599949   -0.474508
      4         11           0        2.233488    0.753600    1.552169
      5         11           0        0.571432   -1.592600   -1.221269
      6         11           0       -2.722858    1.074046   -1.411440
      7         11           0       -2.898319   -2.326492    0.550757
 ---------------------------------------------------------------------

 SCF Done:  E(UB3LYP) =  -1136.12314886     A.U. after   21 cycles

 The electronic state is 2-A.
 Alpha  occ. eigenvalues --  -38.44785 -38.44252 -38.44246 -38.43999 -38.43984
 Alpha  occ. eigenvalues --  -38.43903 -38.43783  -2.20568  -2.20064  -2.20009
 Alpha  occ. eigenvalues --   -2.19827  -2.19749  -2.19740  -2.19634  -1.14248
 Alpha  occ. eigenvalues --   -1.14224  -1.14175  -1.13755  -1.13720  -1.13684
 Alpha  occ. eigenvalues --   -1.13673  -1.13663  -1.13636  -1.13563  -1.13494
 Alpha  occ. eigenvalues --   -1.13487  -1.13431  -1.13420  -1.13413  -1.13394
 Alpha  occ. eigenvalues --   -1.13392  -1.13366  -1.13273  -1.13260  -1.13246
 Alpha  occ. eigenvalues --   -0.17271  -0.13472  -0.11781  -0.10966
 Alpha virt. eigenvalues --   -0.06069  -0.05711  -0.04937  -0.03421  -0.03050
 Alpha virt. eigenvalues --   -0.02484  -0.01830  -0.01381  -0.00692  -0.00322
 Alpha virt. eigenvalues --   -0.00122   0.00180   0.00264   0.00348   0.00647

  Beta  occ. eigenvalues --  -38.44740 -38.44232 -38.44197 -38.43980 -38.43970
  Beta  occ. eigenvalues --  -38.43870 -38.43783  -2.20485  -2.19985  -2.19963
  Beta  occ. eigenvalues --   -2.19791  -2.19726  -2.19680  -2.19635  -1.14188
  Beta  occ. eigenvalues --   -1.14171  -1.14108  -1.13683  -1.13661  -1.13649
  Beta  occ. eigenvalues --   -1.13644  -1.13628  -1.13590  -1.13544  -1.13465
  Beta  occ. eigenvalues --   -1.13458  -1.13415  -1.13385  -1.13376  -1.13371
  Beta  occ. eigenvalues --   -1.13353  -1.13337  -1.13270  -1.13250  -1.13240
  Beta  occ. eigenvalues --   -0.16672  -0.13259  -0.11520
  Beta virt. eigenvalues --   -0.07330  -0.05965  -0.05453  -0.04384  -0.03113
  Beta virt. eigenvalues --   -0.02568  -0.01882  -0.01658  -0.01199  -0.00434
  Beta virt. eigenvalues --   -0.00118  -0.00037   0.00276   0.00350   0.00456

 Mulliken charges and spin densities:
               1          2
     1  Na  -0.083499   0.069985
     2  Na  -0.076736   0.369176
     3  Na   0.425213  -0.110303
     4  Na   0.061270   0.172508
     5  Na  -0.790834   0.262670
     6  Na   0.147964   0.279315
     7  Na   0.316622  -0.043351
 Sum of Mulliken charges =  -0.00000   1.00000

 Dipole moment (field-independent basis, Debye):
    X=             -0.2297    Y=             -0.0171    Z=             -0.0772  Tot=              0.2430
 Quadrupole moment (field-independent basis, Debye-Ang):
   XX=            -55.5500   YY=            -70.2535   ZZ=            -70.2796
   XY=              1.5412   XZ=              0.9810   YZ=             -2.3970

 Normal termination of Gaussian 16 at Mon Dec  4 00:59:41 2023.
