 Gaussian 16, Revision B.01,
 Gaussian 16:  ES64L-G16RevB.01 20-Dec-2017

 -------------------------
 #P B3LYP/6-311+g(d) force
 -------------------------

 -----
 DPGEN
 -----
 Symbolic Z-matrix:
 Charge =  0 Multiplicity = 2

                         Standard orientation:
 ---------------------------------------------------------------------
 Center     Atomic      Atomic             Coordinates (Angstroms)
 Number     Number       Type             X           Y           Z
 ---------------------------------------------------------------------
      1         11           0       -2.971213    0.740690   -0.081280
      2         11           0       -0.082363    3.181263   -0.114668
      3         11           0        2.877733    0.917686   -0.184184
      4         11           0       -1.799312   -2.233714   -0.206316
      5         11           0        1.709296   -2.405178    0.246671
      6         11           0        0.280654   -0.301385   -1.721934
      7         11           0       -0.014795    0.100638    2.061710
 ---------------------------------------------------------------------

 SCF Done:  E(UB3LYP) =  -1136.13889238     A.U. after   19 cycles

 The electronic state is 2-A.
 Alpha  occ. eigenvalues --  -38.43823 -38.43775 -38.43724 -38.43655 -38.43512
 Alpha  occ. eigenvalues --  -38.43359 -38.43322  -2.19666  -2.19562  -2.19557
 Alpha  occ. eigenvalues --   -2.19537  -2.19389  -2.19296  -2.19254  -1.13371
 Alpha  occ. eigenvalues --   -1.13329  -1.13292  -1.13252  -1.13240  -1.13228
 Alpha  occ. eigenvalues --   -1.13225  -1.13207  -1.13205  -1.13189  -1.13160
 Alpha  occ. eigenvalues --   -1.13157  -1.13107  -1.13048  -1.13024  -1.13003
 Alpha  occ. eigenvalues --   -1.12949  -1.12903  -1.12899  -1.12884  -1.12869
 Alpha  occ. eigenvalues --   -0.18674  -0.12914  -0.12537  -0.10847
 Alpha virt. eigenvalues --   -0.05489  -0.05047  -0.04929  -0.03160  -0.03010
 Alpha virt. eigenvalues --   -0.02642  -0.01282  -0.01204  -0.00429  -0.00298
 Alpha virt. eigenvalues --   -0.00016   0.00371   0.00846   0.00875   0.00903

  Beta  occ. eigenvalues --  -38.43816 -38.43775 -38.43722 -38.43560 -38.43503
  Beta  occ. eigenvalues --  -38.43351 -38.43255  -2.19657  -2.19564  -2.19557
  Beta  occ. eigenvalues --   -2.19377  -2.19363  -2.19244  -2.19173  -1.13357
  Beta  occ. eigenvalues --   -1.13305  -1.13291  -1.13253  -1.13231  -1.13225
  Beta  occ. eigenvalues --   -1.13209  -1.13204  -1.13191  -1.13108  -1.13077
  Beta  occ. eigenvalues --   -1.13042  -1.13036  -1.13018  -1.13001  -1.12964
  Beta  occ. eigenvalues --   -1.12884  -1.12873  -1.12866  -1.12818  -1.12809
  Beta  occ. eigenvalues --   -0.17928  -0.12673  -0.12324
  Beta virt. eigenvalues --   -0.06909  -0.05502  -0.05016  -0.04855  -0.02360
  Beta virt. eigenvalues --   -0.02236  -0.01591  -0.01199  -0.01124  -0.00480
  Beta virt. eigenvalues --   -0.00358   0.00122   0.00395   0.00857   0.00893

 Mulliken charges and spin densities:
               1          2
     1  Na  -0.033346  -0.095829
     2  Na  -0.076283  -0.124160
     3  Na   0.132925  -0.097705
     4  Na   0.295415  -0.002702
     5  Na   0.307478   0.011601
     6  Na  -0.155616   0.539295
     7  Na  -0.470573   0.769501
 Sum of Mulliken charges =  -0.00000   1.00000

 Dipole moment (field-independent basis, Debye):
    X=              0.1399    Y=              0.1564    Z=              0.1188  Tot=              0.2411
 Quadrupole moment (field-independent basis, Debye-Ang):
   XX=            -59.5442   YY=            -60.6962   ZZ=            -73.8104
   XY=             -0.5191   XZ=              0.5942   YZ=             -0.8993

 Normal termination of Gaussian 16 at Thu Dec  7 03:23:42 2023.
