 Gaussian 16, Revision B.01,
 Gaussian 16:  ES64L-G16RevB.01 20-Dec-2017

 -------------------------
 #P B3LYP/6-311+g(d) force
 -------------------------

 -----
 DPGEN
 -----
 Symbolic Z-matrix:
 Charge =  0 Multiplicity = 2

                         Standard orientation:
 ---------------------------------------------------------------------
 Center     Atomic      Atomic             Coordinates (Angstroms)
 Number     Number       Type             X           Y           Z
 ---------------------------------------------------------------------
      1         11           0        2.681081   -1.647885   -0.325888
      2         11           0       -1.179833    2.688046   -0.184526
      3         11           0        2.824961    1.539306   -0.053390
      4         11           0       -0.908294   -2.529590    0.090171
      5         11           0       -0.078158    0.146158    2.196068
      6         11           0       -3.277228   -0.293227   -0.296354
      7         11           0       -0.062528    0.097192   -1.426082
 ---------------------------------------------------------------------

 SCF Done:  E(UB3LYP) =  -1136.13362499     A.U. after   20 cycles

 The electronic state is 2-A.
 Alpha  occ. eigenvalues --  -38.44513 -38.44241 -38.43821 -38.43663 -38.43227
 Alpha  occ. eigenvalues --  -38.43158 -38.42887  -2.20351  -2.20065  -2.19666
 Alpha  occ. eigenvalues --   -2.19535  -2.19190  -2.19077  -2.18785  -1.14026
 Alpha  occ. eigenvalues --   -1.14010  -1.13986  -1.13751  -1.13733  -1.13700
 Alpha  occ. eigenvalues --   -1.13340  -1.13322  -1.13302  -1.13199  -1.13154
 Alpha  occ. eigenvalues --   -1.13152  -1.12936  -1.12894  -1.12808  -1.12733
 Alpha  occ. eigenvalues --   -1.12717  -1.12691  -1.12475  -1.12441  -1.12408
 Alpha  occ. eigenvalues --   -0.18686  -0.13419  -0.12056  -0.10753
 Alpha virt. eigenvalues --   -0.06108  -0.05226  -0.04208  -0.03224  -0.02689
 Alpha virt. eigenvalues --   -0.02593  -0.01947  -0.01107  -0.00429  -0.00217
 Alpha virt. eigenvalues --   -0.00030   0.00313   0.00738   0.00838   0.00909

  Beta  occ. eigenvalues --  -38.44506 -38.44239 -38.43815 -38.43551 -38.43222
  Beta  occ. eigenvalues --  -38.43113 -38.42880  -2.20339  -2.20063  -2.19658
  Beta  occ. eigenvalues --   -2.19329  -2.19109  -2.19071  -2.18775  -1.14015
  Beta  occ. eigenvalues --   -1.13988  -1.13982  -1.13752  -1.13719  -1.13696
  Beta  occ. eigenvalues --   -1.13329  -1.13314  -1.13292  -1.13062  -1.13011
  Beta  occ. eigenvalues --   -1.13003  -1.12896  -1.12834  -1.12748  -1.12712
  Beta  occ. eigenvalues --   -1.12694  -1.12681  -1.12469  -1.12408  -1.12400
  Beta  occ. eigenvalues --   -0.17975  -0.13182  -0.11830
  Beta virt. eigenvalues --   -0.06782  -0.06047  -0.05218  -0.04194  -0.02495
  Beta virt. eigenvalues --   -0.01892  -0.01845  -0.01489  -0.01060  -0.00471
  Beta virt. eigenvalues --   -0.00231   0.00128   0.00359   0.00810   0.00839

 Mulliken charges and spin densities:
               1          2
     1  Na   0.196639   0.037528
     2  Na   0.210262  -0.006633
     3  Na   0.237233   0.004849
     4  Na   0.339477   0.097455
     5  Na  -0.619512   0.728967
     6  Na   0.274606   0.020134
     7  Na  -0.638705   0.117701
 Sum of Mulliken charges =  -0.00000   1.00000

 Dipole moment (field-independent basis, Debye):
    X=             -0.0114    Y=              0.1686    Z=              0.1975  Tot=              0.2599
 Quadrupole moment (field-independent basis, Debye-Ang):
   XX=            -52.4129   YY=            -65.7935   ZZ=            -74.6922
   XY=              0.3030   XZ=              0.2280   YZ=              0.2286

 Normal termination of Gaussian 16 at Thu Dec  7 20:46:55 2023.
