 Gaussian 16, Revision B.01,
 Gaussian 16:  ES64L-G16RevB.01 20-Dec-2017

 -------------------------
 #P B3LYP/6-311+g(d) force
 -------------------------

 -----
 DPGEN
 -----
 Symbolic Z-matrix:
 Charge =  0 Multiplicity = 2

                         Standard orientation:
 ---------------------------------------------------------------------
 Center     Atomic      Atomic             Coordinates (Angstroms)
 Number     Number       Type             X           Y           Z
 ---------------------------------------------------------------------
      1         11           0        1.049448    3.327278    0.270279
      2         11           0        0.539820   -3.051089   -0.152528
      3         11           0       -4.725004    0.009666   -0.068800
      4         11           0        3.972617   -1.382256   -1.196578
      5         11           0       -2.918994   -2.196709    0.717586
      6         11           0       -1.857246    2.707247   -0.798347
      7         11           0        3.939358    0.585862    1.228389
 ---------------------------------------------------------------------

 SCF Done:  E(UB3LYP) =  -1136.10607630     A.U. after   21 cycles

 The electronic state is 2-A.
 Alpha  occ. eigenvalues --  -38.45176 -38.45076 -38.44429 -38.44374 -38.44291
 Alpha  occ. eigenvalues --  -38.44004 -38.43699  -2.20972  -2.20861  -2.20210
 Alpha  occ. eigenvalues --   -2.20152  -2.20105  -2.19849  -2.19487  -1.14687
 Alpha  occ. eigenvalues --   -1.14622  -1.14607  -1.14522  -1.14501  -1.14482
 Alpha  occ. eigenvalues --   -1.13874  -1.13866  -1.13855  -1.13832  -1.13823
 Alpha  occ. eigenvalues --   -1.13814  -1.13789  -1.13771  -1.13755  -1.13477
 Alpha  occ. eigenvalues --   -1.13469  -1.13461  -1.13151  -1.13150  -1.13126
 Alpha  occ. eigenvalues --   -0.15582  -0.14179  -0.12892  -0.10881
 Alpha virt. eigenvalues --   -0.07361  -0.05028  -0.04405  -0.03612  -0.03475
 Alpha virt. eigenvalues --   -0.02451  -0.02173  -0.01242  -0.01100  -0.00976
 Alpha virt. eigenvalues --   -0.00871  -0.00485   0.00316   0.00450   0.00586

  Beta  occ. eigenvalues --  -38.45135 -38.45076 -38.44360 -38.44333 -38.44288
  Beta  occ. eigenvalues --  -38.43944 -38.43686  -2.20898  -2.20864  -2.20130
  Beta  occ. eigenvalues --   -2.20109  -2.20033  -2.19736  -2.19466  -1.14646
  Beta  occ. eigenvalues --   -1.14573  -1.14557  -1.14526  -1.14499  -1.14457
  Beta  occ. eigenvalues --   -1.13832  -1.13812  -1.13811  -1.13780  -1.13763
  Beta  occ. eigenvalues --   -1.13754  -1.13746  -1.13732  -1.13688  -1.13401
  Beta  occ. eigenvalues --   -1.13400  -1.13386  -1.13137  -1.13134  -1.13104
  Beta  occ. eigenvalues --   -0.15035  -0.13601  -0.12176
  Beta virt. eigenvalues --   -0.07645  -0.07368  -0.04791  -0.03807  -0.03426
  Beta virt. eigenvalues --   -0.03148  -0.02271  -0.01895  -0.01059  -0.00941
  Beta virt. eigenvalues --   -0.00772  -0.00556  -0.00220   0.00348   0.00501

 Mulliken charges and spin densities:
               1          2
     1  Na  -0.049501  -0.015204
     2  Na  -0.304908   0.475597
     3  Na   0.514102   0.249205
     4  Na   0.104885   0.002912
     5  Na  -0.157301  -0.018158
     6  Na  -0.068143   0.084804
     7  Na  -0.039135   0.220844
 Sum of Mulliken charges =  -0.00000   1.00000

 Dipole moment (field-independent basis, Debye):
    X=              1.2324    Y=             -0.1391    Z=             -0.1165  Tot=              1.2456
 Quadrupole moment (field-independent basis, Debye-Ang):
   XX=            -61.1400   YY=            -73.8577   ZZ=            -66.2992
   XY=             -2.4538   XZ=              1.2164   YZ=              1.9480

 Normal termination of Gaussian 16 at Mon Dec  4 00:20:53 2023.
