 Gaussian 16, Revision B.01,
 Gaussian 16:  ES64L-G16RevB.01 20-Dec-2017

 -------------------------
 #P B3LYP/6-311+g(d) force
 -------------------------

 -----
 DPGEN
 -----
 Symbolic Z-matrix:
 Charge =  0 Multiplicity = 2

                         Standard orientation:
 ---------------------------------------------------------------------
 Center     Atomic      Atomic             Coordinates (Angstroms)
 Number     Number       Type             X           Y           Z
 ---------------------------------------------------------------------
      1         11           0       -2.265956    1.176463   -0.393238
      2         11           0        0.729232    3.387665   -0.114541
      3         11           0        3.461840    0.235381   -1.024839
      4         11           0       -4.799128   -1.056183    0.248452
      5         11           0        2.431967   -2.651925    1.035616
      6         11           0        0.622028    0.704197    1.818936
      7         11           0       -0.179982   -1.795599   -1.570385
 ---------------------------------------------------------------------

 SCF Done:  E(UB3LYP) =  -1136.11385997     A.U. after   25 cycles

 The electronic state is 2-A.
 Alpha  occ. eigenvalues --  -38.45925 -38.45227 -38.44723 -38.43869 -38.43868
 Alpha  occ. eigenvalues --  -38.43624 -38.43419  -2.21651  -2.20956  -2.20499
 Alpha  occ. eigenvalues --   -2.19683  -2.19660  -2.19467  -2.19218  -1.15346
 Alpha  occ. eigenvalues --   -1.15328  -1.15247  -1.14633  -1.14631  -1.14592
 Alpha  occ. eigenvalues --   -1.14168  -1.14142  -1.14115  -1.13391  -1.13384
 Alpha  occ. eigenvalues --   -1.13333  -1.13312  -1.13288  -1.13266  -1.13152
 Alpha  occ. eigenvalues --   -1.13133  -1.13074  -1.12892  -1.12869  -1.12855
 Alpha  occ. eigenvalues --   -0.16927  -0.13163  -0.12023  -0.10066
 Alpha virt. eigenvalues --   -0.07572  -0.05338  -0.04928  -0.03415  -0.02928
 Alpha virt. eigenvalues --   -0.02699  -0.02007  -0.01582  -0.01079  -0.00774
 Alpha virt. eigenvalues --   -0.00352  -0.00048   0.00145   0.00526   0.00580

  Beta  occ. eigenvalues --  -38.45904 -38.45250 -38.44656 -38.43864 -38.43837
  Beta  occ. eigenvalues --  -38.43566 -38.43419  -2.21612  -2.20999  -2.20373
  Beta  occ. eigenvalues --   -2.19675  -2.19602  -2.19360  -2.19219  -1.15321
  Beta  occ. eigenvalues --   -1.15287  -1.15222  -1.14662  -1.14660  -1.14620
  Beta  occ. eigenvalues --   -1.14073  -1.14057  -1.14027  -1.13386  -1.13369
  Beta  occ. eigenvalues --   -1.13294  -1.13268  -1.13262  -1.13246  -1.13078
  Beta  occ. eigenvalues --   -1.13060  -1.12998  -1.12890  -1.12865  -1.12845
  Beta  occ. eigenvalues --   -0.16336  -0.13036  -0.11927
  Beta virt. eigenvalues --   -0.07326  -0.06360  -0.05070  -0.04825  -0.02989
  Beta virt. eigenvalues --   -0.02606  -0.02291  -0.01587  -0.01297  -0.00914
  Beta virt. eigenvalues --   -0.00522  -0.00194   0.00023   0.00338   0.00580

 Mulliken charges and spin densities:
               1          2
     1  Na  -0.530962  -0.077932
     2  Na   0.451558   0.198713
     3  Na  -0.188141   0.419234
     4  Na   0.230741  -0.149998
     5  Na   0.121271   0.069539
     6  Na  -0.117554   0.336261
     7  Na   0.033086   0.204184
 Sum of Mulliken charges =  -0.00000   1.00000

 Dipole moment (field-independent basis, Debye):
    X=             -0.8465    Y=             -0.7275    Z=             -0.0634  Tot=              1.1179
 Quadrupole moment (field-independent basis, Debye-Ang):
   XX=            -55.8734   YY=            -64.8924   ZZ=            -74.4988
   XY=              2.6148   XZ=              0.0883   YZ=             -1.5532

 Normal termination of Gaussian 16 at Sun Dec  3 15:28:21 2023.
