 Gaussian 16, Revision B.01,
 Gaussian 16:  ES64L-G16RevB.01 20-Dec-2017

 -------------------------
 #P B3LYP/6-311+g(d) force
 -------------------------

 -----
 DPGEN
 -----
 Symbolic Z-matrix:
 Charge =  0 Multiplicity = 2

                         Standard orientation:
 ---------------------------------------------------------------------
 Center     Atomic      Atomic             Coordinates (Angstroms)
 Number     Number       Type             X           Y           Z
 ---------------------------------------------------------------------
      1         11           0        3.588060    0.378779   -0.132957
      2         11           0        0.407958    0.225097   -1.699757
      3         11           0       -2.991142    0.776532   -0.238889
      4         11           0        1.233344   -2.501003    0.172477
      5         11           0       -2.063602   -2.303447   -0.068547
      6         11           0        0.078535    0.210483    1.808574
      7         11           0       -0.253154    3.213559    0.159099
 ---------------------------------------------------------------------

 SCF Done:  E(UB3LYP) =  -1136.13487206     A.U. after   21 cycles

 The electronic state is 2-A.
 Alpha  occ. eigenvalues --  -38.44764 -38.44085 -38.43746 -38.43538 -38.43408
 Alpha  occ. eigenvalues --  -38.43312 -38.43193  -2.20531  -2.19920  -2.19554
 Alpha  occ. eigenvalues --   -2.19414  -2.19317  -2.19171  -2.19111  -1.14204
 Alpha  occ. eigenvalues --   -1.14186  -1.14169  -1.13604  -1.13589  -1.13552
 Alpha  occ. eigenvalues --   -1.13229  -1.13220  -1.13190  -1.13126  -1.13092
 Alpha  occ. eigenvalues --   -1.13040  -1.13008  -1.12952  -1.12925  -1.12842
 Alpha  occ. eigenvalues --   -1.12823  -1.12817  -1.12790  -1.12730  -1.12728
 Alpha  occ. eigenvalues --   -0.18400  -0.12976  -0.12465  -0.10333
 Alpha virt. eigenvalues --   -0.06293  -0.05092  -0.04762  -0.03027  -0.02783
 Alpha virt. eigenvalues --   -0.02257  -0.01995  -0.01254  -0.00628  -0.00356
 Alpha virt. eigenvalues --   -0.00020   0.00306   0.00743   0.00795   0.00848

  Beta  occ. eigenvalues --  -38.44761 -38.44077 -38.43741 -38.43527 -38.43345
  Beta  occ. eigenvalues --  -38.43310 -38.43108  -2.20529  -2.19907  -2.19548
  Beta  occ. eigenvalues --   -2.19398  -2.19202  -2.19169  -2.18956  -1.14189
  Beta  occ. eigenvalues --   -1.14184  -1.14169  -1.13598  -1.13562  -1.13541
  Beta  occ. eigenvalues --   -1.13219  -1.13200  -1.13189  -1.13114  -1.13053
  Beta  occ. eigenvalues --   -1.13028  -1.12931  -1.12873  -1.12845  -1.12838
  Beta  occ. eigenvalues --   -1.12819  -1.12794  -1.12686  -1.12624  -1.12612
  Beta  occ. eigenvalues --   -0.17699  -0.12736  -0.12225
  Beta virt. eigenvalues --   -0.06562  -0.06178  -0.05020  -0.04759  -0.02315
  Beta virt. eigenvalues --   -0.02053  -0.01910  -0.01254  -0.01145  -0.00670
  Beta virt. eigenvalues --   -0.00384   0.00129   0.00345   0.00750   0.00826

 Mulliken charges and spin densities:
               1          2
     1  Na   0.138859  -0.104912
     2  Na  -0.295901   0.601723
     3  Na   0.159315   0.039817
     4  Na   0.247004   0.038318
     5  Na  -0.107735  -0.028652
     6  Na  -0.209471   0.578212
     7  Na   0.067929  -0.124506
 Sum of Mulliken charges =  -0.00000   1.00000

 Dipole moment (field-independent basis, Debye):
    X=              0.5452    Y=              0.3962    Z=              0.0188  Tot=              0.6742
 Quadrupole moment (field-independent basis, Debye-Ang):
   XX=            -54.1199   YY=            -61.5146   ZZ=            -76.4416
   XY=              0.5009   XZ=              0.8607   YZ=             -0.0677

 Normal termination of Gaussian 16 at Tue Dec  5 17:08:21 2023.
