 Gaussian 16, Revision B.01,
 Gaussian 16:  ES64L-G16RevB.01 20-Dec-2017

 -------------------------
 #P B3LYP/6-311+g(d) force
 -------------------------

 -----
 DPGEN
 -----
 Symbolic Z-matrix:
 Charge =  0 Multiplicity = 2

                         Standard orientation:
 ---------------------------------------------------------------------
 Center     Atomic      Atomic             Coordinates (Angstroms)
 Number     Number       Type             X           Y           Z
 ---------------------------------------------------------------------
      1         11           0        2.584074    1.342516   -0.234093
      2         11           0       -0.365861    3.139929   -0.207127
      3         11           0       -3.135754   -0.954642   -0.289042
      4         11           0        5.261443   -0.925577   -0.503632
      5         11           0       -6.386244   -0.631223   -0.389885
      6         11           0       -0.189009    0.031890    1.586756
      7         11           0        2.231351   -2.002893    0.037022
 ---------------------------------------------------------------------

 SCF Done:  E(UB3LYP) =  -1136.12089406     A.U. after   21 cycles

 The electronic state is 2-A.
 Alpha  occ. eigenvalues --  -38.44619 -38.44337 -38.44301 -38.44223 -38.44186
 Alpha  occ. eigenvalues --  -38.43688 -38.43497  -2.20481  -2.20209  -2.20123
 Alpha  occ. eigenvalues --   -2.20044  -2.20026  -2.19470  -2.19278  -1.14171
 Alpha  occ. eigenvalues --   -1.14154  -1.14103  -1.13913  -1.13908  -1.13813
 Alpha  occ. eigenvalues --   -1.13778  -1.13775  -1.13739  -1.13717  -1.13712
 Alpha  occ. eigenvalues --   -1.13690  -1.13676  -1.13660  -1.13626  -1.13123
 Alpha  occ. eigenvalues --   -1.13122  -1.13121  -1.12963  -1.12954  -1.12900
 Alpha  occ. eigenvalues --   -0.17275  -0.13645  -0.12218  -0.11129
 Alpha virt. eigenvalues --   -0.06205  -0.05562  -0.05104  -0.03331  -0.02824
 Alpha virt. eigenvalues --   -0.02304  -0.02168  -0.01463  -0.01176  -0.00971
 Alpha virt. eigenvalues --   -0.00424  -0.00047   0.00100   0.00394   0.00565

  Beta  occ. eigenvalues --  -38.44583 -38.44310 -38.44283 -38.44185 -38.44137
  Beta  occ. eigenvalues --  -38.43654 -38.43505  -2.20416  -2.20161  -2.20090
  Beta  occ. eigenvalues --   -2.19959  -2.19954  -2.19407  -2.19296  -1.14132
  Beta  occ. eigenvalues --   -1.14112  -1.14032  -1.13883  -1.13862  -1.13776
  Beta  occ. eigenvalues --   -1.13756  -1.13747  -1.13714  -1.13665  -1.13649
  Beta  occ. eigenvalues --   -1.13640  -1.13621  -1.13604  -1.13562  -1.13083
  Beta  occ. eigenvalues --   -1.13079  -1.13078  -1.12978  -1.12969  -1.12885
  Beta  occ. eigenvalues --   -0.16602  -0.13467  -0.11694
  Beta virt. eigenvalues --   -0.07679  -0.05922  -0.05066  -0.04823  -0.03005
  Beta virt. eigenvalues --   -0.02551  -0.02172  -0.01750  -0.01325  -0.00943
  Beta virt. eigenvalues --   -0.00534  -0.00179   0.00090   0.00262   0.00457

 Mulliken charges and spin densities:
               1          2
     1  Na  -0.776164   0.282287
     2  Na   0.372979   0.095635
     3  Na  -0.540668  -0.085216
     4  Na   0.834165   0.119655
     5  Na   0.554398   0.197457
     6  Na  -0.292580   0.371150
     7  Na  -0.152130   0.019031
 Sum of Mulliken charges =  -0.00000   1.00000

 Dipole moment (field-independent basis, Debye):
    X=              1.9039    Y=              0.3570    Z=              0.0406  Tot=              1.9375
 Quadrupole moment (field-independent basis, Debye-Ang):
   XX=            -58.4810   YY=            -67.7746   ZZ=            -70.9241
   XY=             -7.2209   XZ=             -0.9180   YZ=              0.0973

 Normal termination of Gaussian 16 at Tue Nov 28 21:44:52 2023.
