 Gaussian 16, Revision B.01,
 Gaussian 16:  ES64L-G16RevB.01 20-Dec-2017

 -------------------------
 #P B3LYP/6-311+g(d) force
 -------------------------

 -----
 DPGEN
 -----
 Symbolic Z-matrix:
 Charge =  0 Multiplicity = 2

                         Standard orientation:
 ---------------------------------------------------------------------
 Center     Atomic      Atomic             Coordinates (Angstroms)
 Number     Number       Type             X           Y           Z
 ---------------------------------------------------------------------
      1         11           0        2.176081   -1.503752    1.611965
      2         11           0        1.122274   -1.523194   -1.929196
      3         11           0        0.472221    2.547997   -0.270663
      4         11           0       -2.301518    0.904442    1.626367
      5         11           0        3.654452    1.286380   -0.323502
      6         11           0       -1.136305   -1.987617    0.301566
      7         11           0       -3.987205    0.275745   -1.016537
 ---------------------------------------------------------------------

 SCF Done:  E(UB3LYP) =  -1136.11724700     A.U. after   24 cycles

 The electronic state is 2-A.
 Alpha  occ. eigenvalues --  -38.45540 -38.44287 -38.44280 -38.44177 -38.44161
 Alpha  occ. eigenvalues --  -38.43836 -38.43225  -2.21323  -2.20086  -2.20062
 Alpha  occ. eigenvalues --   -2.20012  -2.19934  -2.19662  -2.19092  -1.14989
 Alpha  occ. eigenvalues --   -1.14975  -1.14959  -1.13753  -1.13747  -1.13728
 Alpha  occ. eigenvalues --   -1.13721  -1.13715  -1.13704  -1.13684  -1.13659
 Alpha  occ. eigenvalues --   -1.13652  -1.13617  -1.13612  -1.13549  -1.13355
 Alpha  occ. eigenvalues --   -1.13294  -1.13284  -1.12791  -1.12782  -1.12696
 Alpha  occ. eigenvalues --   -0.17257  -0.13853  -0.11633  -0.10250
 Alpha virt. eigenvalues --   -0.07254  -0.05292  -0.05075  -0.03363  -0.02783
 Alpha virt. eigenvalues --   -0.02483  -0.02239  -0.01483  -0.00836  -0.00363
 Alpha virt. eigenvalues --   -0.00023   0.00084   0.00163   0.00405   0.00594

  Beta  occ. eigenvalues --  -38.45522 -38.44278 -38.44243 -38.44174 -38.44132
  Beta  occ. eigenvalues --  -38.43784 -38.43213  -2.21289  -2.20060  -2.20005
  Beta  occ. eigenvalues --   -2.19959  -2.19931  -2.19564  -2.19076  -1.14962
  Beta  occ. eigenvalues --   -1.14952  -1.14936  -1.13729  -1.13722  -1.13711
  Beta  occ. eigenvalues --   -1.13689  -1.13669  -1.13662  -1.13649  -1.13627
  Beta  occ. eigenvalues --   -1.13611  -1.13606  -1.13600  -1.13546  -1.13289
  Beta  occ. eigenvalues --   -1.13224  -1.13213  -1.12785  -1.12733  -1.12683
  Beta  occ. eigenvalues --   -0.16687  -0.13664  -0.11426
  Beta virt. eigenvalues --   -0.07005  -0.06782  -0.05143  -0.04453  -0.03239
  Beta virt. eigenvalues --   -0.02410  -0.02106  -0.01611  -0.01244  -0.00579
  Beta virt. eigenvalues --   -0.00215  -0.00025   0.00204   0.00288   0.00565

 Mulliken charges and spin densities:
               1          2
     1  Na   0.015423   0.163204
     2  Na  -0.323311   0.090169
     3  Na  -0.126782   0.079779
     4  Na  -0.205097  -0.023028
     5  Na   0.105702  -0.043851
     6  Na   0.330095   0.713835
     7  Na   0.203969   0.019892
 Sum of Mulliken charges =  -0.00000   1.00000

 Dipole moment (field-independent basis, Debye):
    X=             -0.6270    Y=              0.1994    Z=             -0.2296  Tot=              0.6969
 Quadrupole moment (field-independent basis, Debye-Ang):
   XX=            -48.9312   YY=            -76.9939   ZZ=            -69.7754
   XY=             -2.5210   XZ=              3.5428   YZ=             -0.8997

 Normal termination of Gaussian 16 at Fri Dec  8 20:10:00 2023.
