 Gaussian 16, Revision B.01,
 Gaussian 16:  ES64L-G16RevB.01 20-Dec-2017

 -------------------------
 #P B3LYP/6-311+g(d) force
 -------------------------

 -----
 DPGEN
 -----
 Symbolic Z-matrix:
 Charge =  0 Multiplicity = 2

                         Standard orientation:
 ---------------------------------------------------------------------
 Center     Atomic      Atomic             Coordinates (Angstroms)
 Number     Number       Type             X           Y           Z
 ---------------------------------------------------------------------
      1         11           0       -0.642421    3.043964   -0.278022
      2         11           0        2.346766    1.818751    0.115846
      3         11           0       -1.099649   -2.910527   -0.253400
      4         11           0       -3.454652    0.079263    0.055327
      5         11           0        0.039683   -0.296544    2.133588
      6         11           0       -0.200051    0.001559   -1.468885
      7         11           0        3.010325   -1.736467   -0.304454
 ---------------------------------------------------------------------

 SCF Done:  E(UB3LYP) =  -1136.13280616     A.U. after   20 cycles

 The electronic state is 2-A.
 Alpha  occ. eigenvalues --  -38.44698 -38.44187 -38.44138 -38.43659 -38.43549
 Alpha  occ. eigenvalues --  -38.43430 -38.43124  -2.20461  -2.19951  -2.19943
 Alpha  occ. eigenvalues --   -2.19511  -2.19397  -2.19270  -2.19079  -1.14138
 Alpha  occ. eigenvalues --   -1.14116  -1.14101  -1.13643  -1.13625  -1.13609
 Alpha  occ. eigenvalues --   -1.13608  -1.13592  -1.13557  -1.13202  -1.13181
 Alpha  occ. eigenvalues --   -1.13153  -1.13063  -1.13022  -1.13008  -1.12964
 Alpha  occ. eigenvalues --   -1.12920  -1.12902  -1.12775  -1.12722  -1.12692
 Alpha  occ. eigenvalues --   -0.18065  -0.12863  -0.12294  -0.10340
 Alpha virt. eigenvalues --   -0.06169  -0.05246  -0.04949  -0.03029  -0.02709
 Alpha virt. eigenvalues --   -0.02356  -0.01901  -0.01333  -0.00780  -0.00570
 Alpha virt. eigenvalues --   -0.00033   0.00303   0.00721   0.00757   0.00844

  Beta  occ. eigenvalues --  -38.44698 -38.44184 -38.44131 -38.43654 -38.43444
  Beta  occ. eigenvalues --  -38.43426 -38.43075  -2.20463  -2.19947  -2.19933
  Beta  occ. eigenvalues --   -2.19506  -2.19265  -2.19204  -2.18990  -1.14124
  Beta  occ. eigenvalues --   -1.14119  -1.14104  -1.13630  -1.13614  -1.13604
  Beta  occ. eigenvalues --   -1.13591  -1.13585  -1.13553  -1.13200  -1.13157
  Beta  occ. eigenvalues --   -1.13149  -1.12954  -1.12934  -1.12906  -1.12900
  Beta  occ. eigenvalues --   -1.12886  -1.12872  -1.12706  -1.12658  -1.12628
  Beta  occ. eigenvalues --   -0.17371  -0.12676  -0.12088
  Beta virt. eigenvalues --   -0.06437  -0.06151  -0.05186  -0.04901  -0.02288
  Beta virt. eigenvalues --   -0.02025  -0.01813  -0.01306  -0.01242  -0.00832
  Beta virt. eigenvalues --   -0.00598   0.00129   0.00345   0.00732   0.00812

 Mulliken charges and spin densities:
               1          2
     1  Na   0.148345  -0.018810
     2  Na   0.216052   0.046881
     3  Na   0.105044  -0.076756
     4  Na   0.088350  -0.037856
     5  Na  -0.428188   0.755056
     6  Na  -0.150353   0.363939
     7  Na   0.020749  -0.032454
 Sum of Mulliken charges =  -0.00000   1.00000

 Dipole moment (field-independent basis, Debye):
    X=             -0.4148    Y=             -0.3063    Z=              0.0845  Tot=              0.5225
 Quadrupole moment (field-independent basis, Debye-Ang):
   XX=            -54.2896   YY=            -60.5470   ZZ=            -77.1002
   XY=             -0.7613   XZ=             -0.5837   YZ=              0.7556

 Normal termination of Gaussian 16 at Tue Dec  5 15:02:07 2023.
