 Gaussian 16, Revision B.01,
 Gaussian 16:  ES64L-G16RevB.01 20-Dec-2017

 -------------------------
 #P B3LYP/6-311+g(d) force
 -------------------------

 -----
 DPGEN
 -----
 Symbolic Z-matrix:
 Charge =  0 Multiplicity = 2

                         Standard orientation:
 ---------------------------------------------------------------------
 Center     Atomic      Atomic             Coordinates (Angstroms)
 Number     Number       Type             X           Y           Z
 ---------------------------------------------------------------------
      1         11           0        0.168444   -0.016033    1.831909
      2         11           0        1.207560   -1.869224   -0.054906
      3         11           0       -2.284482    0.906998    0.058442
      4         11           0       -1.519796   -1.695118    0.104375
      5         11           0       -0.161715   -0.117379   -1.796800
      6         11           0        0.144091    2.210958   -0.047402
      7         11           0        2.445898    0.579798   -0.095618
 ---------------------------------------------------------------------

 SCF Done:  E(UB3LYP) =  -1136.07362195     A.U. after   19 cycles

 The electronic state is 2-A.
 Alpha  occ. eigenvalues --  -38.44309 -38.44265 -38.43866 -38.43822 -38.43773
 Alpha  occ. eigenvalues --  -38.43719 -38.43433  -2.20573  -2.20503  -2.20029
 Alpha  occ. eigenvalues --   -2.19975  -2.19944  -2.19892  -2.19593  -1.14464
 Alpha  occ. eigenvalues --   -1.14297  -1.14286  -1.14239  -1.14189  -1.14167
 Alpha  occ. eigenvalues --   -1.14014  -1.13885  -1.13795  -1.13749  -1.13676
 Alpha  occ. eigenvalues --   -1.13605  -1.13542  -1.13523  -1.13484  -1.13446
 Alpha  occ. eigenvalues --   -1.13385  -1.13282  -1.13211  -1.13201  -1.13103
 Alpha  occ. eigenvalues --   -0.21967  -0.13811  -0.13163  -0.12551
 Alpha virt. eigenvalues --   -0.05060  -0.04208  -0.04160  -0.03736  -0.03397
 Alpha virt. eigenvalues --   -0.02994  -0.00857  -0.00466  -0.00123   0.00346
 Alpha virt. eigenvalues --    0.00879   0.00914   0.01096   0.01217   0.01263

  Beta  occ. eigenvalues --  -38.44211 -38.44166 -38.43855 -38.43811 -38.43757
  Beta  occ. eigenvalues --  -38.43701 -38.43418  -2.20398  -2.20325  -2.20011
  Beta  occ. eigenvalues --   -2.19956  -2.19928  -2.19872  -2.19574  -1.14381
  Beta  occ. eigenvalues --   -1.14187  -1.14181  -1.14126  -1.14068  -1.14045
  Beta  occ. eigenvalues --   -1.14003  -1.13872  -1.13766  -1.13719  -1.13662
  Beta  occ. eigenvalues --   -1.13535  -1.13475  -1.13450  -1.13435  -1.13403
  Beta  occ. eigenvalues --   -1.13379  -1.13276  -1.13203  -1.13126  -1.13099
  Beta  occ. eigenvalues --   -0.21106  -0.13422  -0.12772
  Beta virt. eigenvalues --   -0.08316  -0.05096  -0.04195  -0.04130  -0.02755
  Beta virt. eigenvalues --   -0.02433  -0.01907  -0.00791  -0.00425   0.00028
  Beta virt. eigenvalues --    0.00365   0.00855   0.00888   0.01127   0.01216

 Mulliken charges and spin densities:
               1          2
     1  Na  -0.307604   0.440887
     2  Na   0.190203   0.043689
     3  Na   0.030261   0.002005
     4  Na   0.180470   0.042641
     5  Na  -0.290389   0.422702
     6  Na   0.200195   0.068041
     7  Na  -0.003137  -0.019965
 Sum of Mulliken charges =  -0.00000   1.00000

 Dipole moment (field-independent basis, Debye):
    X=              0.0672    Y=              0.1690    Z=              0.0548  Tot=              0.1899
 Quadrupole moment (field-independent basis, Debye-Ang):
   XX=            -62.7057   YY=            -68.9742   ZZ=            -67.4450
   XY=              0.0896   XZ=             -0.6067   YZ=             -0.1846

 Normal termination of Gaussian 16 at Fri Dec  8 16:56:29 2023.
