 Gaussian 16, Revision B.01,
 Gaussian 16:  ES64L-G16RevB.01 20-Dec-2017

 -------------------------
 #P B3LYP/6-311+g(d) force
 -------------------------

 -----
 DPGEN
 -----
 Symbolic Z-matrix:
 Charge =  0 Multiplicity = 2

                         Standard orientation:
 ---------------------------------------------------------------------
 Center     Atomic      Atomic             Coordinates (Angstroms)
 Number     Number       Type             X           Y           Z
 ---------------------------------------------------------------------
      1         11           0       -3.482443   -0.394504   -1.292124
      2         11           0       -0.874535    1.949805   -0.006262
      3         11           0        2.947620   -1.960137   -0.712577
      4         11           0       -1.596546   -0.581422    2.128067
      5         11           0        2.064372    2.122119   -1.008460
      6         11           0       -0.472971   -1.275059   -0.960939
      7         11           0        1.414504    0.139199    1.852295
 ---------------------------------------------------------------------

 SCF Done:  E(UB3LYP) =  -1136.12631979     A.U. after   26 cycles

 The electronic state is 2-A.
 Alpha  occ. eigenvalues --  -38.44869 -38.44494 -38.44078 -38.43984 -38.43100
 Alpha  occ. eigenvalues --  -38.42895 -38.42737  -2.20785  -2.20325  -2.20004
 Alpha  occ. eigenvalues --   -2.19831  -2.19035  -2.18688  -2.18683  -1.14498
 Alpha  occ. eigenvalues --   -1.14410  -1.14380  -1.14010  -1.13971  -1.13940
 Alpha  occ. eigenvalues --   -1.13724  -1.13649  -1.13595  -1.13523  -1.13469
 Alpha  occ. eigenvalues --   -1.13443  -1.12747  -1.12726  -1.12637  -1.12391
 Alpha  occ. eigenvalues --   -1.12362  -1.12361  -1.12345  -1.12330  -1.12280
 Alpha  occ. eigenvalues --   -0.18799  -0.13376  -0.12282  -0.11227
 Alpha virt. eigenvalues --   -0.05713  -0.04907  -0.04866  -0.03484  -0.02722
 Alpha virt. eigenvalues --   -0.02644  -0.01829  -0.01027  -0.00723   0.00181
 Alpha virt. eigenvalues --    0.00206   0.00396   0.00454   0.00646   0.00786

  Beta  occ. eigenvalues --  -38.44782 -38.44465 -38.44029 -38.43947 -38.43085
  Beta  occ. eigenvalues --  -38.42898 -38.42722  -2.20628  -2.20273  -2.19919
  Beta  occ. eigenvalues --   -2.19761  -2.19012  -2.18694  -2.18661  -1.14379
  Beta  occ. eigenvalues --   -1.14306  -1.14260  -1.13968  -1.13932  -1.13910
  Beta  occ. eigenvalues --   -1.13653  -1.13571  -1.13539  -1.13468  -1.13427
  Beta  occ. eigenvalues --   -1.13392  -1.12729  -1.12694  -1.12621  -1.12378
  Beta  occ. eigenvalues --   -1.12363  -1.12348  -1.12334  -1.12313  -1.12269
  Beta  occ. eigenvalues --   -0.18003  -0.13142  -0.11021
  Beta virt. eigenvalues --   -0.08187  -0.05499  -0.04725  -0.04356  -0.02971
  Beta virt. eigenvalues --   -0.02149  -0.02122  -0.01700  -0.00675  -0.00549
  Beta virt. eigenvalues --    0.00257   0.00298   0.00490   0.00576   0.00709

 Mulliken charges and spin densities:
               1          2
     1  Na   1.083918  -0.083809
     2  Na  -0.293932   0.355642
     3  Na   0.465291  -0.078512
     4  Na   0.181185   0.173086
     5  Na  -0.001363   0.083276
     6  Na  -1.621082   0.369469
     7  Na   0.185982   0.180848
 Sum of Mulliken charges =  -0.00000   1.00000

 Dipole moment (field-independent basis, Debye):
    X=             -0.9084    Y=              0.3394    Z=              0.2055  Tot=              0.9913
 Quadrupole moment (field-independent basis, Debye-Ang):
   XX=            -53.1294   YY=            -76.7191   ZZ=            -64.3623
   XY=              2.2396   XZ=             -0.0581   YZ=             -3.9231

 Normal termination of Gaussian 16 at Tue Dec  5 17:49:28 2023.
