 Gaussian 16, Revision B.01,
 Gaussian 16:  ES64L-G16RevB.01 20-Dec-2017

 -------------------------
 #P B3LYP/6-311+g(d) force
 -------------------------

 -----
 DPGEN
 -----
 Symbolic Z-matrix:
 Charge =  0 Multiplicity = 2

                         Standard orientation:
 ---------------------------------------------------------------------
 Center     Atomic      Atomic             Coordinates (Angstroms)
 Number     Number       Type             X           Y           Z
 ---------------------------------------------------------------------
      1         11           0       -0.069094   -0.038846    2.133827
      2         11           0        1.878078    2.484766   -0.236608
      3         11           0       -1.820293    2.425666    0.023012
      4         11           0       -3.262004   -0.775423   -0.277896
      5         11           0        3.233001   -0.932073   -0.026918
      6         11           0       -0.081441   -3.028393   -0.053654
      7         11           0        0.121754   -0.135697   -1.561762
 ---------------------------------------------------------------------

 SCF Done:  E(UB3LYP) =  -1136.13693123     A.U. after   19 cycles

 The electronic state is 2-A.
 Alpha  occ. eigenvalues --  -38.44461 -38.44286 -38.43635 -38.43586 -38.43565
 Alpha  occ. eigenvalues --  -38.43559 -38.43200  -2.20242  -2.20075  -2.19449
 Alpha  occ. eigenvalues --   -2.19413  -2.19404  -2.19388  -2.19145  -1.13921
 Alpha  occ. eigenvalues --   -1.13898  -1.13882  -1.13750  -1.13731  -1.13716
 Alpha  occ. eigenvalues --   -1.13138  -1.13113  -1.13112  -1.13087  -1.13084
 Alpha  occ. eigenvalues --   -1.13073  -1.13063  -1.13055  -1.13032  -1.13024
 Alpha  occ. eigenvalues --   -1.13022  -1.13019  -1.12837  -1.12783  -1.12760
 Alpha  occ. eigenvalues --   -0.18146  -0.12841  -0.12317  -0.10463
 Alpha virt. eigenvalues --   -0.05997  -0.05284  -0.04841  -0.03005  -0.02778
 Alpha virt. eigenvalues --   -0.02487  -0.01814  -0.01243  -0.00685  -0.00574
 Alpha virt. eigenvalues --   -0.00032   0.00322   0.00738   0.00801   0.00843

  Beta  occ. eigenvalues --  -38.44460 -38.44281 -38.43631 -38.43582 -38.43562
  Beta  occ. eigenvalues --  -38.43454 -38.43147  -2.20243  -2.20068  -2.19443
  Beta  occ. eigenvalues --   -2.19400  -2.19385  -2.19219  -2.19050  -1.13906
  Beta  occ. eigenvalues --   -1.13900  -1.13883  -1.13732  -1.13725  -1.13714
  Beta  occ. eigenvalues --   -1.13128  -1.13104  -1.13097  -1.13083  -1.13060
  Beta  occ. eigenvalues --   -1.13051  -1.13036  -1.13023  -1.13021  -1.12945
  Beta  occ. eigenvalues --   -1.12899  -1.12890  -1.12767  -1.12716  -1.12690
  Beta  occ. eigenvalues --   -0.17441  -0.12644  -0.12101
  Beta virt. eigenvalues --   -0.06549  -0.05968  -0.05294  -0.04765  -0.02292
  Beta virt. eigenvalues --   -0.02023  -0.01721  -0.01407  -0.01173  -0.00737
  Beta virt. eigenvalues --   -0.00619   0.00126   0.00361   0.00788   0.00813

 Mulliken charges and spin densities:
               1          2
     1  Na  -0.450523   0.821085
     2  Na   0.103270  -0.049409
     3  Na   0.137532  -0.020712
     4  Na   0.115467  -0.032976
     5  Na   0.132695  -0.061783
     6  Na   0.102282  -0.089258
     7  Na  -0.140723   0.433053
 Sum of Mulliken charges =  -0.00000   1.00000

 Dipole moment (field-independent basis, Debye):
    X=              0.1235    Y=             -0.1854    Z=              0.0686  Tot=              0.2331
 Quadrupole moment (field-independent basis, Debye-Ang):
   XX=            -53.9833   YY=            -62.0266   ZZ=            -76.2567
   XY=             -0.0795   XZ=              0.5776   YZ=             -0.2029

 Normal termination of Gaussian 16 at Fri Dec  8 05:33:55 2023.
