 Gaussian 16, Revision B.01,
 Gaussian 16:  ES64L-G16RevB.01 20-Dec-2017

 -------------------------
 #P B3LYP/6-311+g(d) force
 -------------------------

 -----
 DPGEN
 -----
 Symbolic Z-matrix:
 Charge =  0 Multiplicity = 2

                         Standard orientation:
 ---------------------------------------------------------------------
 Center     Atomic      Atomic             Coordinates (Angstroms)
 Number     Number       Type             X           Y           Z
 ---------------------------------------------------------------------
      1         11           0       -2.873403    1.724585   -0.159825
      2         11           0        3.369707   -0.326746    0.414050
      3         11           0        0.194682    0.134016   -1.482748
      4         11           0       -2.707914   -1.551117   -0.354832
      5         11           0        1.809642    2.301502   -0.343545
      6         11           0        0.954680   -2.373896   -0.273085
      7         11           0       -0.747395    0.091656    2.199984
 ---------------------------------------------------------------------

 SCF Done:  E(UB3LYP) =  -1136.12198352     A.U. after   22 cycles

 The electronic state is 2-A.
 Alpha  occ. eigenvalues --  -38.44942 -38.44371 -38.44307 -38.44143 -38.43525
 Alpha  occ. eigenvalues --  -38.43413 -38.42694  -2.20794  -2.20186  -2.20153
 Alpha  occ. eigenvalues --   -2.19986  -2.19563  -2.19294  -2.18607  -1.14463
 Alpha  occ. eigenvalues --   -1.14450  -1.14447  -1.13895  -1.13853  -1.13835
 Alpha  occ. eigenvalues --   -1.13823  -1.13803  -1.13764  -1.13643  -1.13616
 Alpha  occ. eigenvalues --   -1.13600  -1.13340  -1.13277  -1.13170  -1.12942
 Alpha  occ. eigenvalues --   -1.12934  -1.12906  -1.12327  -1.12243  -1.12214
 Alpha  occ. eigenvalues --   -0.18653  -0.13999  -0.11579  -0.10779
 Alpha virt. eigenvalues --   -0.06550  -0.05588  -0.03839  -0.03568  -0.02687
 Alpha virt. eigenvalues --   -0.02409  -0.02177  -0.01249  -0.00445  -0.00087
 Alpha virt. eigenvalues --   -0.00030   0.00274   0.00642   0.00691   0.00801

  Beta  occ. eigenvalues --  -38.44938 -38.44370 -38.44298 -38.44046 -38.43464
  Beta  occ. eigenvalues --  -38.43406 -38.42687  -2.20788  -2.20187  -2.20141
  Beta  occ. eigenvalues --   -2.19807  -2.19455  -2.19285  -2.18599  -1.14464
  Beta  occ. eigenvalues --   -1.14447  -1.14428  -1.13897  -1.13839  -1.13827
  Beta  occ. eigenvalues --   -1.13798  -1.13789  -1.13761  -1.13523  -1.13491
  Beta  occ. eigenvalues --   -1.13472  -1.13268  -1.13202  -1.13098  -1.12924
  Beta  occ. eigenvalues --   -1.12909  -1.12896  -1.12315  -1.12214  -1.12213
  Beta  occ. eigenvalues --   -0.17962  -0.13806  -0.11331
  Beta virt. eigenvalues --   -0.06925  -0.06336  -0.05596  -0.03616  -0.03037
  Beta virt. eigenvalues --   -0.02074  -0.01736  -0.01578  -0.01146  -0.00467
  Beta virt. eigenvalues --   -0.00053   0.00096   0.00314   0.00732   0.00804

 Mulliken charges and spin densities:
               1          2
     1  Na   0.163294  -0.006994
     2  Na  -0.067474   0.107529
     3  Na  -0.279487  -0.003385
     4  Na   0.280773   0.054824
     5  Na   0.332202   0.054082
     6  Na   0.221981   0.133088
     7  Na  -0.651290   0.660856
 Sum of Mulliken charges =  -0.00000   1.00000

 Dipole moment (field-independent basis, Debye):
    X=             -0.2673    Y=              0.0556    Z=              0.3964  Tot=              0.4813
 Quadrupole moment (field-independent basis, Debye-Ang):
   XX=            -49.3841   YY=            -70.0599   ZZ=            -74.2589
   XY=             -0.5960   XZ=              3.0338   YZ=             -0.1859

 Normal termination of Gaussian 16 at Tue Dec  5 19:24:31 2023.
