 Gaussian 16, Revision B.01,
 Gaussian 16:  ES64L-G16RevB.01 20-Dec-2017

 -------------------------
 #P B3LYP/6-311+g(d) force
 -------------------------

 -----
 DPGEN
 -----
 Symbolic Z-matrix:
 Charge =  0 Multiplicity = 2

                         Standard orientation:
 ---------------------------------------------------------------------
 Center     Atomic      Atomic             Coordinates (Angstroms)
 Number     Number       Type             X           Y           Z
 ---------------------------------------------------------------------
      1         11           0        0.223918   -0.015940   -1.697492
      2         11           0        1.266255    2.896106    0.028750
      3         11           0       -0.162898   -0.070840    2.040583
      4         11           0        0.861160   -2.611894   -0.050616
      5         11           0       -2.634416    1.706288   -0.172875
      6         11           0       -2.828100   -1.524387   -0.122903
      7         11           0        3.274082   -0.379332   -0.025447
 ---------------------------------------------------------------------

 SCF Done:  E(UB3LYP) =  -1136.13558752     A.U. after   19 cycles

 The electronic state is 2-A.
 Alpha  occ. eigenvalues --  -38.44555 -38.44103 -38.43964 -38.43574 -38.43407
 Alpha  occ. eigenvalues --  -38.43395 -38.43068  -2.20375  -2.19923  -2.19793
 Alpha  occ. eigenvalues --   -2.19451  -2.19337  -2.19195  -2.18966  -1.14048
 Alpha  occ. eigenvalues --   -1.14039  -1.14012  -1.13618  -1.13593  -1.13564
 Alpha  occ. eigenvalues --   -1.13456  -1.13440  -1.13431  -1.13126  -1.13078
 Alpha  occ. eigenvalues --   -1.13065  -1.13046  -1.12989  -1.12952  -1.12869
 Alpha  occ. eigenvalues --   -1.12854  -1.12835  -1.12652  -1.12625  -1.12585
 Alpha  occ. eigenvalues --   -0.18445  -0.13281  -0.12051  -0.10615
 Alpha virt. eigenvalues --   -0.06043  -0.05336  -0.04481  -0.03293  -0.02680
 Alpha virt. eigenvalues --   -0.02534  -0.01830  -0.01164  -0.00559  -0.00357
 Alpha virt. eigenvalues --   -0.00032   0.00344   0.00728   0.00831   0.00882

  Beta  occ. eigenvalues --  -38.44553 -38.44099 -38.43961 -38.43477 -38.43407
  Beta  occ. eigenvalues --  -38.43330 -38.43058  -2.20374  -2.19917  -2.19790
  Beta  occ. eigenvalues --   -2.19272  -2.19220  -2.19196  -2.18954  -1.14045
  Beta  occ. eigenvalues --   -1.14025  -1.14013  -1.13618  -1.13571  -1.13561
  Beta  occ. eigenvalues --   -1.13440  -1.13436  -1.13428  -1.13011  -1.12965
  Beta  occ. eigenvalues --   -1.12950  -1.12939  -1.12910  -1.12872  -1.12852
  Beta  occ. eigenvalues --   -1.12845  -1.12839  -1.12642  -1.12589  -1.12574
  Beta  occ. eigenvalues --   -0.17708  -0.13072  -0.11831
  Beta virt. eigenvalues --   -0.06702  -0.05982  -0.05348  -0.04447  -0.02514
  Beta virt. eigenvalues --   -0.01934  -0.01727  -0.01473  -0.01102  -0.00608
  Beta virt. eigenvalues --   -0.00408   0.00121   0.00372   0.00798   0.00825

 Mulliken charges and spin densities:
               1          2
     1  Na  -0.181026   0.553347
     2  Na  -0.092594  -0.142440
     3  Na  -0.436425   0.802873
     4  Na   0.292377  -0.035693
     5  Na   0.047909  -0.085510
     6  Na   0.202837  -0.027118
     7  Na   0.166922  -0.065459
 Sum of Mulliken charges =  -0.00000   1.00000

 Dipole moment (field-independent basis, Debye):
    X=              0.0754    Y=              0.0304    Z=              0.0763  Tot=              0.1115
 Quadrupole moment (field-independent basis, Debye-Ang):
   XX=            -53.2774   YY=            -64.6474   ZZ=            -75.1887
   XY=              0.0585   XZ=              0.8526   YZ=              0.1746

 Normal termination of Gaussian 16 at Thu Dec  7 15:17:19 2023.
