 Gaussian 16, Revision B.01,
 Gaussian 16:  ES64L-G16RevB.01 20-Dec-2017

 -------------------------
 #P B3LYP/6-311+g(d) force
 -------------------------

 -----
 DPGEN
 -----
 Symbolic Z-matrix:
 Charge =  0 Multiplicity = 2

                         Standard orientation:
 ---------------------------------------------------------------------
 Center     Atomic      Atomic             Coordinates (Angstroms)
 Number     Number       Type             X           Y           Z
 ---------------------------------------------------------------------
      1         11           0        2.087464    2.270971    0.085128
      2         11           0       -0.781407   -2.778818   -0.097493
      3         11           0        0.441386   -0.122621    2.090419
      4         11           0       -3.228899   -0.347044    0.089740
      5         11           0       -1.411734    2.455108   -0.202016
      6         11           0        2.770188   -1.635963   -0.351394
      7         11           0        0.123001    0.158365   -1.614383
 ---------------------------------------------------------------------

 SCF Done:  E(UB3LYP) =  -1136.13812745     A.U. after   19 cycles

 The electronic state is 2-A.
 Alpha  occ. eigenvalues --  -38.44053 -38.43810 -38.43781 -38.43615 -38.43554
 Alpha  occ. eigenvalues --  -38.43397 -38.43150  -2.19862  -2.19631  -2.19621
 Alpha  occ. eigenvalues --   -2.19488  -2.19392  -2.19279  -2.19138  -1.13542
 Alpha  occ. eigenvalues --   -1.13517  -1.13499  -1.13304  -1.13303  -1.13295
 Alpha  occ. eigenvalues --   -1.13294  -1.13287  -1.13254  -1.13152  -1.13114
 Alpha  occ. eigenvalues --   -1.13109  -1.13082  -1.13057  -1.13031  -1.13012
 Alpha  occ. eigenvalues --   -1.12932  -1.12893  -1.12808  -1.12758  -1.12751
 Alpha  occ. eigenvalues --   -0.18551  -0.12845  -0.12602  -0.10686
 Alpha virt. eigenvalues --   -0.05627  -0.05339  -0.04662  -0.03068  -0.02960
 Alpha virt. eigenvalues --   -0.02549  -0.01530  -0.01261  -0.00411  -0.00325
 Alpha virt. eigenvalues --   -0.00017   0.00348   0.00789   0.00854   0.00896

  Beta  occ. eigenvalues --  -38.44045 -38.43811 -38.43776 -38.43550 -38.43519
  Beta  occ. eigenvalues --  -38.43391 -38.43088  -2.19850  -2.19635  -2.19615
  Beta  occ. eigenvalues --   -2.19387  -2.19311  -2.19270  -2.19024  -1.13520
  Beta  occ. eigenvalues --   -1.13502  -1.13493  -1.13309  -1.13300  -1.13292
  Beta  occ. eigenvalues --   -1.13279  -1.13262  -1.13254  -1.13079  -1.13046
  Beta  occ. eigenvalues --   -1.13029  -1.13013  -1.13008  -1.12986  -1.12978
  Beta  occ. eigenvalues --   -1.12909  -1.12890  -1.12732  -1.12680  -1.12671
  Beta  occ. eigenvalues --   -0.17835  -0.12634  -0.12359
  Beta virt. eigenvalues --   -0.06767  -0.05622  -0.05283  -0.04626  -0.02326
  Beta virt. eigenvalues --   -0.02170  -0.01484  -0.01445  -0.01190  -0.00460
  Beta virt. eigenvalues --   -0.00372   0.00132   0.00377   0.00828   0.00861

 Mulliken charges and spin densities:
               1          2
     1  Na   0.240119  -0.047023
     2  Na   0.120638  -0.041467
     3  Na  -0.540815   0.777659
     4  Na  -0.047744  -0.033688
     5  Na   0.301676   0.004335
     6  Na   0.156773  -0.083330
     7  Na  -0.230646   0.423515
 Sum of Mulliken charges =  -0.00000   1.00000

 Dipole moment (field-independent basis, Debye):
    X=              0.2926    Y=             -0.0875    Z=              0.1445  Tot=              0.3379
 Quadrupole moment (field-independent basis, Debye-Ang):
   XX=            -56.2350   YY=            -62.1655   ZZ=            -74.8215
   XY=              0.2263   XZ=             -0.8533   YZ=              0.6008

 Normal termination of Gaussian 16 at Thu Dec  7 09:36:11 2023.
