 Gaussian 16, Revision B.01,
 Gaussian 16:  ES64L-G16RevB.01 20-Dec-2017

 -------------------------
 #P B3LYP/6-311+g(d) force
 -------------------------

 -----
 DPGEN
 -----
 Symbolic Z-matrix:
 Charge =  0 Multiplicity = 2

                         Standard orientation:
 ---------------------------------------------------------------------
 Center     Atomic      Atomic             Coordinates (Angstroms)
 Number     Number       Type             X           Y           Z
 ---------------------------------------------------------------------
      1         11           0        3.276928   -1.010433    1.279875
      2         11           0       -4.051572    0.560596    0.922120
      3         11           0       -1.069952    1.252758   -1.107859
      4         11           0       -1.728425   -1.856469   -0.731508
      5         11           0        1.128979   -1.009390   -1.605831
      6         11           0        2.427767    1.998779   -0.462377
      7         11           0        0.016274    0.064159    1.705580
 ---------------------------------------------------------------------

 SCF Done:  E(UB3LYP) =  -1136.12197041     A.U. after   27 cycles

 The electronic state is 2-A.
 Alpha  occ. eigenvalues --  -38.44640 -38.44531 -38.44226 -38.44065 -38.43797
 Alpha  occ. eigenvalues --  -38.43501 -38.42160  -2.20489  -2.20396  -2.20056
 Alpha  occ. eigenvalues --   -2.19829  -2.19770  -2.19428  -2.18135  -1.14161
 Alpha  occ. eigenvalues --   -1.14147  -1.14126  -1.14098  -1.14081  -1.13978
 Alpha  occ. eigenvalues --   -1.13716  -1.13711  -1.13674  -1.13515  -1.13506
 Alpha  occ. eigenvalues --   -1.13498  -1.13459  -1.13426  -1.13360  -1.13119
 Alpha  occ. eigenvalues --   -1.13080  -1.13028  -1.11828  -1.11808  -1.11750
 Alpha  occ. eigenvalues --   -0.18878  -0.13899  -0.11725  -0.10814
 Alpha virt. eigenvalues --   -0.06810  -0.05175  -0.04480  -0.03163  -0.02672
 Alpha virt. eigenvalues --   -0.02407  -0.02259  -0.01279  -0.00892  -0.00045
 Alpha virt. eigenvalues --    0.00071   0.00234   0.00408   0.00595   0.00709

  Beta  occ. eigenvalues --  -38.44583 -38.44502 -38.44189 -38.44082 -38.43752
  Beta  occ. eigenvalues --  -38.43475 -38.42144  -2.20386  -2.20346  -2.19988
  Beta  occ. eigenvalues --   -2.19862  -2.19691  -2.19379  -2.18110  -1.14092
  Beta  occ. eigenvalues --   -1.14082  -1.14069  -1.14027  -1.14017  -1.13944
  Beta  occ. eigenvalues --   -1.13664  -1.13657  -1.13634  -1.13534  -1.13528
  Beta  occ. eigenvalues --   -1.13479  -1.13452  -1.13357  -1.13296  -1.13084
  Beta  occ. eigenvalues --   -1.13045  -1.12992  -1.11820  -1.11746  -1.11738
  Beta  occ. eigenvalues --   -0.18095  -0.13764  -0.10603
  Beta virt. eigenvalues --   -0.07694  -0.06660  -0.04582  -0.04348  -0.02742
  Beta virt. eigenvalues --   -0.02543  -0.01809  -0.01680  -0.00872  -0.00732
  Beta virt. eigenvalues --    0.00011   0.00107   0.00375   0.00439   0.00676

 Mulliken charges and spin densities:
               1          2
     1  Na   0.259558  -0.088347
     2  Na   0.399583  -0.120875
     3  Na  -0.283111   0.237793
     4  Na   0.002056  -0.107852
     5  Na   0.138706   0.532506
     6  Na   0.073574   0.089102
     7  Na  -0.590366   0.457673
 Sum of Mulliken charges =  -0.00000   1.00000

 Dipole moment (field-independent basis, Debye):
    X=              0.3369    Y=             -0.0220    Z=             -0.1976  Tot=              0.3912
 Quadrupole moment (field-independent basis, Debye-Ang):
   XX=            -52.5467   YY=            -66.5175   ZZ=            -76.5539
   XY=              1.5085   XZ=             -0.6353   YZ=             -4.8154

 Normal termination of Gaussian 16 at Tue Dec  5 11:53:05 2023.
