 Gaussian 16, Revision B.01,
 Gaussian 16:  ES64L-G16RevB.01 20-Dec-2017

 -------------------------
 #P B3LYP/6-311+g(d) force
 -------------------------

 -----
 DPGEN
 -----
 Symbolic Z-matrix:
 Charge =  0 Multiplicity = 2

                         Standard orientation:
 ---------------------------------------------------------------------
 Center     Atomic      Atomic             Coordinates (Angstroms)
 Number     Number       Type             X           Y           Z
 ---------------------------------------------------------------------
      1         11           0        0.267614    0.083272   -1.605357
      2         11           0        0.025696   -0.095621    2.084686
      3         11           0       -3.134904    0.816858    0.156068
      4         11           0       -1.924483   -2.148646   -0.214497
      5         11           0        1.764220   -2.538928   -0.329906
      6         11           0        0.129507    3.014530   -0.472469
      7         11           0        2.872350    0.868535    0.381474
 ---------------------------------------------------------------------

 SCF Done:  E(UB3LYP) =  -1136.13792040     A.U. after   18 cycles

 The electronic state is 2-A.
 Alpha  occ. eigenvalues --  -38.43971 -38.43949 -38.43832 -38.43523 -38.43442
 Alpha  occ. eigenvalues --  -38.43409 -38.43116  -2.19803  -2.19784  -2.19707
 Alpha  occ. eigenvalues --   -2.19386  -2.19280  -2.19247  -2.19111  -1.13491
 Alpha  occ. eigenvalues --   -1.13478  -1.13470  -1.13450  -1.13426  -1.13423
 Alpha  occ. eigenvalues --   -1.13370  -1.13335  -1.13320  -1.13075  -1.13050
 Alpha  occ. eigenvalues --   -1.13015  -1.12993  -1.12971  -1.12932  -1.12914
 Alpha  occ. eigenvalues --   -1.12894  -1.12869  -1.12780  -1.12735  -1.12719
 Alpha  occ. eigenvalues --   -0.18577  -0.13025  -0.12372  -0.10865
 Alpha virt. eigenvalues --   -0.05556  -0.05114  -0.04755  -0.03273  -0.02849
 Alpha virt. eigenvalues --   -0.02646  -0.01464  -0.01180  -0.00427  -0.00270
 Alpha virt. eigenvalues --   -0.00007   0.00359   0.00818   0.00872   0.00898

  Beta  occ. eigenvalues --  -38.43971 -38.43938 -38.43738 -38.43518 -38.43435
  Beta  occ. eigenvalues --  -38.43398 -38.43054  -2.19787  -2.19786  -2.19533
  Beta  occ. eigenvalues --   -2.19380  -2.19271  -2.19230  -2.18998  -1.13477
  Beta  occ. eigenvalues --   -1.13473  -1.13441  -1.13438  -1.13423  -1.13417
  Beta  occ. eigenvalues --   -1.13257  -1.13216  -1.13193  -1.13067  -1.13033
  Beta  occ. eigenvalues --   -1.13007  -1.12969  -1.12951  -1.12920  -1.12903
  Beta  occ. eigenvalues --   -1.12872  -1.12861  -1.12704  -1.12658  -1.12638
  Beta  occ. eigenvalues --   -0.17856  -0.12811  -0.12102
  Beta virt. eigenvalues --   -0.06950  -0.05476  -0.05125  -0.04697  -0.02487
  Beta virt. eigenvalues --   -0.02136  -0.01587  -0.01362  -0.01093  -0.00449
  Beta virt. eigenvalues --   -0.00315   0.00125   0.00387   0.00866   0.00870

 Mulliken charges and spin densities:
               1          2
     1  Na  -0.137596   0.428435
     2  Na  -0.394015   0.684896
     3  Na   0.004998  -0.033512
     4  Na   0.092542  -0.049128
     5  Na   0.143942  -0.055012
     6  Na   0.066388  -0.045304
     7  Na   0.223742   0.069627
 Sum of Mulliken charges =  -0.00000   1.00000

 Dipole moment (field-independent basis, Debye):
    X=              0.0232    Y=              0.0519    Z=              0.2534  Tot=              0.2597
 Quadrupole moment (field-independent basis, Debye-Ang):
   XX=            -57.4137   YY=            -62.1780   ZZ=            -74.0344
   XY=             -0.9046   XZ=              0.4874   YZ=              0.5724

 Normal termination of Gaussian 16 at Thu Dec  7 10:18:31 2023.
