 Gaussian 16, Revision B.01,
 Gaussian 16:  ES64L-G16RevB.01 20-Dec-2017

 -------------------------
 #P B3LYP/6-311+g(d) force
 -------------------------

 -----
 DPGEN
 -----
 Symbolic Z-matrix:
 Charge =  0 Multiplicity = 2

                         Standard orientation:
 ---------------------------------------------------------------------
 Center     Atomic      Atomic             Coordinates (Angstroms)
 Number     Number       Type             X           Y           Z
 ---------------------------------------------------------------------
      1         11           0        0.162266    1.886553   -0.656016
      2         11           0       -2.262976    3.548346    0.416600
      3         11           0       -3.212286   -0.083304   -0.328067
      4         11           0       -2.767810   -3.397162    0.204640
      5         11           0        0.094414   -1.514194   -0.373036
      6         11           0        2.511661   -0.204703    1.158176
      7         11           0        5.474731   -0.235535   -0.422297
 ---------------------------------------------------------------------

 SCF Done:  E(UB3LYP) =  -1136.12387089     A.U. after   20 cycles

 The electronic state is 2-A.
 Alpha  occ. eigenvalues --  -38.44444 -38.44226 -38.43959 -38.43948 -38.43801
 Alpha  occ. eigenvalues --  -38.43718 -38.43573  -2.20257  -2.20035  -2.19833
 Alpha  occ. eigenvalues --   -2.19757  -2.19627  -2.19616  -2.19431  -1.13963
 Alpha  occ. eigenvalues --   -1.13949  -1.13843  -1.13668  -1.13667  -1.13652
 Alpha  occ. eigenvalues --   -1.13546  -1.13512  -1.13471  -1.13423  -1.13419
 Alpha  occ. eigenvalues --   -1.13389  -1.13336  -1.13304  -1.13270  -1.13266
 Alpha  occ. eigenvalues --   -1.13241  -1.13231  -1.13100  -1.13086  -1.13064
 Alpha  occ. eigenvalues --   -0.17172  -0.13790  -0.12716  -0.10706
 Alpha virt. eigenvalues --   -0.05955  -0.05477  -0.04962  -0.03594  -0.02779
 Alpha virt. eigenvalues --   -0.02323  -0.01597  -0.01573  -0.01018  -0.00784
 Alpha virt. eigenvalues --   -0.00452   0.00058   0.00356   0.00424   0.00617

  Beta  occ. eigenvalues --  -38.44424 -38.44108 -38.43942 -38.43939 -38.43788
  Beta  occ. eigenvalues --  -38.43678 -38.43571  -2.20221  -2.19816  -2.19803
  Beta  occ. eigenvalues --   -2.19740  -2.19590  -2.19557  -2.19438  -1.13937
  Beta  occ. eigenvalues --   -1.13922  -1.13814  -1.13522  -1.13518  -1.13518
  Beta  occ. eigenvalues --   -1.13509  -1.13492  -1.13442  -1.13407  -1.13406
  Beta  occ. eigenvalues --   -1.13378  -1.13294  -1.13254  -1.13253  -1.13243
  Beta  occ. eigenvalues --   -1.13216  -1.13195  -1.13108  -1.13087  -1.13011
  Beta  occ. eigenvalues --   -0.16657  -0.12983  -0.12609
  Beta virt. eigenvalues --   -0.07141  -0.05790  -0.05167  -0.04648  -0.03149
  Beta virt. eigenvalues --   -0.02492  -0.02265  -0.01505  -0.01186  -0.00629
  Beta virt. eigenvalues --   -0.00429  -0.00196   0.00259   0.00509   0.00589

 Mulliken charges and spin densities:
               1          2
     1  Na  -0.803291  -0.050483
     2  Na   0.572227   0.127544
     3  Na   0.055329   0.282630
     4  Na   0.751778   0.133702
     5  Na  -1.252837  -0.087825
     6  Na   0.758682   0.009827
     7  Na  -0.081889   0.584604
 Sum of Mulliken charges =  -0.00000   1.00000

 Dipole moment (field-independent basis, Debye):
    X=             -1.0922    Y=             -0.1779    Z=              0.1211  Tot=              1.1132
 Quadrupole moment (field-independent basis, Debye-Ang):
   XX=            -72.0488   YY=            -61.3987   ZZ=            -68.0403
   XY=              1.5959   XZ=             -3.4062   YZ=              0.3104

 Normal termination of Gaussian 16 at Tue Nov 28 23:04:53 2023.
