 Gaussian 16, Revision B.01,
 Gaussian 16:  ES64L-G16RevB.01 20-Dec-2017

 -------------------------
 #P B3LYP/6-311+g(d) force
 -------------------------

 -----
 DPGEN
 -----
 Symbolic Z-matrix:
 Charge =  0 Multiplicity = 2

                         Standard orientation:
 ---------------------------------------------------------------------
 Center     Atomic      Atomic             Coordinates (Angstroms)
 Number     Number       Type             X           Y           Z
 ---------------------------------------------------------------------
      1         11           0        0.406181   -0.995449   -1.686643
      2         11           0        3.128545    0.282150   -1.468761
      3         11           0       -3.489270   -1.368826   -0.615636
      4         11           0        1.104518    2.282527    1.057220
      5         11           0       -2.178361    2.011404   -0.631891
      6         11           0       -1.169809   -0.435826    2.009108
      7         11           0        2.198196   -1.775980    1.336602
 ---------------------------------------------------------------------

 SCF Done:  E(UB3LYP) =  -1136.12478156     A.U. after   23 cycles

 The electronic state is 2-A.
 Alpha  occ. eigenvalues --  -38.44895 -38.44460 -38.44447 -38.44428 -38.43902
 Alpha  occ. eigenvalues --  -38.43743 -38.42399  -2.20709  -2.20294  -2.20286
 Alpha  occ. eigenvalues --   -2.20241  -2.19754  -2.19526  -2.18200  -1.14384
 Alpha  occ. eigenvalues --   -1.14351  -1.14326  -1.14018  -1.13982  -1.13935
 Alpha  occ. eigenvalues --   -1.13931  -1.13917  -1.13909  -1.13901  -1.13888
 Alpha  occ. eigenvalues --   -1.13851  -1.13437  -1.13423  -1.13363  -1.13205
 Alpha  occ. eigenvalues --   -1.13185  -1.13165  -1.11877  -1.11872  -1.11839
 Alpha  occ. eigenvalues --   -0.17815  -0.13589  -0.11796  -0.10897
 Alpha virt. eigenvalues --   -0.05960  -0.05747  -0.04726  -0.03337  -0.03024
 Alpha virt. eigenvalues --   -0.02700  -0.01883  -0.01178  -0.00738  -0.00304
 Alpha virt. eigenvalues --    0.00183   0.00250   0.00312   0.00542   0.00569

  Beta  occ. eigenvalues --  -38.44836 -38.44423 -38.44405 -38.44394 -38.43877
  Beta  occ. eigenvalues --  -38.43747 -38.42397  -2.20603  -2.20224  -2.20197
  Beta  occ. eigenvalues --   -2.20193  -2.19712  -2.19534  -2.18198  -1.14306
  Beta  occ. eigenvalues --   -1.14281  -1.14242  -1.13967  -1.13915  -1.13896
  Beta  occ. eigenvalues --   -1.13873  -1.13870  -1.13858  -1.13850  -1.13833
  Beta  occ. eigenvalues --   -1.13819  -1.13399  -1.13382  -1.13336  -1.13204
  Beta  occ. eigenvalues --   -1.13191  -1.13171  -1.11875  -1.11856  -1.11841
  Beta  occ. eigenvalues --   -0.17077  -0.13410  -0.10773
  Beta virt. eigenvalues --   -0.07867  -0.05778  -0.05201  -0.04479  -0.03028
  Beta virt. eigenvalues --   -0.02339  -0.02175  -0.01767  -0.00808  -0.00570
  Beta virt. eigenvalues --   -0.00114   0.00282   0.00334   0.00377   0.00619

 Mulliken charges and spin densities:
               1          2
     1  Na  -0.633103   0.432331
     2  Na   0.660459  -0.011638
     3  Na   0.309133  -0.059281
     4  Na  -0.389003   0.166493
     5  Na   0.058853   0.002079
     6  Na  -0.017855   0.362571
     7  Na   0.011515   0.107446
 Sum of Mulliken charges =  -0.00000   1.00000

 Dipole moment (field-independent basis, Debye):
    X=              0.2529    Y=             -0.2636    Z=             -0.0402  Tot=              0.3675
 Quadrupole moment (field-independent basis, Debye-Ang):
   XX=            -53.9485   YY=            -73.3871   ZZ=            -68.8361
   XY=             -0.5240   XZ=              1.1226   YZ=             -7.4832

 Normal termination of Gaussian 16 at Mon Dec  4 02:21:07 2023.
