 Gaussian 16, Revision B.01,
 Gaussian 16:  ES64L-G16RevB.01 20-Dec-2017

 -------------------------
 #P B3LYP/6-311+g(d) force
 -------------------------

 -----
 DPGEN
 -----
 Symbolic Z-matrix:
 Charge =  0 Multiplicity = 2

                         Standard orientation:
 ---------------------------------------------------------------------
 Center     Atomic      Atomic             Coordinates (Angstroms)
 Number     Number       Type             X           Y           Z
 ---------------------------------------------------------------------
      1         11           0        0.502071    3.216181   -0.224060
      2         11           0        2.206498   -0.067429   -0.308871
      3         11           0       -1.794561    0.926235    1.883197
      4         11           0       -3.868027   -1.254815    0.253055
      5         11           0       -1.176694    0.746235   -1.716619
      6         11           0       -0.556559   -2.467160   -0.496078
      7         11           0        4.687273   -1.099247    0.609377
 ---------------------------------------------------------------------

 SCF Done:  E(UB3LYP) =  -1136.12118989     A.U. after   20 cycles

 The electronic state is 2-A.
 Alpha  occ. eigenvalues --  -38.44821 -38.44463 -38.44454 -38.44296 -38.43761
 Alpha  occ. eigenvalues --  -38.43462 -38.42842  -2.20641  -2.20274  -2.20262
 Alpha  occ. eigenvalues --   -2.20178  -2.19603  -2.19274  -2.18742  -1.14316
 Alpha  occ. eigenvalues --   -1.14296  -1.14240  -1.13960  -1.13946  -1.13937
 Alpha  occ. eigenvalues --   -1.13920  -1.13907  -1.13863  -1.13854  -1.13839
 Alpha  occ. eigenvalues --   -1.13783  -1.13360  -1.13222  -1.13215  -1.12946
 Alpha  occ. eigenvalues --   -1.12932  -1.12913  -1.12426  -1.12411  -1.12363
 Alpha  occ. eigenvalues --   -0.17714  -0.13483  -0.12102  -0.10949
 Alpha virt. eigenvalues --   -0.06642  -0.05357  -0.04386  -0.03427  -0.02730
 Alpha virt. eigenvalues --   -0.02517  -0.01975  -0.01396  -0.00969  -0.00516
 Alpha virt. eigenvalues --   -0.00181  -0.00018   0.00357   0.00588   0.00628

  Beta  occ. eigenvalues --  -38.44752 -38.44439 -38.44424 -38.44253 -38.43718
  Beta  occ. eigenvalues --  -38.43464 -38.42838  -2.20512  -2.20238  -2.20206
  Beta  occ. eigenvalues --   -2.20103  -2.19523  -2.19279  -2.18741  -1.14227
  Beta  occ. eigenvalues --   -1.14212  -1.14142  -1.13924  -1.13912  -1.13893
  Beta  occ. eigenvalues --   -1.13882  -1.13873  -1.13828  -1.13804  -1.13778
  Beta  occ. eigenvalues --   -1.13727  -1.13308  -1.13167  -1.13160  -1.12947
  Beta  occ. eigenvalues --   -1.12931  -1.12917  -1.12421  -1.12386  -1.12359
  Beta  occ. eigenvalues --   -0.17064  -0.12997  -0.11834
  Beta virt. eigenvalues --   -0.07419  -0.06293  -0.05237  -0.04063  -0.02986
  Beta virt. eigenvalues --   -0.02405  -0.02100  -0.01637  -0.01296  -0.00622
  Beta virt. eigenvalues --   -0.00217  -0.00061   0.00077   0.00486   0.00654

 Mulliken charges and spin densities:
               1          2
     1  Na   0.660286  -0.029942
     2  Na  -1.180215   0.255229
     3  Na  -0.176023   0.348459
     4  Na   0.469886   0.063560
     5  Na   1.063189   0.241387
     6  Na  -0.076775   0.061188
     7  Na  -0.760348   0.060119
 Sum of Mulliken charges =  -0.00000   1.00000

 Dipole moment (field-independent basis, Debye):
    X=             -1.4774    Y=             -0.0191    Z=             -0.0279  Tot=              1.4778
 Quadrupole moment (field-independent basis, Debye-Ang):
   XX=            -62.0996   YY=            -65.9286   ZZ=            -69.1623
   XY=              3.2706   XZ=              4.4020   YZ=             -1.1608

 Normal termination of Gaussian 16 at Thu Dec  7 18:03:08 2023.
