 Gaussian 16, Revision B.01,
 Gaussian 16:  ES64L-G16RevB.01 20-Dec-2017

 -------------------------
 #P B3LYP/6-311+g(d) force
 -------------------------

 -----
 DPGEN
 -----
 Symbolic Z-matrix:
 Charge =  0 Multiplicity = 2

                         Standard orientation:
 ---------------------------------------------------------------------
 Center     Atomic      Atomic             Coordinates (Angstroms)
 Number     Number       Type             X           Y           Z
 ---------------------------------------------------------------------
      1         11           0        1.348517   -2.636876    0.081295
      2         11           0        0.506301    0.466257   -1.529802
      3         11           0       -2.354306   -2.162223   -0.354079
      4         11           0        3.377444   -0.101510   -0.187030
      5         11           0        0.565167    3.404497    0.060253
      6         11           0       -0.046683    0.043539    2.084301
      7         11           0       -3.396441    0.986316   -0.154937
 ---------------------------------------------------------------------

 SCF Done:  E(UB3LYP) =  -1136.12833912     A.U. after   22 cycles

 The electronic state is 2-A.
 Alpha  occ. eigenvalues --  -38.44801 -38.44695 -38.43828 -38.43754 -38.43545
 Alpha  occ. eigenvalues --  -38.43533 -38.43458  -2.20567  -2.20527  -2.19600
 Alpha  occ. eigenvalues --   -2.19557  -2.19441  -2.19391  -2.19308  -1.14240
 Alpha  occ. eigenvalues --   -1.14228  -1.14214  -1.14205  -1.14181  -1.14161
 Alpha  occ. eigenvalues --   -1.13288  -1.13256  -1.13246  -1.13230  -1.13217
 Alpha  occ. eigenvalues --   -1.13205  -1.13136  -1.13083  -1.13065  -1.13056
 Alpha  occ. eigenvalues --   -1.13019  -1.13006  -1.12974  -1.12967  -1.12951
 Alpha  occ. eigenvalues --   -0.17884  -0.13129  -0.12117  -0.10309
 Alpha virt. eigenvalues --   -0.06451  -0.05211  -0.04968  -0.03090  -0.02747
 Alpha virt. eigenvalues --   -0.02329  -0.02027  -0.01339  -0.00933  -0.00605
 Alpha virt. eigenvalues --   -0.00042   0.00288   0.00673   0.00731   0.00773

  Beta  occ. eigenvalues --  -38.44796 -38.44685 -38.43829 -38.43748 -38.43493
  Beta  occ. eigenvalues --  -38.43451 -38.43439  -2.20559  -2.20512  -2.19604
  Beta  occ. eigenvalues --   -2.19548  -2.19367  -2.19300  -2.19195  -1.14228
  Beta  occ. eigenvalues --   -1.14221  -1.14198  -1.14198  -1.14162  -1.14147
  Beta  occ. eigenvalues --   -1.13285  -1.13255  -1.13245  -1.13218  -1.13212
  Beta  occ. eigenvalues --   -1.13190  -1.13080  -1.13027  -1.13015  -1.12974
  Beta  occ. eigenvalues --   -1.12961  -1.12933  -1.12917  -1.12883  -1.12856
  Beta  occ. eigenvalues --   -0.17209  -0.12871  -0.11953
  Beta virt. eigenvalues --   -0.06550  -0.06314  -0.05105  -0.04926  -0.02411
  Beta virt. eigenvalues --   -0.02066  -0.01920  -0.01405  -0.01202  -0.00936
  Beta virt. eigenvalues --   -0.00630   0.00129   0.00361   0.00684   0.00824

 Mulliken charges and spin densities:
               1          2
     1  Na   0.114321   0.085436
     2  Na  -0.036119   0.312797
     3  Na  -0.052114   0.039099
     4  Na   0.373050   0.006891
     5  Na  -0.092603  -0.131295
     6  Na  -0.316069   0.715626
     7  Na   0.009533  -0.028556
 Sum of Mulliken charges =  -0.00000   1.00000

 Dipole moment (field-independent basis, Debye):
    X=              0.1233    Y=              0.3189    Z=              0.0844  Tot=              0.3522
 Quadrupole moment (field-independent basis, Debye-Ang):
   XX=            -55.2200   YY=            -61.6038   ZZ=            -76.6958
   XY=             -1.3819   XZ=              0.9540   YZ=              1.2065

 Normal termination of Gaussian 16 at Thu Dec  7 03:33:52 2023.
