 Gaussian 16, Revision B.01,
 Gaussian 16:  ES64L-G16RevB.01 20-Dec-2017

 -------------------------
 #P B3LYP/6-311+g(d) force
 -------------------------

 -----
 DPGEN
 -----
 Symbolic Z-matrix:
 Charge =  0 Multiplicity = 2

                         Standard orientation:
 ---------------------------------------------------------------------
 Center     Atomic      Atomic             Coordinates (Angstroms)
 Number     Number       Type             X           Y           Z
 ---------------------------------------------------------------------
      1         11           0        3.780633    0.741491   -0.564273
      2         11           0        0.680174    2.431742   -0.309370
      3         11           0       -1.486429   -0.150547    1.784605
      4         11           0       -2.771492   -1.918359   -0.436910
      5         11           0        2.159314   -0.988385    1.555523
      6         11           0        0.793786   -2.083535   -1.513667
      7         11           0       -3.155987    1.967592   -0.515907
 ---------------------------------------------------------------------

 SCF Done:  E(UB3LYP) =  -1136.12043356     A.U. after   23 cycles

 The electronic state is 2-A.
 Alpha  occ. eigenvalues --  -38.44831 -38.44418 -38.44283 -38.44203 -38.44103
 Alpha  occ. eigenvalues --  -38.44094 -38.43810  -2.20647  -2.20190  -2.20094
 Alpha  occ. eigenvalues --   -2.19980  -2.19950  -2.19861  -2.19685  -1.14338
 Alpha  occ. eigenvalues --   -1.14291  -1.14283  -1.13869  -1.13839  -1.13830
 Alpha  occ. eigenvalues --   -1.13816  -1.13751  -1.13715  -1.13661  -1.13656
 Alpha  occ. eigenvalues --   -1.13607  -1.13597  -1.13593  -1.13578  -1.13560
 Alpha  occ. eigenvalues --   -1.13548  -1.13473  -1.13353  -1.13345  -1.13290
 Alpha  occ. eigenvalues --   -0.17455  -0.13979  -0.11643  -0.10480
 Alpha virt. eigenvalues --   -0.06693  -0.06204  -0.04627  -0.03435  -0.02705
 Alpha virt. eigenvalues --   -0.02266  -0.02246  -0.01585  -0.00881  -0.00379
 Alpha virt. eigenvalues --   -0.00065   0.00125   0.00276   0.00495   0.00562

  Beta  occ. eigenvalues --  -38.44817 -38.44411 -38.44279 -38.44164 -38.44103
  Beta  occ. eigenvalues --  -38.44047 -38.43754  -2.20622  -2.20178  -2.20087
  Beta  occ. eigenvalues --   -2.19907  -2.19867  -2.19861  -2.19583  -1.14316
  Beta  occ. eigenvalues --   -1.14274  -1.14265  -1.13856  -1.13832  -1.13824
  Beta  occ. eigenvalues --   -1.13805  -1.13741  -1.13707  -1.13610  -1.13603
  Beta  occ. eigenvalues --   -1.13560  -1.13550  -1.13541  -1.13535  -1.13534
  Beta  occ. eigenvalues --   -1.13508  -1.13475  -1.13285  -1.13279  -1.13203
  Beta  occ. eigenvalues --   -0.16863  -0.13862  -0.11406
  Beta virt. eigenvalues --   -0.06786  -0.06516  -0.06082  -0.03998  -0.03246
  Beta virt. eigenvalues --   -0.02243  -0.02143  -0.01600  -0.01338  -0.00702
  Beta virt. eigenvalues --   -0.00114  -0.00014   0.00237   0.00377   0.00634

 Mulliken charges and spin densities:
               1          2
     1  Na   0.411720   0.130348
     2  Na  -0.411228   0.045746
     3  Na  -0.105489   0.161918
     4  Na   0.101285   0.186296
     5  Na   0.091952   0.217393
     6  Na  -0.264719   0.235483
     7  Na   0.176480   0.022817
 Sum of Mulliken charges =  -0.00000   1.00000

 Dipole moment (field-independent basis, Debye):
    X=              0.2334    Y=              0.1282    Z=             -0.4160  Tot=              0.4940
 Quadrupole moment (field-independent basis, Debye-Ang):
   XX=            -49.1275   YY=            -74.1620   ZZ=            -72.7025
   XY=             -0.2270   XZ=              0.4566   YZ=             -1.1397

 Normal termination of Gaussian 16 at Mon Dec  4 01:42:17 2023.
