 Gaussian 16, Revision B.01,
 Gaussian 16:  ES64L-G16RevB.01 20-Dec-2017

 -------------------------
 #P B3LYP/6-311+g(d) force
 -------------------------

 -----
 DPGEN
 -----
 Symbolic Z-matrix:
 Charge =  0 Multiplicity = 2

                         Standard orientation:
 ---------------------------------------------------------------------
 Center     Atomic      Atomic             Coordinates (Angstroms)
 Number     Number       Type             X           Y           Z
 ---------------------------------------------------------------------
      1         11           0       -0.411896    0.157919    0.286258
      2         11           0       -3.554340   -1.316153    0.135239
      3         11           0        3.490327   -1.801964    1.068864
      4         11           0       -2.851126    1.907082    0.609142
      5         11           0       -0.922041   -3.087600   -1.012922
      6         11           0        3.689163    0.622650   -0.549945
      7         11           0        0.559914    3.518067   -0.536634
 ---------------------------------------------------------------------

 SCF Done:  E(UB3LYP) =  -1136.11943187     A.U. after   21 cycles

 The electronic state is 2-A.
 Alpha  occ. eigenvalues --  -38.44547 -38.44190 -38.44096 -38.44086 -38.43701
 Alpha  occ. eigenvalues --  -38.43647 -38.43539  -2.20368  -2.20046  -2.19987
 Alpha  occ. eigenvalues --   -2.19930  -2.19585  -2.19434  -2.19366  -1.14123
 Alpha  occ. eigenvalues --   -1.14026  -1.13993  -1.13749  -1.13724  -1.13711
 Alpha  occ. eigenvalues --   -1.13694  -1.13685  -1.13579  -1.13572  -1.13566
 Alpha  occ. eigenvalues --   -1.13545  -1.13265  -1.13238  -1.13170  -1.13101
 Alpha  occ. eigenvalues --   -1.13082  -1.13054  -1.13017  -1.13009  -1.12989
 Alpha  occ. eigenvalues --   -0.16974  -0.14050  -0.12562  -0.10296
 Alpha virt. eigenvalues --   -0.06310  -0.05324  -0.04374  -0.03503  -0.02980
 Alpha virt. eigenvalues --   -0.02503  -0.01717  -0.01420  -0.01085  -0.00463
 Alpha virt. eigenvalues --   -0.00128   0.00045   0.00274   0.00618   0.00680

  Beta  occ. eigenvalues --  -38.44539 -38.44171 -38.44087 -38.44058 -38.43656
  Beta  occ. eigenvalues --  -38.43602 -38.43481  -2.20358  -2.20019  -2.19989
  Beta  occ. eigenvalues --   -2.19861  -2.19504  -2.19351  -2.19256  -1.14099
  Beta  occ. eigenvalues --   -1.14023  -1.13972  -1.13737  -1.13713  -1.13699
  Beta  occ. eigenvalues --   -1.13692  -1.13620  -1.13582  -1.13525  -1.13520
  Beta  occ. eigenvalues --   -1.13495  -1.13218  -1.13186  -1.13093  -1.13043
  Beta  occ. eigenvalues --   -1.13022  -1.13005  -1.12941  -1.12934  -1.12921
  Beta  occ. eigenvalues --   -0.16533  -0.13397  -0.12046
  Beta virt. eigenvalues --   -0.07010  -0.06188  -0.05048  -0.04128  -0.03112
  Beta virt. eigenvalues --   -0.02499  -0.02315  -0.01525  -0.01174  -0.00873
  Beta virt. eigenvalues --   -0.00221   0.00142   0.00225   0.00403   0.00632

 Mulliken charges and spin densities:
               1          2
     1  Na  -3.139675  -0.064659
     2  Na   0.393868   0.120421
     3  Na   0.535981   0.170199
     4  Na   0.571821   0.277559
     5  Na   0.573401   0.229317
     6  Na   0.578623   0.073857
     7  Na   0.485981   0.193306
 Sum of Mulliken charges =  -0.00000   1.00000

 Dipole moment (field-independent basis, Debye):
    X=             -0.1241    Y=             -0.1128    Z=             -0.1850  Tot=              0.2497
 Quadrupole moment (field-independent basis, Debye-Ang):
   XX=            -64.0935   YY=            -62.7380   ZZ=            -70.1597
   XY=              2.5836   XZ=             -1.6424   YZ=             -2.8392

 Normal termination of Gaussian 16 at Wed Nov 29 15:37:12 2023.
