 Gaussian 16, Revision B.01,
 Gaussian 16:  ES64L-G16RevB.01 20-Dec-2017

 -------------------------
 #P B3LYP/6-311+g(d) force
 -------------------------

 -----
 DPGEN
 -----
 Symbolic Z-matrix:
 Charge =  0 Multiplicity = 2

                         Standard orientation:
 ---------------------------------------------------------------------
 Center     Atomic      Atomic             Coordinates (Angstroms)
 Number     Number       Type             X           Y           Z
 ---------------------------------------------------------------------
      1         11           0       -0.549551   -2.240108   -0.386429
      2         11           0       -1.583894    1.628320   -1.351697
      3         11           0       -1.070706    0.566085    2.371330
      4         11           0       -3.745334   -1.005012   -0.219401
      5         11           0        2.508298    0.370998    0.860712
      6         11           0        3.031913   -2.279273   -0.615554
      7         11           0        1.409273    2.958990   -0.658961
 ---------------------------------------------------------------------

 SCF Done:  E(UB3LYP) =  -1136.12546455     A.U. after   21 cycles

 The electronic state is 2-A.
 Alpha  occ. eigenvalues --  -38.44683 -38.44383 -38.44353 -38.44187 -38.44018
 Alpha  occ. eigenvalues --  -38.43677 -38.43482  -2.20480  -2.20194  -2.20142
 Alpha  occ. eigenvalues --   -2.20003  -2.19882  -2.19500  -2.19306  -1.14151
 Alpha  occ. eigenvalues --   -1.14141  -1.14117  -1.13852  -1.13843  -1.13832
 Alpha  occ. eigenvalues --   -1.13822  -1.13798  -1.13743  -1.13689  -1.13667
 Alpha  occ. eigenvalues --   -1.13618  -1.13576  -1.13564  -1.13542  -1.13165
 Alpha  occ. eigenvalues --   -1.13148  -1.13128  -1.12977  -1.12965  -1.12941
 Alpha  occ. eigenvalues --   -0.17448  -0.13513  -0.12325  -0.10851
 Alpha virt. eigenvalues --   -0.06260  -0.05935  -0.04645  -0.03393  -0.02866
 Alpha virt. eigenvalues --   -0.02528  -0.02061  -0.01398  -0.00800  -0.00414
 Alpha virt. eigenvalues --   -0.00149   0.00258   0.00358   0.00579   0.00732

  Beta  occ. eigenvalues --  -38.44679 -38.44348 -38.44268 -38.44149 -38.44012
  Beta  occ. eigenvalues --  -38.43672 -38.43475  -2.20474  -2.20134  -2.19979
  Beta  occ. eigenvalues --   -2.19934  -2.19873  -2.19492  -2.19295  -1.14149
  Beta  occ. eigenvalues --   -1.14124  -1.14113  -1.13836  -1.13814  -1.13742
  Beta  occ. eigenvalues --   -1.13701  -1.13679  -1.13648  -1.13641  -1.13616
  Beta  occ. eigenvalues --   -1.13573  -1.13565  -1.13554  -1.13524  -1.13159
  Beta  occ. eigenvalues --   -1.13140  -1.13123  -1.12971  -1.12948  -1.12933
  Beta  occ. eigenvalues --   -0.16843  -0.13395  -0.12083
  Beta virt. eigenvalues --   -0.06958  -0.06127  -0.05804  -0.04228  -0.02953
  Beta virt. eigenvalues --   -0.02362  -0.02035  -0.01662  -0.01304  -0.00540
  Beta virt. eigenvalues --   -0.00373   0.00099   0.00338   0.00509   0.00644

 Mulliken charges and spin densities:
               1          2
     1  Na  -0.756666   0.095665
     2  Na  -0.326831   0.194557
     3  Na  -0.063622   0.420348
     4  Na   0.798193   0.182524
     5  Na  -0.332321   0.322613
     6  Na   0.534588  -0.183690
     7  Na   0.146658  -0.032017
 Sum of Mulliken charges =  -0.00000   1.00000

 Dipole moment (field-independent basis, Debye):
    X=             -0.9140    Y=             -0.3338    Z=             -0.1710  Tot=              0.9879
 Quadrupole moment (field-independent basis, Debye-Ang):
   XX=            -54.0846   YY=            -69.2262   ZZ=            -73.3802
   XY=              2.0462   XZ=             -0.6008   YZ=              1.2206

 Normal termination of Gaussian 16 at Mon Dec  4 03:16:56 2023.
