 Gaussian 16, Revision B.01,
 Gaussian 16:  ES64L-G16RevB.01 20-Dec-2017

 -------------------------
 #P B3LYP/6-311+g(d) force
 -------------------------

 -----
 DPGEN
 -----
 Symbolic Z-matrix:
 Charge =  0 Multiplicity = 2

                         Standard orientation:
 ---------------------------------------------------------------------
 Center     Atomic      Atomic             Coordinates (Angstroms)
 Number     Number       Type             X           Y           Z
 ---------------------------------------------------------------------
      1         11           0        0.274374   -0.845604   -1.811203
      2         11           0        0.286864   -0.212343    1.931041
      3         11           0        1.794424    2.326507   -0.143367
      4         11           0       -3.221267    0.093013   -0.049162
      5         11           0       -1.407927    2.864222   -0.099767
      6         11           0       -1.273226   -3.202975    0.147352
      7         11           0        3.546760   -1.022819    0.025106
 ---------------------------------------------------------------------

 SCF Done:  E(UB3LYP) =  -1136.12950362     A.U. after   21 cycles

 The electronic state is 2-A.
 Alpha  occ. eigenvalues --  -38.44881 -38.44589 -38.44183 -38.44018 -38.43604
 Alpha  occ. eigenvalues --  -38.43557 -38.43270  -2.20636  -2.20374  -2.19966
 Alpha  occ. eigenvalues --   -2.19844  -2.19448  -2.19404  -2.19102  -1.14307
 Alpha  occ. eigenvalues --   -1.14299  -1.14273  -1.14053  -1.14049  -1.14004
 Alpha  occ. eigenvalues --   -1.13641  -1.13626  -1.13607  -1.13533  -1.13517
 Alpha  occ. eigenvalues --   -1.13472  -1.13128  -1.13095  -1.13075  -1.13061
 Alpha  occ. eigenvalues --   -1.13035  -1.13020  -1.12773  -1.12760  -1.12754
 Alpha  occ. eigenvalues --   -0.17723  -0.12849  -0.12464  -0.10213
 Alpha virt. eigenvalues --   -0.06581  -0.05435  -0.04820  -0.03115  -0.02828
 Alpha virt. eigenvalues --   -0.02384  -0.02024  -0.01453  -0.00882  -0.00529
 Alpha virt. eigenvalues --   -0.00050   0.00316   0.00663   0.00679   0.00746

  Beta  occ. eigenvalues --  -38.44883 -38.44587 -38.44182 -38.44013 -38.43537
  Beta  occ. eigenvalues --  -38.43469 -38.43269  -2.20641  -2.20372  -2.19967
  Beta  occ. eigenvalues --   -2.19836  -2.19324  -2.19240  -2.19101  -1.14305
  Beta  occ. eigenvalues --   -1.14291  -1.14279  -1.14052  -1.14033  -1.14006
  Beta  occ. eigenvalues --   -1.13636  -1.13614  -1.13609  -1.13530  -1.13487
  Beta  occ. eigenvalues --   -1.13472  -1.13041  -1.13007  -1.12971  -1.12963
  Beta  occ. eigenvalues --   -1.12920  -1.12903  -1.12775  -1.12760  -1.12740
  Beta  occ. eigenvalues --   -0.17040  -0.12691  -0.12269
  Beta virt. eigenvalues --   -0.06586  -0.06392  -0.05261  -0.04804  -0.02385
  Beta virt. eigenvalues --   -0.02159  -0.01973  -0.01465  -0.01254  -0.00927
  Beta virt. eigenvalues --   -0.00552   0.00131   0.00353   0.00669   0.00777

 Mulliken charges and spin densities:
               1          2
     1  Na  -0.058077   0.505232
     2  Na  -0.066615   0.628308
     3  Na   0.082204   0.078167
     4  Na   0.025011   0.026973
     5  Na  -0.251431  -0.061272
     6  Na   0.097219  -0.102155
     7  Na   0.171688  -0.075254
 Sum of Mulliken charges =  -0.00000   1.00000

 Dipole moment (field-independent basis, Debye):
    X=              0.3556    Y=             -0.6336    Z=              0.0328  Tot=              0.7273
 Quadrupole moment (field-independent basis, Debye-Ang):
   XX=            -54.0781   YY=            -61.5359   ZZ=            -77.4348
   XY=              0.0240   XZ=             -0.0660   YZ=             -1.2770

 Normal termination of Gaussian 16 at Thu Dec  7 15:00:43 2023.
