 Gaussian 16, Revision B.01,
 Gaussian 16:  ES64L-G16RevB.01 20-Dec-2017

 -------------------------
 #P B3LYP/6-311+g(d) force
 -------------------------

 -----
 DPGEN
 -----
 Symbolic Z-matrix:
 Charge =  0 Multiplicity = 2

                         Standard orientation:
 ---------------------------------------------------------------------
 Center     Atomic      Atomic             Coordinates (Angstroms)
 Number     Number       Type             X           Y           Z
 ---------------------------------------------------------------------
      1         11           0       -1.001094    0.006250    2.192621
      2         11           0        2.186238   -0.692732    1.978382
      3         11           0        3.087644    0.780089   -1.353594
      4         11           0        0.189017    2.720353   -0.429153
      5         11           0       -2.782562    1.585010   -0.457230
      6         11           0        1.290939   -2.360284   -1.144635
      7         11           0       -2.970182   -2.038687   -0.786391
 ---------------------------------------------------------------------

 SCF Done:  E(UB3LYP) =  -1136.12213403     A.U. after   23 cycles

 The electronic state is 2-A.
 Alpha  occ. eigenvalues --  -38.44827 -38.44697 -38.44526 -38.44400 -38.44118
 Alpha  occ. eigenvalues --  -38.43893 -38.43018  -2.20660  -2.20530  -2.20287
 Alpha  occ. eigenvalues --   -2.20195  -2.19872  -2.19726  -2.18831  -1.14368
 Alpha  occ. eigenvalues --   -1.14293  -1.14286  -1.14194  -1.14172  -1.14138
 Alpha  occ. eigenvalues --   -1.13973  -1.13948  -1.13911  -1.13871  -1.13843
 Alpha  occ. eigenvalues --   -1.13816  -1.13550  -1.13519  -1.13513  -1.13414
 Alpha  occ. eigenvalues --   -1.13397  -1.13348  -1.12518  -1.12492  -1.12470
 Alpha  occ. eigenvalues --   -0.17277  -0.13392  -0.11911  -0.11553
 Alpha virt. eigenvalues --   -0.06103  -0.05398  -0.05105  -0.03573  -0.03131
 Alpha virt. eigenvalues --   -0.02860  -0.01497  -0.00939  -0.00779  -0.00465
 Alpha virt. eigenvalues --   -0.00213   0.00168   0.00371   0.00382   0.00459

  Beta  occ. eigenvalues --  -38.44751 -38.44637 -38.44505 -38.44369 -38.44099
  Beta  occ. eigenvalues --  -38.43889 -38.43018  -2.20524  -2.20422  -2.20249
  Beta  occ. eigenvalues --   -2.20139  -2.19836  -2.19719  -2.18832  -1.14267
  Beta  occ. eigenvalues --   -1.14203  -1.14179  -1.14112  -1.14104  -1.14044
  Beta  occ. eigenvalues --   -1.13942  -1.13922  -1.13883  -1.13827  -1.13807
  Beta  occ. eigenvalues --   -1.13778  -1.13522  -1.13493  -1.13491  -1.13410
  Beta  occ. eigenvalues --   -1.13389  -1.13344  -1.12518  -1.12489  -1.12469
  Beta  occ. eigenvalues --   -0.16584  -0.13200  -0.11379
  Beta virt. eigenvalues --   -0.07937  -0.05894  -0.05218  -0.04587  -0.03357
  Beta virt. eigenvalues --   -0.02549  -0.02148  -0.01380  -0.00850  -0.00585
  Beta virt. eigenvalues --   -0.00214  -0.00165   0.00414   0.00432   0.00482

 Mulliken charges and spin densities:
               1          2
     1  Na  -0.209573   0.282671
     2  Na   0.245817   0.169860
     3  Na   0.188393   0.144693
     4  Na  -0.398907   0.055995
     5  Na   0.569926   0.025791
     6  Na  -0.320364   0.212614
     7  Na  -0.075292   0.108376
 Sum of Mulliken charges =  -0.00000   1.00000

 Dipole moment (field-independent basis, Debye):
    X=              0.4251    Y=             -0.3663    Z=              0.0323  Tot=              0.5621
 Quadrupole moment (field-independent basis, Debye-Ang):
   XX=            -58.4251   YY=            -73.2956   ZZ=            -67.1706
   XY=             -0.4967   XZ=              0.4737   YZ=              0.9105

 Normal termination of Gaussian 16 at Tue Nov 28 22:10:56 2023.
