 Gaussian 16, Revision B.01,
 Gaussian 16:  ES64L-G16RevB.01 20-Dec-2017

 -------------------------
 #P B3LYP/6-311+g(d) force
 -------------------------

 -----
 DPGEN
 -----
 Symbolic Z-matrix:
 Charge =  0 Multiplicity = 2

                         Standard orientation:
 ---------------------------------------------------------------------
 Center     Atomic      Atomic             Coordinates (Angstroms)
 Number     Number       Type             X           Y           Z
 ---------------------------------------------------------------------
      1         11           0       -2.488612   -2.086857   -0.151006
      2         11           0       -2.989909    1.095112   -0.257177
      3         11           0        1.444849   -2.705172    0.386503
      4         11           0        0.484675    3.246663   -0.080319
      5         11           0        0.225323   -0.184378   -1.529451
      6         11           0        0.066892    0.504537    2.079349
      7         11           0        3.256782    0.130094   -0.447899
 ---------------------------------------------------------------------

 SCF Done:  E(UB3LYP) =  -1136.13445719     A.U. after   19 cycles

 The electronic state is 2-A.
 Alpha  occ. eigenvalues --  -38.44334 -38.44168 -38.43731 -38.43685 -38.43673
 Alpha  occ. eigenvalues --  -38.43537 -38.43347  -2.20158  -2.19985  -2.19549
 Alpha  occ. eigenvalues --   -2.19509  -2.19457  -2.19390  -2.19285  -1.13852
 Alpha  occ. eigenvalues --   -1.13810  -1.13782  -1.13664  -1.13658  -1.13617
 Alpha  occ. eigenvalues --   -1.13219  -1.13210  -1.13196  -1.13185  -1.13172
 Alpha  occ. eigenvalues --   -1.13144  -1.13137  -1.13121  -1.13102  -1.13056
 Alpha  occ. eigenvalues --   -1.13022  -1.12995  -1.12974  -1.12919  -1.12911
 Alpha  occ. eigenvalues --   -0.18069  -0.13096  -0.12209  -0.10437
 Alpha virt. eigenvalues --   -0.05846  -0.05212  -0.05097  -0.03121  -0.02828
 Alpha virt. eigenvalues --   -0.02368  -0.01712  -0.01313  -0.00680  -0.00633
 Alpha virt. eigenvalues --   -0.00026   0.00326   0.00757   0.00784   0.00842

  Beta  occ. eigenvalues --  -38.44318 -38.44163 -38.43730 -38.43675 -38.43674
  Beta  occ. eigenvalues --  -38.43442 -38.43299  -2.20132  -2.19976  -2.19550
  Beta  occ. eigenvalues --   -2.19493  -2.19460  -2.19215  -2.19197  -1.13825
  Beta  occ. eigenvalues --   -1.13782  -1.13768  -1.13661  -1.13639  -1.13609
  Beta  occ. eigenvalues --   -1.13213  -1.13213  -1.13185  -1.13176  -1.13148
  Beta  occ. eigenvalues --   -1.13128  -1.13124  -1.13120  -1.13103  -1.12946
  Beta  occ. eigenvalues --   -1.12904  -1.12902  -1.12869  -1.12853  -1.12849
  Beta  occ. eigenvalues --   -0.17392  -0.12851  -0.12015
  Beta virt. eigenvalues --   -0.06613  -0.05773  -0.05202  -0.04965  -0.02413
  Beta virt. eigenvalues --   -0.02138  -0.01599  -0.01395  -0.01216  -0.00688
  Beta virt. eigenvalues --   -0.00659   0.00132   0.00379   0.00786   0.00815

 Mulliken charges and spin densities:
               1          2
     1  Na   0.055467   0.001943
     2  Na   0.110941  -0.043094
     3  Na   0.032356   0.094180
     4  Na   0.013225  -0.119459
     5  Na  -0.075077   0.329022
     6  Na  -0.385311   0.736720
     7  Na   0.248399   0.000689
 Sum of Mulliken charges =  -0.00000   1.00000

 Dipole moment (field-independent basis, Debye):
    X=              0.1531    Y=              0.0761    Z=              0.0360  Tot=              0.1747
 Quadrupole moment (field-independent basis, Debye-Ang):
   XX=            -56.6537   YY=            -60.5770   ZZ=            -75.9234
   XY=             -0.1142   XZ=              0.1219   YZ=             -1.8692

 Normal termination of Gaussian 16 at Thu Dec  7 14:39:03 2023.
