 Gaussian 16, Revision B.01,
 Gaussian 16:  ES64L-G16RevB.01 20-Dec-2017

 -------------------------
 #P B3LYP/6-311+g(d) force
 -------------------------

 -----
 DPGEN
 -----
 Symbolic Z-matrix:
 Charge =  0 Multiplicity = 2

                         Standard orientation:
 ---------------------------------------------------------------------
 Center     Atomic      Atomic             Coordinates (Angstroms)
 Number     Number       Type             X           Y           Z
 ---------------------------------------------------------------------
      1         11           0       -0.753274   -2.645763    0.048392
      2         11           0       -3.094258   -0.318876   -0.198440
      3         11           0       -0.265172   -0.281609    1.861751
      4         11           0        2.032297    1.956180    0.416855
      5         11           0       -1.077273    2.636787   -0.102213
      6         11           0        0.280848    0.121365   -1.844497
      7         11           0        2.876832   -1.468083   -0.181849
 ---------------------------------------------------------------------

 SCF Done:  E(UB3LYP) =  -1136.13878266     A.U. after   19 cycles

 The electronic state is 2-A.
 Alpha  occ. eigenvalues --  -38.43888 -38.43823 -38.43503 -38.43458 -38.43419
 Alpha  occ. eigenvalues --  -38.43380 -38.43140  -2.19737  -2.19635  -2.19418
 Alpha  occ. eigenvalues --   -2.19389  -2.19327  -2.19320  -2.19024  -1.13409
 Alpha  occ. eigenvalues --   -1.13406  -1.13384  -1.13312  -1.13294  -1.13279
 Alpha  occ. eigenvalues --   -1.13197  -1.13106  -1.13071  -1.13047  -1.13028
 Alpha  occ. eigenvalues --   -1.13013  -1.13007  -1.12983  -1.12949  -1.12942
 Alpha  occ. eigenvalues --   -1.12937  -1.12916  -1.12695  -1.12682  -1.12658
 Alpha  occ. eigenvalues --   -0.18928  -0.13042  -0.12561  -0.10886
 Alpha virt. eigenvalues --   -0.05529  -0.05032  -0.04627  -0.03282  -0.02958
 Alpha virt. eigenvalues --   -0.02579  -0.01507  -0.01026  -0.00202  -0.00145
 Alpha virt. eigenvalues --   -0.00004   0.00364   0.00838   0.00908   0.00928

  Beta  occ. eigenvalues --  -38.43884 -38.43821 -38.43492 -38.43411 -38.43377
  Beta  occ. eigenvalues --  -38.43303 -38.43135  -2.19732  -2.19633  -2.19372
  Beta  occ. eigenvalues --   -2.19312  -2.19266  -2.19185  -2.19019  -1.13408
  Beta  occ. eigenvalues --   -1.13395  -1.13368  -1.13300  -1.13288  -1.13278
  Beta  occ. eigenvalues --   -1.13133  -1.13081  -1.13024  -1.13013  -1.12973
  Beta  occ. eigenvalues --   -1.12952  -1.12930  -1.12906  -1.12903  -1.12875
  Beta  occ. eigenvalues --   -1.12857  -1.12837  -1.12689  -1.12661  -1.12646
  Beta  occ. eigenvalues --   -0.18180  -0.12805  -0.12303
  Beta virt. eigenvalues --   -0.06970  -0.05492  -0.05015  -0.04594  -0.02474
  Beta virt. eigenvalues --   -0.02181  -0.01542  -0.01411  -0.00951  -0.00247
  Beta virt. eigenvalues --   -0.00182   0.00116   0.00380   0.00889   0.00903

 Mulliken charges and spin densities:
               1          2
     1  Na   0.280685  -0.100369
     2  Na   0.085466  -0.062163
     3  Na  -0.312735   0.609038
     4  Na   0.137920  -0.005554
     5  Na   0.134395  -0.064426
     6  Na  -0.399670   0.727905
     7  Na   0.073939  -0.104433
 Sum of Mulliken charges =  -0.00000   1.00000

 Dipole moment (field-independent basis, Debye):
    X=              0.0109    Y=             -0.1348    Z=             -0.0333  Tot=              0.1393
 Quadrupole moment (field-independent basis, Debye-Ang):
   XX=            -56.6276   YY=            -63.7590   ZZ=            -73.4065
   XY=             -0.6987   XZ=              1.2872   YZ=              0.9386

 Normal termination of Gaussian 16 at Tue Dec  5 19:00:57 2023.
