 Gaussian 16, Revision B.01,
 Gaussian 16:  ES64L-G16RevB.01 20-Dec-2017

 -------------------------
 #P B3LYP/6-311+g(d) force
 -------------------------

 -----
 DPGEN
 -----
 Symbolic Z-matrix:
 Charge =  0 Multiplicity = 2

                         Standard orientation:
 ---------------------------------------------------------------------
 Center     Atomic      Atomic             Coordinates (Angstroms)
 Number     Number       Type             X           Y           Z
 ---------------------------------------------------------------------
      1         11           0        1.353069    0.767632    1.760154
      2         11           0        3.088309   -1.391519   -0.193801
      3         11           0       -0.685317   -2.571319    0.637696
      4         11           0       -1.391578    1.847112    1.225102
      5         11           0        0.562846    2.804295   -1.318028
      6         11           0       -3.508547   -0.815450   -0.569134
      7         11           0        0.581218   -0.640751   -1.541988
 ---------------------------------------------------------------------

 SCF Done:  E(UB3LYP) =  -1136.12692291     A.U. after   20 cycles

 The electronic state is 2-A.
 Alpha  occ. eigenvalues --  -38.44133 -38.44047 -38.44036 -38.43826 -38.43602
 Alpha  occ. eigenvalues --  -38.43545 -38.43504  -2.19953  -2.19898  -2.19812
 Alpha  occ. eigenvalues --   -2.19663  -2.19526  -2.19515  -2.19383  -1.13682
 Alpha  occ. eigenvalues --   -1.13660  -1.13625  -1.13556  -1.13552  -1.13512
 Alpha  occ. eigenvalues --   -1.13484  -1.13472  -1.13443  -1.13342  -1.13317
 Alpha  occ. eigenvalues --   -1.13312  -1.13286  -1.13183  -1.13153  -1.13142
 Alpha  occ. eigenvalues --   -1.13135  -1.13131  -1.13032  -1.13019  -1.12974
 Alpha  occ. eigenvalues --   -0.18274  -0.12739  -0.12467  -0.11158
 Alpha virt. eigenvalues --   -0.05883  -0.04889  -0.04644  -0.03499  -0.03046
 Alpha virt. eigenvalues --   -0.02680  -0.01671  -0.01004  -0.00602   0.00029
 Alpha virt. eigenvalues --    0.00141   0.00333   0.00632   0.00745   0.00826

  Beta  occ. eigenvalues --  -38.44127 -38.44049 -38.44033 -38.43780 -38.43535
  Beta  occ. eigenvalues --  -38.43494 -38.43481  -2.19943  -2.19895  -2.19815
  Beta  occ. eigenvalues --   -2.19579  -2.19425  -2.19404  -2.19344  -1.13673
  Beta  occ. eigenvalues --   -1.13648  -1.13607  -1.13548  -1.13543  -1.13506
  Beta  occ. eigenvalues --   -1.13481  -1.13475  -1.13444  -1.13279  -1.13254
  Beta  occ. eigenvalues --   -1.13243  -1.13220  -1.13117  -1.13076  -1.13068
  Beta  occ. eigenvalues --   -1.13063  -1.13053  -1.12991  -1.12973  -1.12942
  Beta  occ. eigenvalues --   -0.17570  -0.12561  -0.12290
  Beta virt. eigenvalues --   -0.07180  -0.05819  -0.04642  -0.04487  -0.02893
  Beta virt. eigenvalues --   -0.02572  -0.01724  -0.01627  -0.00871  -0.00324
  Beta virt. eigenvalues --    0.00079   0.00191   0.00374   0.00697   0.00851

 Mulliken charges and spin densities:
               1          2
     1  Na   0.025418   0.261607
     2  Na   0.417568   0.109225
     3  Na  -0.355576   0.140518
     4  Na   0.017715   0.229299
     5  Na  -0.348098   0.161008
     6  Na   0.073864  -0.091035
     7  Na   0.169109   0.189378
 Sum of Mulliken charges =  -0.00000   1.00000

 Dipole moment (field-independent basis, Debye):
    X=              0.1298    Y=             -0.1723    Z=             -0.0576  Tot=              0.2233
 Quadrupole moment (field-independent basis, Debye-Ang):
   XX=            -58.1677   YY=            -65.7896   ZZ=            -70.6499
   XY=             -2.2096   XZ=              0.8749   YZ=             -3.1124

 Normal termination of Gaussian 16 at Mon Dec  4 00:33:02 2023.
