 Gaussian 16, Revision B.01,
 Gaussian 16:  ES64L-G16RevB.01 20-Dec-2017

 -------------------------
 #P B3LYP/6-311+g(d) force
 -------------------------

 -----
 DPGEN
 -----
 Symbolic Z-matrix:
 Charge =  0 Multiplicity = 2

                         Standard orientation:
 ---------------------------------------------------------------------
 Center     Atomic      Atomic             Coordinates (Angstroms)
 Number     Number       Type             X           Y           Z
 ---------------------------------------------------------------------
      1         11           0       -1.406221    2.841279   -0.051441
      2         11           0       -0.578783   -2.806008   -0.135498
      3         11           0       -3.070546   -0.299483   -0.600948
      4         11           0        0.177909   -0.208769   -1.340356
      5         11           0        2.741103   -1.388693    0.135773
      6         11           0        2.795482    1.888086   -0.236445
      7         11           0       -0.658944   -0.026413    2.228916
 ---------------------------------------------------------------------

 SCF Done:  E(UB3LYP) =  -1136.13283840     A.U. after   19 cycles

 The electronic state is 2-A.
 Alpha  occ. eigenvalues --  -38.44153 -38.44021 -38.43926 -38.43773 -38.43680
 Alpha  occ. eigenvalues --  -38.43185 -38.43106  -2.20001  -2.19820  -2.19785
 Alpha  occ. eigenvalues --   -2.19562  -2.19536  -2.19142  -2.19080  -1.13688
 Alpha  occ. eigenvalues --   -1.13657  -1.13626  -1.13526  -1.13495  -1.13473
 Alpha  occ. eigenvalues --   -1.13462  -1.13438  -1.13386  -1.13237  -1.13228
 Alpha  occ. eigenvalues --   -1.13203  -1.13190  -1.13166  -1.13143  -1.12967
 Alpha  occ. eigenvalues --   -1.12809  -1.12771  -1.12720  -1.12691  -1.12670
 Alpha  occ. eigenvalues --   -0.18441  -0.13244  -0.12205  -0.10621
 Alpha virt. eigenvalues --   -0.05804  -0.05356  -0.04691  -0.03175  -0.02689
 Alpha virt. eigenvalues --   -0.02521  -0.01640  -0.01155  -0.00703  -0.00406
 Alpha virt. eigenvalues --   -0.00034   0.00321   0.00755   0.00816   0.00862

  Beta  occ. eigenvalues --  -38.44134 -38.44021 -38.43924 -38.43772 -38.43572
  Beta  occ. eigenvalues --  -38.43178 -38.43064  -2.19969  -2.19822  -2.19783
  Beta  occ. eigenvalues --   -2.19562  -2.19336  -2.19081  -2.19058  -1.13659
  Beta  occ. eigenvalues --   -1.13624  -1.13603  -1.13527  -1.13488  -1.13471
  Beta  occ. eigenvalues --   -1.13463  -1.13425  -1.13387  -1.13229  -1.13216
  Beta  occ. eigenvalues --   -1.13206  -1.13058  -1.13030  -1.13001  -1.12936
  Beta  occ. eigenvalues --   -1.12748  -1.12719  -1.12693  -1.12678  -1.12635
  Beta  occ. eigenvalues --   -0.17749  -0.13029  -0.12008
  Beta virt. eigenvalues --   -0.06643  -0.05754  -0.05305  -0.04649  -0.02475
  Beta virt. eigenvalues --   -0.01955  -0.01591  -0.01403  -0.01088  -0.00716
  Beta virt. eigenvalues --   -0.00446   0.00156   0.00377   0.00816   0.00838

 Mulliken charges and spin densities:
               1          2
     1  Na  -0.033183  -0.022327
     2  Na   0.399889   0.117693
     3  Na   0.343086   0.070346
     4  Na  -0.334765   0.058897
     5  Na   0.196178   0.069559
     6  Na   0.038900  -0.027266
     7  Na  -0.610105   0.733098
 Sum of Mulliken charges =  -0.00000   1.00000

 Dipole moment (field-independent basis, Debye):
    X=              0.0192    Y=              0.1448    Z=              0.1751  Tot=              0.2280
 Quadrupole moment (field-independent basis, Debye-Ang):
   XX=            -56.1635   YY=            -61.7106   ZZ=            -75.3255
   XY=              0.3283   XZ=              1.8170   YZ=             -0.6394

 Normal termination of Gaussian 16 at Fri Dec  8 01:39:42 2023.
