 Gaussian 16, Revision B.01,
 Gaussian 16:  ES64L-G16RevB.01 20-Dec-2017

 -------------------------
 #P B3LYP/6-311+g(d) force
 -------------------------

 -----
 DPGEN
 -----
 Symbolic Z-matrix:
 Charge =  0 Multiplicity = 2

                         Standard orientation:
 ---------------------------------------------------------------------
 Center     Atomic      Atomic             Coordinates (Angstroms)
 Number     Number       Type             X           Y           Z
 ---------------------------------------------------------------------
      1         11           0       -3.498506   -1.013782   -0.034381
      2         11           0       -0.258776   -0.138853   -1.563496
      3         11           0        0.006206   -2.863059   -0.123389
      4         11           0        3.213566   -1.232566    0.237509
      5         11           0        0.493190    0.484541    2.020353
      6         11           0        2.117781    2.394149   -0.810354
      7         11           0       -2.073460    2.369569    0.273759
 ---------------------------------------------------------------------

 SCF Done:  E(UB3LYP) =  -1136.13052122     A.U. after   19 cycles

 The electronic state is 2-A.
 Alpha  occ. eigenvalues --  -38.44696 -38.44587 -38.43957 -38.43807 -38.43719
 Alpha  occ. eigenvalues --  -38.43378 -38.43316  -2.20456  -2.20367  -2.19750
 Alpha  occ. eigenvalues --   -2.19601  -2.19563  -2.19305  -2.19152  -1.14138
 Alpha  occ. eigenvalues --   -1.14105  -1.14099  -1.14042  -1.14014  -1.14014
 Alpha  occ. eigenvalues --   -1.13428  -1.13422  -1.13379  -1.13275  -1.13251
 Alpha  occ. eigenvalues --   -1.13239  -1.13236  -1.13194  -1.13176  -1.13053
 Alpha  occ. eigenvalues --   -1.12973  -1.12910  -1.12820  -1.12813  -1.12752
 Alpha  occ. eigenvalues --   -0.17852  -0.12964  -0.12094  -0.10408
 Alpha virt. eigenvalues --   -0.06242  -0.05666  -0.04517  -0.03116  -0.02785
 Alpha virt. eigenvalues --   -0.02299  -0.02022  -0.01511  -0.00702  -0.00475
 Alpha virt. eigenvalues --   -0.00082   0.00277   0.00657   0.00746   0.00793

  Beta  occ. eigenvalues --  -38.44700 -38.44582 -38.43950 -38.43775 -38.43640
  Beta  occ. eigenvalues --  -38.43322 -38.43312  -2.20464  -2.20360  -2.19740
  Beta  occ. eigenvalues --   -2.19544  -2.19417  -2.19205  -2.19148  -1.14139
  Beta  occ. eigenvalues --   -1.14110  -1.14103  -1.14022  -1.14012  -1.14008
  Beta  occ. eigenvalues --   -1.13417  -1.13401  -1.13375  -1.13223  -1.13206
  Beta  occ. eigenvalues --   -1.13200  -1.13139  -1.13096  -1.13067  -1.12997
  Beta  occ. eigenvalues --   -1.12905  -1.12839  -1.12801  -1.12790  -1.12745
  Beta  occ. eigenvalues --   -0.17199  -0.12772  -0.11815
  Beta virt. eigenvalues --   -0.06653  -0.06147  -0.05577  -0.04402  -0.02518
  Beta virt. eigenvalues --   -0.02104  -0.01927  -0.01403  -0.01327  -0.00703
  Beta virt. eigenvalues --   -0.00478   0.00085   0.00325   0.00740   0.00759

 Mulliken charges and spin densities:
               1          2
     1  Na  -0.060418  -0.080650
     2  Na   0.215208   0.442983
     3  Na  -0.078020  -0.102398
     4  Na   0.145170   0.033320
     5  Na  -0.234622   0.646059
     6  Na  -0.063876   0.071742
     7  Na   0.076558  -0.011059
 Sum of Mulliken charges =  -0.00000   1.00000

 Dipole moment (field-independent basis, Debye):
    X=             -0.1388    Y=             -0.0690    Z=              0.1941  Tot=              0.2484
 Quadrupole moment (field-independent basis, Debye-Ang):
   XX=            -51.0259   YY=            -64.9414   ZZ=            -76.1033
   XY=             -0.1221   XZ=             -1.0661   YZ=             -1.4440

 Normal termination of Gaussian 16 at Fri Dec  8 00:13:31 2023.
