 Gaussian 16, Revision B.01,
 Gaussian 16:  ES64L-G16RevB.01 20-Dec-2017

 -------------------------
 #P B3LYP/6-311+g(d) force
 -------------------------

 -----
 DPGEN
 -----
 Symbolic Z-matrix:
 Charge =  0 Multiplicity = 2

                         Standard orientation:
 ---------------------------------------------------------------------
 Center     Atomic      Atomic             Coordinates (Angstroms)
 Number     Number       Type             X           Y           Z
 ---------------------------------------------------------------------
      1         11           0       -3.494690    0.327771   -0.278564
      2         11           0        2.711135   -1.035974   -1.139737
      3         11           0       -0.614943    0.254574   -1.730645
      4         11           0        2.063819    2.183266   -0.173658
      5         11           0       -0.973012   -2.001715   -0.005769
      6         11           0        1.358220   -0.853996    2.034905
      7         11           0       -1.050529    1.126073    1.293469
 ---------------------------------------------------------------------

 SCF Done:  E(UB3LYP) =  -1136.12226525     A.U. after   24 cycles

 The electronic state is 2-A.
 Alpha  occ. eigenvalues --  -38.44657 -38.44558 -38.44193 -38.43780 -38.43508
 Alpha  occ. eigenvalues --  -38.42699 -38.42631  -2.20554  -2.20396  -2.20210
 Alpha  occ. eigenvalues --   -2.19692  -2.19524  -2.18603  -2.18535  -1.14265
 Alpha  occ. eigenvalues --   -1.14223  -1.14170  -1.14078  -1.14051  -1.14011
 Alpha  occ. eigenvalues --   -1.13969  -1.13849  -1.13792  -1.13423  -1.13314
 Alpha  occ. eigenvalues --   -1.13301  -1.13206  -1.13169  -1.13116  -1.12349
 Alpha  occ. eigenvalues --   -1.12268  -1.12204  -1.12198  -1.12189  -1.12167
 Alpha  occ. eigenvalues --   -0.19361  -0.13934  -0.12048  -0.11008
 Alpha virt. eigenvalues --   -0.06267  -0.04732  -0.04336  -0.03335  -0.02734
 Alpha virt. eigenvalues --   -0.02654  -0.02123  -0.00707  -0.00469   0.00182
 Alpha virt. eigenvalues --    0.00296   0.00363   0.00556   0.00874   0.00945

  Beta  occ. eigenvalues --  -38.44653 -38.44530 -38.44137 -38.43716 -38.43452
  Beta  occ. eigenvalues --  -38.42700 -38.42617  -2.20549  -2.20346  -2.20109
  Beta  occ. eigenvalues --   -2.19576  -2.19426  -2.18584  -2.18539  -1.14260
  Beta  occ. eigenvalues --   -1.14205  -1.14169  -1.14031  -1.14019  -1.13977
  Beta  occ. eigenvalues --   -1.13908  -1.13767  -1.13715  -1.13327  -1.13235
  Beta  occ. eigenvalues --   -1.13220  -1.13146  -1.13083  -1.13040  -1.12334
  Beta  occ. eigenvalues --   -1.12217  -1.12205  -1.12196  -1.12181  -1.12161
  Beta  occ. eigenvalues --   -0.18563  -0.13700  -0.10810
  Beta virt. eigenvalues --   -0.07920  -0.06119  -0.04487  -0.03872  -0.02902
  Beta virt. eigenvalues --   -0.02108  -0.02052  -0.01877  -0.00496  -0.00264
  Beta virt. eigenvalues --    0.00229   0.00332   0.00446   0.00607   0.00918

 Mulliken charges and spin densities:
               1          2
     1  Na   0.850109   0.018130
     2  Na   0.012727   0.011624
     3  Na  -0.173187   0.527036
     4  Na  -0.270057  -0.033473
     5  Na  -0.415767  -0.040358
     6  Na   0.381952   0.219809
     7  Na  -0.385777   0.297233
 Sum of Mulliken charges =  -0.00000   1.00000

 Dipole moment (field-independent basis, Debye):
    X=             -0.3605    Y=             -0.2972    Z=             -0.2353  Tot=              0.5231
 Quadrupole moment (field-independent basis, Debye-Ang):
   XX=            -50.0362   YY=            -77.4435   ZZ=            -66.0826
   XY=             -1.7267   XZ=             -0.1887   YZ=              1.9858

 Normal termination of Gaussian 16 at Sat Dec  9 07:20:52 2023.
