 Gaussian 16, Revision B.01,
 Gaussian 16:  ES64L-G16RevB.01 20-Dec-2017

 -------------------------
 #P B3LYP/6-311+g(d) force
 -------------------------

 -----
 DPGEN
 -----
 Symbolic Z-matrix:
 Charge =  0 Multiplicity = 2

                         Standard orientation:
 ---------------------------------------------------------------------
 Center     Atomic      Atomic             Coordinates (Angstroms)
 Number     Number       Type             X           Y           Z
 ---------------------------------------------------------------------
      1         11           0        3.158686    0.132183    0.131923
      2         11           0        0.880801    3.079348    0.081695
      3         11           0       -2.740009    1.784980   -0.087634
      4         11           0       -0.119031   -0.239192    1.862737
      5         11           0       -0.280673    0.231562   -1.715345
      6         11           0        1.818485   -2.592939   -0.381686
      7         11           0       -2.718259   -2.395941    0.108311
 ---------------------------------------------------------------------

 SCF Done:  E(UB3LYP) =  -1136.13079282     A.U. after   21 cycles

 The electronic state is 2-A.
 Alpha  occ. eigenvalues --  -38.44642 -38.44438 -38.43889 -38.43881 -38.43702
 Alpha  occ. eigenvalues --  -38.43480 -38.43419  -2.20432  -2.20177  -2.19731
 Alpha  occ. eigenvalues --   -2.19717  -2.19499  -2.19341  -2.19311  -1.14123
 Alpha  occ. eigenvalues --   -1.14096  -1.14051  -1.13854  -1.13836  -1.13817
 Alpha  occ. eigenvalues --   -1.13510  -1.13395  -1.13381  -1.13366  -1.13352
 Alpha  occ. eigenvalues --   -1.13301  -1.13178  -1.13161  -1.13138  -1.13038
 Alpha  occ. eigenvalues --   -1.12990  -1.12974  -1.12949  -1.12943  -1.12928
 Alpha  occ. eigenvalues --   -0.17953  -0.13033  -0.12138  -0.10203
 Alpha virt. eigenvalues --   -0.06128  -0.05610  -0.04893  -0.03112  -0.02693
 Alpha virt. eigenvalues --   -0.02233  -0.01757  -0.01629  -0.00762  -0.00703
 Alpha virt. eigenvalues --   -0.00029   0.00324   0.00693   0.00732   0.00830

  Beta  occ. eigenvalues --  -38.44636 -38.44439 -38.43879 -38.43877 -38.43698
  Beta  occ. eigenvalues --  -38.43399 -38.43353  -2.20424  -2.20181  -2.19725
  Beta  occ. eigenvalues --   -2.19702  -2.19495  -2.19193  -2.19188  -1.14106
  Beta  occ. eigenvalues --   -1.14082  -1.14048  -1.13844  -1.13840  -1.13821
  Beta  occ. eigenvalues --   -1.13506  -1.13380  -1.13367  -1.13347  -1.13336
  Beta  occ. eigenvalues --   -1.13294  -1.13171  -1.13150  -1.13131  -1.12942
  Beta  occ. eigenvalues --   -1.12898  -1.12873  -1.12854  -1.12842  -1.12837
  Beta  occ. eigenvalues --   -0.17257  -0.12804  -0.11939
  Beta virt. eigenvalues --   -0.06468  -0.06062  -0.05482  -0.04858  -0.02374
  Beta virt. eigenvalues --   -0.02037  -0.01672  -0.01539  -0.01224  -0.00817
  Beta virt. eigenvalues --   -0.00717   0.00120   0.00364   0.00701   0.00798

 Mulliken charges and spin densities:
               1          2
     1  Na   0.111061   0.002867
     2  Na   0.005354  -0.066712
     3  Na   0.106525  -0.138533
     4  Na  -0.213477   0.776698
     5  Na  -0.018314   0.583273
     6  Na   0.085057  -0.016861
     7  Na  -0.076206  -0.140732
 Sum of Mulliken charges =  -0.00000   1.00000

 Dipole moment (field-independent basis, Debye):
    X=             -0.4863    Y=              0.0650    Z=              0.0107  Tot=              0.4908
 Quadrupole moment (field-independent basis, Debye-Ang):
   XX=            -55.8468   YY=            -59.2257   ZZ=            -77.3093
   XY=              0.1899   XZ=             -0.1409   YZ=              1.3777

 Normal termination of Gaussian 16 at Wed Nov 29 16:53:52 2023.
