 Gaussian 16, Revision B.01,
 Gaussian 16:  ES64L-G16RevB.01 20-Dec-2017

 -------------------------
 #P B3LYP/6-311+g(d) force
 -------------------------

 -----
 DPGEN
 -----
 Symbolic Z-matrix:
 Charge =  0 Multiplicity = 2

                         Standard orientation:
 ---------------------------------------------------------------------
 Center     Atomic      Atomic             Coordinates (Angstroms)
 Number     Number       Type             X           Y           Z
 ---------------------------------------------------------------------
      1         11           0       -2.140171   -1.983488   -0.095540
      2         11           0       -4.565426    0.725645    0.156558
      3         11           0        1.889681    2.608550   -0.450468
      4         11           0        0.805192   -0.742636    1.425596
      5         11           0        1.277973   -1.882705   -1.215853
      6         11           0        4.086588   -0.208034    0.369597
      7         11           0       -1.353837    1.482669   -0.189890
 ---------------------------------------------------------------------

 SCF Done:  E(UB3LYP) =  -1136.12389612     A.U. after   23 cycles

 The electronic state is 2-A.
 Alpha  occ. eigenvalues --  -38.44977 -38.44450 -38.43960 -38.43800 -38.43581
 Alpha  occ. eigenvalues --  -38.43434 -38.42958  -2.20908  -2.20317  -2.19801
 Alpha  occ. eigenvalues --   -2.19646  -2.19415  -2.19239  -2.18844  -1.14679
 Alpha  occ. eigenvalues --   -1.14571  -1.14499  -1.14007  -1.13974  -1.13917
 Alpha  occ. eigenvalues --   -1.13507  -1.13482  -1.13400  -1.13313  -1.13275
 Alpha  occ. eigenvalues --   -1.13262  -1.13066  -1.13057  -1.13033  -1.12920
 Alpha  occ. eigenvalues --   -1.12898  -1.12873  -1.12549  -1.12526  -1.12452
 Alpha  occ. eigenvalues --   -0.18034  -0.14208  -0.11886  -0.10503
 Alpha virt. eigenvalues --   -0.06687  -0.05614  -0.04146  -0.03505  -0.02958
 Alpha virt. eigenvalues --   -0.02110  -0.01964  -0.01044  -0.00991  -0.00633
 Alpha virt. eigenvalues --   -0.00456   0.00049   0.00413   0.00605   0.00657

  Beta  occ. eigenvalues --  -38.44961 -38.44450 -38.43955 -38.43725 -38.43506
  Beta  occ. eigenvalues --  -38.43418 -38.42935  -2.20884  -2.20321  -2.19794
  Beta  occ. eigenvalues --   -2.19504  -2.19275  -2.19213  -2.18810  -1.14671
  Beta  occ. eigenvalues --   -1.14523  -1.14484  -1.14012  -1.13974  -1.13898
  Beta  occ. eigenvalues --   -1.13506  -1.13477  -1.13373  -1.13216  -1.13182
  Beta  occ. eigenvalues --   -1.13167  -1.12973  -1.12961  -1.12941  -1.12905
  Beta  occ. eigenvalues --   -1.12869  -1.12847  -1.12530  -1.12493  -1.12399
  Beta  occ. eigenvalues --   -0.17497  -0.13482  -0.11508
  Beta virt. eigenvalues --   -0.07057  -0.06562  -0.05527  -0.03603  -0.03066
  Beta virt. eigenvalues --   -0.02708  -0.01936  -0.01521  -0.00959  -0.00653
  Beta virt. eigenvalues --   -0.00346  -0.00063   0.00142   0.00534   0.00656

 Mulliken charges and spin densities:
               1          2
     1  Na   0.318033   0.044891
     2  Na   1.305079   0.498818
     3  Na  -0.017328  -0.214186
     4  Na  -0.173285  -0.031206
     5  Na   0.064223   0.027436
     6  Na   0.203057   0.512984
     7  Na  -1.699779   0.161263
 Sum of Mulliken charges =  -0.00000   1.00000

 Dipole moment (field-independent basis, Debye):
    X=              0.4353    Y=             -0.8592    Z=             -0.0955  Tot=              0.9678
 Quadrupole moment (field-independent basis, Debye-Ang):
   XX=            -67.6834   YY=            -72.6790   ZZ=            -63.0452
   XY=              3.6806   XZ=             -1.5626   YZ=              0.6338

 Normal termination of Gaussian 16 at Thu Dec  7 21:26:33 2023.
