 Gaussian 16, Revision B.01,
 Gaussian 16:  ES64L-G16RevB.01 20-Dec-2017

 -------------------------
 #P B3LYP/6-311+g(d) force
 -------------------------

 -----
 DPGEN
 -----
 Symbolic Z-matrix:
 Charge =  0 Multiplicity = 2

                         Standard orientation:
 ---------------------------------------------------------------------
 Center     Atomic      Atomic             Coordinates (Angstroms)
 Number     Number       Type             X           Y           Z
 ---------------------------------------------------------------------
      1         11           0        2.786624   -1.100042   -0.288245
      2         11           0       -1.118449    2.425820    0.259512
      3         11           0       -0.744407   -2.546603    0.364745
      4         11           0       -2.951726   -0.126555    0.095316
      5         11           0        0.965189    0.258876    2.436237
      6         11           0        1.621037    1.774468   -1.058113
      7         11           0       -0.558268   -0.685963   -1.809451
 ---------------------------------------------------------------------

 SCF Done:  E(UB3LYP) =  -1136.12918292     A.U. after   18 cycles

 The electronic state is 2-A.
 Alpha  occ. eigenvalues --  -38.44741 -38.43896 -38.43759 -38.43754 -38.43456
 Alpha  occ. eigenvalues --  -38.43387 -38.42861  -2.20571  -2.19898  -2.19666
 Alpha  occ. eigenvalues --   -2.19601  -2.19376  -2.19292  -2.18758  -1.14218
 Alpha  occ. eigenvalues --   -1.14197  -1.14192  -1.13679  -1.13553  -1.13533
 Alpha  occ. eigenvalues --   -1.13334  -1.13321  -1.13305  -1.13298  -1.13262
 Alpha  occ. eigenvalues --   -1.13236  -1.13066  -1.13029  -1.12997  -1.12979
 Alpha  occ. eigenvalues --   -1.12940  -1.12880  -1.12430  -1.12422  -1.12394
 Alpha  occ. eigenvalues --   -0.18924  -0.13137  -0.12250  -0.11846
 Alpha virt. eigenvalues --   -0.05410  -0.04573  -0.04421  -0.03860  -0.03338
 Alpha virt. eigenvalues --   -0.03299  -0.01189  -0.00607  -0.00271   0.00173
 Alpha virt. eigenvalues --    0.00272   0.00402   0.00778   0.00861   0.00946

  Beta  occ. eigenvalues --  -38.44642 -38.43842 -38.43758 -38.43751 -38.43428
  Beta  occ. eigenvalues --  -38.43380 -38.42856  -2.20386  -2.19802  -2.19664
  Beta  occ. eigenvalues --   -2.19599  -2.19327  -2.19282  -2.18754  -1.14092
  Beta  occ. eigenvalues --   -1.14073  -1.14060  -1.13618  -1.13495  -1.13465
  Beta  occ. eigenvalues --   -1.13329  -1.13310  -1.13301  -1.13285  -1.13240
  Beta  occ. eigenvalues --   -1.13235  -1.13034  -1.12983  -1.12966  -1.12957
  Beta  occ. eigenvalues --   -1.12917  -1.12874  -1.12424  -1.12421  -1.12372
  Beta  occ. eigenvalues --   -0.18170  -0.12922  -0.12060
  Beta virt. eigenvalues --   -0.07816  -0.05330  -0.04497  -0.04178  -0.03251
  Beta virt. eigenvalues --   -0.02531  -0.02297  -0.01134  -0.00555  -0.00028
  Beta virt. eigenvalues --    0.00147   0.00266   0.00447   0.00937   0.00986

 Mulliken charges and spin densities:
               1          2
     1  Na   0.203150   0.001612
     2  Na  -0.091826   0.087598
     3  Na   0.065672   0.139910
     4  Na   0.291035   0.048538
     5  Na  -0.602859   0.511043
     6  Na   0.257947   0.167946
     7  Na  -0.123118   0.043354
 Sum of Mulliken charges =  -0.00000   1.00000

 Dipole moment (field-independent basis, Debye):
    X=              0.2190    Y=             -0.2638    Z=              0.4228  Tot=              0.5443
 Quadrupole moment (field-independent basis, Debye-Ang):
   XX=            -61.4564   YY=            -69.6633   ZZ=            -66.3657
   XY=             -0.6341   XZ=             -1.4104   YZ=             -1.0430

 Normal termination of Gaussian 16 at Thu Dec  7 14:18:53 2023.
