 Gaussian 16, Revision B.01,
 Gaussian 16:  ES64L-G16RevB.01 20-Dec-2017

 -------------------------
 #P B3LYP/6-311+g(d) force
 -------------------------

 -----
 DPGEN
 -----
 Symbolic Z-matrix:
 Charge =  0 Multiplicity = 2

                         Standard orientation:
 ---------------------------------------------------------------------
 Center     Atomic      Atomic             Coordinates (Angstroms)
 Number     Number       Type             X           Y           Z
 ---------------------------------------------------------------------
      1         11           0       -3.325253    0.913543    0.057690
      2         11           0       -0.124131   -0.687905    1.964128
      3         11           0        2.901646    1.092527    0.598194
      4         11           0        2.604680   -1.864631   -0.632539
      5         11           0        0.005725    0.183160   -1.571917
      6         11           0       -2.058965   -2.257280   -0.172688
      7         11           0       -0.003701    2.620586   -0.242868
 ---------------------------------------------------------------------

 SCF Done:  E(UB3LYP) =  -1136.12643950     A.U. after   21 cycles

 The electronic state is 2-A.
 Alpha  occ. eigenvalues --  -38.45041 -38.44194 -38.43978 -38.43734 -38.43700
 Alpha  occ. eigenvalues --  -38.43428 -38.42805  -2.20829  -2.20054  -2.19808
 Alpha  occ. eigenvalues --   -2.19604  -2.19545  -2.19435  -2.18716  -1.14510
 Alpha  occ. eigenvalues --   -1.14479  -1.14468  -1.13738  -1.13715  -1.13701
 Alpha  occ. eigenvalues --   -1.13477  -1.13458  -1.13440  -1.13309  -1.13265
 Alpha  occ. eigenvalues --   -1.13253  -1.13224  -1.13215  -1.13176  -1.13175
 Alpha  occ. eigenvalues --   -1.13078  -1.13014  -1.12417  -1.12343  -1.12305
 Alpha  occ. eigenvalues --   -0.18565  -0.13624  -0.11849  -0.10636
 Alpha virt. eigenvalues --   -0.06430  -0.05478  -0.03956  -0.03480  -0.02707
 Alpha virt. eigenvalues --   -0.02344  -0.02138  -0.01224  -0.00438  -0.00143
 Alpha virt. eigenvalues --   -0.00018   0.00299   0.00690   0.00751   0.00790

  Beta  occ. eigenvalues --  -38.45041 -38.44181 -38.43960 -38.43698 -38.43657
  Beta  occ. eigenvalues --  -38.43364 -38.42799  -2.20832  -2.20032  -2.19777
  Beta  occ. eigenvalues --   -2.19544  -2.19460  -2.19320  -2.18709  -1.14503
  Beta  occ. eigenvalues --   -1.14481  -1.14469  -1.13723  -1.13695  -1.13673
  Beta  occ. eigenvalues --   -1.13448  -1.13433  -1.13416  -1.13257  -1.13203
  Beta  occ. eigenvalues --   -1.13184  -1.13176  -1.13162  -1.13128  -1.13099
  Beta  occ. eigenvalues --   -1.12999  -1.12932  -1.12400  -1.12320  -1.12300
  Beta  occ. eigenvalues --   -0.17866  -0.13422  -0.11595
  Beta virt. eigenvalues --   -0.06786  -0.06369  -0.05381  -0.03867  -0.02815
  Beta virt. eigenvalues --   -0.02054  -0.01981  -0.01372  -0.01068  -0.00473
  Beta virt. eigenvalues --   -0.00121   0.00107   0.00329   0.00761   0.00798

 Mulliken charges and spin densities:
               1          2
     1  Na   0.009967  -0.023707
     2  Na  -0.395446   0.515542
     3  Na   0.115205   0.162234
     4  Na   0.077168   0.025882
     5  Na  -0.201843   0.310938
     6  Na   0.198207  -0.054286
     7  Na   0.196741   0.063397
 Sum of Mulliken charges =  -0.00000   1.00000

 Dipole moment (field-independent basis, Debye):
    X=             -0.4814    Y=             -0.1706    Z=              0.3050  Tot=              0.5948
 Quadrupole moment (field-independent basis, Debye-Ang):
   XX=            -49.9165   YY=            -68.0901   ZZ=            -74.7358
   XY=             -0.8092   XZ=              0.5426   YZ=              2.9310

 Normal termination of Gaussian 16 at Tue Dec  5 20:21:52 2023.
