 Gaussian 16, Revision B.01,
 Gaussian 16:  ES64L-G16RevB.01 20-Dec-2017

 -------------------------
 #P B3LYP/6-311+g(d) force
 -------------------------

 -----
 DPGEN
 -----
 Symbolic Z-matrix:
 Charge =  0 Multiplicity = 2

                         Standard orientation:
 ---------------------------------------------------------------------
 Center     Atomic      Atomic             Coordinates (Angstroms)
 Number     Number       Type             X           Y           Z
 ---------------------------------------------------------------------
      1         11           0       -0.003700    0.297604    1.938520
      2         11           0        0.005291   -1.696026    0.265480
      3         11           0        1.443205    1.556098   -0.061420
      4         11           0        2.477705   -0.869607   -0.076220
      5         11           0       -0.000501    0.036704   -1.926720
      6         11           0       -2.472805   -0.876785   -0.078220
      7         11           0       -1.449195    1.552011   -0.061420
 ---------------------------------------------------------------------

 SCF Done:  E(UB3LYP) =  -1136.04956716     A.U. after   21 cycles

 The electronic state is 2-A.
 Alpha  occ. eigenvalues --  -38.45260 -38.44905 -38.44420 -38.44411 -38.43799
 Alpha  occ. eigenvalues --  -38.43613 -38.43603  -2.21513  -2.21145  -2.20550
 Alpha  occ. eigenvalues --   -2.20539  -2.20146  -2.19873  -2.19839  -1.15393
 Alpha  occ. eigenvalues --   -1.15220  -1.15098  -1.14972  -1.14810  -1.14797
 Alpha  occ. eigenvalues --   -1.14603  -1.14433  -1.14398  -1.14303  -1.14104
 Alpha  occ. eigenvalues --   -1.14088  -1.13725  -1.13684  -1.13655  -1.13522
 Alpha  occ. eigenvalues --   -1.13491  -1.13467  -1.13429  -1.13391  -1.13269
 Alpha  occ. eigenvalues --   -0.22277  -0.14325  -0.13075  -0.12362
 Alpha virt. eigenvalues --   -0.05456  -0.04244  -0.03955  -0.03893  -0.03140
 Alpha virt. eigenvalues --   -0.02898  -0.01203  -0.00265  -0.00252   0.00298
 Alpha virt. eigenvalues --    0.00781   0.00959   0.01117   0.01131   0.01248

  Beta  occ. eigenvalues --  -38.45154 -38.44801 -38.44412 -38.44403 -38.43771
  Beta  occ. eigenvalues --  -38.43594 -38.43585  -2.21321  -2.20958  -2.20541
  Beta  occ. eigenvalues --   -2.20531  -2.20107  -2.19849  -2.19815  -1.15274
  Beta  occ. eigenvalues --   -1.15082  -1.14961  -1.14863  -1.14688  -1.14675
  Beta  occ. eigenvalues --   -1.14571  -1.14427  -1.14391  -1.14298  -1.14051
  Beta  occ. eigenvalues --   -1.14036  -1.13673  -1.13648  -1.13602  -1.13510
  Beta  occ. eigenvalues --   -1.13422  -1.13401  -1.13384  -1.13376  -1.13263
  Beta  occ. eigenvalues --   -0.21367  -0.13907  -0.11997
  Beta virt. eigenvalues --   -0.08784  -0.05483  -0.03953  -0.03490  -0.03196
  Beta virt. eigenvalues --   -0.02230  -0.02179  -0.01111  -0.00247  -0.00061
  Beta virt. eigenvalues --    0.00320   0.00824   0.00958   0.01127   0.01187

 Mulliken charges and spin densities:
               1          2
     1  Na   0.267319   0.512152
     2  Na  -0.039508   0.017626
     3  Na  -0.128708  -0.017980
     4  Na  -0.105600  -0.009370
     5  Na   0.234331   0.522695
     6  Na  -0.103560  -0.008546
     7  Na  -0.124273  -0.016576
 Sum of Mulliken charges =  -0.00000   1.00000

 Dipole moment (field-independent basis, Debye):
    X=              0.0014    Y=              0.0462    Z=             -0.1050  Tot=              0.1148
 Quadrupole moment (field-independent basis, Debye-Ang):
   XX=            -59.0946   YY=            -75.3895   ZZ=            -64.6082
   XY=              0.0092   XZ=              0.0036   YZ=             -0.1706

 Normal termination of Gaussian 16 at Fri Dec  8 05:38:45 2023.
