 Gaussian 16, Revision B.01,
 Gaussian 16:  ES64L-G16RevB.01 20-Dec-2017

 -------------------------
 #P B3LYP/6-311+g(d) force
 -------------------------

 -----
 DPGEN
 -----
 Symbolic Z-matrix:
 Charge =  0 Multiplicity = 2

                         Standard orientation:
 ---------------------------------------------------------------------
 Center     Atomic      Atomic             Coordinates (Angstroms)
 Number     Number       Type             X           Y           Z
 ---------------------------------------------------------------------
      1         11           0        1.366819   -0.091210    2.049934
      2         11           0       -0.036289   -0.944946   -0.874960
      3         11           0        2.407680    1.832184   -0.622949
      4         11           0       -1.645351    2.371933    0.029117
      5         11           0       -3.446282   -0.710340   -1.527217
      6         11           0       -2.234923   -1.022190    1.707621
      7         11           0        3.588347   -1.435431   -0.761546
 ---------------------------------------------------------------------

 SCF Done:  E(UB3LYP) =  -1136.12271992     A.U. after   29 cycles

 The electronic state is 2-A.
 Alpha  occ. eigenvalues --  -38.44661 -38.44425 -38.44287 -38.44035 -38.43945
 Alpha  occ. eigenvalues --  -38.43708 -38.43374  -2.20510  -2.20282  -2.20114
 Alpha  occ. eigenvalues --   -2.19858  -2.19837  -2.19512  -2.19158  -1.14202
 Alpha  occ. eigenvalues --   -1.14153  -1.14126  -1.13990  -1.13927  -1.13885
 Alpha  occ. eigenvalues --   -1.13805  -1.13771  -1.13716  -1.13578  -1.13533
 Alpha  occ. eigenvalues --   -1.13505  -1.13498  -1.13495  -1.13426  -1.13187
 Alpha  occ. eigenvalues --   -1.13175  -1.13145  -1.12844  -1.12815  -1.12780
 Alpha  occ. eigenvalues --   -0.18117  -0.14180  -0.11464  -0.10481
 Alpha virt. eigenvalues --   -0.06215  -0.05559  -0.05422  -0.03185  -0.02560
 Alpha virt. eigenvalues --   -0.02390  -0.02117  -0.01169  -0.01015  -0.00377
 Alpha virt. eigenvalues --    0.00094   0.00166   0.00320   0.00340   0.00519

  Beta  occ. eigenvalues --  -38.44612 -38.44369 -38.44265 -38.44007 -38.43933
  Beta  occ. eigenvalues --  -38.43710 -38.43352  -2.20423  -2.20181  -2.20072
  Beta  occ. eigenvalues --   -2.19819  -2.19805  -2.19517  -2.19117  -1.14138
  Beta  occ. eigenvalues --   -1.14097  -1.14045  -1.13921  -1.13846  -1.13815
  Beta  occ. eigenvalues --   -1.13771  -1.13742  -1.13685  -1.13527  -1.13496
  Beta  occ. eigenvalues --   -1.13491  -1.13470  -1.13458  -1.13414  -1.13183
  Beta  occ. eigenvalues --   -1.13179  -1.13150  -1.12809  -1.12789  -1.12751
  Beta  occ. eigenvalues --   -0.17418  -0.13958  -0.10314
  Beta virt. eigenvalues --   -0.07571  -0.06033  -0.05478  -0.04751  -0.02785
  Beta virt. eigenvalues --   -0.02323  -0.01962  -0.01658  -0.00990  -0.00529
  Beta virt. eigenvalues --   -0.00257   0.00184   0.00283   0.00346   0.00447

 Mulliken charges and spin densities:
               1          2
     1  Na   0.069837   0.196757
     2  Na  -2.064119   0.358920
     3  Na   0.230083   0.063413
     4  Na  -0.429467   0.169136
     5  Na   1.098403   0.116602
     6  Na   0.315394   0.108420
     7  Na   0.779869  -0.013247
 Sum of Mulliken charges =  -0.00000   1.00000

 Dipole moment (field-independent basis, Debye):
    X=             -0.0610    Y=              0.1255    Z=              0.4153  Tot=              0.4382
 Quadrupole moment (field-independent basis, Debye-Ang):
   XX=            -51.4395   YY=            -76.7503   ZZ=            -66.9850
   XY=              0.7231   XZ=             -0.0210   YZ=             -4.5700

 Normal termination of Gaussian 16 at Thu Dec  7 05:25:24 2023.
