 Gaussian 16, Revision B.01,
 Gaussian 16:  ES64L-G16RevB.01 20-Dec-2017

 -------------------------
 #P B3LYP/6-311+g(d) force
 -------------------------

 -----
 DPGEN
 -----
 Symbolic Z-matrix:
 Charge =  0 Multiplicity = 2

                         Standard orientation:
 ---------------------------------------------------------------------
 Center     Atomic      Atomic             Coordinates (Angstroms)
 Number     Number       Type             X           Y           Z
 ---------------------------------------------------------------------
      1         11           0        2.866215   -1.904377   -0.369888
      2         11           0       -4.416965    1.582794   -0.295249
      3         11           0       -4.264081   -2.286465    0.133218
      4         11           0       -1.201490    2.952904   -0.375810
      5         11           0        2.400688    1.914826    0.992041
      6         11           0        5.425110   -0.028607   -0.413377
      7         11           0       -0.809477   -2.231075    0.329066
 ---------------------------------------------------------------------

 SCF Done:  E(UB3LYP) =  -1136.10868203     A.U. after   24 cycles

 The electronic state is 2-A.
 Alpha  occ. eigenvalues --  -38.45765 -38.44997 -38.44600 -38.44595 -38.44398
 Alpha  occ. eigenvalues --  -38.43907 -38.43797  -2.21510  -2.20808  -2.20360
 Alpha  occ. eigenvalues --   -2.20340  -2.20231  -2.19649  -2.19578  -1.15195
 Alpha  occ. eigenvalues --   -1.15177  -1.15106  -1.14489  -1.14475  -1.14454
 Alpha  occ. eigenvalues --   -1.14042  -1.14027  -1.14021  -1.14008  -1.13994
 Alpha  occ. eigenvalues --   -1.13973  -1.13888  -1.13871  -1.13839  -1.13342
 Alpha  occ. eigenvalues --   -1.13334  -1.13279  -1.13258  -1.13242  -1.13190
 Alpha  occ. eigenvalues --   -0.16031  -0.13968  -0.12171  -0.11068
 Alpha virt. eigenvalues --   -0.07611  -0.05428  -0.04404  -0.03658  -0.03216
 Alpha virt. eigenvalues --   -0.02637  -0.02293  -0.01652  -0.01170  -0.00900
 Alpha virt. eigenvalues --   -0.00411  -0.00341  -0.00086   0.00385   0.00514

  Beta  occ. eigenvalues --  -38.45713 -38.44962 -38.44623 -38.44580 -38.44328
  Beta  occ. eigenvalues --  -38.43923 -38.43752  -2.21416  -2.20750  -2.20391
  Beta  occ. eigenvalues --   -2.20319  -2.20102  -2.19679  -2.19496  -1.15132
  Beta  occ. eigenvalues --   -1.15112  -1.15026  -1.14457  -1.14431  -1.14368
  Beta  occ. eigenvalues --   -1.14062  -1.14048  -1.14015  -1.14012  -1.13996
  Beta  occ. eigenvalues --   -1.13956  -1.13795  -1.13783  -1.13758  -1.13364
  Beta  occ. eigenvalues --   -1.13356  -1.13289  -1.13202  -1.13187  -1.13130
  Beta  occ. eigenvalues --   -0.15213  -0.13849  -0.11976
  Beta virt. eigenvalues --   -0.07597  -0.07291  -0.04858  -0.03959  -0.03440
  Beta virt. eigenvalues --   -0.02892  -0.02461  -0.02143  -0.01275  -0.00921
  Beta virt. eigenvalues --   -0.00574  -0.00463  -0.00102   0.00196   0.00460

 Mulliken charges and spin densities:
               1          2
     1  Na  -0.346315  -0.065813
     2  Na   0.055005   0.136355
     3  Na   0.628389   0.239762
     4  Na  -0.172167  -0.046180
     5  Na  -0.288755   0.256317
     6  Na   0.570504   0.397020
     7  Na  -0.446662   0.082541
 Sum of Mulliken charges =  -0.00000   1.00000

 Dipole moment (field-independent basis, Debye):
    X=              0.9389    Y=              0.0476    Z=              0.0842  Tot=              0.9439
 Quadrupole moment (field-independent basis, Debye-Ang):
   XX=            -52.6969   YY=            -70.9196   ZZ=            -72.3858
   XY=              4.0536   XZ=              0.5708   YZ=              1.3023

 Normal termination of Gaussian 16 at Mon Dec  4 02:51:30 2023.
