 Gaussian 16, Revision B.01,
 Gaussian 16:  ES64L-G16RevB.01 20-Dec-2017

 -------------------------
 #P B3LYP/6-311+g(d) force
 -------------------------

 -----
 DPGEN
 -----
 Symbolic Z-matrix:
 Charge =  0 Multiplicity = 2

                         Standard orientation:
 ---------------------------------------------------------------------
 Center     Atomic      Atomic             Coordinates (Angstroms)
 Number     Number       Type             X           Y           Z
 ---------------------------------------------------------------------
      1         11           0        0.537990   -1.053616   -1.063562
      2         11           0        0.945540    1.777478    0.708996
      3         11           0       -4.060769   -1.130930   -0.892407
      4         11           0       -2.194191    2.382581    0.083854
      5         11           0        2.273291   -1.506519    1.302668
      6         11           0        3.843078    0.446324   -1.288950
      7         11           0       -1.344939   -0.915318    1.149401
 ---------------------------------------------------------------------

 SCF Done:  E(UB3LYP) =  -1136.11828775     A.U. after   23 cycles

 The electronic state is 2-A.
 Alpha  occ. eigenvalues --  -38.45043 -38.44517 -38.44458 -38.44262 -38.43358
 Alpha  occ. eigenvalues --  -38.43315 -38.42578  -2.21001  -2.20421  -2.20288
 Alpha  occ. eigenvalues --   -2.20056  -2.19318  -2.19132  -2.18486  -1.14780
 Alpha  occ. eigenvalues --   -1.14673  -1.14610  -1.14092  -1.14076  -1.14027
 Alpha  occ. eigenvalues --   -1.13948  -1.13920  -1.13895  -1.13717  -1.13693
 Alpha  occ. eigenvalues --   -1.13676  -1.13080  -1.12943  -1.12922  -1.12810
 Alpha  occ. eigenvalues --   -1.12800  -1.12765  -1.12194  -1.12161  -1.12091
 Alpha  occ. eigenvalues --   -0.18611  -0.14196  -0.11274  -0.11009
 Alpha virt. eigenvalues --   -0.06635  -0.05322  -0.04847  -0.03104  -0.02730
 Alpha virt. eigenvalues --   -0.02272  -0.01937  -0.01324  -0.00997  -0.00227
 Alpha virt. eigenvalues --   -0.00044   0.00210   0.00317   0.00565   0.00578

  Beta  occ. eigenvalues --  -38.45046 -38.44486 -38.44379 -38.44198 -38.43336
  Beta  occ. eigenvalues --  -38.43317 -38.42566  -2.21011  -2.20370  -2.20139
  Beta  occ. eigenvalues --   -2.19936  -2.19284  -2.19136  -2.18470  -1.14746
  Beta  occ. eigenvalues --   -1.14685  -1.14624  -1.14066  -1.14036  -1.13963
  Beta  occ. eigenvalues --   -1.13844  -1.13817  -1.13801  -1.13635  -1.13610
  Beta  occ. eigenvalues --   -1.13599  -1.13063  -1.12909  -1.12867  -1.12813
  Beta  occ. eigenvalues --   -1.12796  -1.12763  -1.12186  -1.12128  -1.12079
  Beta  occ. eigenvalues --   -0.17992  -0.13598  -0.10946
  Beta virt. eigenvalues --   -0.07511  -0.06376  -0.05202  -0.04164  -0.03000
  Beta virt. eigenvalues --   -0.02490  -0.01698  -0.01418  -0.01055  -0.00778
  Beta virt. eigenvalues --   -0.00067   0.00062   0.00323   0.00425   0.00644

 Mulliken charges and spin densities:
               1          2
     1  Na  -0.651153   0.052636
     2  Na  -0.704283   0.004509
     3  Na   0.228724   0.374818
     4  Na  -0.130767  -0.017532
     5  Na   0.563133   0.080909
     6  Na   0.400082   0.360578
     7  Na   0.294263   0.144082
 Sum of Mulliken charges =  -0.00000   1.00000

 Dipole moment (field-independent basis, Debye):
    X=              0.7557    Y=             -0.3981    Z=              0.0405  Tot=              0.8551
 Quadrupole moment (field-independent basis, Debye-Ang):
   XX=            -54.4426   YY=            -77.7437   ZZ=            -64.7326
   XY=             -3.1507   XZ=              3.6248   YZ=             -1.8739

 Normal termination of Gaussian 16 at Thu Dec  7 08:57:12 2023.
