 Gaussian 16, Revision B.01,
 Gaussian 16:  ES64L-G16RevB.01 20-Dec-2017

 -------------------------
 #P B3LYP/6-311+g(d) force
 -------------------------

 -----
 DPGEN
 -----
 Symbolic Z-matrix:
 Charge =  0 Multiplicity = 2

                         Standard orientation:
 ---------------------------------------------------------------------
 Center     Atomic      Atomic             Coordinates (Angstroms)
 Number     Number       Type             X           Y           Z
 ---------------------------------------------------------------------
      1         11           0       -2.683424    1.301951    0.007528
      2         11           0       -0.286171   -0.008846   -1.978586
      3         11           0        1.099648   -2.395175   -0.287605
      4         11           0        3.254793    0.325143   -0.119541
      5         11           0        0.178924    0.041954    2.458644
      6         11           0        0.353249    2.849082   -0.191511
      7         11           0       -1.917019   -2.114109    0.111072
 ---------------------------------------------------------------------

 SCF Done:  E(UB3LYP) =  -1136.13580168     A.U. after   18 cycles

 The electronic state is 2-A.
 Alpha  occ. eigenvalues --  -38.44717 -38.43958 -38.43803 -38.43546 -38.43458
 Alpha  occ. eigenvalues --  -38.43232 -38.43142  -2.20536  -2.19896  -2.19588
 Alpha  occ. eigenvalues --   -2.19395  -2.19286  -2.19129  -2.19053  -1.14181
 Alpha  occ. eigenvalues --   -1.14165  -1.14154  -1.13579  -1.13541  -1.13519
 Alpha  occ. eigenvalues --   -1.13258  -1.13253  -1.13235  -1.13073  -1.13059
 Alpha  occ. eigenvalues --   -1.13046  -1.12970  -1.12949  -1.12904  -1.12893
 Alpha  occ. eigenvalues --   -1.12780  -1.12773  -1.12732  -1.12693  -1.12640
 Alpha  occ. eigenvalues --   -0.18544  -0.12593  -0.12452  -0.11590
 Alpha virt. eigenvalues --   -0.05433  -0.04810  -0.04618  -0.03513  -0.03345
 Alpha virt. eigenvalues --   -0.03216  -0.01256  -0.00876  -0.00182  -0.00145
 Alpha virt. eigenvalues --    0.00021   0.00387   0.00778   0.00805   0.00881

  Beta  occ. eigenvalues --  -38.44609 -38.43888 -38.43806 -38.43543 -38.43455
  Beta  occ. eigenvalues --  -38.43227 -38.43134  -2.20337  -2.19768  -2.19595
  Beta  occ. eigenvalues --   -2.19393  -2.19282  -2.19124  -2.19042  -1.14050
  Beta  occ. eigenvalues --   -1.14025  -1.14013  -1.13498  -1.13446  -1.13427
  Beta  occ. eigenvalues --   -1.13259  -1.13249  -1.13241  -1.13071  -1.13050
  Beta  occ. eigenvalues --   -1.13036  -1.12958  -1.12937  -1.12905  -1.12893
  Beta  occ. eigenvalues --   -1.12775  -1.12746  -1.12715  -1.12668  -1.12638
  Beta  occ. eigenvalues --   -0.17760  -0.12398  -0.12263
  Beta virt. eigenvalues --   -0.07582  -0.05396  -0.04731  -0.04513  -0.02641
  Beta virt. eigenvalues --   -0.02511  -0.02323  -0.01182  -0.00807  -0.00209
  Beta virt. eigenvalues --   -0.00044   0.00033   0.00414   0.00911   0.00916

 Mulliken charges and spin densities:
               1          2
     1  Na   0.209279   0.016724
     2  Na  -0.128633   0.352832
     3  Na   0.230538   0.041641
     4  Na   0.045335  -0.089914
     5  Na  -0.660445   0.651276
     6  Na   0.056034  -0.050203
     7  Na   0.247894   0.077644
 Sum of Mulliken charges =  -0.00000   1.00000

 Dipole moment (field-independent basis, Debye):
    X=              0.0344    Y=              0.2581    Z=              0.2721  Tot=              0.3766
 Quadrupole moment (field-independent basis, Debye-Ang):
   XX=            -61.2754   YY=            -66.6530   ZZ=            -68.6306
   XY=              0.5881   XZ=             -0.8454   YZ=             -0.0952

 Normal termination of Gaussian 16 at Thu Dec  7 23:09:16 2023.
