 Gaussian 16, Revision B.01,
 Gaussian 16:  ES64L-G16RevB.01 20-Dec-2017

 -------------------------
 #P B3LYP/6-311+g(d) force
 -------------------------

 -----
 DPGEN
 -----
 Symbolic Z-matrix:
 Charge =  0 Multiplicity = 2

                         Standard orientation:
 ---------------------------------------------------------------------
 Center     Atomic      Atomic             Coordinates (Angstroms)
 Number     Number       Type             X           Y           Z
 ---------------------------------------------------------------------
      1         11           0       -4.344773   -1.275407    0.504229
      2         11           0       -1.501776   -1.228853   -0.990997
      3         11           0       -1.462749    0.912567    1.454958
      4         11           0       -2.949646    1.777423   -1.152955
      5         11           0        1.738463    0.057401    0.538790
      6         11           0        4.224124   -1.877245   -0.197770
      7         11           0        4.296358    1.634113   -0.156256
 ---------------------------------------------------------------------

 SCF Done:  E(UB3LYP) =  -1136.10051995     A.U. after   32 cycles

 The electronic state is 2-A.
 Alpha  occ. eigenvalues --  -38.45356 -38.45204 -38.44338 -38.44143 -38.43691
 Alpha  occ. eigenvalues --  -38.43104 -38.42559  -2.21189  -2.20973  -2.20221
 Alpha  occ. eigenvalues --   -2.20066  -2.19594  -2.18968  -2.18496  -1.14872
 Alpha  occ. eigenvalues --   -1.14834  -1.14780  -1.14676  -1.14654  -1.14606
 Alpha  occ. eigenvalues --   -1.13911  -1.13898  -1.13807  -1.13767  -1.13729
 Alpha  occ. eigenvalues --   -1.13662  -1.13285  -1.13271  -1.13213  -1.12628
 Alpha  occ. eigenvalues --   -1.12621  -1.12572  -1.12219  -1.12175  -1.12105
 Alpha  occ. eigenvalues --   -0.17562  -0.15223  -0.10477  -0.10393
 Alpha virt. eigenvalues --   -0.07012  -0.06473  -0.04290  -0.03403  -0.02678
 Alpha virt. eigenvalues --   -0.02103  -0.01549  -0.01421  -0.01146  -0.00889
 Alpha virt. eigenvalues --   -0.00608   0.00072   0.00102   0.00342   0.00409

  Beta  occ. eigenvalues --  -38.45298 -38.45255 -38.44261 -38.44095 -38.43704
  Beta  occ. eigenvalues --  -38.43033 -38.42559  -2.21079  -2.21072  -2.20081
  Beta  occ. eigenvalues --   -2.19983  -2.19626  -2.18835  -2.18498  -1.14802
  Beta  occ. eigenvalues --   -1.14757  -1.14742  -1.14726  -1.14719  -1.14653
  Beta  occ. eigenvalues --   -1.13821  -1.13801  -1.13712  -1.13702  -1.13654
  Beta  occ. eigenvalues --   -1.13582  -1.13298  -1.13261  -1.13240  -1.12537
  Beta  occ. eigenvalues --   -1.12526  -1.12481  -1.12201  -1.12179  -1.12111
  Beta  occ. eigenvalues --   -0.16889  -0.14996  -0.10255
  Beta virt. eigenvalues --   -0.07056  -0.06314  -0.06207  -0.04035  -0.03264
  Beta virt. eigenvalues --   -0.02509  -0.01569  -0.01437  -0.01059  -0.00814
  Beta virt. eigenvalues --   -0.00344  -0.00296   0.00130   0.00272   0.00394

 Mulliken charges and spin densities:
               1          2
     1  Na   0.120510   0.356298
     2  Na   0.145003   0.247584
     3  Na  -0.141531   0.122964
     4  Na   0.023134   0.357225
     5  Na  -1.756499  -0.111025
     6  Na   0.779931  -0.286732
     7  Na   0.829452   0.313687
 Sum of Mulliken charges =  -0.00000   1.00000

 Dipole moment (field-independent basis, Debye):
    X=              1.7297    Y=              0.2658    Z=             -0.5718  Tot=              1.8411
 Quadrupole moment (field-independent basis, Debye-Ang):
   XX=            -67.2557   YY=            -67.6457   ZZ=            -65.6048
   XY=             -3.0310   XZ=             -2.3989   YZ=             -1.0621

 Normal termination of Gaussian 16 at Fri Dec  8 19:34:12 2023.
