 Gaussian 16, Revision B.01,
 Gaussian 16:  ES64L-G16RevB.01 20-Dec-2017

 -------------------------
 #P B3LYP/6-311+g(d) force
 -------------------------

 -----
 DPGEN
 -----
 Symbolic Z-matrix:
 Charge =  0 Multiplicity = 2

                         Standard orientation:
 ---------------------------------------------------------------------
 Center     Atomic      Atomic             Coordinates (Angstroms)
 Number     Number       Type             X           Y           Z
 ---------------------------------------------------------------------
      1         11           0        0.255019   -2.980163    0.295073
      2         11           0        4.253114   -0.569167   -0.745328
      3         11           0        2.123040    1.943467   -0.414184
      4         11           0       -1.372170    3.321475   -0.392811
      5         11           0        0.818262   -0.400938    1.890968
      6         11           0       -3.057473    0.787404    0.688999
      7         11           0       -3.019792   -2.102078   -1.322717
 ---------------------------------------------------------------------

 SCF Done:  E(UB3LYP) =  -1136.11551171     A.U. after   20 cycles

 The electronic state is 2-A.
 Alpha  occ. eigenvalues --  -38.44613 -38.44562 -38.44365 -38.44250 -38.44235
 Alpha  occ. eigenvalues --  -38.44052 -38.43983  -2.20406  -2.20354  -2.20217
 Alpha  occ. eigenvalues --   -2.20053  -2.20036  -2.19841  -2.19772  -1.14065
 Alpha  occ. eigenvalues --   -1.14056  -1.14043  -1.14024  -1.14024  -1.13999
 Alpha  occ. eigenvalues --   -1.13945  -1.13859  -1.13832  -1.13744  -1.13729
 Alpha  occ. eigenvalues --   -1.13695  -1.13689  -1.13673  -1.13652  -1.13499
 Alpha  occ. eigenvalues --   -1.13485  -1.13461  -1.13438  -1.13434  -1.13411
 Alpha  occ. eigenvalues --   -0.16688  -0.13569  -0.12559  -0.10637
 Alpha virt. eigenvalues --   -0.06650  -0.06138  -0.03905  -0.03713  -0.03091
 Alpha virt. eigenvalues --   -0.02551  -0.01711  -0.01657  -0.01275  -0.00760
 Alpha virt. eigenvalues --   -0.00114   0.00077   0.00290   0.00471   0.00607

  Beta  occ. eigenvalues --  -38.44562 -38.44549 -38.44293 -38.44247 -38.44223
  Beta  occ. eigenvalues --  -38.43991 -38.43981  -2.20357  -2.20289  -2.20085
  Beta  occ. eigenvalues --   -2.20052  -2.20018  -2.19769  -2.19726  -1.14047
  Beta  occ. eigenvalues --   -1.14021  -1.13986  -1.13982  -1.13975  -1.13945
  Beta  occ. eigenvalues --   -1.13862  -1.13778  -1.13750  -1.13743  -1.13719
  Beta  occ. eigenvalues --   -1.13684  -1.13659  -1.13646  -1.13625  -1.13437
  Beta  occ. eigenvalues --   -1.13435  -1.13420  -1.13407  -1.13405  -1.13387
  Beta  occ. eigenvalues --   -0.16190  -0.12881  -0.12323
  Beta virt. eigenvalues --   -0.07201  -0.06502  -0.05900  -0.03637  -0.03376
  Beta virt. eigenvalues --   -0.02536  -0.02289  -0.01441  -0.01291  -0.01112
  Beta virt. eigenvalues --   -0.00688   0.00132   0.00256   0.00452   0.00510

 Mulliken charges and spin densities:
               1          2
     1  Na  -0.450485  -0.071094
     2  Na   0.259425   0.282379
     3  Na  -0.405634   0.069728
     4  Na   0.143905  -0.018383
     5  Na   0.567462   0.416681
     6  Na  -0.299067  -0.001473
     7  Na   0.184394   0.322162
 Sum of Mulliken charges =  -0.00000   1.00000

 Dipole moment (field-independent basis, Debye):
    X=              0.4659    Y=             -0.2013    Z=             -0.0783  Tot=              0.5135
 Quadrupole moment (field-independent basis, Debye-Ang):
   XX=            -67.1307   YY=            -64.3270   ZZ=            -69.5895
   XY=             -5.2891   XZ=             -1.0280   YZ=              1.9509

 Normal termination of Gaussian 16 at Sun Dec  3 19:04:03 2023.
