 Gaussian 16, Revision B.01,
 Gaussian 16:  ES64L-G16RevB.01 20-Dec-2017

 -------------------------
 #P B3LYP/6-311+g(d) force
 -------------------------

 -----
 DPGEN
 -----
 Symbolic Z-matrix:
 Charge =  0 Multiplicity = 2

                         Standard orientation:
 ---------------------------------------------------------------------
 Center     Atomic      Atomic             Coordinates (Angstroms)
 Number     Number       Type             X           Y           Z
 ---------------------------------------------------------------------
      1         11           0       -0.997742   -1.235879    1.897761
      2         11           0        2.863265   -0.812518    0.924010
      3         11           0        3.563673    2.423179   -0.529872
      4         11           0       -2.457048   -1.241421   -1.004116
      5         11           0       -3.764542    2.231094    0.063006
      6         11           0       -0.075894    1.068112   -0.083651
      7         11           0        0.868289   -2.432568   -1.267138
 ---------------------------------------------------------------------

 SCF Done:  E(UB3LYP) =  -1136.11973646     A.U. after   23 cycles

 The electronic state is 2-A.
 Alpha  occ. eigenvalues --  -38.44726 -38.44534 -38.44161 -38.44160 -38.44092
 Alpha  occ. eigenvalues --  -38.43822 -38.43534  -2.20462  -2.20351  -2.20038
 Alpha  occ. eigenvalues --   -2.20030  -2.19850  -2.19719  -2.19378  -1.14137
 Alpha  occ. eigenvalues --   -1.14137  -1.14085  -1.14046  -1.14025  -1.13963
 Alpha  occ. eigenvalues --   -1.13789  -1.13757  -1.13732  -1.13696  -1.13625
 Alpha  occ. eigenvalues --   -1.13607  -1.13520  -1.13515  -1.13476  -1.13395
 Alpha  occ. eigenvalues --   -1.13356  -1.13298  -1.13046  -1.13036  -1.12998
 Alpha  occ. eigenvalues --   -0.17991  -0.13421  -0.11689  -0.10392
 Alpha virt. eigenvalues --   -0.06896  -0.06007  -0.04449  -0.03175  -0.02520
 Alpha virt. eigenvalues --   -0.02308  -0.02104  -0.01678  -0.01134  -0.00351
 Alpha virt. eigenvalues --   -0.00268   0.00100   0.00125   0.00441   0.00627

  Beta  occ. eigenvalues --  -38.44732 -38.44525 -38.44146 -38.44130 -38.44085
  Beta  occ. eigenvalues --  -38.43741 -38.43493  -2.20473  -2.20337  -2.20014
  Beta  occ. eigenvalues --   -2.19975  -2.19837  -2.19571  -2.19303  -1.14146
  Beta  occ. eigenvalues --   -1.14140  -1.14093  -1.14035  -1.14009  -1.13945
  Beta  occ. eigenvalues --   -1.13749  -1.13716  -1.13683  -1.13671  -1.13610
  Beta  occ. eigenvalues --   -1.13563  -1.13510  -1.13506  -1.13469  -1.13294
  Beta  occ. eigenvalues --   -1.13248  -1.13197  -1.12995  -1.12971  -1.12949
  Beta  occ. eigenvalues --   -0.17312  -0.13289  -0.11469
  Beta virt. eigenvalues --   -0.06838  -0.06524  -0.05819  -0.04128  -0.02703
  Beta virt. eigenvalues --   -0.02348  -0.02029  -0.01795  -0.01056  -0.00940
  Beta virt. eigenvalues --   -0.00246   0.00015   0.00182   0.00226   0.00467

 Mulliken charges and spin densities:
               1          2
     1  Na   0.119027   0.287547
     2  Na   0.606236   0.192774
     3  Na   0.415478  -0.000506
     4  Na   0.349043   0.152155
     5  Na   0.477966  -0.100952
     6  Na  -2.028330   0.208473
     7  Na   0.060580   0.260510
 Sum of Mulliken charges =  -0.00000   1.00000

 Dipole moment (field-independent basis, Debye):
    X=             -0.2846    Y=             -0.0779    Z=              0.3100  Tot=              0.4279
 Quadrupole moment (field-independent basis, Debye-Ang):
   XX=            -53.3951   YY=            -65.7089   ZZ=            -73.8778
   XY=             -2.5643   XZ=             -0.6253   YZ=             -1.8608

 Normal termination of Gaussian 16 at Wed Dec  6 00:14:17 2023.
