 Gaussian 16, Revision B.01,
 Gaussian 16:  ES64L-G16RevB.01 20-Dec-2017

 -------------------------
 #P B3LYP/6-311+g(d) force
 -------------------------

 -----
 DPGEN
 -----
 Symbolic Z-matrix:
 Charge =  0 Multiplicity = 2

                         Standard orientation:
 ---------------------------------------------------------------------
 Center     Atomic      Atomic             Coordinates (Angstroms)
 Number     Number       Type             X           Y           Z
 ---------------------------------------------------------------------
      1         11           0       -0.852237    2.508108   -0.306061
      2         11           0       -0.388957   -0.111892    1.860536
      3         11           0       -3.228335   -0.142130    0.191698
      4         11           0        0.246933   -0.034579   -1.755010
      5         11           0       -0.842498   -2.525190   -0.431658
      6         11           0        2.208810    2.095689    0.164924
      7         11           0        2.856285   -1.790006    0.275572
 ---------------------------------------------------------------------

 SCF Done:  E(UB3LYP) =  -1136.13445791     A.U. after   19 cycles

 The electronic state is 2-A.
 Alpha  occ. eigenvalues --  -38.44053 -38.43924 -38.43754 -38.43541 -38.43476
 Alpha  occ. eigenvalues --  -38.43306 -38.43092  -2.19825  -2.19773  -2.19606
 Alpha  occ. eigenvalues --   -2.19476  -2.19381  -2.19299  -2.19025  -1.13502
 Alpha  occ. eigenvalues --   -1.13480  -1.13466  -1.13458  -1.13426  -1.13422
 Alpha  occ. eigenvalues --   -1.13303  -1.13271  -1.13243  -1.13193  -1.13154
 Alpha  occ. eigenvalues --   -1.13125  -1.13082  -1.13028  -1.12991  -1.12969
 Alpha  occ. eigenvalues --   -1.12909  -1.12892  -1.12698  -1.12679  -1.12637
 Alpha  occ. eigenvalues --   -0.18882  -0.12984  -0.12511  -0.10825
 Alpha virt. eigenvalues --   -0.05665  -0.05239  -0.04419  -0.03190  -0.02977
 Alpha virt. eigenvalues --   -0.02493  -0.01667  -0.01121  -0.00241  -0.00133
 Alpha virt. eigenvalues --    0.00010   0.00332   0.00778   0.00870   0.00915

  Beta  occ. eigenvalues --  -38.44051 -38.43919 -38.43751 -38.43465 -38.43459
  Beta  occ. eigenvalues --  -38.43226 -38.43081  -2.19823  -2.19768  -2.19604
  Beta  occ. eigenvalues --   -2.19354  -2.19336  -2.19154  -2.19008  -1.13491
  Beta  occ. eigenvalues --   -1.13476  -1.13466  -1.13445  -1.13426  -1.13404
  Beta  occ. eigenvalues --   -1.13302  -1.13257  -1.13235  -1.13143  -1.13069
  Beta  occ. eigenvalues --   -1.13036  -1.12979  -1.12974  -1.12957  -1.12898
  Beta  occ. eigenvalues --   -1.12822  -1.12789  -1.12679  -1.12643  -1.12618
  Beta  occ. eigenvalues --   -0.18141  -0.12739  -0.12261
  Beta virt. eigenvalues --   -0.06914  -0.05590  -0.05212  -0.04408  -0.02431
  Beta virt. eigenvalues --   -0.02214  -0.01554  -0.01457  -0.01068  -0.00238
  Beta virt. eigenvalues --   -0.00166   0.00123   0.00356   0.00832   0.00869

 Mulliken charges and spin densities:
               1          2
     1  Na   0.306294  -0.021426
     2  Na  -0.511840   0.812671
     3  Na   0.304417  -0.015324
     4  Na  -0.041629   0.471809
     5  Na   0.195110  -0.096438
     6  Na  -0.112071  -0.081627
     7  Na  -0.140280  -0.069665
 Sum of Mulliken charges =  -0.00000   1.00000

 Dipole moment (field-independent basis, Debye):
    X=              0.0958    Y=             -0.1123    Z=              0.1954  Tot=              0.2449
 Quadrupole moment (field-independent basis, Debye-Ang):
   XX=            -54.7083   YY=            -64.4428   ZZ=            -74.0011
   XY=              0.0511   XZ=              1.5061   YZ=              0.0580

 Normal termination of Gaussian 16 at Thu Dec  7 08:52:28 2023.
