 Gaussian 16, Revision B.01,
 Gaussian 16:  ES64L-G16RevB.01 20-Dec-2017

 -------------------------
 #P B3LYP/6-311+g(d) force
 -------------------------

 -----
 DPGEN
 -----
 Symbolic Z-matrix:
 Charge =  0 Multiplicity = 2

                         Standard orientation:
 ---------------------------------------------------------------------
 Center     Atomic      Atomic             Coordinates (Angstroms)
 Number     Number       Type             X           Y           Z
 ---------------------------------------------------------------------
      1         11           0        0.414186   -1.860513    1.161657
      2         11           0        0.162779    0.026490   -1.557193
      3         11           0        1.223861    1.302983    1.585988
      4         11           0       -2.612155   -1.750185   -1.128753
      5         11           0       -0.902612    2.878167   -0.854441
      6         11           0       -2.106903    0.087967    1.504339
      7         11           0        3.820845   -0.684909   -0.711598
 ---------------------------------------------------------------------

 SCF Done:  E(UB3LYP) =  -1136.12902088     A.U. after   22 cycles

 The electronic state is 2-A.
 Alpha  occ. eigenvalues --  -38.44366 -38.44029 -38.43811 -38.43709 -38.43670
 Alpha  occ. eigenvalues --  -38.43533 -38.42707  -2.20119  -2.19943  -2.19693
 Alpha  occ. eigenvalues --   -2.19579  -2.19560  -2.19509  -2.18551  -1.13793
 Alpha  occ. eigenvalues --   -1.13785  -1.13734  -1.13666  -1.13605  -1.13549
 Alpha  occ. eigenvalues --   -1.13426  -1.13344  -1.13307  -1.13287  -1.13259
 Alpha  occ. eigenvalues --   -1.13247  -1.13215  -1.13181  -1.13176  -1.13160
 Alpha  occ. eigenvalues --   -1.13145  -1.13106  -1.12249  -1.12189  -1.12174
 Alpha  occ. eigenvalues --   -0.18698  -0.12751  -0.11862  -0.11651
 Alpha virt. eigenvalues --   -0.05999  -0.04791  -0.04103  -0.03214  -0.03054
 Alpha virt. eigenvalues --   -0.02827  -0.01869  -0.00994  -0.00647   0.00150
 Alpha virt. eigenvalues --    0.00276   0.00400   0.00476   0.00733   0.00863

  Beta  occ. eigenvalues --  -38.44354 -38.43990 -38.43772 -38.43686 -38.43639
  Beta  occ. eigenvalues --  -38.43473 -38.42696  -2.20096  -2.19875  -2.19625
  Beta  occ. eigenvalues --   -2.19527  -2.19519  -2.19400  -2.18533  -1.13773
  Beta  occ. eigenvalues --   -1.13770  -1.13721  -1.13607  -1.13541  -1.13508
  Beta  occ. eigenvalues --   -1.13375  -1.13281  -1.13266  -1.13245  -1.13210
  Beta  occ. eigenvalues --   -1.13190  -1.13174  -1.13147  -1.13119  -1.13109
  Beta  occ. eigenvalues --   -1.13082  -1.13026  -1.12226  -1.12179  -1.12161
  Beta  occ. eigenvalues --   -0.17860  -0.12548  -0.11480
  Beta virt. eigenvalues --   -0.07807  -0.05813  -0.04435  -0.03951  -0.02888
  Beta virt. eigenvalues --   -0.02389  -0.02052  -0.01705  -0.00794  -0.00407
  Beta virt. eigenvalues --    0.00199   0.00317   0.00453   0.00587   0.00783

 Mulliken charges and spin densities:
               1          2
     1  Na  -0.101271   0.109950
     2  Na  -0.145478   0.741271
     3  Na   0.079111   0.163240
     4  Na   0.026023  -0.069351
     5  Na  -0.226306  -0.129231
     6  Na   0.347832   0.232781
     7  Na   0.020091  -0.048660
 Sum of Mulliken charges =  -0.00000   1.00000

 Dipole moment (field-independent basis, Debye):
    X=              0.1334    Y=             -0.1861    Z=              0.1530  Tot=              0.2754
 Quadrupole moment (field-independent basis, Debye-Ang):
   XX=            -56.2945   YY=            -70.8190   ZZ=            -65.9050
   XY=              0.4504   XZ=             -0.3023   YZ=              1.6672

 Normal termination of Gaussian 16 at Wed Dec  6 00:58:43 2023.
