 Gaussian 16, Revision B.01,
 Gaussian 16:  ES64L-G16RevB.01 20-Dec-2017

 -------------------------
 #P B3LYP/6-311+g(d) force
 -------------------------

 -----
 DPGEN
 -----
 Symbolic Z-matrix:
 Charge =  0 Multiplicity = 2

                         Standard orientation:
 ---------------------------------------------------------------------
 Center     Atomic      Atomic             Coordinates (Angstroms)
 Number     Number       Type             X           Y           Z
 ---------------------------------------------------------------------
      1         11           0       -0.424285   -2.594349    0.321763
      2         11           0       -3.235932   -0.526854   -0.336037
      3         11           0       -1.045973    2.618657   -0.065046
      4         11           0       -0.107891    0.283621    2.082020
      5         11           0        2.812049   -1.450351   -0.221528
      6         11           0       -0.166120   -0.181320   -1.581016
      7         11           0        2.168152    1.850597   -0.200156
 ---------------------------------------------------------------------

 SCF Done:  E(UB3LYP) =  -1136.13808734     A.U. after   19 cycles

 The electronic state is 2-A.
 Alpha  occ. eigenvalues --  -38.44093 -38.43623 -38.43610 -38.43439 -38.43251
 Alpha  occ. eigenvalues --  -38.43248 -38.43162  -2.19914  -2.19526  -2.19463
 Alpha  occ. eigenvalues --   -2.19326  -2.19188  -2.19155  -2.19137  -1.13596
 Alpha  occ. eigenvalues --   -1.13562  -1.13555  -1.13198  -1.13166  -1.13147
 Alpha  occ. eigenvalues --   -1.13139  -1.13129  -1.13114  -1.13023  -1.12985
 Alpha  occ. eigenvalues --   -1.12968  -1.12961  -1.12880  -1.12824  -1.12807
 Alpha  occ. eigenvalues --   -1.12805  -1.12783  -1.12757  -1.12748  -1.12746
 Alpha  occ. eigenvalues --   -0.18972  -0.12972  -0.12602  -0.10939
 Alpha virt. eigenvalues --   -0.05618  -0.04961  -0.04530  -0.03107  -0.02993
 Alpha virt. eigenvalues --   -0.02638  -0.01640  -0.01005  -0.00163  -0.00122
 Alpha virt. eigenvalues --   -0.00003   0.00340   0.00817   0.00909   0.00935

  Beta  occ. eigenvalues --  -38.44086 -38.43621 -38.43509 -38.43432 -38.43241
  Beta  occ. eigenvalues --  -38.43239 -38.43104  -2.19904  -2.19462  -2.19340
  Beta  occ. eigenvalues --   -2.19317  -2.19139  -2.19130  -2.19081  -1.13577
  Beta  occ. eigenvalues --   -1.13552  -1.13549  -1.13143  -1.13126  -1.13104
  Beta  occ. eigenvalues --   -1.13079  -1.13035  -1.13021  -1.13002  -1.12965
  Beta  occ. eigenvalues --   -1.12946  -1.12927  -1.12842  -1.12783  -1.12774
  Beta  occ. eigenvalues --   -1.12760  -1.12750  -1.12746  -1.12704  -1.12699
  Beta  occ. eigenvalues --   -0.18235  -0.12716  -0.12356
  Beta virt. eigenvalues --   -0.06981  -0.05565  -0.04965  -0.04492  -0.02343
  Beta virt. eigenvalues --   -0.02199  -0.01551  -0.01544  -0.00957  -0.00186
  Beta virt. eigenvalues --   -0.00144   0.00118   0.00367   0.00869   0.00896

 Mulliken charges and spin densities:
               1          2
     1  Na   0.296531   0.063848
     2  Na   0.198638  -0.050078
     3  Na   0.282787  -0.043177
     4  Na  -0.514619   0.636724
     5  Na   0.091095  -0.038614
     6  Na  -0.560006   0.441503
     7  Na   0.205576  -0.010207
 Sum of Mulliken charges =  -0.00000   1.00000

 Dipole moment (field-independent basis, Debye):
    X=             -0.2295    Y=              0.0002    Z=              0.1465  Tot=              0.2723
 Quadrupole moment (field-independent basis, Debye-Ang):
   XX=            -55.5310   YY=            -64.4390   ZZ=            -73.4061
   XY=             -0.3962   XZ=              0.0040   YZ=             -0.8148

 Normal termination of Gaussian 16 at Thu Dec  7 18:41:33 2023.
