 Gaussian 16, Revision B.01,
 Gaussian 16:  ES64L-G16RevB.01 20-Dec-2017

 -------------------------
 #P B3LYP/6-311+g(d) force
 -------------------------

 -----
 DPGEN
 -----
 Symbolic Z-matrix:
 Charge =  0 Multiplicity = 2

                         Standard orientation:
 ---------------------------------------------------------------------
 Center     Atomic      Atomic             Coordinates (Angstroms)
 Number     Number       Type             X           Y           Z
 ---------------------------------------------------------------------
      1         11           0        0.107942    0.148599   -1.659867
      2         11           0        0.190777    0.434875    2.101050
      3         11           0        1.464391   -2.322739    0.183678
      4         11           0        3.205035    0.147963   -0.347179
      5         11           0       -1.954406   -1.902216   -0.045624
      6         11           0       -3.265909    0.503255   -0.168112
      7         11           0        0.252169    2.990263   -0.063946
 ---------------------------------------------------------------------

 SCF Done:  E(UB3LYP) =  -1136.12728530     A.U. after   20 cycles

 The electronic state is 2-A.
 Alpha  occ. eigenvalues --  -38.44836 -38.44689 -38.43653 -38.43465 -38.43435
 Alpha  occ. eigenvalues --  -38.43089 -38.43071  -2.20701  -2.20543  -2.19538
 Alpha  occ. eigenvalues --   -2.19414  -2.19409  -2.18983  -2.18922  -1.14514
 Alpha  occ. eigenvalues --   -1.14332  -1.14296  -1.14235  -1.14208  -1.14163
 Alpha  occ. eigenvalues --   -1.13204  -1.13166  -1.13163  -1.13130  -1.13091
 Alpha  occ. eigenvalues --   -1.13080  -1.13047  -1.13024  -1.13012  -1.12659
 Alpha  occ. eigenvalues --   -1.12638  -1.12627  -1.12600  -1.12591  -1.12548
 Alpha  occ. eigenvalues --   -0.18868  -0.13537  -0.12144  -0.10952
 Alpha virt. eigenvalues --   -0.06332  -0.04540  -0.04486  -0.03421  -0.02920
 Alpha virt. eigenvalues --   -0.02657  -0.01999  -0.00868  -0.00361  -0.00075
 Alpha virt. eigenvalues --   -0.00002   0.00350   0.00832   0.00862   0.00893

  Beta  occ. eigenvalues --  -38.44835 -38.44679 -38.43555 -38.43459 -38.43374
  Beta  occ. eigenvalues --  -38.43086 -38.43063  -2.20700  -2.20527  -2.19402
  Beta  occ. eigenvalues --   -2.19358  -2.19303  -2.18972  -2.18921  -1.14516
  Beta  occ. eigenvalues --   -1.14314  -1.14297  -1.14228  -1.14176  -1.14153
  Beta  occ. eigenvalues --   -1.13103  -1.13087  -1.13075  -1.13039  -1.13033
  Beta  occ. eigenvalues --   -1.13012  -1.12993  -1.12978  -1.12944  -1.12655
  Beta  occ. eigenvalues --   -1.12635  -1.12598  -1.12585  -1.12568  -1.12550
  Beta  occ. eigenvalues --   -0.18127  -0.13304  -0.11901
  Beta virt. eigenvalues --   -0.07013  -0.06275  -0.04538  -0.04442  -0.02662
  Beta virt. eigenvalues --   -0.02108  -0.01883  -0.01615  -0.00805  -0.00392
  Beta virt. eigenvalues --   -0.00064   0.00107   0.00385   0.00847   0.00927

 Mulliken charges and spin densities:
               1          2
     1  Na  -0.397400   0.318515
     2  Na  -0.615411   0.611926
     3  Na   0.228843   0.153137
     4  Na   0.398200   0.000249
     5  Na   0.127620   0.111100
     6  Na   0.201856  -0.066979
     7  Na   0.056292  -0.127947
 Sum of Mulliken charges =  -0.00000   1.00000

 Dipole moment (field-independent basis, Debye):
    X=              0.1381    Y=              0.3768    Z=              0.0958  Tot=              0.4126
 Quadrupole moment (field-independent basis, Debye-Ang):
   XX=            -54.0688   YY=            -67.1915   ZZ=            -73.4726
   XY=             -0.9193   XZ=             -0.3263   YZ=             -0.8300

 Normal termination of Gaussian 16 at Tue Dec  5 23:18:29 2023.
