 Gaussian 16, Revision B.01,
 Gaussian 16:  ES64L-G16RevB.01 20-Dec-2017

 -------------------------
 #P B3LYP/6-311+g(d) force
 -------------------------

 -----
 DPGEN
 -----
 Symbolic Z-matrix:
 Charge =  0 Multiplicity = 2

                         Standard orientation:
 ---------------------------------------------------------------------
 Center     Atomic      Atomic             Coordinates (Angstroms)
 Number     Number       Type             X           Y           Z
 ---------------------------------------------------------------------
      1         11           0        2.137674    1.991342   -0.178792
      2         11           0        2.906579   -0.924451    0.022851
      3         11           0       -0.270792   -2.638678    0.251575
      4         11           0        0.018227   -0.596287   -1.716763
      5         11           0       -0.064409    0.336377    1.918229
      6         11           0       -1.672790    2.419523   -0.266876
      7         11           0       -3.054488   -0.587826   -0.030224
 ---------------------------------------------------------------------

 SCF Done:  E(UB3LYP) =  -1136.13457095     A.U. after   19 cycles

 The electronic state is 2-A.
 Alpha  occ. eigenvalues --  -38.44191 -38.44008 -38.43609 -38.43392 -38.43392
 Alpha  occ. eigenvalues --  -38.43364 -38.43066  -2.20047  -2.19896  -2.19484
 Alpha  occ. eigenvalues --   -2.19388  -2.19298  -2.19237  -2.19003  -1.13721
 Alpha  occ. eigenvalues --   -1.13709  -1.13692  -1.13623  -1.13550  -1.13536
 Alpha  occ. eigenvalues --   -1.13196  -1.13155  -1.13139  -1.13119  -1.13027
 Alpha  occ. eigenvalues --   -1.12985  -1.12974  -1.12950  -1.12918  -1.12900
 Alpha  occ. eigenvalues --   -1.12884  -1.12872  -1.12661  -1.12644  -1.12597
 Alpha  occ. eigenvalues --   -0.19069  -0.13455  -0.12352  -0.10815
 Alpha virt. eigenvalues --   -0.05803  -0.05157  -0.04352  -0.03353  -0.02929
 Alpha virt. eigenvalues --   -0.02427  -0.01650  -0.00926  -0.00231  -0.00159
 Alpha virt. eigenvalues --   -0.00012   0.00372   0.00813   0.00922   0.00927

  Beta  occ. eigenvalues --  -38.44187 -38.44003 -38.43604 -38.43387 -38.43326
  Beta  occ. eigenvalues --  -38.43277 -38.43054  -2.20043  -2.19891  -2.19478
  Beta  occ. eigenvalues --   -2.19268  -2.19230  -2.19139  -2.18986  -1.13715
  Beta  occ. eigenvalues --   -1.13694  -1.13685  -1.13623  -1.13539  -1.13515
  Beta  occ. eigenvalues --   -1.13151  -1.13124  -1.13119  -1.13108  -1.12947
  Beta  occ. eigenvalues --   -1.12916  -1.12895  -1.12876  -1.12875  -1.12863
  Beta  occ. eigenvalues --   -1.12806  -1.12794  -1.12642  -1.12591  -1.12590
  Beta  occ. eigenvalues --   -0.18319  -0.13212  -0.12117
  Beta virt. eigenvalues --   -0.06880  -0.05759  -0.05159  -0.04307  -0.02543
  Beta virt. eigenvalues --   -0.02140  -0.01563  -0.01385  -0.00868  -0.00275
  Beta virt. eigenvalues --   -0.00204   0.00132   0.00398   0.00866   0.00920

 Mulliken charges and spin densities:
               1          2
     1  Na   0.034547  -0.076437
     2  Na   0.284809  -0.019380
     3  Na   0.407108  -0.040087
     4  Na  -0.446725   0.593845
     5  Na  -0.464637   0.679300
     6  Na  -0.006540  -0.086558
     7  Na   0.191437  -0.050683
 Sum of Mulliken charges =  -0.00000   1.00000

 Dipole moment (field-independent basis, Debye):
    X=             -0.1122    Y=              0.0326    Z=              0.0665  Tot=              0.1344
 Quadrupole moment (field-independent basis, Debye-Ang):
   XX=            -55.0573   YY=            -65.3447   ZZ=            -73.7247
   XY=              0.0307   XZ=              0.1815   YZ=             -2.0306

 Normal termination of Gaussian 16 at Wed Nov 29 15:36:12 2023.
