 Gaussian 16, Revision B.01,
 Gaussian 16:  ES64L-G16RevB.01 20-Dec-2017

 -------------------------
 #P B3LYP/6-311+g(d) force
 -------------------------

 -----
 DPGEN
 -----
 Symbolic Z-matrix:
 Charge =  0 Multiplicity = 2

                         Standard orientation:
 ---------------------------------------------------------------------
 Center     Atomic      Atomic             Coordinates (Angstroms)
 Number     Number       Type             X           Y           Z
 ---------------------------------------------------------------------
      1         11           0       -1.248565   -2.437751   -0.192218
      2         11           0       -0.187813   -0.155169    1.768203
      3         11           0       -0.665806    2.675616   -0.118521
      4         11           0        0.369566    0.142761   -1.644624
      5         11           0        2.295077   -1.932568   -0.011975
      6         11           0        2.483400    1.499452    0.226974
      7         11           0       -3.045859    0.207658   -0.027839
 ---------------------------------------------------------------------

 SCF Done:  E(UB3LYP) =  -1136.13790605     A.U. after   19 cycles

 The electronic state is 2-A.
 Alpha  occ. eigenvalues --  -38.43823 -38.43679 -38.43576 -38.43315 -38.43151
 Alpha  occ. eigenvalues --  -38.43072 -38.42966  -2.19701  -2.19584  -2.19450
 Alpha  occ. eigenvalues --   -2.19231  -2.19075  -2.19064  -2.19015  -1.13384
 Alpha  occ. eigenvalues --   -1.13365  -1.13348  -1.13298  -1.13246  -1.13220
 Alpha  occ. eigenvalues --   -1.13136  -1.13110  -1.13081  -1.12949  -1.12902
 Alpha  occ. eigenvalues --   -1.12848  -1.12826  -1.12761  -1.12726  -1.12689
 Alpha  occ. eigenvalues --   -1.12684  -1.12674  -1.12668  -1.12630  -1.12604
 Alpha  occ. eigenvalues --   -0.19406  -0.13294  -0.12712  -0.10689
 Alpha virt. eigenvalues --   -0.05418  -0.05171  -0.04578  -0.03177  -0.02833
 Alpha virt. eigenvalues --   -0.02252  -0.01437  -0.01069  -0.00144  -0.00096
 Alpha virt. eigenvalues --    0.00033   0.00367   0.00851   0.00930   0.00948

  Beta  occ. eigenvalues --  -38.43819 -38.43670 -38.43571 -38.43306 -38.43143
  Beta  occ. eigenvalues --  -38.42991 -38.42892  -2.19698  -2.19573  -2.19444
  Beta  occ. eigenvalues --   -2.19219  -2.19054  -2.18926  -2.18882  -1.13385
  Beta  occ. eigenvalues --   -1.13358  -1.13328  -1.13289  -1.13218  -1.13207
  Beta  occ. eigenvalues --   -1.13128  -1.13086  -1.13078  -1.12935  -1.12862
  Beta  occ. eigenvalues --   -1.12844  -1.12795  -1.12698  -1.12683  -1.12656
  Beta  occ. eigenvalues --   -1.12585  -1.12581  -1.12571  -1.12536  -1.12518
  Beta  occ. eigenvalues --   -0.18666  -0.13036  -0.12431
  Beta virt. eigenvalues --   -0.06740  -0.05389  -0.05175  -0.04574  -0.02350
  Beta virt. eigenvalues --   -0.02023  -0.01359  -0.01206  -0.01007  -0.00194
  Beta virt. eigenvalues --   -0.00148   0.00157   0.00392   0.00901   0.00927

 Mulliken charges and spin densities:
               1          2
     1  Na   0.208223  -0.082808
     2  Na  -0.498660   0.710839
     3  Na   0.247576  -0.073158
     4  Na  -0.476889   0.625244
     5  Na   0.176912  -0.088327
     6  Na   0.222034  -0.040410
     7  Na   0.120804  -0.051381
 Sum of Mulliken charges =  -0.00000   1.00000

 Dipole moment (field-independent basis, Debye):
    X=              0.0494    Y=             -0.0424    Z=              0.0900  Tot=              0.1111
 Quadrupole moment (field-independent basis, Debye-Ang):
   XX=            -55.7676   YY=            -62.3420   ZZ=            -74.7520
   XY=             -0.5144   XZ=              1.2145   YZ=              0.6967

 Normal termination of Gaussian 16 at Tue Dec  5 23:55:09 2023.
