 Gaussian 16, Revision B.01,
 Gaussian 16:  ES64L-G16RevB.01 20-Dec-2017

 -------------------------
 #P B3LYP/6-311+g(d) force
 -------------------------

 -----
 DPGEN
 -----
 Symbolic Z-matrix:
 Charge =  0 Multiplicity = 2

                         Standard orientation:
 ---------------------------------------------------------------------
 Center     Atomic      Atomic             Coordinates (Angstroms)
 Number     Number       Type             X           Y           Z
 ---------------------------------------------------------------------
      1         11           0       -0.259746    0.326515    1.924034
      2         11           0       -2.691154    1.666948   -0.606248
      3         11           0        1.473899    2.557149    0.204505
      4         11           0       -2.625119   -1.545503    0.435987
      5         11           0        3.161393   -0.130093   -0.213872
      6         11           0        1.141183   -2.549363    0.028181
      7         11           0       -0.200456   -0.325654   -1.772586
 ---------------------------------------------------------------------

 SCF Done:  E(UB3LYP) =  -1136.13434806     A.U. after   21 cycles

 The electronic state is 2-A.
 Alpha  occ. eigenvalues --  -38.44199 -38.44135 -38.44080 -38.43591 -38.43590
 Alpha  occ. eigenvalues --  -38.43130 -38.42954  -2.20068  -2.19967  -2.19937
 Alpha  occ. eigenvalues --   -2.19533  -2.19503  -2.18979  -2.18842  -1.13747
 Alpha  occ. eigenvalues --   -1.13732  -1.13716  -1.13656  -1.13641  -1.13618
 Alpha  occ. eigenvalues --   -1.13602  -1.13588  -1.13547  -1.13226  -1.13181
 Alpha  occ. eigenvalues --   -1.13168  -1.13150  -1.13139  -1.13125  -1.12656
 Alpha  occ. eigenvalues --   -1.12643  -1.12615  -1.12529  -1.12504  -1.12469
 Alpha  occ. eigenvalues --   -0.18710  -0.13573  -0.11986  -0.10954
 Alpha virt. eigenvalues --   -0.05885  -0.05408  -0.04133  -0.03521  -0.02789
 Alpha virt. eigenvalues --   -0.02605  -0.01736  -0.01132  -0.00305  -0.00161
 Alpha virt. eigenvalues --   -0.00024   0.00343   0.00725   0.00858   0.00909

  Beta  occ. eigenvalues --  -38.44198 -38.44115 -38.44066 -38.43525 -38.43507
  Beta  occ. eigenvalues --  -38.43128 -38.42951  -2.20067  -2.19932  -2.19916
  Beta  occ. eigenvalues --   -2.19412  -2.19351  -2.18978  -2.18840  -1.13751
  Beta  occ. eigenvalues --   -1.13732  -1.13701  -1.13640  -1.13603  -1.13585
  Beta  occ. eigenvalues --   -1.13575  -1.13565  -1.13530  -1.13142  -1.13092
  Beta  occ. eigenvalues --   -1.13070  -1.13062  -1.13023  -1.13022  -1.12653
  Beta  occ. eigenvalues --   -1.12632  -1.12609  -1.12526  -1.12498  -1.12452
  Beta  occ. eigenvalues --   -0.17992  -0.13326  -0.11744
  Beta virt. eigenvalues --   -0.07051  -0.05799  -0.05361  -0.04089  -0.02780
  Beta virt. eigenvalues --   -0.02073  -0.01635  -0.01564  -0.01020  -0.00310
  Beta virt. eigenvalues --   -0.00196   0.00103   0.00380   0.00804   0.00872

 Mulliken charges and spin densities:
               1          2
     1  Na  -0.356304   0.572492
     2  Na   0.003790   0.014857
     3  Na   0.150790  -0.056659
     4  Na   0.276909   0.038807
     5  Na  -0.049573  -0.045195
     6  Na   0.229784  -0.000573
     7  Na  -0.255397   0.476270
 Sum of Mulliken charges =  -0.00000   1.00000

 Dipole moment (field-independent basis, Debye):
    X=             -0.3928    Y=              0.0227    Z=             -0.0112  Tot=              0.3936
 Quadrupole moment (field-independent basis, Debye-Ang):
   XX=            -54.4492   YY=            -66.6713   ZZ=            -73.3317
   XY=             -0.2411   XZ=             -0.3010   YZ=             -2.1486

 Normal termination of Gaussian 16 at Fri Dec  8 05:24:38 2023.
