 Gaussian 16, Revision B.01,
 Gaussian 16:  ES64L-G16RevB.01 20-Dec-2017

 -------------------------
 #P B3LYP/6-311+g(d) force
 -------------------------

 -----
 DPGEN
 -----
 Symbolic Z-matrix:
 Charge =  0 Multiplicity = 2

                         Standard orientation:
 ---------------------------------------------------------------------
 Center     Atomic      Atomic             Coordinates (Angstroms)
 Number     Number       Type             X           Y           Z
 ---------------------------------------------------------------------
      1         11           0        2.922402   -0.532524    0.163279
      2         11           0        0.363939   -3.090908   -0.221096
      3         11           0        0.569434   -0.155582   -1.739138
      4         11           0       -1.852403    2.088492   -0.286923
      5         11           0       -0.342339   -0.346894    2.172547
      6         11           0        1.453744    2.816188    0.115943
      7         11           0       -3.114778   -0.778773   -0.204612
 ---------------------------------------------------------------------

 SCF Done:  E(UB3LYP) =  -1136.13573564     A.U. after   18 cycles

 The electronic state is 2-A.
 Alpha  occ. eigenvalues --  -38.44083 -38.43894 -38.43856 -38.43845 -38.43493
 Alpha  occ. eigenvalues --  -38.43482 -38.43382  -2.19940  -2.19716  -2.19703
 Alpha  occ. eigenvalues --   -2.19664  -2.19430  -2.19310  -2.19256  -1.13682
 Alpha  occ. eigenvalues --   -1.13599  -1.13548  -1.13419  -1.13379  -1.13366
 Alpha  occ. eigenvalues --   -1.13357  -1.13351  -1.13341  -1.13319  -1.13312
 Alpha  occ. eigenvalues --   -1.13294  -1.13103  -1.13073  -1.13043  -1.12990
 Alpha  occ. eigenvalues --   -1.12974  -1.12955  -1.12926  -1.12911  -1.12879
 Alpha  occ. eigenvalues --   -0.18373  -0.12990  -0.12427  -0.10824
 Alpha virt. eigenvalues --   -0.05685  -0.05063  -0.04873  -0.03328  -0.03010
 Alpha virt. eigenvalues --   -0.02674  -0.01333  -0.01278  -0.00455  -0.00286
 Alpha virt. eigenvalues --   -0.00052   0.00369   0.00796   0.00852   0.00889

  Beta  occ. eigenvalues --  -38.44077 -38.43892 -38.43840 -38.43759 -38.43492
  Beta  occ. eigenvalues --  -38.43421 -38.43375  -2.19933  -2.19715  -2.19658
  Beta  occ. eigenvalues --   -2.19524  -2.19318  -2.19310  -2.19246  -1.13669
  Beta  occ. eigenvalues --   -1.13573  -1.13548  -1.13419  -1.13356  -1.13355
  Beta  occ. eigenvalues --   -1.13344  -1.13307  -1.13293  -1.13240  -1.13204
  Beta  occ. eigenvalues --   -1.13195  -1.13031  -1.13001  -1.12991  -1.12972
  Beta  occ. eigenvalues --   -1.12958  -1.12940  -1.12915  -1.12885  -1.12878
  Beta  occ. eigenvalues --   -0.17650  -0.12775  -0.12234
  Beta virt. eigenvalues --   -0.06918  -0.05678  -0.04955  -0.04824  -0.02534
  Beta virt. eigenvalues --   -0.02260  -0.01655  -0.01253  -0.01207  -0.00509
  Beta virt. eigenvalues --   -0.00318   0.00112   0.00401   0.00810   0.00885

 Mulliken charges and spin densities:
               1          2
     1  Na   0.259331   0.005607
     2  Na   0.150132  -0.120646
     3  Na  -0.062563   0.465635
     4  Na   0.054786  -0.009181
     5  Na  -0.527127   0.752997
     6  Na   0.008150  -0.016896
     7  Na   0.117291  -0.077516
 Sum of Mulliken charges =  -0.00000   1.00000

 Dipole moment (field-independent basis, Debye):
    X=              0.1564    Y=             -0.3743    Z=              0.1312  Tot=              0.4264
 Quadrupole moment (field-independent basis, Debye-Ang):
   XX=            -60.0049   YY=            -61.1817   ZZ=            -73.5638
   XY=              1.2488   XZ=              1.8560   YZ=              0.5530

 Normal termination of Gaussian 16 at Fri Dec  8 02:42:59 2023.
