 Gaussian 16, Revision B.01,
 Gaussian 16:  ES64L-G16RevB.01 20-Dec-2017

 -------------------------
 #P B3LYP/6-311+g(d) force
 -------------------------

 -----
 DPGEN
 -----
 Symbolic Z-matrix:
 Charge =  0 Multiplicity = 2

                         Standard orientation:
 ---------------------------------------------------------------------
 Center     Atomic      Atomic             Coordinates (Angstroms)
 Number     Number       Type             X           Y           Z
 ---------------------------------------------------------------------
      1         11           0        3.076671   -0.376041   -1.815806
      2         11           0        2.056351    0.660592    1.282357
      3         11           0       -0.149823    3.319507    0.496483
      4         11           0       -3.963575   -1.038069   -0.994677
      5         11           0       -1.218831    0.912397   -1.372842
      6         11           0       -1.552592   -1.024972    2.059037
      7         11           0        1.751799   -2.453413    0.345447
 ---------------------------------------------------------------------

 SCF Done:  E(UB3LYP) =  -1136.12283319     A.U. after   21 cycles

 The electronic state is 2-A.
 Alpha  occ. eigenvalues --  -38.44675 -38.44609 -38.44210 -38.44094 -38.43983
 Alpha  occ. eigenvalues --  -38.43783 -38.42716  -2.20445  -2.20443  -2.20074
 Alpha  occ. eigenvalues --   -2.19928  -2.19763  -2.19626  -2.18532  -1.14112
 Alpha  occ. eigenvalues --   -1.14106  -1.14102  -1.14086  -1.14069  -1.14056
 Alpha  occ. eigenvalues --   -1.13776  -1.13749  -1.13703  -1.13600  -1.13588
 Alpha  occ. eigenvalues --   -1.13549  -1.13440  -1.13425  -1.13389  -1.13312
 Alpha  occ. eigenvalues --   -1.13299  -1.13232  -1.12210  -1.12186  -1.12174
 Alpha  occ. eigenvalues --   -0.17364  -0.13448  -0.11633  -0.11229
 Alpha virt. eigenvalues --   -0.05941  -0.05529  -0.04728  -0.03430  -0.03073
 Alpha virt. eigenvalues --   -0.02675  -0.01765  -0.01089  -0.00927  -0.00274
 Alpha virt. eigenvalues --   -0.00008   0.00142   0.00301   0.00481   0.00685

  Beta  occ. eigenvalues --  -38.44621 -38.44551 -38.44190 -38.44088 -38.43963
  Beta  occ. eigenvalues --  -38.43758 -38.42718  -2.20346  -2.20334  -2.20039
  Beta  occ. eigenvalues --   -2.19922  -2.19726  -2.19578  -2.18536  -1.14046
  Beta  occ. eigenvalues --   -1.14038  -1.14025  -1.14018  -1.13996  -1.13976
  Beta  occ. eigenvalues --   -1.13755  -1.13699  -1.13682  -1.13595  -1.13580
  Beta  occ. eigenvalues --   -1.13520  -1.13405  -1.13401  -1.13369  -1.13280
  Beta  occ. eigenvalues --   -1.13263  -1.13198  -1.12213  -1.12184  -1.12176
  Beta  occ. eigenvalues --   -0.16697  -0.13120  -0.11429
  Beta virt. eigenvalues --   -0.07670  -0.05735  -0.04828  -0.04552  -0.03276
  Beta virt. eigenvalues --   -0.02527  -0.02091  -0.01584  -0.00905  -0.00616
  Beta virt. eigenvalues --   -0.00176   0.00214   0.00270   0.00355   0.00553

 Mulliken charges and spin densities:
               1          2
     1  Na  -0.076942   0.260095
     2  Na   0.411597   0.217424
     3  Na  -0.015707  -0.011391
     4  Na   0.200890   0.084331
     5  Na  -0.383893   0.183542
     6  Na  -0.069675   0.193821
     7  Na  -0.066269   0.072179
 Sum of Mulliken charges =  -0.00000   1.00000

 Dipole moment (field-independent basis, Debye):
    X=              0.3770    Y=             -0.6094    Z=             -0.0783  Tot=              0.7209
 Quadrupole moment (field-independent basis, Debye-Ang):
   XX=            -61.2044   YY=            -70.5263   ZZ=            -65.0728
   XY=              1.4065   XZ=             -1.7047   YZ=              0.7188

 Normal termination of Gaussian 16 at Sun Dec  3 21:28:58 2023.
