 Gaussian 16, Revision B.01,
 Gaussian 16:  ES64L-G16RevB.01 20-Dec-2017

 -------------------------
 #P B3LYP/6-311+g(d) force
 -------------------------

 -----
 DPGEN
 -----
 Symbolic Z-matrix:
 Charge =  0 Multiplicity = 2

                         Standard orientation:
 ---------------------------------------------------------------------
 Center     Atomic      Atomic             Coordinates (Angstroms)
 Number     Number       Type             X           Y           Z
 ---------------------------------------------------------------------
      1         11           0       -0.095512   -0.608437   -1.754962
      2         11           0        2.709233    0.674782    0.589617
      3         11           0        2.139818   -2.558913   -0.304097
      4         11           0       -1.930081    1.791254    0.057431
      5         11           0        0.584233    2.578990   -0.680867
      6         11           0       -3.291654   -1.675897    0.114255
      7         11           0       -0.116037   -0.201781    1.978623
 ---------------------------------------------------------------------

 SCF Done:  E(UB3LYP) =  -1136.12475662     A.U. after   20 cycles

 The electronic state is 2-A.
 Alpha  occ. eigenvalues --  -38.44313 -38.44067 -38.43975 -38.43922 -38.43856
 Alpha  occ. eigenvalues --  -38.43641 -38.43136  -2.20070  -2.19964  -2.19876
 Alpha  occ. eigenvalues --   -2.19872  -2.19676  -2.19553  -2.19109  -1.13744
 Alpha  occ. eigenvalues --   -1.13737  -1.13710  -1.13703  -1.13662  -1.13633
 Alpha  occ. eigenvalues --   -1.13589  -1.13558  -1.13520  -1.13505  -1.13500
 Alpha  occ. eigenvalues --   -1.13480  -1.13369  -1.13326  -1.13311  -1.13233
 Alpha  occ. eigenvalues --   -1.13188  -1.13161  -1.12772  -1.12737  -1.12704
 Alpha  occ. eigenvalues --   -0.18838  -0.13127  -0.12234  -0.11189
 Alpha virt. eigenvalues --   -0.06039  -0.05362  -0.04001  -0.03407  -0.03040
 Alpha virt. eigenvalues --   -0.02756  -0.01736  -0.01249  -0.00313  -0.00119
 Alpha virt. eigenvalues --    0.00146   0.00328   0.00679   0.00776   0.00855

  Beta  occ. eigenvalues --  -38.44318 -38.43981 -38.43957 -38.43913 -38.43850
  Beta  occ. eigenvalues --  -38.43570 -38.43120  -2.20080  -2.19860  -2.19846
  Beta  occ. eigenvalues --   -2.19808  -2.19668  -2.19423  -2.19084  -1.13748
  Beta  occ. eigenvalues --   -1.13739  -1.13712  -1.13695  -1.13587  -1.13552
  Beta  occ. eigenvalues --   -1.13532  -1.13488  -1.13479  -1.13473  -1.13455
  Beta  occ. eigenvalues --   -1.13428  -1.13348  -1.13321  -1.13301  -1.13148
  Beta  occ. eigenvalues --   -1.13091  -1.13072  -1.12757  -1.12722  -1.12657
  Beta  occ. eigenvalues --   -0.18055  -0.12895  -0.12013
  Beta virt. eigenvalues --   -0.07234  -0.05984  -0.05259  -0.03936  -0.02669
  Beta virt. eigenvalues --   -0.02326  -0.01874  -0.01540  -0.01112  -0.00340
  Beta virt. eigenvalues --   -0.00003   0.00177   0.00359   0.00781   0.00838

 Mulliken charges and spin densities:
               1          2
     1  Na  -0.049852   0.343021
     2  Na   0.286362   0.211106
     3  Na  -0.169384  -0.033007
     4  Na   0.161326   0.091188
     5  Na   0.003890   0.077544
     6  Na  -0.129589  -0.037503
     7  Na  -0.102753   0.347651
 Sum of Mulliken charges =  -0.00000   1.00000

 Dipole moment (field-independent basis, Debye):
    X=             -0.1317    Y=             -0.6719    Z=              0.1744  Tot=              0.7065
 Quadrupole moment (field-independent basis, Debye-Ang):
   XX=            -57.6900   YY=            -64.7164   ZZ=            -72.3409
   XY=              0.9339   XZ=              0.1853   YZ=             -0.3997

 Normal termination of Gaussian 16 at Tue Dec  5 12:07:40 2023.
