 Gaussian 16, Revision B.01,
 Gaussian 16:  ES64L-G16RevB.01 20-Dec-2017

 -------------------------
 #P B3LYP/6-311+g(d) force
 -------------------------

 -----
 DPGEN
 -----
 Symbolic Z-matrix:
 Charge =  0 Multiplicity = 2

                         Standard orientation:
 ---------------------------------------------------------------------
 Center     Atomic      Atomic             Coordinates (Angstroms)
 Number     Number       Type             X           Y           Z
 ---------------------------------------------------------------------
      1         11           0        0.236866    3.164872   -0.249158
      2         11           0        1.928841   -2.453512    0.176286
      3         11           0       -0.168023   -0.312900   -1.520764
      4         11           0       -2.042562   -2.368274   -0.087959
      5         11           0        2.879875    0.634721   -0.358058
      6         11           0        0.086171    0.387378    2.085943
      7         11           0       -2.921169    0.947715   -0.046289
 ---------------------------------------------------------------------

 SCF Done:  E(UB3LYP) =  -1136.13815322     A.U. after   19 cycles

 The electronic state is 2-A.
 Alpha  occ. eigenvalues --  -38.44017 -38.43799 -38.43719 -38.43682 -38.43612
 Alpha  occ. eigenvalues --  -38.43487 -38.43048  -2.19849  -2.19642  -2.19579
 Alpha  occ. eigenvalues --   -2.19516  -2.19417  -2.19356  -2.19037  -1.13537
 Alpha  occ. eigenvalues --   -1.13520  -1.13479  -1.13353  -1.13292  -1.13284
 Alpha  occ. eigenvalues --   -1.13264  -1.13253  -1.13227  -1.13178  -1.13169
 Alpha  occ. eigenvalues --   -1.13138  -1.13090  -1.13077  -1.13062  -1.13020
 Alpha  occ. eigenvalues --   -1.12981  -1.12968  -1.12723  -1.12675  -1.12660
 Alpha  occ. eigenvalues --   -0.18476  -0.13040  -0.12452  -0.10512
 Alpha virt. eigenvalues --   -0.05513  -0.05215  -0.05071  -0.03099  -0.02880
 Alpha virt. eigenvalues --   -0.02390  -0.01413  -0.01315  -0.00539  -0.00478
 Alpha virt. eigenvalues --   -0.00002   0.00354   0.00813   0.00844   0.00863

  Beta  occ. eigenvalues --  -38.44013 -38.43797 -38.43709 -38.43678 -38.43608
  Beta  occ. eigenvalues --  -38.43390 -38.42994  -2.19845  -2.19639  -2.19565
  Beta  occ. eigenvalues --   -2.19512  -2.19413  -2.19175  -2.18940  -1.13532
  Beta  occ. eigenvalues --   -1.13500  -1.13477  -1.13345  -1.13279  -1.13277
  Beta  occ. eigenvalues --   -1.13264  -1.13228  -1.13211  -1.13171  -1.13151
  Beta  occ. eigenvalues --   -1.13137  -1.13074  -1.13070  -1.13057  -1.12901
  Beta  occ. eigenvalues --   -1.12855  -1.12839  -1.12650  -1.12602  -1.12591
  Beta  occ. eigenvalues --   -0.17767  -0.12812  -0.12245
  Beta virt. eigenvalues --   -0.06608  -0.05516  -0.05205  -0.04971  -0.02324
  Beta virt. eigenvalues --   -0.02138  -0.01355  -0.01319  -0.01237  -0.00583
  Beta virt. eigenvalues --   -0.00522   0.00152   0.00390   0.00828   0.00866

 Mulliken charges and spin densities:
               1          2
     1  Na   0.066449  -0.057664
     2  Na   0.108745   0.004742
     3  Na  -0.198621   0.360626
     4  Na   0.221085  -0.031452
     5  Na   0.189616  -0.005258
     6  Na  -0.536024   0.790976
     7  Na   0.148751  -0.061970
 Sum of Mulliken charges =  -0.00000   1.00000

 Dipole moment (field-independent basis, Debye):
    X=             -0.1889    Y=             -0.0339    Z=              0.1277  Tot=              0.2306
 Quadrupole moment (field-independent basis, Debye-Ang):
   XX=            -58.1738   YY=            -59.0719   ZZ=            -75.6540
   XY=             -0.3357   XZ=             -0.5353   YZ=             -1.7138

 Normal termination of Gaussian 16 at Thu Dec  7 17:17:18 2023.
