 Gaussian 16, Revision B.01,
 Gaussian 16:  ES64L-G16RevB.01 20-Dec-2017

 -------------------------
 #P B3LYP/6-311+g(d) force
 -------------------------

 -----
 DPGEN
 -----
 Symbolic Z-matrix:
 Charge =  0 Multiplicity = 2

                         Standard orientation:
 ---------------------------------------------------------------------
 Center     Atomic      Atomic             Coordinates (Angstroms)
 Number     Number       Type             X           Y           Z
 ---------------------------------------------------------------------
      1         11           0       -0.783292    1.732505    0.568394
      2         11           0        1.958338    2.075178   -1.212051
      3         11           0       -1.040868   -1.810729    1.707214
      4         11           0        2.433484   -1.802418   -0.698251
      5         11           0        1.960859    0.494681    1.889151
      6         11           0       -0.821321   -1.292665   -1.998383
      7         11           0       -3.707200    0.603449   -0.256074
 ---------------------------------------------------------------------

 SCF Done:  E(UB3LYP) =  -1136.12898878     A.U. after   21 cycles

 The electronic state is 2-A.
 Alpha  occ. eigenvalues --  -38.44612 -38.44336 -38.44038 -38.44035 -38.43871
 Alpha  occ. eigenvalues --  -38.43600 -38.42643  -2.20408  -2.20129  -2.19909
 Alpha  occ. eigenvalues --   -2.19843  -2.19702  -2.19399  -2.18557  -1.14089
 Alpha  occ. eigenvalues --   -1.14049  -1.14024  -1.13809  -1.13792  -1.13758
 Alpha  occ. eigenvalues --   -1.13603  -1.13561  -1.13523  -1.13521  -1.13497
 Alpha  occ. eigenvalues --   -1.13458  -1.13383  -1.13335  -1.13331  -1.13076
 Alpha  occ. eigenvalues --   -1.13061  -1.13036  -1.12256  -1.12245  -1.12171
 Alpha  occ. eigenvalues --   -0.18020  -0.13070  -0.11676  -0.11438
 Alpha virt. eigenvalues --   -0.06061  -0.05068  -0.04589  -0.03338  -0.03142
 Alpha virt. eigenvalues --   -0.02903  -0.01773  -0.00886  -0.00666  -0.00085
 Alpha virt. eigenvalues --    0.00194   0.00237   0.00354   0.00571   0.00809

  Beta  occ. eigenvalues --  -38.44556 -38.44336 -38.43995 -38.43994 -38.43842
  Beta  occ. eigenvalues --  -38.43596 -38.42632  -2.20305  -2.20129  -2.19834
  Beta  occ. eigenvalues --   -2.19762  -2.19647  -2.19394  -2.18542  -1.14014
  Beta  occ. eigenvalues --   -1.13972  -1.13952  -1.13811  -1.13784  -1.13759
  Beta  occ. eigenvalues --   -1.13547  -1.13515  -1.13468  -1.13456  -1.13440
  Beta  occ. eigenvalues --   -1.13397  -1.13343  -1.13299  -1.13289  -1.13061
  Beta  occ. eigenvalues --   -1.13052  -1.13033  -1.12241  -1.12207  -1.12168
  Beta  occ. eigenvalues --   -0.17243  -0.12945  -0.11234
  Beta virt. eigenvalues --   -0.07790  -0.05924  -0.04614  -0.04243  -0.03121
  Beta virt. eigenvalues --   -0.02555  -0.02079  -0.01697  -0.00746  -0.00345
  Beta virt. eigenvalues --    0.00030   0.00251   0.00321   0.00389   0.00729

 Mulliken charges and spin densities:
               1          2
     1  Na  -0.580582   0.226910
     2  Na   0.202150   0.078847
     3  Na  -0.088110   0.198843
     4  Na  -0.073970   0.034120
     5  Na   0.366033   0.266384
     6  Na  -0.227929   0.323186
     7  Na   0.402408  -0.128290
 Sum of Mulliken charges =  -0.00000   1.00000

 Dipole moment (field-independent basis, Debye):
    X=             -0.3417    Y=             -0.2920    Z=             -0.0657  Tot=              0.4543
 Quadrupole moment (field-independent basis, Debye-Ang):
   XX=            -55.0314   YY=            -75.1549   ZZ=            -64.7179
   XY=              1.1808   XZ=              0.1611   YZ=             -4.0000

 Normal termination of Gaussian 16 at Thu Dec  7 18:47:47 2023.
