 Gaussian 16, Revision B.01,
 Gaussian 16:  ES64L-G16RevB.01 20-Dec-2017

 -------------------------
 #P B3LYP/6-311+g(d) force
 -------------------------

 -----
 DPGEN
 -----
 Symbolic Z-matrix:
 Charge =  0 Multiplicity = 2

                         Standard orientation:
 ---------------------------------------------------------------------
 Center     Atomic      Atomic             Coordinates (Angstroms)
 Number     Number       Type             X           Y           Z
 ---------------------------------------------------------------------
      1         11           0        1.266701   -2.490995   -0.773843
      2         11           0        0.868174    3.125231   -0.251977
      3         11           0       -2.568774   -2.150223    0.213367
      4         11           0        0.341397    0.025238    2.180396
      5         11           0       -0.315552    0.430355   -1.351888
      6         11           0        3.406036   -0.277186    0.082444
      7         11           0       -2.997982    1.337582   -0.098499
 ---------------------------------------------------------------------

 SCF Done:  E(UB3LYP) =  -1136.12856797     A.U. after   20 cycles

 The electronic state is 2-A.
 Alpha  occ. eigenvalues --  -38.44688 -38.44649 -38.43993 -38.43810 -38.43663
 Alpha  occ. eigenvalues --  -38.43342 -38.43053  -2.20504  -2.20450  -2.19776
 Alpha  occ. eigenvalues --   -2.19647  -2.19465  -2.19195  -2.19040  -1.14220
 Alpha  occ. eigenvalues --   -1.14160  -1.14129  -1.14116  -1.14114  -1.14086
 Alpha  occ. eigenvalues --   -1.13447  -1.13430  -1.13427  -1.13311  -1.13271
 Alpha  occ. eigenvalues --   -1.13260  -1.13180  -1.13116  -1.13092  -1.12892
 Alpha  occ. eigenvalues --   -1.12843  -1.12827  -1.12724  -1.12690  -1.12657
 Alpha  occ. eigenvalues --   -0.18045  -0.13153  -0.12080  -0.10469
 Alpha virt. eigenvalues --   -0.06222  -0.05488  -0.04530  -0.03215  -0.02685
 Alpha virt. eigenvalues --   -0.02438  -0.01915  -0.01410  -0.00702  -0.00401
 Alpha virt. eigenvalues --   -0.00040   0.00305   0.00709   0.00720   0.00798

  Beta  occ. eigenvalues --  -38.44685 -38.44648 -38.43991 -38.43706 -38.43661
  Beta  occ. eigenvalues --  -38.43320 -38.43009  -2.20501  -2.20452  -2.19775
  Beta  occ. eigenvalues --   -2.19463  -2.19453  -2.19156  -2.18962  -1.14212
  Beta  occ. eigenvalues --   -1.14148  -1.14132  -1.14114  -1.14099  -1.14087
  Beta  occ. eigenvalues --   -1.13434  -1.13429  -1.13428  -1.13183  -1.13171
  Beta  occ. eigenvalues --   -1.13139  -1.13122  -1.13107  -1.13089  -1.12861
  Beta  occ. eigenvalues --   -1.12813  -1.12795  -1.12659  -1.12634  -1.12602
  Beta  occ. eigenvalues --   -0.17369  -0.12963  -0.11860
  Beta virt. eigenvalues --   -0.06591  -0.06168  -0.05416  -0.04443  -0.02509
  Beta virt. eigenvalues --   -0.02032  -0.01826  -0.01396  -0.01329  -0.00735
  Beta virt. eigenvalues --   -0.00383   0.00131   0.00353   0.00719   0.00790

 Mulliken charges and spin densities:
               1          2
     1  Na   0.079463   0.105008
     2  Na  -0.046695  -0.037050
     3  Na  -0.003355   0.053419
     4  Na  -0.468679   0.791306
     5  Na   0.156447   0.075366
     6  Na   0.142634   0.015744
     7  Na   0.140184  -0.003793
 Sum of Mulliken charges =  -0.00000   1.00000

 Dipole moment (field-independent basis, Debye):
    X=             -0.1031    Y=              0.2441    Z=              0.2555  Tot=              0.3681
 Quadrupole moment (field-independent basis, Debye-Ang):
   XX=            -52.6652   YY=            -63.2860   ZZ=            -76.5095
   XY=              0.9950   XZ=             -0.8755   YZ=              0.7275

 Normal termination of Gaussian 16 at Thu Dec  7 20:26:19 2023.
