 Gaussian 16, Revision B.01,
 Gaussian 16:  ES64L-G16RevB.01 20-Dec-2017

 -------------------------
 #P B3LYP/6-311+g(d) force
 -------------------------

 -----
 DPGEN
 -----
 Symbolic Z-matrix:
 Charge =  0 Multiplicity = 2

                         Standard orientation:
 ---------------------------------------------------------------------
 Center     Atomic      Atomic             Coordinates (Angstroms)
 Number     Number       Type             X           Y           Z
 ---------------------------------------------------------------------
      1         11           0        2.604236   -1.351672    0.179024
      2         11           0        2.069631    2.203308   -0.088025
      3         11           0       -0.079502   -0.096880    1.652003
      4         11           0       -3.178854   -0.181354   -0.272130
      5         11           0       -0.675585   -2.832216    0.102284
      6         11           0        0.519620   -0.389219   -1.646909
      7         11           0       -1.259546    2.648033    0.073754
 ---------------------------------------------------------------------

 SCF Done:  E(UB3LYP) =  -1136.13591196     A.U. after   20 cycles

 The electronic state is 2-A.
 Alpha  occ. eigenvalues --  -38.43916 -38.43866 -38.43655 -38.43605 -38.43530
 Alpha  occ. eigenvalues --  -38.43082 -38.42860  -2.19786  -2.19729  -2.19545
 Alpha  occ. eigenvalues --   -2.19466  -2.19385  -2.19101  -2.18874  -1.13548
 Alpha  occ. eigenvalues --   -1.13450  -1.13399  -1.13393  -1.13390  -1.13376
 Alpha  occ. eigenvalues --   -1.13249  -1.13225  -1.13157  -1.13152  -1.13130
 Alpha  occ. eigenvalues --   -1.13113  -1.13065  -1.13043  -1.13008  -1.12785
 Alpha  occ. eigenvalues --   -1.12726  -1.12702  -1.12557  -1.12499  -1.12485
 Alpha  occ. eigenvalues --   -0.19075  -0.13038  -0.12893  -0.10379
 Alpha virt. eigenvalues --   -0.05534  -0.05214  -0.04974  -0.02973  -0.02855
 Alpha virt. eigenvalues --   -0.02048  -0.01409  -0.01261  -0.00406  -0.00340
 Alpha virt. eigenvalues --    0.00047   0.00353   0.00859   0.00873   0.00906

  Beta  occ. eigenvalues --  -38.43912 -38.43855 -38.43646 -38.43600 -38.43527
  Beta  occ. eigenvalues --  -38.43011 -38.42782  -2.19771  -2.19725  -2.19533
  Beta  occ. eigenvalues --   -2.19461  -2.19382  -2.18972  -2.18732  -1.13532
  Beta  occ. eigenvalues --   -1.13406  -1.13393  -1.13381  -1.13380  -1.13374
  Beta  occ. eigenvalues --   -1.13243  -1.13182  -1.13154  -1.13146  -1.13114
  Beta  occ. eigenvalues --   -1.13101  -1.13057  -1.13026  -1.13011  -1.12698
  Beta  occ. eigenvalues --   -1.12633  -1.12608  -1.12461  -1.12393  -1.12383
  Beta  occ. eigenvalues --   -0.18359  -0.12791  -0.12632
  Beta virt. eigenvalues --   -0.06476  -0.05500  -0.05205  -0.04932  -0.02206
  Beta virt. eigenvalues --   -0.02072  -0.01335  -0.01210  -0.01028  -0.00451
  Beta virt. eigenvalues --   -0.00390   0.00181   0.00393   0.00866   0.00892

 Mulliken charges and spin densities:
               1          2
     1  Na   0.510071  -0.079834
     2  Na   0.075795  -0.095422
     3  Na  -0.258792   0.619077
     4  Na  -0.116304  -0.053155
     5  Na   0.247265  -0.058080
     6  Na  -0.451833   0.745723
     7  Na  -0.006202  -0.078309
 Sum of Mulliken charges =  -0.00000   1.00000

 Dipole moment (field-independent basis, Debye):
    X=             -0.0445    Y=             -0.0797    Z=              0.0080  Tot=              0.0916
 Quadrupole moment (field-independent basis, Debye-Ang):
   XX=            -56.5859   YY=            -59.3238   ZZ=            -76.3483
   XY=              0.4996   XZ=              1.4389   YZ=             -0.6163

 Normal termination of Gaussian 16 at Tue Nov 28 21:47:49 2023.
