 Gaussian 16, Revision B.01,
 Gaussian 16:  ES64L-G16RevB.01 20-Dec-2017

 -------------------------
 #P B3LYP/6-311+g(d) force
 -------------------------

 -----
 DPGEN
 -----
 Symbolic Z-matrix:
 Charge =  0 Multiplicity = 2

                         Standard orientation:
 ---------------------------------------------------------------------
 Center     Atomic      Atomic             Coordinates (Angstroms)
 Number     Number       Type             X           Y           Z
 ---------------------------------------------------------------------
      1         11           0        2.121983    2.486957    0.093273
      2         11           0       -0.235413    0.028664    1.508517
      3         11           0        0.126725   -2.892101    0.351213
      4         11           0        2.943670   -1.118708   -0.212266
      5         11           0        0.253931    0.148708   -1.403462
      6         11           0       -2.143841    2.687398    0.064425
      7         11           0       -3.067055   -1.340918   -0.401700
 ---------------------------------------------------------------------

 SCF Done:  E(UB3LYP) =  -1136.12944193     A.U. after   24 cycles

 The electronic state is 2-A.
 Alpha  occ. eigenvalues --  -38.44530 -38.44296 -38.44190 -38.43874 -38.43292
 Alpha  occ. eigenvalues --  -38.42998 -38.42771  -2.20292  -2.20098  -2.19980
 Alpha  occ. eigenvalues --   -2.19735  -2.19186  -2.19014  -2.18774  -1.13973
 Alpha  occ. eigenvalues --   -1.13943  -1.13931  -1.13781  -1.13766  -1.13727
 Alpha  occ. eigenvalues --   -1.13651  -1.13629  -1.13621  -1.13435  -1.13386
 Alpha  occ. eigenvalues --   -1.13371  -1.12908  -1.12848  -1.12823  -1.12809
 Alpha  occ. eigenvalues --   -1.12626  -1.12609  -1.12458  -1.12374  -1.12363
 Alpha  occ. eigenvalues --   -0.18553  -0.12894  -0.12656  -0.09683
 Alpha virt. eigenvalues --   -0.06134  -0.05532  -0.04901  -0.02745  -0.02584
 Alpha virt. eigenvalues --   -0.01831  -0.01733  -0.01497  -0.00796  -0.00600
 Alpha virt. eigenvalues --    0.00053   0.00312   0.00682   0.00774   0.00836

  Beta  occ. eigenvalues --  -38.44529 -38.44294 -38.44173 -38.43866 -38.43277
  Beta  occ. eigenvalues --  -38.42946 -38.42700  -2.20293  -2.20097  -2.19951
  Beta  occ. eigenvalues --   -2.19723  -2.19163  -2.18919  -2.18646  -1.13961
  Beta  occ. eigenvalues --   -1.13945  -1.13930  -1.13773  -1.13759  -1.13721
  Beta  occ. eigenvalues --   -1.13616  -1.13611  -1.13603  -1.13424  -1.13370
  Beta  occ. eigenvalues --   -1.13350  -1.12883  -1.12810  -1.12786  -1.12752
  Beta  occ. eigenvalues --   -1.12561  -1.12537  -1.12367  -1.12282  -1.12267
  Beta  occ. eigenvalues --   -0.17893  -0.12612  -0.12406
  Beta virt. eigenvalues --   -0.06162  -0.05916  -0.05421  -0.04857  -0.02068
  Beta virt. eigenvalues --   -0.01895  -0.01711  -0.01642  -0.00819  -0.00658
  Beta virt. eigenvalues --   -0.00618   0.00194   0.00375   0.00690   0.00823

 Mulliken charges and spin densities:
               1          2
     1  Na   0.036615  -0.117188
     2  Na  -0.116021   0.467234
     3  Na   0.378100   0.106337
     4  Na   0.342329   0.012781
     5  Na  -0.456028   0.550873
     6  Na  -0.105070  -0.100013
     7  Na  -0.079924   0.079975
 Sum of Mulliken charges =  -0.00000   1.00000

 Dipole moment (field-independent basis, Debye):
    X=             -0.0943    Y=              0.5322    Z=              0.0629  Tot=              0.5442
 Quadrupole moment (field-independent basis, Debye-Ang):
   XX=            -53.2228   YY=            -56.1430   ZZ=            -79.3361
   XY=             -0.2630   XZ=              1.1076   YZ=              0.3040

 Normal termination of Gaussian 16 at Thu Dec  7 21:41:40 2023.
