 Gaussian 16, Revision B.01,
 Gaussian 16:  ES64L-G16RevB.01 20-Dec-2017

 -------------------------
 #P B3LYP/6-311+g(d) force
 -------------------------

 -----
 DPGEN
 -----
 Symbolic Z-matrix:
 Charge =  0 Multiplicity = 2

                         Standard orientation:
 ---------------------------------------------------------------------
 Center     Atomic      Atomic             Coordinates (Angstroms)
 Number     Number       Type             X           Y           Z
 ---------------------------------------------------------------------
      1         11           0        1.201013    2.963792    0.806573
      2         11           0       -2.690491    2.824522   -0.759413
      3         11           0        4.051689    1.596598    0.129941
      4         11           0       -2.648786   -2.268862    1.303871
      5         11           0        3.989294   -2.042077   -0.509010
      6         11           0        0.399245   -2.875117   -0.475508
      7         11           0       -4.301963   -0.198857   -0.496455
 ---------------------------------------------------------------------

 SCF Done:  E(UB3LYP) =  -1136.10629088     A.U. after   24 cycles

 The electronic state is 2-A.
 Alpha  occ. eigenvalues --  -38.45209 -38.45155 -38.44731 -38.44444 -38.44371
 Alpha  occ. eigenvalues --  -38.44169 -38.44093  -2.20952  -2.20941  -2.20519
 Alpha  occ. eigenvalues --   -2.20220  -2.20149  -2.19952  -2.19917  -1.14639
 Alpha  occ. eigenvalues --   -1.14637  -1.14631  -1.14617  -1.14600  -1.14562
 Alpha  occ. eigenvalues --   -1.14200  -1.14189  -1.14157  -1.13884  -1.13880
 Alpha  occ. eigenvalues --   -1.13846  -1.13809  -1.13794  -1.13776  -1.13610
 Alpha  occ. eigenvalues --   -1.13590  -1.13584  -1.13575  -1.13560  -1.13545
 Alpha  occ. eigenvalues --   -0.15627  -0.14182  -0.12964  -0.10803
 Alpha virt. eigenvalues --   -0.07675  -0.04980  -0.04529  -0.03569  -0.03485
 Alpha virt. eigenvalues --   -0.02612  -0.02259  -0.01712  -0.01078  -0.00846
 Alpha virt. eigenvalues --   -0.00812  -0.00365  -0.00009   0.00439   0.00602

  Beta  occ. eigenvalues --  -38.45213 -38.45147 -38.44712 -38.44413 -38.44313
  Beta  occ. eigenvalues --  -38.44110 -38.44043  -2.20952  -2.20942  -2.20487
  Beta  occ. eigenvalues --   -2.20166  -2.20043  -2.19841  -2.19823  -1.14649
  Beta  occ. eigenvalues --   -1.14644  -1.14632  -1.14615  -1.14557  -1.14538
  Beta  occ. eigenvalues --   -1.14171  -1.14170  -1.14118  -1.13850  -1.13846
  Beta  occ. eigenvalues --   -1.13793  -1.13738  -1.13726  -1.13697  -1.13535
  Beta  occ. eigenvalues --   -1.13518  -1.13515  -1.13507  -1.13496  -1.13482
  Beta  occ. eigenvalues --   -0.15121  -0.13465  -0.12148
  Beta virt. eigenvalues --   -0.07861  -0.07729  -0.04551  -0.04039  -0.03378
  Beta virt. eigenvalues --   -0.03184  -0.02376  -0.02099  -0.01409  -0.00793
  Beta virt. eigenvalues --   -0.00709  -0.00567  -0.00147   0.00174   0.00486

 Mulliken charges and spin densities:
               1          2
     1  Na  -0.178918   0.096503
     2  Na   0.108035   0.254422
     3  Na   0.035606   0.073431
     4  Na  -0.053878   0.241274
     5  Na   0.233845   0.256369
     6  Na  -0.342685   0.028260
     7  Na   0.197996   0.049742
 Sum of Mulliken charges =  -0.00000   1.00000

 Dipole moment (field-independent basis, Debye):
    X=             -0.2405    Y=             -0.1771    Z=             -0.0034  Tot=              0.2987
 Quadrupole moment (field-independent basis, Debye-Ang):
   XX=            -57.0638   YY=            -73.0209   ZZ=            -71.3587
   XY=              2.3322   XZ=             -0.5489   YZ=              0.2672

 Normal termination of Gaussian 16 at Sun Dec  3 22:21:25 2023.
