 Gaussian 16, Revision B.01,
 Gaussian 16:  ES64L-G16RevB.01 20-Dec-2017

 -------------------------
 #P B3LYP/6-311+g(d) force
 -------------------------

 -----
 DPGEN
 -----
 Symbolic Z-matrix:
 Charge =  0 Multiplicity = 2

                         Standard orientation:
 ---------------------------------------------------------------------
 Center     Atomic      Atomic             Coordinates (Angstroms)
 Number     Number       Type             X           Y           Z
 ---------------------------------------------------------------------
      1         11           0       -1.561203    1.532419   -1.495635
      2         11           0        1.992622   -0.121860    1.933803
      3         11           0        3.611781   -1.110192   -1.015278
      4         11           0        1.472405    1.726568   -0.738103
      5         11           0       -1.561395    1.100152    1.784267
      6         11           0       -3.865135   -1.467675   -0.346812
      7         11           0       -0.089075   -1.659411   -0.122242
 ---------------------------------------------------------------------

 SCF Done:  E(UB3LYP) =  -1136.12472045     A.U. after   25 cycles

 The electronic state is 2-A.
 Alpha  occ. eigenvalues --  -38.44531 -38.44488 -38.44374 -38.44131 -38.43742
 Alpha  occ. eigenvalues --  -38.43438 -38.42928  -2.20371  -2.20299  -2.20272
 Alpha  occ. eigenvalues --   -2.19966  -2.19503  -2.19326  -2.18844  -1.14055
 Alpha  occ. eigenvalues --   -1.14035  -1.13979  -1.13970  -1.13967  -1.13959
 Alpha  occ. eigenvalues --   -1.13939  -1.13921  -1.13850  -1.13688  -1.13660
 Alpha  occ. eigenvalues --   -1.13545  -1.13181  -1.13170  -1.13131  -1.13033
 Alpha  occ. eigenvalues --   -1.12981  -1.12932  -1.12542  -1.12515  -1.12441
 Alpha  occ. eigenvalues --   -0.18426  -0.13790  -0.11504  -0.10943
 Alpha virt. eigenvalues --   -0.06462  -0.05483  -0.04728  -0.03210  -0.02555
 Alpha virt. eigenvalues --   -0.02383  -0.02247  -0.01429  -0.00738  -0.00177
 Alpha virt. eigenvalues --    0.00112   0.00302   0.00406   0.00414   0.00599

  Beta  occ. eigenvalues --  -38.44491 -38.44462 -38.44316 -38.44122 -38.43740
  Beta  occ. eigenvalues --  -38.43406 -38.42905  -2.20298  -2.20249  -2.20168
  Beta  occ. eigenvalues --   -2.19954  -2.19501  -2.19266  -2.18804  -1.14003
  Beta  occ. eigenvalues --   -1.13969  -1.13930  -1.13927  -1.13919  -1.13908
  Beta  occ. eigenvalues --   -1.13887  -1.13867  -1.13760  -1.13658  -1.13642
  Beta  occ. eigenvalues --   -1.13543  -1.13176  -1.13169  -1.13130  -1.12988
  Beta  occ. eigenvalues --   -1.12943  -1.12887  -1.12507  -1.12475  -1.12411
  Beta  occ. eigenvalues --   -0.17694  -0.13606  -0.10763
  Beta virt. eigenvalues --   -0.07561  -0.06246  -0.05264  -0.04215  -0.02853
  Beta virt. eigenvalues --   -0.02326  -0.01934  -0.01732  -0.01159  -0.00377
  Beta virt. eigenvalues --   -0.00062   0.00164   0.00330   0.00530   0.00568

 Mulliken charges and spin densities:
               1          2
     1  Na   0.291910   0.081169
     2  Na   0.475821   0.253239
     3  Na   0.517267   0.017698
     4  Na  -0.510051   0.354435
     5  Na  -0.032816   0.142457
     6  Na   0.155473  -0.024490
     7  Na  -0.897603   0.175493
 Sum of Mulliken charges =  -0.00000   1.00000

 Dipole moment (field-independent basis, Debye):
    X=              0.5484    Y=              0.2220    Z=              0.3436  Tot=              0.6842
 Quadrupole moment (field-independent basis, Debye-Ang):
   XX=            -52.2345   YY=            -77.3466   ZZ=            -65.6469
   XY=             -3.0989   XZ=             -1.4724   YZ=              2.6308

 Normal termination of Gaussian 16 at Wed Nov 29 17:05:13 2023.
