 Gaussian 16, Revision B.01,
 Gaussian 16:  ES64L-G16RevB.01 20-Dec-2017

 -------------------------
 #P B3LYP/6-311+g(d) force
 -------------------------

 -----
 DPGEN
 -----
 Symbolic Z-matrix:
 Charge =  0 Multiplicity = 2

                         Standard orientation:
 ---------------------------------------------------------------------
 Center     Atomic      Atomic             Coordinates (Angstroms)
 Number     Number       Type             X           Y           Z
 ---------------------------------------------------------------------
      1         11           0        2.653667   -1.999138    0.576192
      2         11           0       -2.353728    1.761499   -0.650505
      3         11           0       -2.958632   -1.551002   -0.414681
      4         11           0       -0.992228   -0.347775    2.016433
      5         11           0        0.617475    2.049829    0.962532
      6         11           0        3.204660    0.967550   -0.979574
      7         11           0       -0.171214   -0.880963   -1.510399
 ---------------------------------------------------------------------

 SCF Done:  E(UB3LYP) =  -1136.12506060     A.U. after   20 cycles

 The electronic state is 2-A.
 Alpha  occ. eigenvalues --  -38.44630 -38.44430 -38.44146 -38.43834 -38.43831
 Alpha  occ. eigenvalues --  -38.43818 -38.42350  -2.20445  -2.20212  -2.20013
 Alpha  occ. eigenvalues --   -2.19748  -2.19737  -2.19718  -2.18251  -1.14115
 Alpha  occ. eigenvalues --   -1.14099  -1.14080  -1.13875  -1.13870  -1.13853
 Alpha  occ. eigenvalues --   -1.13698  -1.13672  -1.13641  -1.13510  -1.13449
 Alpha  occ. eigenvalues --   -1.13430  -1.13396  -1.13388  -1.13350  -1.13343
 Alpha  occ. eigenvalues --   -1.13332  -1.13286  -1.11963  -1.11907  -1.11871
 Alpha  occ. eigenvalues --   -0.18517  -0.13886  -0.11396  -0.11086
 Alpha virt. eigenvalues --   -0.06164  -0.05921  -0.04150  -0.03166  -0.02776
 Alpha virt. eigenvalues --   -0.02744  -0.02026  -0.01225  -0.00394  -0.00292
 Alpha virt. eigenvalues --    0.00203   0.00262   0.00425   0.00609   0.00735

  Beta  occ. eigenvalues --  -38.44610 -38.44422 -38.44123 -38.43828 -38.43805
  Beta  occ. eigenvalues --  -38.43724 -38.42337  -2.20408  -2.20198  -2.19970
  Beta  occ. eigenvalues --   -2.19718  -2.19684  -2.19575  -2.18232  -1.14087
  Beta  occ. eigenvalues --   -1.14074  -1.14057  -1.13866  -1.13854  -1.13839
  Beta  occ. eigenvalues --   -1.13665  -1.13645  -1.13601  -1.13492  -1.13395
  Beta  occ. eigenvalues --   -1.13372  -1.13345  -1.13328  -1.13318  -1.13264
  Beta  occ. eigenvalues --   -1.13240  -1.13221  -1.11939  -1.11871  -1.11864
  Beta  occ. eigenvalues --   -0.17800  -0.13653  -0.11164
  Beta virt. eigenvalues --   -0.07314  -0.05948  -0.05692  -0.03782  -0.03010
  Beta virt. eigenvalues --   -0.02087  -0.01944  -0.01786  -0.01013  -0.00287
  Beta virt. eigenvalues --   -0.00086   0.00233   0.00313   0.00553   0.00694

 Mulliken charges and spin densities:
               1          2
     1  Na  -0.065227  -0.017150
     2  Na  -0.100109   0.003393
     3  Na   0.647371   0.027160
     4  Na  -0.126135   0.532758
     5  Na  -0.139381   0.158982
     6  Na   0.386485  -0.039725
     7  Na  -0.603005   0.334581
 Sum of Mulliken charges =  -0.00000   1.00000

 Dipole moment (field-independent basis, Debye):
    X=              0.1433    Y=             -0.1766    Z=             -0.2619  Tot=              0.3469
 Quadrupole moment (field-independent basis, Debye-Ang):
   XX=            -51.9528   YY=            -71.8961   ZZ=            -70.7144
   XY=             -0.0673   XZ=             -0.0754   YZ=             -5.0958

 Normal termination of Gaussian 16 at Wed Nov 29 15:50:35 2023.
