 Gaussian 16, Revision B.01,
 Gaussian 16:  ES64L-G16RevB.01 20-Dec-2017

 -------------------------
 #P B3LYP/6-311+g(d) force
 -------------------------

 -----
 DPGEN
 -----
 Symbolic Z-matrix:
 Charge =  0 Multiplicity = 2

                         Standard orientation:
 ---------------------------------------------------------------------
 Center     Atomic      Atomic             Coordinates (Angstroms)
 Number     Number       Type             X           Y           Z
 ---------------------------------------------------------------------
      1         11           0       -0.421219   -2.630311   -0.365089
      2         11           0       -0.079536    0.041243    2.119049
      3         11           0        2.328728    1.654959   -0.292469
      4         11           0       -0.160952    0.122795   -1.571809
      5         11           0       -3.193848   -0.722023    0.021069
      6         11           0       -1.331296    2.775407   -0.060882
      7         11           0        2.858123   -1.242070    0.150131
 ---------------------------------------------------------------------

 SCF Done:  E(UB3LYP) =  -1136.13380708     A.U. after   19 cycles

 The electronic state is 2-A.
 Alpha  occ. eigenvalues --  -38.44480 -38.43803 -38.43758 -38.43755 -38.43379
 Alpha  occ. eigenvalues --  -38.43132 -38.43123  -2.20291  -2.19680  -2.19653
 Alpha  occ. eigenvalues --   -2.19629  -2.19201  -2.19161  -2.19022  -1.13965
 Alpha  occ. eigenvalues --   -1.13950  -1.13931  -1.13505  -1.13353  -1.13332
 Alpha  occ. eigenvalues --   -1.13304  -1.13293  -1.13283  -1.13252  -1.13243
 Alpha  occ. eigenvalues --   -1.13214  -1.12943  -1.12902  -1.12864  -1.12832
 Alpha  occ. eigenvalues --   -1.12807  -1.12762  -1.12668  -1.12663  -1.12627
 Alpha  occ. eigenvalues --   -0.18830  -0.13249  -0.12261  -0.10855
 Alpha virt. eigenvalues --   -0.05932  -0.05073  -0.04342  -0.03304  -0.02786
 Alpha virt. eigenvalues --   -0.02670  -0.01748  -0.01076  -0.00248  -0.00180
 Alpha virt. eigenvalues --   -0.00008   0.00348   0.00776   0.00870   0.00932

  Beta  occ. eigenvalues --  -38.44479 -38.43800 -38.43749 -38.43656 -38.43377
  Beta  occ. eigenvalues --  -38.43111 -38.43069  -2.20292  -2.19676  -2.19643
  Beta  occ. eigenvalues --   -2.19446  -2.19201  -2.19048  -2.19004  -1.13954
  Beta  occ. eigenvalues --   -1.13948  -1.13931  -1.13505  -1.13338  -1.13308
  Beta  occ. eigenvalues --   -1.13294  -1.13260  -1.13212  -1.13174  -1.13126
  Beta  occ. eigenvalues --   -1.13112  -1.12907  -1.12863  -1.12849  -1.12832
  Beta  occ. eigenvalues --   -1.12734  -1.12686  -1.12642  -1.12620  -1.12609
  Beta  occ. eigenvalues --   -0.18089  -0.13033  -0.12013
  Beta virt. eigenvalues --   -0.06894  -0.05893  -0.05062  -0.04332  -0.02510
  Beta virt. eigenvalues --   -0.02013  -0.01657  -0.01562  -0.01016  -0.00296
  Beta virt. eigenvalues --   -0.00211   0.00127   0.00371   0.00826   0.00867

 Mulliken charges and spin densities:
               1          2
     1  Na   0.333008   0.034083
     2  Na  -0.648189   0.788363
     3  Na   0.327595  -0.012498
     4  Na  -0.317020   0.274603
     5  Na   0.105458  -0.050848
     6  Na   0.053710  -0.086786
     7  Na   0.145438   0.053083
 Sum of Mulliken charges =  -0.00000   1.00000

 Dipole moment (field-independent basis, Debye):
    X=             -0.4085    Y=              0.0182    Z=              0.2927  Tot=              0.5028
 Quadrupole moment (field-independent basis, Debye-Ang):
   XX=            -54.3314   YY=            -64.8748   ZZ=            -74.1777
   XY=             -0.5589   XZ=             -0.2850   YZ=             -0.0579

 Normal termination of Gaussian 16 at Fri Dec  8 06:58:34 2023.
