 Gaussian 16, Revision B.01,
 Gaussian 16:  ES64L-G16RevB.01 20-Dec-2017

 -------------------------
 #P B3LYP/6-311+g(d) force
 -------------------------

 -----
 DPGEN
 -----
 Symbolic Z-matrix:
 Charge =  0 Multiplicity = 2

                         Standard orientation:
 ---------------------------------------------------------------------
 Center     Atomic      Atomic             Coordinates (Angstroms)
 Number     Number       Type             X           Y           Z
 ---------------------------------------------------------------------
      1         11           0        1.543479    2.362684    0.216062
      2         11           0       -1.989753    2.241365    0.047628
      3         11           0        0.323370   -2.806655   -0.135211
      4         11           0       -0.205889   -0.468923    2.014165
      5         11           0        3.249685   -0.452070   -0.219087
      6         11           0       -2.768948   -1.131054   -0.244320
      7         11           0       -0.151945    0.254653   -1.679237
 ---------------------------------------------------------------------

 SCF Done:  E(UB3LYP) =  -1136.13902992     A.U. after   19 cycles

 The electronic state is 2-A.
 Alpha  occ. eigenvalues --  -38.44064 -38.43845 -38.43501 -38.43438 -38.43385
 Alpha  occ. eigenvalues --  -38.43307 -38.43208  -2.19871  -2.19722  -2.19412
 Alpha  occ. eigenvalues --   -2.19304  -2.19252  -2.19198  -2.19176  -1.13543
 Alpha  occ. eigenvalues --   -1.13537  -1.13512  -1.13414  -1.13390  -1.13350
 Alpha  occ. eigenvalues --   -1.13095  -1.13053  -1.13029  -1.13026  -1.12967
 Alpha  occ. eigenvalues --   -1.12955  -1.12940  -1.12914  -1.12883  -1.12873
 Alpha  occ. eigenvalues --   -1.12847  -1.12844  -1.12811  -1.12797  -1.12792
 Alpha  occ. eigenvalues --   -0.18824  -0.13038  -0.12551  -0.10781
 Alpha virt. eigenvalues --   -0.05644  -0.05098  -0.04637  -0.03143  -0.03004
 Alpha virt. eigenvalues --   -0.02523  -0.01522  -0.01060  -0.00336  -0.00205
 Alpha virt. eigenvalues --   -0.00018   0.00360   0.00820   0.00894   0.00920

  Beta  occ. eigenvalues --  -38.44063 -38.43835 -38.43433 -38.43409 -38.43380
  Beta  occ. eigenvalues --  -38.43300 -38.43143  -2.19871  -2.19708  -2.19300
  Beta  occ. eigenvalues --   -2.19247  -2.19241  -2.19168  -2.19078  -1.13544
  Beta  occ. eigenvalues --   -1.13524  -1.13514  -1.13402  -1.13357  -1.13342
  Beta  occ. eigenvalues --   -1.13016  -1.12992  -1.12954  -1.12947  -1.12933
  Beta  occ. eigenvalues --   -1.12924  -1.12911  -1.12889  -1.12870  -1.12848
  Beta  occ. eigenvalues --   -1.12805  -1.12791  -1.12783  -1.12731  -1.12718
  Beta  occ. eigenvalues --   -0.18084  -0.12813  -0.12308
  Beta virt. eigenvalues --   -0.06851  -0.05609  -0.05105  -0.04570  -0.02381
  Beta virt. eigenvalues --   -0.02201  -0.01490  -0.01419  -0.00998  -0.00383
  Beta virt. eigenvalues --   -0.00251   0.00127   0.00383   0.00869   0.00883

 Mulliken charges and spin densities:
               1          2
     1  Na   0.083271  -0.022341
     2  Na   0.191096  -0.026574
     3  Na   0.193831  -0.096609
     4  Na  -0.521648   0.741653
     5  Na  -0.014987  -0.074438
     6  Na   0.364422  -0.051324
     7  Na  -0.295985   0.529633
 Sum of Mulliken charges =  -0.00000   1.00000

 Dipole moment (field-independent basis, Debye):
    X=              0.0156    Y=             -0.1044    Z=              0.0895  Tot=              0.1384
 Quadrupole moment (field-independent basis, Debye-Ang):
   XX=            -56.2224   YY=            -63.4222   ZZ=            -73.9562
   XY=             -0.6230   XZ=             -0.0600   YZ=              1.7126

 Normal termination of Gaussian 16 at Thu Dec  7 16:26:13 2023.
