 Gaussian 16, Revision B.01,
 Gaussian 16:  ES64L-G16RevB.01 20-Dec-2017

 -------------------------
 #P B3LYP/6-311+g(d) force
 -------------------------

 -----
 DPGEN
 -----
 Symbolic Z-matrix:
 Charge =  0 Multiplicity = 2

                         Standard orientation:
 ---------------------------------------------------------------------
 Center     Atomic      Atomic             Coordinates (Angstroms)
 Number     Number       Type             X           Y           Z
 ---------------------------------------------------------------------
      1         11           0        3.073427   -1.306685   -0.466791
      2         11           0        0.398569    0.125181    2.302168
      3         11           0       -3.259282   -1.025469   -0.115477
      4         11           0       -2.461221    2.460613   -0.232057
      5         11           0       -0.334476   -2.721764   -0.002026
      6         11           0        2.470180    2.329348   -0.111783
      7         11           0        0.112803    0.138775   -1.374033
 ---------------------------------------------------------------------

 SCF Done:  E(UB3LYP) =  -1136.12905972     A.U. after   21 cycles

 The electronic state is 2-A.
 Alpha  occ. eigenvalues --  -38.44526 -38.44460 -38.44296 -38.44052 -38.43785
 Alpha  occ. eigenvalues --  -38.43476 -38.42846  -2.20333  -2.20259  -2.20078
 Alpha  occ. eigenvalues --   -2.19817  -2.19618  -2.19417  -2.18715  -1.14013
 Alpha  occ. eigenvalues --   -1.13985  -1.13964  -1.13935  -1.13920  -1.13898
 Alpha  occ. eigenvalues --   -1.13756  -1.13736  -1.13719  -1.13493  -1.13471
 Alpha  occ. eigenvalues --   -1.13461  -1.13271  -1.13242  -1.13230  -1.13130
 Alpha  occ. eigenvalues --   -1.13078  -1.13033  -1.12416  -1.12371  -1.12343
 Alpha  occ. eigenvalues --   -0.17963  -0.13244  -0.11823  -0.10540
 Alpha virt. eigenvalues --   -0.06171  -0.05974  -0.04306  -0.03116  -0.02680
 Alpha virt. eigenvalues --   -0.02452  -0.02011  -0.01531  -0.00957  -0.00382
 Alpha virt. eigenvalues --   -0.00078   0.00247   0.00624   0.00692   0.00862

  Beta  occ. eigenvalues --  -38.44510 -38.44460 -38.44293 -38.44052 -38.43666
  Beta  occ. eigenvalues --  -38.43442 -38.42842  -2.20305  -2.20260  -2.20077
  Beta  occ. eigenvalues --   -2.19819  -2.19398  -2.19357  -2.18710  -1.13981
  Beta  occ. eigenvalues --   -1.13962  -1.13947  -1.13929  -1.13920  -1.13900
  Beta  occ. eigenvalues --   -1.13750  -1.13727  -1.13715  -1.13488  -1.13473
  Beta  occ. eigenvalues --   -1.13462  -1.13127  -1.13092  -1.13077  -1.13072
  Beta  occ. eigenvalues --   -1.13032  -1.12984  -1.12413  -1.12345  -1.12339
  Beta  occ. eigenvalues --   -0.17295  -0.13046  -0.11650
  Beta virt. eigenvalues --   -0.06567  -0.06143  -0.05855  -0.04284  -0.02467
  Beta virt. eigenvalues --   -0.01918  -0.01821  -0.01624  -0.01339  -0.00981
  Beta virt. eigenvalues --   -0.00399   0.00118   0.00315   0.00683   0.00734

 Mulliken charges and spin densities:
               1          2
     1  Na   0.345470   0.109180
     2  Na  -0.511441   0.732321
     3  Na   0.072024  -0.000707
     4  Na   0.122224   0.006830
     5  Na   0.159319   0.086130
     6  Na   0.050480   0.013010
     7  Na  -0.238075   0.053236
 Sum of Mulliken charges =  -0.00000   1.00000

 Dipole moment (field-independent basis, Debye):
    X=              0.2572    Y=              0.1636    Z=              0.0657  Tot=              0.3118
 Quadrupole moment (field-independent basis, Debye-Ang):
   XX=            -52.4199   YY=            -64.1866   ZZ=            -76.3013
   XY=              0.6450   XZ=             -0.8905   YZ=              0.0766

 Normal termination of Gaussian 16 at Fri Dec  8 03:03:23 2023.
