 Gaussian 16, Revision B.01,
 Gaussian 16:  ES64L-G16RevB.01 20-Dec-2017

 -------------------------
 #P B3LYP/6-311+g(d) force
 -------------------------

 -----
 DPGEN
 -----
 Symbolic Z-matrix:
 Charge =  0 Multiplicity = 2

                         Standard orientation:
 ---------------------------------------------------------------------
 Center     Atomic      Atomic             Coordinates (Angstroms)
 Number     Number       Type             X           Y           Z
 ---------------------------------------------------------------------
      1         11           0        4.397239   -0.086958    0.374221
      2         11           0        1.378445    2.104321   -0.614236
      3         11           0       -4.029325   -0.155819    0.452136
      4         11           0       -1.846986   -2.322913   -0.565229
      5         11           0        1.678707   -1.692563   -1.107569
      6         11           0        0.345323   -0.199386    2.048613
      7         11           0       -1.923403    2.353318   -0.587936
 ---------------------------------------------------------------------

 SCF Done:  E(UB3LYP) =  -1136.11714531     A.U. after   24 cycles

 The electronic state is 2-A.
 Alpha  occ. eigenvalues --  -38.45536 -38.44548 -38.44514 -38.44003 -38.43758
 Alpha  occ. eigenvalues --  -38.43546 -38.43389  -2.21328  -2.20352  -2.20321
 Alpha  occ. eigenvalues --   -2.19835  -2.19578  -2.19350  -2.19193  -1.14973
 Alpha  occ. eigenvalues --   -1.14971  -1.14947  -1.14059  -1.14018  -1.13995
 Alpha  occ. eigenvalues --   -1.13974  -1.13960  -1.13919  -1.13497  -1.13484
 Alpha  occ. eigenvalues --   -1.13474  -1.13286  -1.13249  -1.13198  -1.13039
 Alpha  occ. eigenvalues --   -1.13011  -1.12991  -1.12883  -1.12851  -1.12831
 Alpha  occ. eigenvalues --   -0.17397  -0.14018  -0.11712  -0.10381
 Alpha virt. eigenvalues --   -0.07663  -0.05566  -0.04345  -0.03297  -0.03202
 Alpha virt. eigenvalues --   -0.02423  -0.02076  -0.01825  -0.01024  -0.00429
 Alpha virt. eigenvalues --   -0.00283  -0.00104   0.00276   0.00555   0.00658

  Beta  occ. eigenvalues --  -38.45457 -38.44549 -38.44442 -38.43954 -38.43758
  Beta  occ. eigenvalues --  -38.43546 -38.43389  -2.21181  -2.20357  -2.20185
  Beta  occ. eigenvalues --   -2.19744  -2.19579  -2.19354  -2.19195  -1.14882
  Beta  occ. eigenvalues --   -1.14869  -1.14838  -1.14065  -1.14019  -1.13963
  Beta  occ. eigenvalues --   -1.13878  -1.13871  -1.13839  -1.13437  -1.13419
  Beta  occ. eigenvalues --   -1.13412  -1.13289  -1.13237  -1.13199  -1.13044
  Beta  occ. eigenvalues --   -1.13016  -1.12969  -1.12886  -1.12854  -1.12814
  Beta  occ. eigenvalues --   -0.16875  -0.13305  -0.11624
  Beta virt. eigenvalues --   -0.07326  -0.06915  -0.05395  -0.04013  -0.03166
  Beta virt. eigenvalues --   -0.02662  -0.02229  -0.01702  -0.01277  -0.00684
  Beta virt. eigenvalues --   -0.00348  -0.00057   0.00030   0.00393   0.00693

 Mulliken charges and spin densities:
               1          2
     1  Na   0.639831   0.487137
     2  Na  -0.198286  -0.050015
     3  Na   0.228436   0.395518
     4  Na  -0.177235  -0.022086
     5  Na  -0.019438   0.006595
     6  Na  -0.315234   0.206828
     7  Na  -0.158073  -0.023978
 Sum of Mulliken charges =  -0.00000   1.00000

 Dipole moment (field-independent basis, Debye):
    X=              0.6406    Y=             -0.2537    Z=              1.0547  Tot=              1.2599
 Quadrupole moment (field-independent basis, Debye-Ang):
   XX=            -67.5649   YY=            -75.8805   ZZ=            -62.2604
   XY=              0.8937   XZ=              0.7895   YZ=              0.6671

 Normal termination of Gaussian 16 at Fri Dec  8 07:03:11 2023.
