 Gaussian 16, Revision B.01,
 Gaussian 16:  ES64L-G16RevB.01 20-Dec-2017

 -------------------------
 #P B3LYP/6-311+g(d) force
 -------------------------

 -----
 DPGEN
 -----
 Symbolic Z-matrix:
 Charge =  0 Multiplicity = 2

                         Standard orientation:
 ---------------------------------------------------------------------
 Center     Atomic      Atomic             Coordinates (Angstroms)
 Number     Number       Type             X           Y           Z
 ---------------------------------------------------------------------
      1         11           0       -0.524728   -2.438517   -0.218406
      2         11           0        3.456225   -1.496600   -0.747031
      3         11           0        2.092384   -0.422387    1.606108
      4         11           0        3.070136    1.803376   -0.602267
      5         11           0       -0.359515    2.863975    0.207676
      6         11           0       -4.132662    1.594070   -0.271406
      7         11           0       -3.601840   -1.903918    0.025325
 ---------------------------------------------------------------------

 SCF Done:  E(UB3LYP) =  -1136.10904980     A.U. after   24 cycles

 The electronic state is 2-A.
 Alpha  occ. eigenvalues --  -38.45634 -38.44987 -38.44446 -38.44280 -38.44233
 Alpha  occ. eigenvalues --  -38.43485 -38.43467  -2.21508  -2.20829  -2.20243
 Alpha  occ. eigenvalues --   -2.20183  -2.20006  -2.19281  -2.19241  -1.15245
 Alpha  occ. eigenvalues --   -1.15156  -1.15141  -1.14519  -1.14503  -1.14446
 Alpha  occ. eigenvalues --   -1.13937  -1.13913  -1.13884  -1.13865  -1.13824
 Alpha  occ. eigenvalues --   -1.13781  -1.13669  -1.13643  -1.13635  -1.12949
 Alpha  occ. eigenvalues --   -1.12936  -1.12926  -1.12913  -1.12909  -1.12864
 Alpha  occ. eigenvalues --   -0.17252  -0.14114  -0.12152  -0.10219
 Alpha virt. eigenvalues --   -0.07210  -0.06247  -0.04023  -0.03310  -0.02953
 Alpha virt. eigenvalues --   -0.02698  -0.01970  -0.01710  -0.01225  -0.00508
 Alpha virt. eigenvalues --   -0.00267   0.00176   0.00188   0.00376   0.00521

  Beta  occ. eigenvalues --  -38.45628 -38.44967 -38.44448 -38.44225 -38.44172
  Beta  occ. eigenvalues --  -38.43464 -38.43435  -2.21501  -2.20798  -2.20251
  Beta  occ. eigenvalues --   -2.20084  -2.19894  -2.19221  -2.19204  -1.15230
  Beta  occ. eigenvalues --   -1.15138  -1.15126  -1.14504  -1.14490  -1.14374
  Beta  occ. eigenvalues --   -1.13938  -1.13921  -1.13868  -1.13805  -1.13759
  Beta  occ. eigenvalues --   -1.13693  -1.13594  -1.13570  -1.13553  -1.12905
  Beta  occ. eigenvalues --   -1.12903  -1.12896  -1.12884  -1.12878  -1.12828
  Beta  occ. eigenvalues --   -0.16659  -0.13531  -0.11738
  Beta virt. eigenvalues --   -0.07164  -0.06848  -0.06041  -0.03685  -0.02821
  Beta virt. eigenvalues --   -0.02597  -0.02347  -0.01835  -0.01534  -0.00938
  Beta virt. eigenvalues --   -0.00419   0.00017   0.00231   0.00387   0.00475

 Mulliken charges and spin densities:
               1          2
     1  Na  -0.290992  -0.014847
     2  Na   0.438086   0.347370
     3  Na  -0.278932   0.088470
     4  Na   0.327424   0.109769
     5  Na  -0.315303   0.000824
     6  Na  -0.073803   0.400958
     7  Na   0.193520   0.067457
 Sum of Mulliken charges =  -0.00000   1.00000

 Dipole moment (field-independent basis, Debye):
    X=              1.3139    Y=             -0.2722    Z=              0.1325  Tot=              1.3483
 Quadrupole moment (field-independent basis, Debye-Ang):
   XX=            -65.1158   YY=            -71.0461   ZZ=            -66.5199
   XY=              2.3871   XZ=             -0.4476   YZ=             -0.5829

 Normal termination of Gaussian 16 at Mon Dec  4 04:31:39 2023.
