 Gaussian 16, Revision B.01,
 Gaussian 16:  ES64L-G16RevB.01 20-Dec-2017

 -------------------------
 #P B3LYP/6-311+g(d) force
 -------------------------

 -----
 DPGEN
 -----
 Symbolic Z-matrix:
 Charge =  0 Multiplicity = 2

                         Standard orientation:
 ---------------------------------------------------------------------
 Center     Atomic      Atomic             Coordinates (Angstroms)
 Number     Number       Type             X           Y           Z
 ---------------------------------------------------------------------
      1         11           0       -2.990767    0.715628   -0.077918
      2         11           0       -0.005026    3.030536   -0.122884
      3         11           0        0.020426   -0.224989   -1.581506
      4         11           0        2.514922   -2.015819   -0.019749
      5         11           0       -1.758193   -2.467987   -0.006518
      6         11           0       -0.412175   -0.117658    1.617215
      7         11           0        2.630814    1.080288    0.191361
 ---------------------------------------------------------------------

 SCF Done:  E(UB3LYP) =  -1136.13449399     A.U. after   19 cycles

 The electronic state is 2-A.
 Alpha  occ. eigenvalues --  -38.44308 -38.43892 -38.43857 -38.43623 -38.43203
 Alpha  occ. eigenvalues --  -38.42940 -38.42799  -2.20176  -2.19740  -2.19735
 Alpha  occ. eigenvalues --   -2.19535  -2.19051  -2.18952  -2.18813  -1.13871
 Alpha  occ. eigenvalues --   -1.13840  -1.13799  -1.13460  -1.13442  -1.13409
 Alpha  occ. eigenvalues --   -1.13395  -1.13371  -1.13355  -1.13209  -1.13190
 Alpha  occ. eigenvalues --   -1.13164  -1.12725  -1.12713  -1.12699  -1.12675
 Alpha  occ. eigenvalues --   -1.12573  -1.12564  -1.12495  -1.12438  -1.12417
 Alpha  occ. eigenvalues --   -0.19050  -0.13534  -0.12448  -0.10201
 Alpha virt. eigenvalues --   -0.05838  -0.05292  -0.04736  -0.03173  -0.02529
 Alpha virt. eigenvalues --   -0.01919  -0.01681  -0.01272  -0.00483  -0.00299
 Alpha virt. eigenvalues --    0.00050   0.00351   0.00795   0.00835   0.00904

  Beta  occ. eigenvalues --  -38.44300 -38.43890 -38.43849 -38.43616 -38.43200
  Beta  occ. eigenvalues --  -38.42867 -38.42725  -2.20166  -2.19737  -2.19728
  Beta  occ. eigenvalues --   -2.19526  -2.19049  -2.18819  -2.18679  -1.13862
  Beta  occ. eigenvalues --   -1.13808  -1.13795  -1.13463  -1.13436  -1.13378
  Beta  occ. eigenvalues --   -1.13368  -1.13367  -1.13352  -1.13205  -1.13165
  Beta  occ. eigenvalues --   -1.13154  -1.12723  -1.12699  -1.12687  -1.12585
  Beta  occ. eigenvalues --   -1.12475  -1.12469  -1.12399  -1.12342  -1.12319
  Beta  occ. eigenvalues --   -0.18338  -0.13269  -0.12206
  Beta virt. eigenvalues --   -0.06312  -0.05811  -0.05263  -0.04736  -0.02337
  Beta virt. eigenvalues --   -0.01812  -0.01609  -0.01205  -0.00929  -0.00547
  Beta virt. eigenvalues --   -0.00326   0.00189   0.00384   0.00806   0.00871

 Mulliken charges and spin densities:
               1          2
     1  Na   0.260779  -0.034693
     2  Na   0.012558  -0.052613
     3  Na  -0.437210   0.650657
     4  Na   0.210987  -0.089222
     5  Na   0.240973  -0.129928
     6  Na  -0.391763   0.629471
     7  Na   0.103676   0.026328
 Sum of Mulliken charges =  -0.00000   1.00000

 Dipole moment (field-independent basis, Debye):
    X=             -0.3357    Y=             -0.2499    Z=             -0.0206  Tot=              0.4190
 Quadrupole moment (field-independent basis, Debye-Ang):
   XX=            -54.5778   YY=            -59.4142   ZZ=            -77.4437
   XY=             -0.8486   XZ=              1.0071   YZ=             -0.2318

 Normal termination of Gaussian 16 at Tue Nov 28 23:34:53 2023.
