 Gaussian 16, Revision B.01,
 Gaussian 16:  ES64L-G16RevB.01 20-Dec-2017

 -------------------------
 #P B3LYP/6-311+g(d) force
 -------------------------

 -----
 DPGEN
 -----
 Symbolic Z-matrix:
 Charge =  0 Multiplicity = 2

                         Standard orientation:
 ---------------------------------------------------------------------
 Center     Atomic      Atomic             Coordinates (Angstroms)
 Number     Number       Type             X           Y           Z
 ---------------------------------------------------------------------
      1         11           0       -1.945340   -2.112997   -0.322457
      2         11           0        1.869648   -2.623823   -0.044778
      3         11           0        0.030410   -0.570196    1.576182
      4         11           0       -0.453359    3.060154    0.151860
      5         11           0       -3.081330    0.615183    0.005520
      6         11           0        0.554471    0.340447   -1.468287
      7         11           0        3.025500    1.291234    0.101960
 ---------------------------------------------------------------------

 SCF Done:  E(UB3LYP) =  -1136.12949725     A.U. after   21 cycles

 The electronic state is 2-A.
 Alpha  occ. eigenvalues --  -38.44699 -38.44093 -38.43908 -38.43903 -38.43700
 Alpha  occ. eigenvalues --  -38.42815 -38.42774  -2.20515  -2.19922  -2.19774
 Alpha  occ. eigenvalues --   -2.19717  -2.19612  -2.18817  -2.18770  -1.14225
 Alpha  occ. eigenvalues --   -1.14168  -1.14133  -1.13612  -1.13583  -1.13560
 Alpha  occ. eigenvalues --   -1.13551  -1.13424  -1.13421  -1.13398  -1.13375
 Alpha  occ. eigenvalues --   -1.13343  -1.13292  -1.13248  -1.13209  -1.12569
 Alpha  occ. eigenvalues --   -1.12458  -1.12438  -1.12421  -1.12391  -1.12376
 Alpha  occ. eigenvalues --   -0.18731  -0.13272  -0.12687  -0.09816
 Alpha virt. eigenvalues --   -0.06119  -0.05435  -0.04879  -0.02973  -0.02643
 Alpha virt. eigenvalues --   -0.01760  -0.01630  -0.01536  -0.00648  -0.00488
 Alpha virt. eigenvalues --    0.00056   0.00339   0.00741   0.00814   0.00869

  Beta  occ. eigenvalues --  -38.44695 -38.44087 -38.43904 -38.43898 -38.43687
  Beta  occ. eigenvalues --  -38.42756 -38.42703  -2.20511  -2.19915  -2.19770
  Beta  occ. eigenvalues --   -2.19710  -2.19592  -2.18711  -2.18640  -1.14215
  Beta  occ. eigenvalues --   -1.14149  -1.14134  -1.13602  -1.13558  -1.13556
  Beta  occ. eigenvalues --   -1.13551  -1.13422  -1.13395  -1.13389  -1.13358
  Beta  occ. eigenvalues --   -1.13341  -1.13275  -1.13209  -1.13200  -1.12486
  Beta  occ. eigenvalues --   -1.12377  -1.12355  -1.12338  -1.12300  -1.12280
  Beta  occ. eigenvalues --   -0.18056  -0.13013  -0.12453
  Beta virt. eigenvalues --   -0.06148  -0.05958  -0.05389  -0.04840  -0.02203
  Beta virt. eigenvalues --   -0.01931  -0.01674  -0.01473  -0.00750  -0.00686
  Beta virt. eigenvalues --   -0.00498   0.00205   0.00394   0.00751   0.00839

 Mulliken charges and spin densities:
               1          2
     1  Na   0.338362   0.074393
     2  Na   0.249836  -0.104806
     3  Na  -0.437015   0.695620
     4  Na   0.081982  -0.037264
     5  Na  -0.006402  -0.017955
     6  Na  -0.369510   0.539424
     7  Na   0.142747  -0.149412
 Sum of Mulliken charges =  -0.00000   1.00000

 Dipole moment (field-independent basis, Debye):
    X=              0.5998    Y=              0.1533    Z=              0.0764  Tot=              0.6238
 Quadrupole moment (field-independent basis, Debye-Ang):
   XX=            -53.6466   YY=            -58.0022   ZZ=            -78.8933
   XY=             -0.8530   XZ=              1.0657   YZ=              2.1267

 Normal termination of Gaussian 16 at Wed Nov 29 00:08:33 2023.
