 Gaussian 16, Revision B.01,
 Gaussian 16:  ES64L-G16RevB.01 20-Dec-2017

 -------------------------
 #P B3LYP/6-311+g(d) force
 -------------------------

 -----
 DPGEN
 -----
 Symbolic Z-matrix:
 Charge =  0 Multiplicity = 2

                         Standard orientation:
 ---------------------------------------------------------------------
 Center     Atomic      Atomic             Coordinates (Angstroms)
 Number     Number       Type             X           Y           Z
 ---------------------------------------------------------------------
      1         11           0        0.450361    0.780614    1.741824
      2         11           0        3.169404    0.426162   -1.627367
      3         11           0       -2.815771    1.160397    1.004804
      4         11           0       -0.139831   -0.915376   -0.557240
      5         11           0        0.028361    2.408897   -0.792442
      6         11           0       -3.522705   -1.935391   -1.022378
      7         11           0        2.830181   -1.925302    1.252800
 ---------------------------------------------------------------------

 SCF Done:  E(UB3LYP) =  -1136.12119879     A.U. after   21 cycles

 The electronic state is 2-A.
 Alpha  occ. eigenvalues --  -38.44893 -38.44611 -38.44010 -38.43873 -38.43807
 Alpha  occ. eigenvalues --  -38.43271 -38.43023  -2.20689  -2.20439  -2.19870
 Alpha  occ. eigenvalues --   -2.19820  -2.19752  -2.19173  -2.18806  -1.14363
 Alpha  occ. eigenvalues --   -1.14324  -1.14305  -1.14148  -1.14101  -1.14038
 Alpha  occ. eigenvalues --   -1.13750  -1.13530  -1.13488  -1.13483  -1.13455
 Alpha  occ. eigenvalues --   -1.13437  -1.13420  -1.13396  -1.13306  -1.12867
 Alpha  occ. eigenvalues --   -1.12844  -1.12767  -1.12471  -1.12467  -1.12435
 Alpha  occ. eigenvalues --   -0.18391  -0.13546  -0.11609  -0.11091
 Alpha virt. eigenvalues --   -0.06339  -0.05077  -0.04973  -0.03065  -0.02856
 Alpha virt. eigenvalues --   -0.02363  -0.02006  -0.01167  -0.00923   0.00010
 Alpha virt. eigenvalues --    0.00093   0.00122   0.00305   0.00494   0.00689

  Beta  occ. eigenvalues --  -38.44837 -38.44604 -38.43977 -38.43817 -38.43793
  Beta  occ. eigenvalues --  -38.43260 -38.43005  -2.20587  -2.20428  -2.19771
  Beta  occ. eigenvalues --   -2.19758  -2.19728  -2.19155  -2.18773  -1.14290
  Beta  occ. eigenvalues --   -1.14252  -1.14234  -1.14131  -1.14097  -1.14028
  Beta  occ. eigenvalues --   -1.13698  -1.13460  -1.13443  -1.13429  -1.13411
  Beta  occ. eigenvalues --   -1.13392  -1.13370  -1.13344  -1.13291  -1.12859
  Beta  occ. eigenvalues --   -1.12831  -1.12730  -1.12447  -1.12444  -1.12415
  Beta  occ. eigenvalues --   -0.17762  -0.13227  -0.11097
  Beta virt. eigenvalues --   -0.07599  -0.06158  -0.04771  -0.04473  -0.02792
  Beta virt. eigenvalues --   -0.02312  -0.02227  -0.01477  -0.00954  -0.00558
  Beta virt. eigenvalues --    0.00100   0.00118   0.00205   0.00450   0.00617

 Mulliken charges and spin densities:
               1          2
     1  Na   0.212901   0.205888
     2  Na  -0.163488   0.184466
     3  Na   0.278405   0.020759
     4  Na  -1.231220   0.438809
     5  Na   0.075841   0.117125
     6  Na   0.292554   0.036817
     7  Na   0.535006  -0.003866
 Sum of Mulliken charges =  -0.00000   1.00000

 Dipole moment (field-independent basis, Debye):
    X=              0.8777    Y=              0.8932    Z=              0.3505  Tot=              1.3004
 Quadrupole moment (field-independent basis, Debye-Ang):
   XX=            -54.7543   YY=            -71.1211   ZZ=            -67.8047
   XY=             -5.2655   XZ=             -3.1674   YZ=             -1.2440

 Normal termination of Gaussian 16 at Thu Dec  7 22:57:30 2023.
