 Gaussian 16, Revision B.01,
 Gaussian 16:  ES64L-G16RevB.01 20-Dec-2017

 -------------------------
 #P B3LYP/6-311+g(d) force
 -------------------------

 -----
 DPGEN
 -----
 Symbolic Z-matrix:
 Charge =  0 Multiplicity = 2

                         Standard orientation:
 ---------------------------------------------------------------------
 Center     Atomic      Atomic             Coordinates (Angstroms)
 Number     Number       Type             X           Y           Z
 ---------------------------------------------------------------------
      1         11           0        2.832609   -1.424181   -0.274396
      2         11           0       -1.137538    2.642274    0.430384
      3         11           0       -3.166477   -0.019650   -0.134804
      4         11           0        2.395914    1.835638    0.024403
      5         11           0       -1.038393   -2.526760   -0.686217
      6         11           0        0.048058    0.607289   -1.507216
      7         11           0        0.065826   -1.114611    2.147848
 ---------------------------------------------------------------------

 SCF Done:  E(UB3LYP) =  -1136.13382893     A.U. after   19 cycles

 The electronic state is 2-A.
 Alpha  occ. eigenvalues --  -38.44178 -38.44110 -38.43821 -38.43693 -38.43370
 Alpha  occ. eigenvalues --  -38.43347 -38.43207  -2.20018  -2.19929  -2.19691
 Alpha  occ. eigenvalues --   -2.19538  -2.19239  -2.19223  -2.19210  -1.13691
 Alpha  occ. eigenvalues --   -1.13681  -1.13667  -1.13610  -1.13597  -1.13570
 Alpha  occ. eigenvalues --   -1.13422  -1.13340  -1.13308  -1.13196  -1.13178
 Alpha  occ. eigenvalues --   -1.13156  -1.13021  -1.12938  -1.12898  -1.12878
 Alpha  occ. eigenvalues --   -1.12866  -1.12856  -1.12846  -1.12825  -1.12785
 Alpha  occ. eigenvalues --   -0.18514  -0.13226  -0.12482  -0.10643
 Alpha virt. eigenvalues --   -0.05820  -0.05307  -0.04461  -0.03246  -0.03202
 Alpha virt. eigenvalues --   -0.02379  -0.01600  -0.01046  -0.00383  -0.00295
 Alpha virt. eigenvalues --   -0.00037   0.00358   0.00757   0.00871   0.00884

  Beta  occ. eigenvalues --  -38.44174 -38.44107 -38.43818 -38.43604 -38.43353
  Beta  occ. eigenvalues --  -38.43337 -38.43160  -2.20015  -2.19927  -2.19688
  Beta  occ. eigenvalues --   -2.19372  -2.19211  -2.19201  -2.19129  -1.13683
  Beta  occ. eigenvalues --   -1.13672  -1.13657  -1.13611  -1.13579  -1.13564
  Beta  occ. eigenvalues --   -1.13414  -1.13325  -1.13308  -1.13089  -1.13062
  Beta  occ. eigenvalues --   -1.13038  -1.12988  -1.12910  -1.12862  -1.12843
  Beta  occ. eigenvalues --   -1.12841  -1.12833  -1.12811  -1.12771  -1.12734
  Beta  occ. eigenvalues --   -0.17834  -0.13009  -0.12260
  Beta virt. eigenvalues --   -0.06773  -0.05779  -0.05284  -0.04316  -0.02503
  Beta virt. eigenvalues --   -0.02471  -0.01527  -0.01384  -0.00991  -0.00411
  Beta virt. eigenvalues --   -0.00303   0.00156   0.00402   0.00827   0.00882

 Mulliken charges and spin densities:
               1          2
     1  Na   0.179787  -0.028419
     2  Na   0.006351   0.105196
     3  Na   0.157689   0.019647
     4  Na   0.196451   0.040339
     5  Na   0.247229   0.026568
     6  Na  -0.039685   0.170630
     7  Na  -0.747823   0.666040
 Sum of Mulliken charges =  -0.00000   1.00000

 Dipole moment (field-independent basis, Debye):
    X=              0.0876    Y=             -0.0817    Z=              0.1604  Tot=              0.2002
 Quadrupole moment (field-independent basis, Debye-Ang):
   XX=            -55.5337   YY=            -65.0108   ZZ=            -73.7229
   XY=             -0.4799   XZ=             -0.2542   YZ=              3.0357

 Normal termination of Gaussian 16 at Thu Dec  7 05:03:45 2023.
