 Gaussian 16, Revision B.01,
 Gaussian 16:  ES64L-G16RevB.01 20-Dec-2017

 -------------------------
 #P B3LYP/6-311+g(d) force
 -------------------------

 -----
 DPGEN
 -----
 Symbolic Z-matrix:
 Charge =  0 Multiplicity = 2

                         Standard orientation:
 ---------------------------------------------------------------------
 Center     Atomic      Atomic             Coordinates (Angstroms)
 Number     Number       Type             X           Y           Z
 ---------------------------------------------------------------------
      1         11           0        1.556925   -2.263808   -0.088757
      2         11           0        3.028986    0.836623   -0.265683
      3         11           0       -3.309219    1.048840    0.102456
      4         11           0        0.061762    2.999146    0.097124
      5         11           0       -1.735237   -2.540154   -0.252099
      6         11           0        0.407631   -0.316814    2.014325
      7         11           0       -0.010848    0.236168   -1.607366
 ---------------------------------------------------------------------

 SCF Done:  E(UB3LYP) =  -1136.13513784     A.U. after   20 cycles

 The electronic state is 2-A.
 Alpha  occ. eigenvalues --  -38.44388 -38.43849 -38.43805 -38.43702 -38.43531
 Alpha  occ. eigenvalues --  -38.43267 -38.43130  -2.20138  -2.19699  -2.19625
 Alpha  occ. eigenvalues --   -2.19529  -2.19440  -2.19206  -2.19101  -1.13819
 Alpha  occ. eigenvalues --   -1.13789  -1.13783  -1.13381  -1.13357  -1.13348
 Alpha  occ. eigenvalues --   -1.13325  -1.13292  -1.13238  -1.13213  -1.13195
 Alpha  occ. eigenvalues --   -1.13170  -1.13154  -1.13076  -1.13041  -1.12895
 Alpha  occ. eigenvalues --   -1.12861  -1.12817  -1.12783  -1.12735  -1.12712
 Alpha  occ. eigenvalues --   -0.18587  -0.12709  -0.12661  -0.10580
 Alpha virt. eigenvalues --   -0.05870  -0.05167  -0.04832  -0.02991  -0.02909
 Alpha virt. eigenvalues --   -0.02414  -0.01613  -0.01209  -0.00575  -0.00386
 Alpha virt. eigenvalues --   -0.00007   0.00337   0.00770   0.00855   0.00881

  Beta  occ. eigenvalues --  -38.44391 -38.43840 -38.43801 -38.43697 -38.43436
  Beta  occ. eigenvalues --  -38.43254 -38.43068  -2.20145  -2.19687  -2.19620
  Beta  occ. eigenvalues --   -2.19522  -2.19266  -2.19190  -2.18989  -1.13815
  Beta  occ. eigenvalues --   -1.13795  -1.13788  -1.13370  -1.13343  -1.13326
  Beta  occ. eigenvalues --   -1.13317  -1.13274  -1.13238  -1.13206  -1.13171
  Beta  occ. eigenvalues --   -1.13169  -1.13057  -1.12953  -1.12920  -1.12869
  Beta  occ. eigenvalues --   -1.12812  -1.12798  -1.12709  -1.12655  -1.12627
  Beta  occ. eigenvalues --   -0.17843  -0.12489  -0.12444
  Beta virt. eigenvalues --   -0.06648  -0.05856  -0.05136  -0.04765  -0.02236
  Beta virt. eigenvalues --   -0.02186  -0.01559  -0.01339  -0.01135  -0.00606
  Beta virt. eigenvalues --   -0.00437   0.00145   0.00372   0.00797   0.00872

 Mulliken charges and spin densities:
               1          2
     1  Na   0.534448   0.072588
     2  Na   0.272237  -0.027477
     3  Na  -0.120380  -0.089401
     4  Na  -0.068230  -0.105981
     5  Na  -0.047004  -0.101192
     6  Na  -0.489832   0.765265
     7  Na  -0.081240   0.486197
 Sum of Mulliken charges =  -0.00000   1.00000

 Dipole moment (field-independent basis, Debye):
    X=             -0.2105    Y=              0.2628    Z=              0.1125  Tot=              0.3550
 Quadrupole moment (field-independent basis, Debye-Ang):
   XX=            -55.8297   YY=            -61.6134   ZZ=            -75.3322
   XY=              0.9144   XZ=             -1.1121   YZ=              1.3046

 Normal termination of Gaussian 16 at Thu Dec  7 21:32:15 2023.
