 Gaussian 16, Revision B.01,
 Gaussian 16:  ES64L-G16RevB.01 20-Dec-2017

 -------------------------
 #P B3LYP/6-311+g(d) force
 -------------------------

 -----
 DPGEN
 -----
 Symbolic Z-matrix:
 Charge =  0 Multiplicity = 2

                         Standard orientation:
 ---------------------------------------------------------------------
 Center     Atomic      Atomic             Coordinates (Angstroms)
 Number     Number       Type             X           Y           Z
 ---------------------------------------------------------------------
      1         11           0        1.302791    0.096231    1.412070
      2         11           0       -2.479572   -1.499655    2.014232
      3         11           0       -1.601622   -1.311746   -1.879447
      4         11           0        1.777568   -2.046156   -0.827811
      5         11           0        4.142281    0.572121    0.010934
      6         11           0       -2.845521    1.348374   -0.531385
      7         11           0       -0.295924    2.840832   -0.198593
 ---------------------------------------------------------------------

 SCF Done:  E(UB3LYP) =  -1136.11564112     A.U. after   21 cycles

 The electronic state is 2-A.
 Alpha  occ. eigenvalues --  -38.45650 -38.44476 -38.44472 -38.44030 -38.43968
 Alpha  occ. eigenvalues --  -38.43619 -38.43227  -2.21439  -2.20358  -2.20260
 Alpha  occ. eigenvalues --   -2.19864  -2.19849  -2.19441  -2.19056  -1.15118
 Alpha  occ. eigenvalues --   -1.15091  -1.15073  -1.14072  -1.14013  -1.13981
 Alpha  occ. eigenvalues --   -1.13906  -1.13902  -1.13867  -1.13564  -1.13561
 Alpha  occ. eigenvalues --   -1.13532  -1.13526  -1.13476  -1.13457  -1.13105
 Alpha  occ. eigenvalues --   -1.13092  -1.13070  -1.12730  -1.12704  -1.12700
 Alpha  occ. eigenvalues --   -0.17479  -0.14047  -0.11559  -0.10990
 Alpha virt. eigenvalues --   -0.06949  -0.05314  -0.04745  -0.03425  -0.02759
 Alpha virt. eigenvalues --   -0.02550  -0.02395  -0.01055  -0.00823  -0.00371
 Alpha virt. eigenvalues --   -0.00200   0.00135   0.00222   0.00673   0.00766

  Beta  occ. eigenvalues --  -38.45652 -38.44454 -38.44373 -38.44012 -38.43954
  Beta  occ. eigenvalues --  -38.43580 -38.43230  -2.21443  -2.20319  -2.20075
  Beta  occ. eigenvalues --   -2.19833  -2.19826  -2.19370  -2.19062  -1.15117
  Beta  occ. eigenvalues --   -1.15094  -1.15077  -1.14043  -1.13990  -1.13945
  Beta  occ. eigenvalues --   -1.13779  -1.13771  -1.13745  -1.13548  -1.13544
  Beta  occ. eigenvalues --   -1.13505  -1.13503  -1.13448  -1.13433  -1.13057
  Beta  occ. eigenvalues --   -1.13040  -1.13019  -1.12735  -1.12706  -1.12697
  Beta  occ. eigenvalues --   -0.17003  -0.13810  -0.11256
  Beta virt. eigenvalues --   -0.07177  -0.06810  -0.05113  -0.04266  -0.03251
  Beta virt. eigenvalues --   -0.02376  -0.02139  -0.01619  -0.00994  -0.00454
  Beta virt. eigenvalues --   -0.00312  -0.00140   0.00223   0.00381   0.00767

 Mulliken charges and spin densities:
               1          2
     1  Na   0.355175   0.175499
     2  Na  -0.365851   0.376113
     3  Na   0.005725   0.188607
     4  Na  -0.611303   0.102071
     5  Na   0.548687  -0.012283
     6  Na   0.606830   0.275030
     7  Na  -0.539263  -0.105038
 Sum of Mulliken charges =  -0.00000   1.00000

 Dipole moment (field-independent basis, Debye):
    X=              1.8163    Y=             -0.0097    Z=             -0.2144  Tot=              1.8290
 Quadrupole moment (field-independent basis, Debye-Ang):
   XX=            -47.7880   YY=            -75.2847   ZZ=            -72.4315
   XY=              2.3558   XZ=             -1.5249   YZ=             -1.2861

 Normal termination of Gaussian 16 at Wed Nov 29 00:45:02 2023.
