 Gaussian 16, Revision B.01,
 Gaussian 16:  ES64L-G16RevB.01 20-Dec-2017

 -------------------------
 #P B3LYP/6-311+g(d) force
 -------------------------

 -----
 DPGEN
 -----
 Symbolic Z-matrix:
 Charge =  0 Multiplicity = 2

                         Standard orientation:
 ---------------------------------------------------------------------
 Center     Atomic      Atomic             Coordinates (Angstroms)
 Number     Number       Type             X           Y           Z
 ---------------------------------------------------------------------
      1         11           0       -0.669409    0.099374    1.939836
      2         11           0       -1.745283    2.132678   -0.457487
      3         11           0       -3.788687   -0.786566    0.349478
      4         11           0       -1.238063   -1.278091   -1.781831
      5         11           0        4.579949   -0.252491   -0.084620
      6         11           0        1.362903   -1.880138    0.340399
      7         11           0        1.498589    1.965234   -0.305775
 ---------------------------------------------------------------------

 SCF Done:  E(UB3LYP) =  -1136.11680289     A.U. after   29 cycles

 The electronic state is 2-A.
 Alpha  occ. eigenvalues --  -38.45462 -38.45365 -38.44673 -38.43651 -38.43394
 Alpha  occ. eigenvalues --  -38.43116 -38.42850  -2.21258  -2.21124  -2.20506
 Alpha  occ. eigenvalues --   -2.19581  -2.19247  -2.18946  -2.18740  -1.14934
 Alpha  occ. eigenvalues --   -1.14911  -1.14905  -1.14788  -1.14779  -1.14743
 Alpha  occ. eigenvalues --   -1.14181  -1.14153  -1.14137  -1.13273  -1.13222
 Alpha  occ. eigenvalues --   -1.13180  -1.12946  -1.12924  -1.12846  -1.12658
 Alpha  occ. eigenvalues --   -1.12626  -1.12571  -1.12422  -1.12407  -1.12345
 Alpha  occ. eigenvalues --   -0.18214  -0.13787  -0.11316  -0.10739
 Alpha virt. eigenvalues --   -0.08016  -0.04978  -0.03923  -0.03450  -0.03176
 Alpha virt. eigenvalues --   -0.02534  -0.02182  -0.01473  -0.00743  -0.00637
 Alpha virt. eigenvalues --   -0.00199   0.00137   0.00219   0.00655   0.00792

  Beta  occ. eigenvalues --  -38.45463 -38.45329 -38.44640 -38.43556 -38.43370
  Beta  occ. eigenvalues --  -38.43116 -38.42839  -2.21264  -2.21056  -2.20446
  Beta  occ. eigenvalues --   -2.19408  -2.19208  -2.18949  -2.18719  -1.14924
  Beta  occ. eigenvalues --   -1.14913  -1.14906  -1.14740  -1.14731  -1.14700
  Beta  occ. eigenvalues --   -1.14139  -1.14104  -1.14093  -1.13152  -1.13107
  Beta  occ. eigenvalues --   -1.13054  -1.12925  -1.12873  -1.12810  -1.12662
  Beta  occ. eigenvalues --   -1.12613  -1.12573  -1.12408  -1.12388  -1.12325
  Beta  occ. eigenvalues --   -0.17577  -0.13393  -0.11157
  Beta virt. eigenvalues --   -0.07773  -0.07021  -0.04851  -0.03668  -0.03023
  Beta virt. eigenvalues --   -0.02912  -0.02087  -0.01442  -0.01298  -0.00533
  Beta virt. eigenvalues --   -0.00377  -0.00148   0.00177   0.00378   0.00725

 Mulliken charges and spin densities:
               1          2
     1  Na   0.323261   0.295977
     2  Na  -0.244058   0.289391
     3  Na   0.264766   0.103237
     4  Na   0.128257   0.100159
     5  Na   0.265993   0.102080
     6  Na  -0.300477   0.124231
     7  Na  -0.437743  -0.015075
 Sum of Mulliken charges =  -0.00000   1.00000

 Dipole moment (field-independent basis, Debye):
    X=             -0.2641    Y=             -0.3082    Z=              0.3803  Tot=              0.5562
 Quadrupole moment (field-independent basis, Debye-Ang):
   XX=            -46.4341   YY=            -78.3342   ZZ=            -69.4261
   XY=             -0.2347   XZ=             -3.6809   YZ=             -0.8167

 Normal termination of Gaussian 16 at Fri Dec  8 18:21:58 2023.
