 Gaussian 16, Revision B.01,
 Gaussian 16:  ES64L-G16RevB.01 20-Dec-2017

 -------------------------
 #P B3LYP/6-311+g(d) force
 -------------------------

 -----
 DPGEN
 -----
 Symbolic Z-matrix:
 Charge =  0 Multiplicity = 2

                         Standard orientation:
 ---------------------------------------------------------------------
 Center     Atomic      Atomic             Coordinates (Angstroms)
 Number     Number       Type             X           Y           Z
 ---------------------------------------------------------------------
      1         11           0        0.674717   -0.252798    1.700741
      2         11           0        3.994500   -0.456354    1.144363
      3         11           0        1.242183   -1.750083   -1.657864
      4         11           0       -4.046989    0.400268    1.267423
      5         11           0        1.854519    1.855199   -0.731764
      6         11           0       -2.605048   -1.725996   -0.608855
      7         11           0       -1.113882    1.929763   -1.114044
 ---------------------------------------------------------------------

 SCF Done:  E(UB3LYP) =  -1136.11809663     A.U. after   24 cycles

 The electronic state is 2-A.
 Alpha  occ. eigenvalues --  -38.45481 -38.45021 -38.44591 -38.44369 -38.43995
 Alpha  occ. eigenvalues --  -38.42892 -38.42426  -2.21295  -2.20829  -2.20392
 Alpha  occ. eigenvalues --   -2.20176  -2.19806  -2.18804  -2.18283  -1.14988
 Alpha  occ. eigenvalues --   -1.14964  -1.14907  -1.14492  -1.14458  -1.14438
 Alpha  occ. eigenvalues --   -1.14072  -1.14043  -1.14028  -1.13849  -1.13835
 Alpha  occ. eigenvalues --   -1.13803  -1.13473  -1.13466  -1.13432  -1.12525
 Alpha  occ. eigenvalues --   -1.12468  -1.12433  -1.11958  -1.11941  -1.11908
 Alpha  occ. eigenvalues --   -0.17768  -0.14013  -0.11510  -0.10863
 Alpha virt. eigenvalues --   -0.06805  -0.05497  -0.04764  -0.03353  -0.02793
 Alpha virt. eigenvalues --   -0.02596  -0.02225  -0.01523  -0.00919  -0.00391
 Alpha virt. eigenvalues --   -0.00064   0.00194   0.00249   0.00374   0.00669

  Beta  occ. eigenvalues --  -38.45467 -38.44920 -38.44562 -38.44355 -38.43977
  Beta  occ. eigenvalues --  -38.42885 -38.42425  -2.21272  -2.20643  -2.20337
  Beta  occ. eigenvalues --   -2.20154  -2.19772  -2.18793  -2.18282  -1.14960
  Beta  occ. eigenvalues --   -1.14945  -1.14890  -1.14363  -1.14329  -1.14305
  Beta  occ. eigenvalues --   -1.14039  -1.14005  -1.13989  -1.13838  -1.13822
  Beta  occ. eigenvalues --   -1.13758  -1.13451  -1.13434  -1.13415  -1.12519
  Beta  occ. eigenvalues --   -1.12446  -1.12429  -1.11956  -1.11932  -1.11909
  Beta  occ. eigenvalues --   -0.17130  -0.13733  -0.10759
  Beta virt. eigenvalues --   -0.07613  -0.06601  -0.04871  -0.04679  -0.02944
  Beta virt. eigenvalues --   -0.02602  -0.02060  -0.01738  -0.01040  -0.00741
  Beta virt. eigenvalues --   -0.00263  -0.00003   0.00300   0.00345   0.00458

 Mulliken charges and spin densities:
               1          2
     1  Na  -0.798224   0.179144
     2  Na   0.832771   0.058853
     3  Na  -0.191667   0.442139
     4  Na   0.584757   0.161110
     5  Na   0.007538   0.026116
     6  Na  -0.080530   0.070595
     7  Na  -0.354644   0.062043
 Sum of Mulliken charges =  -0.00000   1.00000

 Dipole moment (field-independent basis, Debye):
    X=              0.1021    Y=             -0.2894    Z=              0.3005  Tot=              0.4295
 Quadrupole moment (field-independent basis, Debye-Ang):
   XX=            -54.1449   YY=            -76.0172   ZZ=            -69.0335
   XY=             -1.6066   XZ=             -3.9927   YZ=              6.0205

 Normal termination of Gaussian 16 at Thu Dec  7 02:40:35 2023.
