 Gaussian 16, Revision B.01,
 Gaussian 16:  ES64L-G16RevB.01 20-Dec-2017

 -------------------------
 #P B3LYP/6-311+g(d) force
 -------------------------

 -----
 DPGEN
 -----
 Symbolic Z-matrix:
 Charge =  0 Multiplicity = 2

                         Standard orientation:
 ---------------------------------------------------------------------
 Center     Atomic      Atomic             Coordinates (Angstroms)
 Number     Number       Type             X           Y           Z
 ---------------------------------------------------------------------
      1         11           0        2.831138   -0.998119    0.028567
      2         11           0        0.116035    0.095494    1.976585
      3         11           0       -2.119201    2.181917   -0.478555
      4         11           0       -0.032911   -2.506651   -0.437152
      5         11           0        1.876282    2.403907    0.090338
      6         11           0       -2.658417   -1.069949    0.575893
      7         11           0       -0.012926   -0.106599   -1.755676
 ---------------------------------------------------------------------

 SCF Done:  E(UB3LYP) =  -1136.13205936     A.U. after   18 cycles

 The electronic state is 2-A.
 Alpha  occ. eigenvalues --  -38.43741 -38.43740 -38.43702 -38.43651 -38.43651
 Alpha  occ. eigenvalues --  -38.43584 -38.43063  -2.19682  -2.19670  -2.19615
 Alpha  occ. eigenvalues --   -2.19524  -2.19486  -2.19469  -2.19063  -1.13545
 Alpha  occ. eigenvalues --   -1.13361  -1.13333  -1.13313  -1.13308  -1.13301
 Alpha  occ. eigenvalues --   -1.13275  -1.13254  -1.13247  -1.13194  -1.13186
 Alpha  occ. eigenvalues --   -1.13166  -1.13157  -1.13148  -1.13140  -1.13128
 Alpha  occ. eigenvalues --   -1.13100  -1.13096  -1.12729  -1.12676  -1.12652
 Alpha  occ. eigenvalues --   -0.19145  -0.13108  -0.12402  -0.11279
 Alpha virt. eigenvalues --   -0.05398  -0.05138  -0.04255  -0.03408  -0.03081
 Alpha virt. eigenvalues --   -0.02799  -0.01381  -0.01026  -0.00185  -0.00024
 Alpha virt. eigenvalues --    0.00140   0.00367   0.00840   0.00915   0.00959

  Beta  occ. eigenvalues --  -38.43738 -38.43691 -38.43654 -38.43650 -38.43572
  Beta  occ. eigenvalues --  -38.43569 -38.43048  -2.19612  -2.19540  -2.19515
  Beta  occ. eigenvalues --   -2.19506  -2.19471  -2.19461  -2.19041  -1.13453
  Beta  occ. eigenvalues --   -1.13307  -1.13274  -1.13264  -1.13247  -1.13226
  Beta  occ. eigenvalues --   -1.13205  -1.13189  -1.13183  -1.13169  -1.13152
  Beta  occ. eigenvalues --   -1.13146  -1.13134  -1.13129  -1.13122  -1.13097
  Beta  occ. eigenvalues --   -1.13095  -1.13077  -1.12699  -1.12647  -1.12622
  Beta  occ. eigenvalues --   -0.18391  -0.12851  -0.12116
  Beta virt. eigenvalues --   -0.07315  -0.05396  -0.05070  -0.04236  -0.02611
  Beta virt. eigenvalues --   -0.02272  -0.01757  -0.01292  -0.00939  -0.00174
  Beta virt. eigenvalues --    0.00014   0.00155   0.00386   0.00883   0.00933

 Mulliken charges and spin densities:
               1          2
     1  Na   0.069158  -0.061481
     2  Na  -0.333244   0.571438
     3  Na  -0.096988  -0.060052
     4  Na   0.573109   0.116749
     5  Na  -0.110050  -0.107295
     6  Na   0.172305   0.102543
     7  Na  -0.274291   0.438097
 Sum of Mulliken charges =  -0.00000   1.00000

 Dipole moment (field-independent basis, Debye):
    X=              0.1440    Y=              0.3583    Z=              0.2525  Tot=              0.4614
 Quadrupole moment (field-independent basis, Debye-Ang):
   XX=            -57.7975   YY=            -64.7359   ZZ=            -71.9335
   XY=             -0.1867   XZ=             -0.3819   YZ=             -1.0297

 Normal termination of Gaussian 16 at Tue Dec  5 17:30:42 2023.
