 Gaussian 16, Revision B.01,
 Gaussian 16:  ES64L-G16RevB.01 20-Dec-2017

 -------------------------
 #P B3LYP/6-311+g(d) force
 -------------------------

 -----
 DPGEN
 -----
 Symbolic Z-matrix:
 Charge =  0 Multiplicity = 2

                         Standard orientation:
 ---------------------------------------------------------------------
 Center     Atomic      Atomic             Coordinates (Angstroms)
 Number     Number       Type             X           Y           Z
 ---------------------------------------------------------------------
      1         11           0        0.516162   -2.960383   -0.850666
      2         11           0        0.492901   -0.722539    2.354161
      3         11           0        1.728260    2.412676   -1.303717
      4         11           0       -1.183945   -0.593897   -1.783380
      5         11           0       -3.655772   -0.383334    0.431893
      6         11           0       -1.203763    2.621020    0.622712
      7         11           0        3.306156   -0.373543    0.528997
 ---------------------------------------------------------------------

 SCF Done:  E(UB3LYP) =  -1136.12127814     A.U. after   21 cycles

 The electronic state is 2-A.
 Alpha  occ. eigenvalues --  -38.44771 -38.44726 -38.44552 -38.43994 -38.43847
 Alpha  occ. eigenvalues --  -38.43820 -38.43522  -2.20540  -2.20532  -2.20329
 Alpha  occ. eigenvalues --   -2.19764  -2.19695  -2.19663  -2.19312  -1.14219
 Alpha  occ. eigenvalues --   -1.14195  -1.14192  -1.14177  -1.14167  -1.14158
 Alpha  occ. eigenvalues --   -1.14008  -1.13984  -1.13962  -1.13488  -1.13452
 Alpha  occ. eigenvalues --   -1.13440  -1.13392  -1.13342  -1.13332  -1.13306
 Alpha  occ. eigenvalues --   -1.13280  -1.13253  -1.12977  -1.12955  -1.12954
 Alpha  occ. eigenvalues --   -0.17241  -0.12812  -0.12093  -0.11291
 Alpha virt. eigenvalues --   -0.06465  -0.04978  -0.04610  -0.03631  -0.03380
 Alpha virt. eigenvalues --   -0.02930  -0.01865  -0.00901  -0.00699  -0.00202
 Alpha virt. eigenvalues --   -0.00138   0.00144   0.00362   0.00686   0.00750

  Beta  occ. eigenvalues --  -38.44766 -38.44642 -38.44550 -38.43994 -38.43823
  Beta  occ. eigenvalues --  -38.43774 -38.43489  -2.20531  -2.20375  -2.20328
  Beta  occ. eigenvalues --   -2.19766  -2.19625  -2.19609  -2.19250  -1.14210
  Beta  occ. eigenvalues --   -1.14189  -1.14167  -1.14092  -1.14060  -1.14052
  Beta  occ. eigenvalues --   -1.13987  -1.13982  -1.13957  -1.13450  -1.13437
  Beta  occ. eigenvalues --   -1.13434  -1.13387  -1.13290  -1.13278  -1.13263
  Beta  occ. eigenvalues --   -1.13251  -1.13200  -1.12929  -1.12916  -1.12913
  Beta  occ. eigenvalues --   -0.16571  -0.12610  -0.11748
  Beta virt. eigenvalues --   -0.07653  -0.06356  -0.04672  -0.04276  -0.03140
  Beta virt. eigenvalues --   -0.02869  -0.02153  -0.01737  -0.00837  -0.00568
  Beta virt. eigenvalues --   -0.00107  -0.00021   0.00288   0.00403   0.00745

 Mulliken charges and spin densities:
               1          2
     1  Na  -0.472755  -0.027093
     2  Na   0.198688   0.399274
     3  Na  -0.131728   0.077875
     4  Na   0.837825   0.243659
     5  Na  -0.082802   0.099626
     6  Na  -0.375947   0.103266
     7  Na   0.026719   0.103393
 Sum of Mulliken charges =  -0.00000   1.00000

 Dipole moment (field-independent basis, Debye):
    X=             -0.2961    Y=             -0.4072    Z=              0.5274  Tot=              0.7291
 Quadrupole moment (field-independent basis, Debye-Ang):
   XX=            -57.2782   YY=            -70.2636   ZZ=            -69.5608
   XY=             -0.7869   XZ=             -3.5300   YZ=             -0.3052

 Normal termination of Gaussian 16 at Sun Dec  3 19:29:52 2023.
