 Gaussian 16, Revision B.01,
 Gaussian 16:  ES64L-G16RevB.01 20-Dec-2017

 -------------------------
 #P B3LYP/6-311+g(d) force
 -------------------------

 -----
 DPGEN
 -----
 Symbolic Z-matrix:
 Charge =  0 Multiplicity = 2

                         Standard orientation:
 ---------------------------------------------------------------------
 Center     Atomic      Atomic             Coordinates (Angstroms)
 Number     Number       Type             X           Y           Z
 ---------------------------------------------------------------------
      1         11           0        3.783198    2.013246    0.306795
      2         11           0       -2.525130    2.830503   -0.705399
      3         11           0        0.287808    3.852424    0.441306
      4         11           0        3.913879   -1.863947   -0.297589
      5         11           0       -2.334614   -2.986047    0.820572
      6         11           0       -4.114296   -0.499777   -0.111904
      7         11           0        0.989155   -3.346403   -0.453781
 ---------------------------------------------------------------------

 SCF Done:  E(UB3LYP) =  -1136.10612811     A.U. after   22 cycles

 The electronic state is 2-A.
 Alpha  occ. eigenvalues --  -38.45108 -38.44969 -38.44894 -38.44630 -38.44392
 Alpha  occ. eigenvalues --  -38.44359 -38.44063  -2.20894  -2.20733  -2.20657
 Alpha  occ. eigenvalues --   -2.20429  -2.20190  -2.20131  -2.19869  -1.14569
 Alpha  occ. eigenvalues --   -1.14558  -1.14539  -1.14415  -1.14410  -1.14379
 Alpha  occ. eigenvalues --   -1.14336  -1.14333  -1.14302  -1.14091  -1.14085
 Alpha  occ. eigenvalues --   -1.14077  -1.13851  -1.13844  -1.13816  -1.13783
 Alpha  occ. eigenvalues --   -1.13767  -1.13749  -1.13522  -1.13521  -1.13504
 Alpha  occ. eigenvalues --   -0.15493  -0.13777  -0.13692  -0.10878
 Alpha virt. eigenvalues --   -0.07967  -0.04862  -0.04496  -0.03611  -0.03484
 Alpha virt. eigenvalues --   -0.02329  -0.02272  -0.01865  -0.01531  -0.00868
 Alpha virt. eigenvalues --   -0.00756  -0.00093   0.00040   0.00284   0.00502

  Beta  occ. eigenvalues --  -38.45087 -38.44966 -38.44891 -38.44614 -38.44351
  Beta  occ. eigenvalues --  -38.44264 -38.44018  -2.20858  -2.20734  -2.20657
  Beta  occ. eigenvalues --   -2.20403  -2.20115  -2.19954  -2.19787  -1.14541
  Beta  occ. eigenvalues --   -1.14536  -1.14501  -1.14417  -1.14415  -1.14344
  Beta  occ. eigenvalues --   -1.14339  -1.14333  -1.14274  -1.14075  -1.14071
  Beta  occ. eigenvalues --   -1.14042  -1.13801  -1.13795  -1.13760  -1.13664
  Beta  occ. eigenvalues --   -1.13649  -1.13630  -1.13468  -1.13465  -1.13447
  Beta  occ. eigenvalues --   -0.15037  -0.13135  -0.12840
  Beta virt. eigenvalues --   -0.08182  -0.07684  -0.04345  -0.03988  -0.03441
  Beta virt. eigenvalues --   -0.03218  -0.02110  -0.02077  -0.01684  -0.01426
  Beta virt. eigenvalues --   -0.00514  -0.00469   0.00055   0.00175   0.00367

 Mulliken charges and spin densities:
               1          2
     1  Na  -0.047243   0.496650
     2  Na  -0.022828   0.158494
     3  Na  -0.009410  -0.001666
     4  Na   0.382514  -0.007327
     5  Na  -0.069900   0.059405
     6  Na   0.257792   0.121889
     7  Na  -0.490925   0.172554
 Sum of Mulliken charges =  -0.00000   1.00000

 Dipole moment (field-independent basis, Debye):
    X=             -0.6047    Y=             -0.4112    Z=              0.0439  Tot=              0.7326
 Quadrupole moment (field-independent basis, Debye-Ang):
   XX=            -60.6113   YY=            -67.7991   ZZ=            -72.4919
   XY=             -0.7717   XZ=              1.2067   YZ=             -0.1760

 Normal termination of Gaussian 16 at Sun Dec  3 20:02:41 2023.
