 Gaussian 16, Revision B.01,
 Gaussian 16:  ES64L-G16RevB.01 20-Dec-2017

 -------------------------
 #P B3LYP/6-311+g(d) force
 -------------------------

 -----
 DPGEN
 -----
 Symbolic Z-matrix:
 Charge =  0 Multiplicity = 2

                         Standard orientation:
 ---------------------------------------------------------------------
 Center     Atomic      Atomic             Coordinates (Angstroms)
 Number     Number       Type             X           Y           Z
 ---------------------------------------------------------------------
      1         11           0       -0.508220    3.038710    0.536652
      2         11           0       -3.162948   -1.201119    0.352398
      3         11           0        2.144034    0.742764   -1.427599
      4         11           0       -0.511010   -0.119783    1.735962
      5         11           0        3.286366   -0.869792    1.082031
      6         11           0       -1.294340    0.728594   -1.405819
      7         11           0        0.046118   -2.319374   -0.873625
 ---------------------------------------------------------------------

 SCF Done:  E(UB3LYP) =  -1136.13058557     A.U. after   20 cycles

 The electronic state is 2-A.
 Alpha  occ. eigenvalues --  -38.44144 -38.44102 -38.43837 -38.43793 -38.43682
 Alpha  occ. eigenvalues --  -38.43055 -38.42861  -2.20011  -2.19908  -2.19694
 Alpha  occ. eigenvalues --   -2.19648  -2.19633  -2.19069  -2.18711  -1.13705
 Alpha  occ. eigenvalues --   -1.13693  -1.13624  -1.13604  -1.13559  -1.13538
 Alpha  occ. eigenvalues --   -1.13390  -1.13367  -1.13344  -1.13335  -1.13307
 Alpha  occ. eigenvalues --   -1.13302  -1.13258  -1.13253  -1.13233  -1.12762
 Alpha  occ. eigenvalues --   -1.12733  -1.12696  -1.12378  -1.12368  -1.12335
 Alpha  occ. eigenvalues --   -0.18683  -0.13206  -0.11901  -0.11246
 Alpha virt. eigenvalues --   -0.06001  -0.04794  -0.04314  -0.03437  -0.02935
 Alpha virt. eigenvalues --   -0.02659  -0.01780  -0.00851  -0.00636   0.00139
 Alpha virt. eigenvalues --    0.00299   0.00339   0.00492   0.00840   0.00862

  Beta  occ. eigenvalues --  -38.44139 -38.44081 -38.43811 -38.43769 -38.43615
  Beta  occ. eigenvalues --  -38.43010 -38.42857  -2.20005  -2.19870  -2.19649
  Beta  occ. eigenvalues --   -2.19607  -2.19512  -2.18991  -2.18706  -1.13697
  Beta  occ. eigenvalues --   -1.13677  -1.13617  -1.13580  -1.13524  -1.13514
  Beta  occ. eigenvalues --   -1.13350  -1.13329  -1.13306  -1.13277  -1.13271
  Beta  occ. eigenvalues --   -1.13233  -1.13211  -1.13170  -1.13165  -1.12714
  Beta  occ. eigenvalues --   -1.12655  -1.12641  -1.12366  -1.12359  -1.12327
  Beta  occ. eigenvalues --   -0.17919  -0.13005  -0.11705
  Beta virt. eigenvalues --   -0.07328  -0.05869  -0.04442  -0.04190  -0.03067
  Beta virt. eigenvalues --   -0.02294  -0.01740  -0.01674  -0.00779  -0.00271
  Beta virt. eigenvalues --    0.00172   0.00347   0.00372   0.00596   0.00855

 Mulliken charges and spin densities:
               1          2
     1  Na  -0.105148  -0.081380
     2  Na   0.532245  -0.058124
     3  Na  -0.054862   0.074929
     4  Na  -0.302377   0.607397
     5  Na   0.090289  -0.005213
     6  Na   0.178738   0.368942
     7  Na  -0.338885   0.093448
 Sum of Mulliken charges =  -0.00000   1.00000

 Dipole moment (field-independent basis, Debye):
    X=             -0.0855    Y=             -0.4378    Z=              0.1504  Tot=              0.4708
 Quadrupole moment (field-independent basis, Debye-Ang):
   XX=            -56.3903   YY=            -68.3948   ZZ=            -68.8358
   XY=              1.5206   XZ=              0.5363   YZ=              0.3758

 Normal termination of Gaussian 16 at Tue Dec  5 21:18:47 2023.
