 Gaussian 16, Revision B.01,
 Gaussian 16:  ES64L-G16RevB.01 20-Dec-2017

 -------------------------
 #P B3LYP/6-311+g(d) force
 -------------------------

 -----
 DPGEN
 -----
 Symbolic Z-matrix:
 Charge =  0 Multiplicity = 2

                         Standard orientation:
 ---------------------------------------------------------------------
 Center     Atomic      Atomic             Coordinates (Angstroms)
 Number     Number       Type             X           Y           Z
 ---------------------------------------------------------------------
      1         11           0       -0.372041    2.994151   -0.070183
      2         11           0        1.857732   -2.062145   -0.401360
      3         11           0       -2.888469    0.710823   -0.473938
      4         11           0        3.049179    0.999107   -0.203726
      5         11           0       -0.055720   -0.389301   -1.756733
      6         11           0       -1.759702   -2.234973    0.320056
      7         11           0        0.169021   -0.017663    2.585884
 ---------------------------------------------------------------------

 SCF Done:  E(UB3LYP) =  -1136.13084709     A.U. after   19 cycles

 The electronic state is 2-A.
 Alpha  occ. eigenvalues --  -38.44880 -38.44045 -38.43821 -38.43632 -38.43481
 Alpha  occ. eigenvalues --  -38.43332 -38.43277  -2.20686  -2.19847  -2.19813
 Alpha  occ. eigenvalues --   -2.19500  -2.19389  -2.19210  -2.19071  -1.14323
 Alpha  occ. eigenvalues --   -1.14314  -1.14303  -1.13607  -1.13520  -1.13517
 Alpha  occ. eigenvalues --   -1.13488  -1.13479  -1.13413  -1.13183  -1.13167
 Alpha  occ. eigenvalues --   -1.13137  -1.13067  -1.13023  -1.12985  -1.12882
 Alpha  occ. eigenvalues --   -1.12866  -1.12843  -1.12746  -1.12738  -1.12711
 Alpha  occ. eigenvalues --   -0.18435  -0.12990  -0.12099  -0.11634
 Alpha virt. eigenvalues --   -0.05559  -0.04825  -0.04622  -0.03542  -0.03427
 Alpha virt. eigenvalues --   -0.03063  -0.01329  -0.00864  -0.00258  -0.00182
 Alpha virt. eigenvalues --   -0.00038   0.00363   0.00733   0.00870   0.00906

  Beta  occ. eigenvalues --  -38.44760 -38.44046 -38.43768 -38.43624 -38.43472
  Beta  occ. eigenvalues --  -38.43324 -38.43278  -2.20465  -2.19850  -2.19716
  Beta  occ. eigenvalues --   -2.19489  -2.19375  -2.19199  -2.19075  -1.14174
  Beta  occ. eigenvalues --   -1.14163  -1.14144  -1.13548  -1.13520  -1.13505
  Beta  occ. eigenvalues --   -1.13488  -1.13413  -1.13346  -1.13172  -1.13148
  Beta  occ. eigenvalues --   -1.13131  -1.13042  -1.13001  -1.12976  -1.12878
  Beta  occ. eigenvalues --   -1.12842  -1.12827  -1.12742  -1.12737  -1.12714
  Beta  occ. eigenvalues --   -0.17714  -0.12788  -0.11932
  Beta virt. eigenvalues --   -0.07525  -0.05531  -0.04832  -0.04415  -0.02708
  Beta virt. eigenvalues --   -0.02500  -0.02240  -0.01250  -0.00802  -0.00276
  Beta virt. eigenvalues --   -0.00161   0.00079   0.00407   0.00869   0.00923

 Mulliken charges and spin densities:
               1          2
     1  Na  -0.118269  -0.011278
     2  Na   0.415380   0.094473
     3  Na   0.216039  -0.019370
     4  Na  -0.102207  -0.034481
     5  Na   0.087647   0.119643
     6  Na   0.142128   0.164274
     7  Na  -0.640717   0.686739
 Sum of Mulliken charges =  -0.00000   1.00000

 Dipole moment (field-independent basis, Debye):
    X=              0.2031    Y=             -0.0078    Z=              0.3758  Tot=              0.4273
 Quadrupole moment (field-independent basis, Debye-Ang):
   XX=            -60.2272   YY=            -66.8785   ZZ=            -69.6876
   XY=              1.1941   XZ=              0.0684   YZ=             -0.7523

 Normal termination of Gaussian 16 at Thu Dec  7 09:55:49 2023.
