 Gaussian 16, Revision B.01,
 Gaussian 16:  ES64L-G16RevB.01 20-Dec-2017

 -------------------------
 #P B3LYP/6-311+g(d) force
 -------------------------

 -----
 DPGEN
 -----
 Symbolic Z-matrix:
 Charge =  0 Multiplicity = 2

                         Standard orientation:
 ---------------------------------------------------------------------
 Center     Atomic      Atomic             Coordinates (Angstroms)
 Number     Number       Type             X           Y           Z
 ---------------------------------------------------------------------
      1         11           0       -0.089937   -0.330479   -1.512626
      2         11           0       -1.633467    2.393624   -0.217636
      3         11           0        3.266398   -0.863610   -0.436387
      4         11           0        1.707616    2.412411   -0.008125
      5         11           0       -3.263955   -1.083254   -0.421465
      6         11           0        0.296147   -2.883162    0.529108
      7         11           0       -0.282802    0.354469    2.067132
 ---------------------------------------------------------------------

 SCF Done:  E(UB3LYP) =  -1136.13676434     A.U. after   20 cycles

 The electronic state is 2-A.
 Alpha  occ. eigenvalues --  -38.44204 -38.43970 -38.43712 -38.43573 -38.43546
 Alpha  occ. eigenvalues --  -38.43441 -38.43207  -2.19988  -2.19763  -2.19535
 Alpha  occ. eigenvalues --   -2.19465  -2.19419  -2.19291  -2.19167  -1.13666
 Alpha  occ. eigenvalues --   -1.13635  -1.13629  -1.13439  -1.13417  -1.13405
 Alpha  occ. eigenvalues --   -1.13231  -1.13209  -1.13163  -1.13148  -1.13117
 Alpha  occ. eigenvalues --   -1.13109  -1.13085  -1.13051  -1.13044  -1.12963
 Alpha  occ. eigenvalues --   -1.12958  -1.12912  -1.12860  -1.12815  -1.12774
 Alpha  occ. eigenvalues --   -0.18369  -0.12741  -0.12525  -0.10666
 Alpha virt. eigenvalues --   -0.05807  -0.05137  -0.04811  -0.03064  -0.02900
 Alpha virt. eigenvalues --   -0.02461  -0.01771  -0.01183  -0.00540  -0.00314
 Alpha virt. eigenvalues --   -0.00039   0.00305   0.00765   0.00826   0.00848

  Beta  occ. eigenvalues --  -38.44195 -38.43963 -38.43697 -38.43539 -38.43476
  Beta  occ. eigenvalues --  -38.43438 -38.43161  -2.19973  -2.19753  -2.19511
  Beta  occ. eigenvalues --   -2.19410  -2.19289  -2.19285  -2.19083  -1.13644
  Beta  occ. eigenvalues --   -1.13627  -1.13617  -1.13422  -1.13412  -1.13397
  Beta  occ. eigenvalues --   -1.13216  -1.13168  -1.13136  -1.13126  -1.13080
  Beta  occ. eigenvalues --   -1.13038  -1.13009  -1.12976  -1.12955  -1.12949
  Beta  occ. eigenvalues --   -1.12928  -1.12902  -1.12798  -1.12758  -1.12708
  Beta  occ. eigenvalues --   -0.17675  -0.12484  -0.12292
  Beta virt. eigenvalues --   -0.06832  -0.05687  -0.05128  -0.04707  -0.02332
  Beta virt. eigenvalues --   -0.02256  -0.01645  -0.01441  -0.01135  -0.00500
  Beta virt. eigenvalues --   -0.00349   0.00108   0.00352   0.00826   0.00843

 Mulliken charges and spin densities:
               1          2
     1  Na  -0.248815   0.401487
     2  Na   0.199823  -0.016799
     3  Na   0.084567  -0.008121
     4  Na   0.076629   0.004855
     5  Na   0.120329  -0.025404
     6  Na   0.020140   0.059012
     7  Na  -0.252672   0.584969
 Sum of Mulliken charges =  -0.00000   1.00000

 Dipole moment (field-independent basis, Debye):
    X=             -0.1611    Y=             -0.1359    Z=              0.1250  Tot=              0.2450
 Quadrupole moment (field-independent basis, Debye-Ang):
   XX=            -55.5998   YY=            -62.5720   ZZ=            -74.5644
   XY=              0.2835   XZ=              0.1422   YZ=             -1.2379

 Normal termination of Gaussian 16 at Sun Dec  3 13:39:09 2023.
