 Gaussian 16, Revision B.01,
 Gaussian 16:  ES64L-G16RevB.01 20-Dec-2017

 -------------------------
 #P B3LYP/6-311+g(d) force
 -------------------------

 -----
 DPGEN
 -----
 Symbolic Z-matrix:
 Charge =  0 Multiplicity = 2

                         Standard orientation:
 ---------------------------------------------------------------------
 Center     Atomic      Atomic             Coordinates (Angstroms)
 Number     Number       Type             X           Y           Z
 ---------------------------------------------------------------------
      1         11           0       -2.882852    1.203435    0.334168
      2         11           0       -0.168392    2.869585   -0.565964
      3         11           0        3.023219    1.298456   -0.304368
      4         11           0       -2.182042   -2.386418   -0.461229
      5         11           0       -0.038344    0.073816    2.151463
      6         11           0       -0.031297   -0.777120   -1.512435
      7         11           0        2.279709   -2.281753    0.358365
 ---------------------------------------------------------------------

 SCF Done:  E(UB3LYP) =  -1136.13137891     A.U. after   19 cycles

 The electronic state is 2-A.
 Alpha  occ. eigenvalues --  -38.44222 -38.44158 -38.44022 -38.43965 -38.43929
 Alpha  occ. eigenvalues --  -38.43364 -38.43262  -2.20025  -2.19944  -2.19867
 Alpha  occ. eigenvalues --   -2.19794  -2.19776  -2.19320  -2.19095  -1.13706
 Alpha  occ. eigenvalues --   -1.13688  -1.13656  -1.13622  -1.13603  -1.13578
 Alpha  occ. eigenvalues --   -1.13574  -1.13533  -1.13501  -1.13493  -1.13469
 Alpha  occ. eigenvalues --   -1.13447  -1.13431  -1.13404  -1.13381  -1.12984
 Alpha  occ. eigenvalues --   -1.12947  -1.12939  -1.12771  -1.12752  -1.12736
 Alpha  occ. eigenvalues --   -0.18128  -0.12930  -0.12418  -0.10762
 Alpha virt. eigenvalues --   -0.05844  -0.05500  -0.04591  -0.03270  -0.02952
 Alpha virt. eigenvalues --   -0.02540  -0.01594  -0.01397  -0.00619  -0.00338
 Alpha virt. eigenvalues --   -0.00036   0.00320   0.00747   0.00759   0.00839

  Beta  occ. eigenvalues --  -38.44213 -38.44152 -38.43959 -38.43925 -38.43916
  Beta  occ. eigenvalues --  -38.43318 -38.43251  -2.20011  -2.19935  -2.19786
  Beta  occ. eigenvalues --   -2.19755  -2.19687  -2.19237  -2.19077  -1.13695
  Beta  occ. eigenvalues --   -1.13664  -1.13651  -1.13608  -1.13596  -1.13569
  Beta  occ. eigenvalues --   -1.13547  -1.13468  -1.13450  -1.13423  -1.13406
  Beta  occ. eigenvalues --   -1.13382  -1.13376  -1.13370  -1.13342  -1.12925
  Beta  occ. eigenvalues --   -1.12886  -1.12880  -1.12757  -1.12739  -1.12714
  Beta  occ. eigenvalues --   -0.17460  -0.12731  -0.12121
  Beta virt. eigenvalues --   -0.06958  -0.05767  -0.05403  -0.04469  -0.02563
  Beta virt. eigenvalues --   -0.02275  -0.01570  -0.01487  -0.01290  -0.00628
  Beta virt. eigenvalues --   -0.00342   0.00119   0.00372   0.00764   0.00830

 Mulliken charges and spin densities:
               1          2
     1  Na   0.151779   0.100864
     2  Na  -0.125248   0.042782
     3  Na   0.005045   0.000035
     4  Na   0.219204  -0.001560
     5  Na  -0.273227   0.598586
     6  Na  -0.027804   0.239864
     7  Na   0.050251   0.019429
 Sum of Mulliken charges =  -0.00000   1.00000

 Dipole moment (field-independent basis, Debye):
    X=              0.1810    Y=             -0.2973    Z=              0.3085  Tot=              0.4651
 Quadrupole moment (field-independent basis, Debye-Ang):
   XX=            -55.9200   YY=            -63.8809   ZZ=            -74.4193
   XY=             -0.6090   XZ=             -0.3442   YZ=             -1.7829

 Normal termination of Gaussian 16 at Fri Dec  8 00:52:09 2023.
