 Gaussian 16, Revision B.01,
 Gaussian 16:  ES64L-G16RevB.01 20-Dec-2017

 -------------------------
 #P B3LYP/6-311+g(d) force
 -------------------------

 -----
 DPGEN
 -----
 Symbolic Z-matrix:
 Charge =  0 Multiplicity = 2

                         Standard orientation:
 ---------------------------------------------------------------------
 Center     Atomic      Atomic             Coordinates (Angstroms)
 Number     Number       Type             X           Y           Z
 ---------------------------------------------------------------------
      1         11           0        0.064280   -1.895644   -0.453371
      2         11           0        3.310348   -2.879388   -0.081496
      3         11           0        3.018018    0.325589    0.352565
      4         11           0        2.701449    3.284188   -0.549113
      5         11           0       -0.281336    1.470870    0.636022
      6         11           0       -2.893612   -0.527589    0.483171
      7         11           0       -5.919147    0.221974   -0.387779
 ---------------------------------------------------------------------

 SCF Done:  E(UB3LYP) =  -1136.12613877     A.U. after   19 cycles

 The electronic state is 2-A.
 Alpha  occ. eigenvalues --  -38.44823 -38.44357 -38.44069 -38.43782 -38.43641
 Alpha  occ. eigenvalues --  -38.43342 -38.43241  -2.20643  -2.20215  -2.19923
 Alpha  occ. eigenvalues --   -2.19607  -2.19552  -2.19178  -2.19120  -1.14275
 Alpha  occ. eigenvalues --   -1.14265  -1.14263  -1.13913  -1.13902  -1.13807
 Alpha  occ. eigenvalues --   -1.13616  -1.13604  -1.13532  -1.13348  -1.13263
 Alpha  occ. eigenvalues --   -1.13251  -1.13234  -1.13220  -1.13125  -1.12840
 Alpha  occ. eigenvalues --   -1.12828  -1.12804  -1.12803  -1.12789  -1.12783
 Alpha  occ. eigenvalues --   -0.17241  -0.14284  -0.12364  -0.11487
 Alpha virt. eigenvalues --   -0.05830  -0.04910  -0.04848  -0.03948  -0.02643
 Alpha virt. eigenvalues --   -0.02322  -0.01856  -0.01616  -0.00997  -0.00684
 Alpha virt. eigenvalues --   -0.00521   0.00039   0.00245   0.00593   0.00734

  Beta  occ. eigenvalues --  -38.44701 -38.44325 -38.44046 -38.43772 -38.43623
  Beta  occ. eigenvalues --  -38.43321 -38.43232  -2.20417  -2.20159  -2.19884
  Beta  occ. eigenvalues --   -2.19589  -2.19520  -2.19141  -2.19115  -1.14124
  Beta  occ. eigenvalues --   -1.14111  -1.14110  -1.13878  -1.13865  -1.13758
  Beta  occ. eigenvalues --   -1.13592  -1.13577  -1.13489  -1.13329  -1.13250
  Beta  occ. eigenvalues --   -1.13228  -1.13215  -1.13202  -1.13101  -1.12812
  Beta  occ. eigenvalues --   -1.12809  -1.12802  -1.12792  -1.12784  -1.12699
  Beta  occ. eigenvalues --   -0.16701  -0.13319  -0.12256
  Beta virt. eigenvalues --   -0.07865  -0.05616  -0.04720  -0.04385  -0.03687
  Beta virt. eigenvalues --   -0.02380  -0.01933  -0.01667  -0.01104  -0.00824
  Beta virt. eigenvalues --   -0.00382  -0.00177   0.00190   0.00387   0.00705

 Mulliken charges and spin densities:
               1          2
     1  Na  -0.751826  -0.068912
     2  Na   1.139887   0.104800
     3  Na  -0.821618   0.270623
     4  Na   0.527346   0.015108
     5  Na  -0.287312  -0.018197
     6  Na  -0.106849   0.160908
     7  Na   0.300372   0.535670
 Sum of Mulliken charges =  -0.00000   1.00000

 Dipole moment (field-independent basis, Debye):
    X=              0.0499    Y=              0.4242    Z=             -0.3738  Tot=              0.5677
 Quadrupole moment (field-independent basis, Debye-Ang):
   XX=            -62.5696   YY=            -63.4638   ZZ=            -70.3950
   XY=             -0.6373   XZ=              0.6587   YZ=             -1.0347

 Normal termination of Gaussian 16 at Tue Nov 28 21:20:10 2023.
