 Gaussian 16, Revision B.01,
 Gaussian 16:  ES64L-G16RevB.01 20-Dec-2017

 -------------------------
 #P B3LYP/6-311+g(d) force
 -------------------------

 -----
 DPGEN
 -----
 Symbolic Z-matrix:
 Charge =  0 Multiplicity = 2

                         Standard orientation:
 ---------------------------------------------------------------------
 Center     Atomic      Atomic             Coordinates (Angstroms)
 Number     Number       Type             X           Y           Z
 ---------------------------------------------------------------------
      1         11           0       -0.538399    1.206402    0.277082
      2         11           0        0.154221   -1.796232    2.173547
      3         11           0        1.457832   -2.701773   -0.773800
      4         11           0        2.542939    0.436695   -1.066131
      5         11           0        1.935602    3.110585    0.458880
      6         11           0       -1.882555   -1.793038   -0.649114
      7         11           0       -3.669640    1.537361   -0.420464
 ---------------------------------------------------------------------

 SCF Done:  E(UB3LYP) =  -1136.12723681     A.U. after   19 cycles

 The electronic state is 2-A.
 Alpha  occ. eigenvalues --  -38.44571 -38.44047 -38.43874 -38.43814 -38.43770
 Alpha  occ. eigenvalues --  -38.43548 -38.42978  -2.20407  -2.19904  -2.19743
 Alpha  occ. eigenvalues --   -2.19649  -2.19611  -2.19420  -2.18940  -1.14112
 Alpha  occ. eigenvalues --   -1.14094  -1.14001  -1.13593  -1.13579  -1.13539
 Alpha  occ. eigenvalues --   -1.13393  -1.13383  -1.13359  -1.13331  -1.13308
 Alpha  occ. eigenvalues --   -1.13294  -1.13269  -1.13266  -1.13237  -1.13088
 Alpha  occ. eigenvalues --   -1.13076  -1.13043  -1.12645  -1.12619  -1.12555
 Alpha  occ. eigenvalues --   -0.17992  -0.13331  -0.12788  -0.10501
 Alpha virt. eigenvalues --   -0.06154  -0.05376  -0.04823  -0.03182  -0.02834
 Alpha virt. eigenvalues --   -0.02178  -0.01649  -0.01535  -0.00621  -0.00306
 Alpha virt. eigenvalues --   -0.00214   0.00267   0.00429   0.00651   0.00820

  Beta  occ. eigenvalues --  -38.44565 -38.44041 -38.43807 -38.43784 -38.43737
  Beta  occ. eigenvalues --  -38.43519 -38.42965  -2.20397  -2.19895  -2.19599
  Beta  occ. eigenvalues --   -2.19591  -2.19575  -2.19369  -2.18920  -1.14108
  Beta  occ. eigenvalues --   -1.14064  -1.13998  -1.13585  -1.13570  -1.13530
  Beta  occ. eigenvalues --   -1.13295  -1.13287  -1.13274  -1.13272  -1.13268
  Beta  occ. eigenvalues --   -1.13259  -1.13249  -1.13227  -1.13209  -1.13053
  Beta  occ. eigenvalues --   -1.13039  -1.12986  -1.12632  -1.12583  -1.12542
  Beta  occ. eigenvalues --   -0.17407  -0.13188  -0.12432
  Beta virt. eigenvalues --   -0.06807  -0.05859  -0.05193  -0.04544  -0.02749
  Beta virt. eigenvalues --   -0.02330  -0.01678  -0.01557  -0.01186  -0.00538
  Beta virt. eigenvalues --   -0.00156   0.00071   0.00363   0.00631   0.00702

 Mulliken charges and spin densities:
               1          2
     1  Na  -2.382015   0.257512
     2  Na   0.302953   0.268236
     3  Na   0.036372   0.276378
     4  Na   0.000457   0.070581
     5  Na   1.015435   0.080065
     6  Na   0.357427   0.108381
     7  Na   0.669372  -0.061152
 Sum of Mulliken charges =  -0.00000   1.00000

 Dipole moment (field-independent basis, Debye):
    X=             -0.1042    Y=              0.1617    Z=              0.1965  Tot=              0.2750
 Quadrupole moment (field-independent basis, Debye-Ang):
   XX=            -61.8377   YY=            -59.0605   ZZ=            -72.6767
   XY=              1.8248   XZ=              1.8870   YZ=              2.1980

 Normal termination of Gaussian 16 at Tue Nov 28 21:59:08 2023.
