 Gaussian 16, Revision B.01,
 Gaussian 16:  ES64L-G16RevB.01 20-Dec-2017

 -------------------------
 #P B3LYP/6-311+g(d) force
 -------------------------

 -----
 DPGEN
 -----
 Symbolic Z-matrix:
 Charge =  0 Multiplicity = 2

                         Standard orientation:
 ---------------------------------------------------------------------
 Center     Atomic      Atomic             Coordinates (Angstroms)
 Number     Number       Type             X           Y           Z
 ---------------------------------------------------------------------
      1         11           0        0.192687    2.888873   -0.502506
      2         11           0       -2.068801   -2.122112   -0.130521
      3         11           0        2.223726   -2.213709   -0.270736
      4         11           0       -3.063051    1.026046    0.111113
      5         11           0        0.013501   -0.502291   -1.557108
      6         11           0        2.613178    1.205616    0.230411
      7         11           0        0.088759   -0.282423    2.119346
 ---------------------------------------------------------------------

 SCF Done:  E(UB3LYP) =  -1136.13248700     A.U. after   20 cycles

 The electronic state is 2-A.
 Alpha  occ. eigenvalues --  -38.44270 -38.43939 -38.43819 -38.43767 -38.43680
 Alpha  occ. eigenvalues --  -38.43231 -38.43133  -2.20075  -2.19819  -2.19694
 Alpha  occ. eigenvalues --   -2.19621  -2.19579  -2.19242  -2.18989  -1.13746
 Alpha  occ. eigenvalues --   -1.13742  -1.13724  -1.13566  -1.13470  -1.13425
 Alpha  occ. eigenvalues --   -1.13366  -1.13347  -1.13328  -1.13312  -1.13290
 Alpha  occ. eigenvalues --   -1.13267  -1.13256  -1.13233  -1.13200  -1.12907
 Alpha  occ. eigenvalues --   -1.12880  -1.12853  -1.12662  -1.12642  -1.12620
 Alpha  occ. eigenvalues --   -0.18720  -0.13283  -0.12342  -0.10866
 Alpha virt. eigenvalues --   -0.05724  -0.05331  -0.04487  -0.03372  -0.02821
 Alpha virt. eigenvalues --   -0.02649  -0.01570  -0.01136  -0.00332  -0.00232
 Alpha virt. eigenvalues --    0.00001   0.00350   0.00790   0.00834   0.00914

  Beta  occ. eigenvalues --  -38.44270 -38.43932 -38.43761 -38.43719 -38.43674
  Beta  occ. eigenvalues --  -38.43171 -38.43125  -2.20077  -2.19811  -2.19613
  Beta  occ. eigenvalues --   -2.19572  -2.19509  -2.19132  -2.18977  -1.13748
  Beta  occ. eigenvalues --   -1.13732  -1.13724  -1.13552  -1.13442  -1.13423
  Beta  occ. eigenvalues --   -1.13337  -1.13293  -1.13267  -1.13250  -1.13230
  Beta  occ. eigenvalues --   -1.13212  -1.13198  -1.13184  -1.13166  -1.12832
  Beta  occ. eigenvalues --   -1.12802  -1.12774  -1.12654  -1.12623  -1.12610
  Beta  occ. eigenvalues --   -0.17995  -0.13066  -0.12102
  Beta virt. eigenvalues --   -0.06928  -0.05702  -0.05277  -0.04428  -0.02554
  Beta virt. eigenvalues --   -0.02106  -0.01571  -0.01493  -0.01073  -0.00386
  Beta virt. eigenvalues --   -0.00228   0.00140   0.00382   0.00825   0.00868

 Mulliken charges and spin densities:
               1          2
     1  Na  -0.047217  -0.005723
     2  Na   0.295345  -0.029070
     3  Na   0.284210  -0.018191
     4  Na  -0.073310   0.022138
     5  Na  -0.177254   0.301208
     6  Na   0.173066   0.118366
     7  Na  -0.454840   0.611273
 Sum of Mulliken charges =  -0.00000   1.00000

 Dipole moment (field-independent basis, Debye):
    X=             -0.3090    Y=             -0.3027    Z=              0.2725  Tot=              0.5113
 Quadrupole moment (field-independent basis, Debye-Ang):
   XX=            -56.2978   YY=            -63.9622   ZZ=            -74.1223
   XY=             -1.5653   XZ=             -0.0797   YZ=             -0.3486

 Normal termination of Gaussian 16 at Thu Dec  7 02:47:47 2023.
