 Gaussian 16, Revision B.01,
 Gaussian 16:  ES64L-G16RevB.01 20-Dec-2017

 -------------------------
 #P B3LYP/6-311+g(d) force
 -------------------------

 -----
 DPGEN
 -----
 Symbolic Z-matrix:
 Charge =  0 Multiplicity = 2

                         Standard orientation:
 ---------------------------------------------------------------------
 Center     Atomic      Atomic             Coordinates (Angstroms)
 Number     Number       Type             X           Y           Z
 ---------------------------------------------------------------------
      1         11           0        3.030610    0.115444    0.227621
      2         11           0        0.839606    2.840342   -0.138547
      3         11           0        0.277262    0.084273   -1.872914
      4         11           0       -0.579838   -0.481430    2.387559
      5         11           0       -2.408796    1.447132    0.280460
      6         11           0        1.089020   -2.563980    0.005466
      7         11           0       -2.247863   -1.441780   -0.889645
 ---------------------------------------------------------------------

 SCF Done:  E(UB3LYP) =  -1136.13549756     A.U. after   19 cycles

 The electronic state is 2-A.
 Alpha  occ. eigenvalues --  -38.44653 -38.43797 -38.43772 -38.43568 -38.43447
 Alpha  occ. eigenvalues --  -38.43098 -38.43087  -2.20496  -2.19749  -2.19636
 Alpha  occ. eigenvalues --   -2.19481  -2.19332  -2.18972  -2.18923  -1.14144
 Alpha  occ. eigenvalues --   -1.14125  -1.14120  -1.13460  -1.13413  -1.13379
 Alpha  occ. eigenvalues --   -1.13305  -1.13300  -1.13272  -1.13188  -1.13142
 Alpha  occ. eigenvalues --   -1.13098  -1.13005  -1.12975  -1.12951  -1.12652
 Alpha  occ. eigenvalues --   -1.12639  -1.12609  -1.12604  -1.12584  -1.12553
 Alpha  occ. eigenvalues --   -0.18747  -0.12975  -0.12254  -0.11772
 Alpha virt. eigenvalues --   -0.05293  -0.04751  -0.04505  -0.03672  -0.03427
 Alpha virt. eigenvalues --   -0.03137  -0.01119  -0.00800  -0.00222   0.00020
 Alpha virt. eigenvalues --    0.00088   0.00399   0.00820   0.00892   0.00928

  Beta  occ. eigenvalues --  -38.44552 -38.43796 -38.43704 -38.43543 -38.43440
  Beta  occ. eigenvalues --  -38.43094 -38.43087  -2.20310  -2.19635  -2.19626
  Beta  occ. eigenvalues --   -2.19439  -2.19322  -2.18968  -2.18925  -1.14020
  Beta  occ. eigenvalues --   -1.13994  -1.13987  -1.13380  -1.13343  -1.13300
  Beta  occ. eigenvalues --   -1.13293  -1.13281  -1.13264  -1.13167  -1.13091
  Beta  occ. eigenvalues --   -1.13062  -1.12988  -1.12949  -1.12947  -1.12651
  Beta  occ. eigenvalues --   -1.12613  -1.12604  -1.12600  -1.12580  -1.12556
  Beta  occ. eigenvalues --   -0.17977  -0.12768  -0.12035
  Beta virt. eigenvalues --   -0.07736  -0.05213  -0.04722  -0.04366  -0.02913
  Beta virt. eigenvalues --   -0.02526  -0.02255  -0.01035  -0.00734  -0.00085
  Beta virt. eigenvalues --    0.00023   0.00091   0.00441   0.00940   0.00968

 Mulliken charges and spin densities:
               1          2
     1  Na   0.004832   0.009761
     2  Na   0.076759  -0.033141
     3  Na  -0.074605   0.252717
     4  Na  -0.496579   0.522351
     5  Na  -0.017612   0.136456
     6  Na   0.059044   0.052450
     7  Na   0.448161   0.059407
 Sum of Mulliken charges =  -0.00000   1.00000

 Dipole moment (field-independent basis, Debye):
    X=              0.0639    Y=             -0.1218    Z=              0.4225  Tot=              0.4443
 Quadrupole moment (field-independent basis, Debye-Ang):
   XX=            -62.0083   YY=            -66.8257   ZZ=            -67.9629
   XY=              0.0616   XZ=              1.4637   YZ=              0.9830

 Normal termination of Gaussian 16 at Tue Dec  5 22:42:54 2023.
