 Gaussian 16, Revision B.01,
 Gaussian 16:  ES64L-G16RevB.01 20-Dec-2017

 -------------------------
 #P B3LYP/6-311+g(d) force
 -------------------------

 -----
 DPGEN
 -----
 Symbolic Z-matrix:
 Charge =  0 Multiplicity = 2

                         Standard orientation:
 ---------------------------------------------------------------------
 Center     Atomic      Atomic             Coordinates (Angstroms)
 Number     Number       Type             X           Y           Z
 ---------------------------------------------------------------------
      1         11           0        0.302773    2.426096    0.508765
      2         11           0       -1.637482    0.476836   -1.772399
      3         11           0       -3.538815   -1.642149   -0.182400
      4         11           0        0.245272   -1.157560   -0.127236
      5         11           0        3.782003   -1.481404    1.033840
      6         11           0        2.782112    0.591261   -1.385407
      7         11           0       -1.935862    0.786919    1.924836
 ---------------------------------------------------------------------

 SCF Done:  E(UB3LYP) =  -1136.12301773     A.U. after   25 cycles

 The electronic state is 2-A.
 Alpha  occ. eigenvalues --  -38.44621 -38.44386 -38.44220 -38.44018 -38.43771
 Alpha  occ. eigenvalues --  -38.43633 -38.42256  -2.20462  -2.20313  -2.20159
 Alpha  occ. eigenvalues --   -2.19821  -2.19674  -2.19461  -2.18144  -1.14166
 Alpha  occ. eigenvalues --   -1.14135  -1.14127  -1.14078  -1.13993  -1.13918
 Alpha  occ. eigenvalues --   -1.13814  -1.13779  -1.13738  -1.13482  -1.13474
 Alpha  occ. eigenvalues --   -1.13441  -1.13350  -1.13318  -1.13284  -1.13138
 Alpha  occ. eigenvalues --   -1.13119  -1.13093  -1.11835  -1.11802  -1.11787
 Alpha  occ. eigenvalues --   -0.18443  -0.14053  -0.11398  -0.11007
 Alpha virt. eigenvalues --   -0.06342  -0.05638  -0.04374  -0.03117  -0.02640
 Alpha virt. eigenvalues --   -0.02463  -0.02311  -0.01251  -0.00748  -0.00223
 Alpha virt. eigenvalues --    0.00119   0.00287   0.00369   0.00492   0.00687

  Beta  occ. eigenvalues --  -38.44611 -38.44369 -38.44160 -38.43987 -38.43700
  Beta  occ. eigenvalues --  -38.43633 -38.42254  -2.20446  -2.20288  -2.20049
  Beta  occ. eigenvalues --   -2.19761  -2.19542  -2.19464  -2.18145  -1.14149
  Beta  occ. eigenvalues --   -1.14125  -1.14068  -1.14048  -1.13966  -1.13902
  Beta  occ. eigenvalues --   -1.13747  -1.13703  -1.13660  -1.13441  -1.13432
  Beta  occ. eigenvalues --   -1.13405  -1.13260  -1.13232  -1.13192  -1.13139
  Beta  occ. eigenvalues --   -1.13104  -1.13096  -1.11832  -1.11808  -1.11760
  Beta  occ. eigenvalues --   -0.17754  -0.13795  -0.11069
  Beta virt. eigenvalues --   -0.07379  -0.06175  -0.05140  -0.04082  -0.02879
  Beta virt. eigenvalues --   -0.02355  -0.02074  -0.01740  -0.00958  -0.00405
  Beta virt. eigenvalues --   -0.00106   0.00174   0.00377   0.00503   0.00606

 Mulliken charges and spin densities:
               1          2
     1  Na   0.099258   0.025681
     2  Na   0.180548   0.333165
     3  Na   0.842696   0.027440
     4  Na  -1.621428   0.367135
     5  Na   0.382172   0.074012
     6  Na   0.498550  -0.021819
     7  Na  -0.381796   0.194386
 Sum of Mulliken charges =  -0.00000   1.00000

 Dipole moment (field-independent basis, Debye):
    X=              0.2207    Y=              0.1959    Z=             -0.2108  Tot=              0.3627
 Quadrupole moment (field-independent basis, Debye-Ang):
   XX=            -55.6003   YY=            -72.8885   ZZ=            -67.2634
   XY=              2.6841   XZ=             -0.7332   YZ=             -5.0521

 Normal termination of Gaussian 16 at Tue Dec  5 19:21:00 2023.
