 Gaussian 16, Revision B.01,
 Gaussian 16:  ES64L-G16RevB.01 20-Dec-2017

 -------------------------
 #P B3LYP/6-311+g(d) force
 -------------------------

 -----
 DPGEN
 -----
 Symbolic Z-matrix:
 Charge =  0 Multiplicity = 2

                         Standard orientation:
 ---------------------------------------------------------------------
 Center     Atomic      Atomic             Coordinates (Angstroms)
 Number     Number       Type             X           Y           Z
 ---------------------------------------------------------------------
      1         11           0        2.509650   -1.355237    0.782678
      2         11           0        5.574819   -2.134905   -0.545024
      3         11           0        5.128541    1.470619    0.298903
      4         11           0        1.460250    2.304457   -0.125931
      5         11           0       -1.462814    0.293871   -0.510619
      6         11           0       -5.032660    0.029318   -0.064895
      7         11           0       -8.177786   -0.608122    0.164888
 ---------------------------------------------------------------------

 SCF Done:  E(UB3LYP) =  -1136.11282774     A.U. after   22 cycles

 The electronic state is 2-A.
 Alpha  occ. eigenvalues --  -38.45828 -38.45065 -38.44554 -38.44392 -38.44284
 Alpha  occ. eigenvalues --  -38.43825 -38.43578  -2.21600  -2.20858  -2.20345
 Alpha  occ. eigenvalues --   -2.20177  -2.20065  -2.19609  -2.19363  -1.15300
 Alpha  occ. eigenvalues --   -1.15266  -1.15198  -1.14537  -1.14508  -1.14464
 Alpha  occ. eigenvalues --   -1.14010  -1.14004  -1.13968  -1.13865  -1.13847
 Alpha  occ. eigenvalues --   -1.13793  -1.13716  -1.13716  -1.13711  -1.13282
 Alpha  occ. eigenvalues --   -1.13279  -1.13225  -1.13037  -1.13037  -1.13006
 Alpha  occ. eigenvalues --   -0.16303  -0.13809  -0.12208  -0.11176
 Alpha virt. eigenvalues --   -0.07418  -0.05722  -0.04167  -0.03707  -0.03035
 Alpha virt. eigenvalues --   -0.02726  -0.02250  -0.01830  -0.01502  -0.01099
 Alpha virt. eigenvalues --   -0.00725  -0.00227  -0.00079   0.00216   0.00419

  Beta  occ. eigenvalues --  -38.45798 -38.45003 -38.44527 -38.44369 -38.44255
  Beta  occ. eigenvalues --  -38.43797 -38.43584  -2.21547  -2.20743  -2.20296
  Beta  occ. eigenvalues --   -2.20136  -2.20011  -2.19556  -2.19379  -1.15262
  Beta  occ. eigenvalues --   -1.15222  -1.15158  -1.14461  -1.14428  -1.14373
  Beta  occ. eigenvalues --   -1.13977  -1.13959  -1.13941  -1.13841  -1.13824
  Beta  occ. eigenvalues --   -1.13739  -1.13679  -1.13679  -1.13676  -1.13245
  Beta  occ. eigenvalues --   -1.13240  -1.13199  -1.13051  -1.13050  -1.12995
  Beta  occ. eigenvalues --   -0.15668  -0.13538  -0.11903
  Beta virt. eigenvalues --   -0.07747  -0.06923  -0.05461  -0.03748  -0.03476
  Beta virt. eigenvalues --   -0.02655  -0.02447  -0.01978  -0.01728  -0.01229
  Beta virt. eigenvalues --   -0.00871  -0.00284  -0.00092   0.00083   0.00314

 Mulliken charges and spin densities:
               1          2
     1  Na  -0.432390   0.397986
     2  Na   0.441496   0.095199
     3  Na   0.055847   0.110888
     4  Na   0.473668   0.408300
     5  Na  -1.065853  -0.376317
     6  Na  -0.739226   0.249975
     7  Na   1.266457   0.113969
 Sum of Mulliken charges =  -0.00000   1.00000

 Dipole moment (field-independent basis, Debye):
    X=              2.2989    Y=             -0.4248    Z=              0.0611  Tot=              2.3386
 Quadrupole moment (field-independent basis, Debye-Ang):
   XX=            -49.1843   YY=            -69.4746   ZZ=            -72.4919
   XY=              0.8668   XZ=             -2.5792   YZ=             -0.0696

 Normal termination of Gaussian 16 at Sun Dec  3 22:54:34 2023.
