 Gaussian 16, Revision B.01,
 Gaussian 16:  ES64L-G16RevB.01 20-Dec-2017

 -------------------------
 #P B3LYP/6-311+g(d) force
 -------------------------

 -----
 DPGEN
 -----
 Symbolic Z-matrix:
 Charge =  0 Multiplicity = 2

                         Standard orientation:
 ---------------------------------------------------------------------
 Center     Atomic      Atomic             Coordinates (Angstroms)
 Number     Number       Type             X           Y           Z
 ---------------------------------------------------------------------
      1         11           0        0.887840    2.439564   -0.058424
      2         11           0       -2.279846   -1.658799   -0.545798
      3         11           0       -2.416273    1.627784    0.161053
      4         11           0        0.246118    0.272201   -1.902591
      5         11           0        1.559410   -2.254906   -0.428761
      6         11           0       -0.603628   -0.792727    2.148871
      7         11           0        2.606381    0.366883    0.625649
 ---------------------------------------------------------------------

 SCF Done:  E(UB3LYP) =  -1136.12723320     A.U. after   19 cycles

 The electronic state is 2-A.
 Alpha  occ. eigenvalues --  -38.44153 -38.43826 -38.43803 -38.43738 -38.43650
 Alpha  occ. eigenvalues --  -38.43363 -38.43189  -2.20027  -2.19815  -2.19808
 Alpha  occ. eigenvalues --   -2.19606  -2.19505  -2.19267  -2.19167  -1.13690
 Alpha  occ. eigenvalues --   -1.13675  -1.13645  -1.13640  -1.13553  -1.13497
 Alpha  occ. eigenvalues --   -1.13459  -1.13425  -1.13403  -1.13282  -1.13275
 Alpha  occ. eigenvalues --   -1.13241  -1.13181  -1.13164  -1.13132  -1.12946
 Alpha  occ. eigenvalues --   -1.12924  -1.12880  -1.12827  -1.12797  -1.12750
 Alpha  occ. eigenvalues --   -0.19285  -0.13281  -0.12369  -0.11656
 Alpha virt. eigenvalues --   -0.05204  -0.05097  -0.04073  -0.03854  -0.03331
 Alpha virt. eigenvalues --   -0.03019  -0.01102  -0.00823  -0.00167   0.00174
 Alpha virt. eigenvalues --    0.00275   0.00408   0.00848   0.00933   0.00963

  Beta  occ. eigenvalues --  -38.44076 -38.43811 -38.43729 -38.43725 -38.43646
  Beta  occ. eigenvalues --  -38.43353 -38.43183  -2.19883  -2.19783  -2.19673
  Beta  occ. eigenvalues --   -2.19593  -2.19502  -2.19252  -2.19159  -1.13624
  Beta  occ. eigenvalues --   -1.13599  -1.13571  -1.13543  -1.13495  -1.13431
  Beta  occ. eigenvalues --   -1.13377  -1.13370  -1.13322  -1.13270  -1.13244
  Beta  occ. eigenvalues --   -1.13228  -1.13173  -1.13148  -1.13130  -1.12936
  Beta  occ. eigenvalues --   -1.12889  -1.12869  -1.12815  -1.12772  -1.12741
  Beta  occ. eigenvalues --   -0.18503  -0.13056  -0.12127
  Beta virt. eigenvalues --   -0.07671  -0.05186  -0.04960  -0.04036  -0.03062
  Beta virt. eigenvalues --   -0.02524  -0.01993  -0.01032  -0.00743   0.00012
  Beta virt. eigenvalues --    0.00145   0.00266   0.00437   0.00933   0.00954

 Mulliken charges and spin densities:
               1          2
     1  Na   0.360794   0.137031
     2  Na   0.282764  -0.046953
     3  Na   0.046415   0.006482
     4  Na  -0.400812   0.294281
     5  Na   0.328149   0.035511
     6  Na  -0.620755   0.412427
     7  Na   0.003446   0.161220
 Sum of Mulliken charges =  -0.00000   1.00000

 Dipole moment (field-independent basis, Debye):
    X=             -0.4949    Y=             -0.3265    Z=              0.2505  Tot=              0.6436
 Quadrupole moment (field-independent basis, Debye-Ang):
   XX=            -61.6280   YY=            -67.2128   ZZ=            -68.1453
   XY=             -0.5810   XZ=              1.2346   YZ=              1.8792

 Normal termination of Gaussian 16 at Thu Dec  7 07:27:43 2023.
