 Gaussian 16, Revision B.01,
 Gaussian 16:  ES64L-G16RevB.01 20-Dec-2017

 -------------------------
 #P B3LYP/6-311+g(d) force
 -------------------------

 -----
 DPGEN
 -----
 Symbolic Z-matrix:
 Charge =  0 Multiplicity = 2

                         Standard orientation:
 ---------------------------------------------------------------------
 Center     Atomic      Atomic             Coordinates (Angstroms)
 Number     Number       Type             X           Y           Z
 ---------------------------------------------------------------------
      1         11           0        0.041535    0.113414   -1.536644
      2         11           0        3.042773    0.313517   -0.678786
      3         11           0        1.665600   -2.246865    0.262251
      4         11           0       -2.839574    0.742565   -0.292582
      5         11           0       -2.163494   -2.367358   -0.008033
      6         11           0        0.388689    0.452817    2.193136
      7         11           0       -0.135530    2.991910    0.060659
 ---------------------------------------------------------------------

 SCF Done:  E(UB3LYP) =  -1136.13407854     A.U. after   20 cycles

 The electronic state is 2-A.
 Alpha  occ. eigenvalues --  -38.44066 -38.43917 -38.43820 -38.43549 -38.43418
 Alpha  occ. eigenvalues --  -38.43269 -38.43212  -2.19957  -2.19789  -2.19699
 Alpha  occ. eigenvalues --   -2.19437  -2.19289  -2.19240  -2.19071  -1.13675
 Alpha  occ. eigenvalues --   -1.13626  -1.13573  -1.13444  -1.13420  -1.13414
 Alpha  occ. eigenvalues --   -1.13410  -1.13366  -1.13323  -1.13120  -1.13093
 Alpha  occ. eigenvalues --   -1.13069  -1.12966  -1.12935  -1.12926  -1.12908
 Alpha  occ. eigenvalues --   -1.12893  -1.12879  -1.12740  -1.12731  -1.12704
 Alpha  occ. eigenvalues --   -0.18734  -0.13313  -0.12305  -0.11068
 Alpha virt. eigenvalues --   -0.05448  -0.05049  -0.04740  -0.03343  -0.02951
 Alpha virt. eigenvalues --   -0.02753  -0.01468  -0.01054  -0.00275  -0.00190
 Alpha virt. eigenvalues --   -0.00020   0.00349   0.00817   0.00896   0.00900

  Beta  occ. eigenvalues --  -38.44045 -38.43815 -38.43814 -38.43541 -38.43420
  Beta  occ. eigenvalues --  -38.43214 -38.43209  -2.19921  -2.19690  -2.19601
  Beta  occ. eigenvalues --   -2.19426  -2.19246  -2.19189  -2.19068  -1.13650
  Beta  occ. eigenvalues --   -1.13591  -1.13541  -1.13401  -1.13353  -1.13323
  Beta  occ. eigenvalues --   -1.13315  -1.13286  -1.13278  -1.13113  -1.13069
  Beta  occ. eigenvalues --   -1.13050  -1.12914  -1.12903  -1.12900  -1.12881
  Beta  occ. eigenvalues --   -1.12863  -1.12840  -1.12731  -1.12706  -1.12703
  Beta  occ. eigenvalues --   -0.18019  -0.13064  -0.12091
  Beta virt. eigenvalues --   -0.07097  -0.05389  -0.04997  -0.04670  -0.02587
  Beta virt. eigenvalues --   -0.02200  -0.01725  -0.01349  -0.00991  -0.00296
  Beta virt. eigenvalues --   -0.00188   0.00127   0.00394   0.00880   0.00897

 Mulliken charges and spin densities:
               1          2
     1  Na  -0.294378   0.195257
     2  Na   0.411134   0.035160
     3  Na   0.073251   0.138206
     4  Na   0.249561   0.013155
     5  Na  -0.089130  -0.001145
     6  Na  -0.549062   0.643687
     7  Na   0.198624  -0.024320
 Sum of Mulliken charges =  -0.00000   1.00000

 Dipole moment (field-independent basis, Debye):
    X=              0.1932    Y=              0.1435    Z=              0.2152  Tot=              0.3229
 Quadrupole moment (field-independent basis, Debye-Ang):
   XX=            -58.8686   YY=            -63.0905   ZZ=            -72.9610
   XY=              0.0771   XZ=             -0.8759   YZ=             -1.2305

 Normal termination of Gaussian 16 at Fri Dec  8 02:36:29 2023.
