 Gaussian 16, Revision B.01,
 Gaussian 16:  ES64L-G16RevB.01 20-Dec-2017

 -------------------------
 #P B3LYP/6-311+g(d) force
 -------------------------

 -----
 DPGEN
 -----
 Symbolic Z-matrix:
 Charge =  0 Multiplicity = 2

                         Standard orientation:
 ---------------------------------------------------------------------
 Center     Atomic      Atomic             Coordinates (Angstroms)
 Number     Number       Type             X           Y           Z
 ---------------------------------------------------------------------
      1         11           0       -1.169918    1.056572    1.452306
      2         11           0       -0.296639   -1.194563   -0.951452
      3         11           0        1.484107    2.359755   -0.702806
      4         11           0       -2.350410    1.294216   -1.130903
      5         11           0       -3.617344   -1.823153    0.420236
      6         11           0        2.344146    0.054666    1.560351
      7         11           0        3.606059   -1.747492   -0.647731
 ---------------------------------------------------------------------

 SCF Done:  E(UB3LYP) =  -1136.11914435     A.U. after   22 cycles

 The electronic state is 2-A.
 Alpha  occ. eigenvalues --  -38.44435 -38.44298 -38.44255 -38.44062 -38.43921
 Alpha  occ. eigenvalues --  -38.43666 -38.43645  -2.20362  -2.20124  -2.20082
 Alpha  occ. eigenvalues --   -2.19868  -2.19726  -2.19592  -2.19562  -1.14159
 Alpha  occ. eigenvalues --   -1.14050  -1.13910  -1.13841  -1.13792  -1.13757
 Alpha  occ. eigenvalues --   -1.13747  -1.13720  -1.13690  -1.13555  -1.13536
 Alpha  occ. eigenvalues --   -1.13494  -1.13443  -1.13379  -1.13365  -1.13287
 Alpha  occ. eigenvalues --   -1.13274  -1.13232  -1.13213  -1.13160  -1.13137
 Alpha  occ. eigenvalues --   -0.18332  -0.14078  -0.11393  -0.10412
 Alpha virt. eigenvalues --   -0.06367  -0.06108  -0.04670  -0.03097  -0.02509
 Alpha virt. eigenvalues --   -0.02325  -0.01951  -0.01615  -0.00665  -0.00378
 Alpha virt. eigenvalues --    0.00137   0.00176   0.00283   0.00454   0.00612

  Beta  occ. eigenvalues --  -38.44403 -38.44287 -38.44224 -38.44057 -38.43915
  Beta  occ. eigenvalues --  -38.43631 -38.43602  -2.20305  -2.20070  -2.20061
  Beta  occ. eigenvalues --   -2.19860  -2.19716  -2.19516  -2.19498  -1.14122
  Beta  occ. eigenvalues --   -1.13995  -1.13866  -1.13795  -1.13745  -1.13733
  Beta  occ. eigenvalues --   -1.13725  -1.13700  -1.13665  -1.13547  -1.13511
  Beta  occ. eigenvalues --   -1.13491  -1.13431  -1.13371  -1.13353  -1.13229
  Beta  occ. eigenvalues --   -1.13210  -1.13187  -1.13174  -1.13105  -1.13081
  Beta  occ. eigenvalues --   -0.17662  -0.13894  -0.11188
  Beta virt. eigenvalues --   -0.06710  -0.06163  -0.06016  -0.04027  -0.02919
  Beta virt. eigenvalues --   -0.02361  -0.01872  -0.01592  -0.01078  -0.00480
  Beta virt. eigenvalues --   -0.00127   0.00172   0.00234   0.00381   0.00567

 Mulliken charges and spin densities:
               1          2
     1  Na  -0.193863   0.313635
     2  Na  -1.088955   0.299677
     3  Na  -0.052750   0.158262
     4  Na   0.723222   0.192555
     5  Na   0.343036  -0.052783
     6  Na   0.239875   0.031777
     7  Na   0.029435   0.056877
 Sum of Mulliken charges =  -0.00000   1.00000

 Dipole moment (field-independent basis, Debye):
    X=             -0.3979    Y=              0.2967    Z=             -0.4410  Tot=              0.6639
 Quadrupole moment (field-independent basis, Debye-Ang):
   XX=            -52.1899   YY=            -69.5779   ZZ=            -72.1776
   XY=              1.7062   XZ=             -1.4296   YZ=             -1.7609

 Normal termination of Gaussian 16 at Tue Dec  5 14:30:22 2023.
