 Gaussian 16, Revision B.01,
 Gaussian 16:  ES64L-G16RevB.01 20-Dec-2017

 -------------------------
 #P B3LYP/6-311+g(d) force
 -------------------------

 -----
 DPGEN
 -----
 Symbolic Z-matrix:
 Charge =  0 Multiplicity = 2

                         Standard orientation:
 ---------------------------------------------------------------------
 Center     Atomic      Atomic             Coordinates (Angstroms)
 Number     Number       Type             X           Y           Z
 ---------------------------------------------------------------------
      1         11           0       -2.449186   -1.953631    0.595457
      2         11           0        2.181119    1.871756   -0.443846
      3         11           0       -1.211925    1.774291    0.856921
      4         11           0        3.588689   -1.176700   -0.372086
      5         11           0        0.961144   -0.284068    1.863388
      6         11           0        0.432184   -0.770782   -1.460312
      7         11           0       -3.502023    0.539134   -1.039522
 ---------------------------------------------------------------------

 SCF Done:  E(UB3LYP) =  -1136.12162345     A.U. after   26 cycles

 The electronic state is 2-A.
 Alpha  occ. eigenvalues --  -38.44642 -38.44610 -38.44245 -38.44033 -38.43915
 Alpha  occ. eigenvalues --  -38.43562 -38.42320  -2.20501  -2.20490  -2.20083
 Alpha  occ. eigenvalues --   -2.19864  -2.19808  -2.19516  -2.18233  -1.14202
 Alpha  occ. eigenvalues --   -1.14172  -1.14167  -1.14152  -1.14133  -1.14099
 Alpha  occ. eigenvalues --   -1.13755  -1.13751  -1.13728  -1.13525  -1.13518
 Alpha  occ. eigenvalues --   -1.13512  -1.13506  -1.13474  -1.13401  -1.13210
 Alpha  occ. eigenvalues --   -1.13147  -1.13114  -1.11936  -1.11906  -1.11848
 Alpha  occ. eigenvalues --   -0.18705  -0.14519  -0.10995  -0.10885
 Alpha virt. eigenvalues --   -0.06881  -0.05663  -0.04454  -0.02965  -0.02750
 Alpha virt. eigenvalues --   -0.02344  -0.02316  -0.01145  -0.00722  -0.00369
 Alpha virt. eigenvalues --    0.00109   0.00209   0.00370   0.00585   0.00734

  Beta  occ. eigenvalues --  -38.44606 -38.44585 -38.44254 -38.44015 -38.43896
  Beta  occ. eigenvalues --  -38.43480 -38.42306  -2.20449  -2.20433  -2.20101
  Beta  occ. eigenvalues --   -2.19834  -2.19773  -2.19365  -2.18213  -1.14167
  Beta  occ. eigenvalues --   -1.14130  -1.14119  -1.14102  -1.14087  -1.14071
  Beta  occ. eigenvalues --   -1.13769  -1.13747  -1.13738  -1.13503  -1.13501
  Beta  occ. eigenvalues --   -1.13478  -1.13469  -1.13450  -1.13372  -1.13111
  Beta  occ. eigenvalues --   -1.13040  -1.13000  -1.11910  -1.11866  -1.11843
  Beta  occ. eigenvalues --   -0.18022  -0.14238  -0.10717
  Beta virt. eigenvalues --   -0.07225  -0.06640  -0.05386  -0.03994  -0.02842
  Beta virt. eigenvalues --   -0.02517  -0.01743  -0.01576  -0.00959  -0.00410
  Beta virt. eigenvalues --   -0.00255   0.00163   0.00244   0.00485   0.00642

 Mulliken charges and spin densities:
               1          2
     1  Na  -0.016137   0.052150
     2  Na   0.051912   0.026295
     3  Na  -0.312320   0.168486
     4  Na   0.533078  -0.066611
     5  Na  -0.054177   0.483266
     6  Na  -0.654166   0.279046
     7  Na   0.451810   0.057368
 Sum of Mulliken charges =  -0.00000   1.00000

 Dipole moment (field-independent basis, Debye):
    X=              0.3767    Y=             -0.0222    Z=             -0.1549  Tot=              0.4079
 Quadrupole moment (field-independent basis, Debye-Ang):
   XX=            -50.8802   YY=            -74.2909   ZZ=            -70.3368
   XY=              0.2127   XZ=              1.6798   YZ=             -4.9687

 Normal termination of Gaussian 16 at Tue Dec  5 23:36:54 2023.
