 Gaussian 16, Revision B.01,
 Gaussian 16:  ES64L-G16RevB.01 20-Dec-2017

 -------------------------
 #P B3LYP/6-311+g(d) force
 -------------------------

 -----
 DPGEN
 -----
 Symbolic Z-matrix:
 Charge =  0 Multiplicity = 2

                         Standard orientation:
 ---------------------------------------------------------------------
 Center     Atomic      Atomic             Coordinates (Angstroms)
 Number     Number       Type             X           Y           Z
 ---------------------------------------------------------------------
      1         11           0        0.406181   -0.086999    1.957128
      2         11           0        0.074711    0.275452   -1.657854
      3         11           0        3.539469    0.552177    0.064651
      4         11           0       -2.373627   -2.167415    0.059870
      5         11           0       -2.723872    1.101986    0.112780
      6         11           0        1.247896   -2.838720   -0.382220
      7         11           0       -0.170757    3.163520   -0.154356
 ---------------------------------------------------------------------

 SCF Done:  E(UB3LYP) =  -1136.13360798     A.U. after   20 cycles

 The electronic state is 2-A.
 Alpha  occ. eigenvalues --  -38.44725 -38.44127 -38.43767 -38.43625 -38.43578
 Alpha  occ. eigenvalues --  -38.43568 -38.43245  -2.20472  -2.19922  -2.19605
 Alpha  occ. eigenvalues --   -2.19458  -2.19441  -2.19425  -2.19172  -1.14149
 Alpha  occ. eigenvalues --   -1.14127  -1.14112  -1.13603  -1.13589  -1.13544
 Alpha  occ. eigenvalues --   -1.13302  -1.13275  -1.13244  -1.13179  -1.13123
 Alpha  occ. eigenvalues --   -1.13115  -1.13102  -1.13100  -1.13081  -1.13058
 Alpha  occ. eigenvalues --   -1.13053  -1.13034  -1.12859  -1.12800  -1.12794
 Alpha  occ. eigenvalues --   -0.18167  -0.12834  -0.12426  -0.10354
 Alpha virt. eigenvalues --   -0.06186  -0.05242  -0.04860  -0.03086  -0.02783
 Alpha virt. eigenvalues --   -0.02336  -0.01825  -0.01391  -0.00626  -0.00565
 Alpha virt. eigenvalues --   -0.00023   0.00327   0.00706   0.00810   0.00843

  Beta  occ. eigenvalues --  -38.44726 -38.44115 -38.43763 -38.43624 -38.43572
  Beta  occ. eigenvalues --  -38.43483 -38.43180  -2.20475  -2.19901  -2.19600
  Beta  occ. eigenvalues --   -2.19450  -2.19441  -2.19269  -2.19053  -1.14135
  Beta  occ. eigenvalues --   -1.14131  -1.14116  -1.13580  -1.13566  -1.13533
  Beta  occ. eigenvalues --   -1.13296  -1.13263  -1.13231  -1.13179  -1.13111
  Beta  occ. eigenvalues --   -1.13094  -1.13085  -1.13080  -1.13048  -1.12998
  Beta  occ. eigenvalues --   -1.12950  -1.12920  -1.12775  -1.12716  -1.12706
  Beta  occ. eigenvalues --   -0.17466  -0.12606  -0.12212
  Beta virt. eigenvalues --   -0.06562  -0.06121  -0.05117  -0.04869  -0.02336
  Beta virt. eigenvalues --   -0.02097  -0.01754  -0.01320  -0.01268  -0.00662
  Beta virt. eigenvalues --   -0.00613   0.00125   0.00360   0.00718   0.00847

 Mulliken charges and spin densities:
               1          2
     1  Na  -0.361305   0.751122
     2  Na  -0.145641   0.473691
     3  Na  -0.001438  -0.143358
     4  Na  -0.007371  -0.021914
     5  Na   0.134700   0.048328
     6  Na   0.064623  -0.042650
     7  Na   0.316431  -0.065219
 Sum of Mulliken charges =  -0.00000   1.00000

 Dipole moment (field-independent basis, Debye):
    X=              0.6293    Y=              0.0555    Z=              0.0328  Tot=              0.6326
 Quadrupole moment (field-independent basis, Debye-Ang):
   XX=            -56.2589   YY=            -59.6207   ZZ=            -76.5258
   XY=              0.6769   XZ=             -0.9365   YZ=              0.7137

 Normal termination of Gaussian 16 at Thu Dec  7 14:55:09 2023.
