 Gaussian 16, Revision B.01,
 Gaussian 16:  ES64L-G16RevB.01 20-Dec-2017

 -------------------------
 #P B3LYP/6-311+g(d) force
 -------------------------

 -----
 DPGEN
 -----
 Symbolic Z-matrix:
 Charge =  0 Multiplicity = 2

                         Standard orientation:
 ---------------------------------------------------------------------
 Center     Atomic      Atomic             Coordinates (Angstroms)
 Number     Number       Type             X           Y           Z
 ---------------------------------------------------------------------
      1         11           0       -0.681873    0.151202   -1.497333
      2         11           0        0.374385    0.014561    1.608545
      3         11           0        2.894225   -1.969802    0.110066
      4         11           0       -0.750907    2.759148    0.236412
      5         11           0        2.499685    2.002005   -0.443185
      6         11           0       -3.555103   -0.201251    0.240652
      7         11           0       -0.780412   -2.755862   -0.255157
 ---------------------------------------------------------------------

 SCF Done:  E(UB3LYP) =  -1136.13059839     A.U. after   22 cycles

 The electronic state is 2-A.
 Alpha  occ. eigenvalues --  -38.44706 -38.44196 -38.44097 -38.43761 -38.43492
 Alpha  occ. eigenvalues --  -38.42986 -38.42907  -2.20488  -2.19967  -2.19911
 Alpha  occ. eigenvalues --   -2.19606  -2.19386  -2.18981  -2.18865  -1.14166
 Alpha  occ. eigenvalues --   -1.14136  -1.14131  -1.13643  -1.13624  -1.13610
 Alpha  occ. eigenvalues --   -1.13580  -1.13568  -1.13553  -1.13332  -1.13277
 Alpha  occ. eigenvalues --   -1.13202  -1.13113  -1.13061  -1.12989  -1.12702
 Alpha  occ. eigenvalues --   -1.12631  -1.12570  -1.12551  -1.12490  -1.12469
 Alpha  occ. eigenvalues --   -0.18436  -0.12947  -0.12597  -0.09845
 Alpha virt. eigenvalues --   -0.06161  -0.05518  -0.04818  -0.02916  -0.02643
 Alpha virt. eigenvalues --   -0.02061  -0.01730  -0.01401  -0.00639  -0.00548
 Alpha virt. eigenvalues --    0.00002   0.00279   0.00714   0.00769   0.00804

  Beta  occ. eigenvalues --  -38.44704 -38.44197 -38.44084 -38.43749 -38.43480
  Beta  occ. eigenvalues --  -38.42927 -38.42837  -2.20487  -2.19970  -2.19889
  Beta  occ. eigenvalues --   -2.19589  -2.19369  -2.18875  -2.18737  -1.14158
  Beta  occ. eigenvalues --   -1.14133  -1.14124  -1.13632  -1.13627  -1.13614
  Beta  occ. eigenvalues --   -1.13557  -1.13550  -1.13535  -1.13316  -1.13244
  Beta  occ. eigenvalues --   -1.13194  -1.13103  -1.13023  -1.12969  -1.12623
  Beta  occ. eigenvalues --   -1.12554  -1.12490  -1.12463  -1.12403  -1.12370
  Beta  occ. eigenvalues --   -0.17756  -0.12717  -0.12360
  Beta virt. eigenvalues --   -0.06133  -0.06040  -0.05456  -0.04775  -0.02236
  Beta virt. eigenvalues --   -0.01967  -0.01929  -0.01363  -0.00822  -0.00631
  Beta virt. eigenvalues --   -0.00562   0.00154   0.00328   0.00764   0.00776

 Mulliken charges and spin densities:
               1          2
     1  Na  -0.002796   0.440298
     2  Na  -0.170280   0.669373
     3  Na  -0.033365  -0.080899
     4  Na   0.246434   0.088664
     5  Na  -0.062782   0.027388
     6  Na   0.084264  -0.006030
     7  Na  -0.061475  -0.138793
 Sum of Mulliken charges =  -0.00000   1.00000

 Dipole moment (field-independent basis, Debye):
    X=             -0.1482    Y=             -0.0872    Z=              0.0494  Tot=              0.1789
 Quadrupole moment (field-independent basis, Debye-Ang):
   XX=            -50.0080   YY=            -61.0405   ZZ=            -78.6046
   XY=              0.0588   XZ=             -2.5517   YZ=              0.0805

 Normal termination of Gaussian 16 at Thu Dec  7 14:25:37 2023.
