 Gaussian 16, Revision B.01,
 Gaussian 16:  ES64L-G16RevB.01 20-Dec-2017

 -------------------------
 #P B3LYP/6-311+g(d) force
 -------------------------

 -----
 DPGEN
 -----
 Symbolic Z-matrix:
 Charge =  0 Multiplicity = 2

                         Standard orientation:
 ---------------------------------------------------------------------
 Center     Atomic      Atomic             Coordinates (Angstroms)
 Number     Number       Type             X           Y           Z
 ---------------------------------------------------------------------
      1         11           0        1.680827    1.906573   -0.139505
      2         11           0       -0.917457   -0.027107    2.020460
      3         11           0       -2.765495   -2.751210    0.143924
      4         11           0       -1.451998    0.240528   -1.604638
      5         11           0        3.852889   -0.954978    0.275927
      6         11           0       -1.529670    3.233554    0.044937
      7         11           0        1.130904   -1.647360   -0.741104
 ---------------------------------------------------------------------

 SCF Done:  E(UB3LYP) =  -1136.12974582     A.U. after   19 cycles

 The electronic state is 2-A.
 Alpha  occ. eigenvalues --  -38.44259 -38.44224 -38.44103 -38.43857 -38.43785
 Alpha  occ. eigenvalues --  -38.43618 -38.43304  -2.20050  -2.20016  -2.19936
 Alpha  occ. eigenvalues --   -2.19691  -2.19599  -2.19524  -2.19205  -1.13753
 Alpha  occ. eigenvalues --   -1.13743  -1.13696  -1.13682  -1.13676  -1.13653
 Alpha  occ. eigenvalues --   -1.13643  -1.13577  -1.13561  -1.13368  -1.13338
 Alpha  occ. eigenvalues --   -1.13287  -1.13278  -1.13255  -1.13236  -1.13235
 Alpha  occ. eigenvalues --   -1.13191  -1.13109  -1.12907  -1.12856  -1.12784
 Alpha  occ. eigenvalues --   -0.17975  -0.13112  -0.12387  -0.10416
 Alpha virt. eigenvalues --   -0.06146  -0.05660  -0.04503  -0.03057  -0.02866
 Alpha virt. eigenvalues --   -0.02451  -0.01871  -0.01765  -0.00604  -0.00296
 Alpha virt. eigenvalues --    0.00003   0.00214   0.00663   0.00765   0.00804

  Beta  occ. eigenvalues --  -38.44262 -38.44217 -38.44105 -38.43784 -38.43770
  Beta  occ. eigenvalues --  -38.43597 -38.43240  -2.20040  -2.20025  -2.19941
  Beta  occ. eigenvalues --   -2.19600  -2.19529  -2.19488  -2.19088  -1.13749
  Beta  occ. eigenvalues --   -1.13713  -1.13704  -1.13677  -1.13673  -1.13651
  Beta  occ. eigenvalues --   -1.13651  -1.13576  -1.13563  -1.13279  -1.13258
  Beta  occ. eigenvalues --   -1.13244  -1.13238  -1.13222  -1.13207  -1.13168
  Beta  occ. eigenvalues --   -1.13142  -1.13089  -1.12827  -1.12767  -1.12702
  Beta  occ. eigenvalues --   -0.17269  -0.12976  -0.12216
  Beta virt. eigenvalues --   -0.06513  -0.05941  -0.05632  -0.04406  -0.02526
  Beta virt. eigenvalues --   -0.02213  -0.01855  -0.01721  -0.01394  -0.00591
  Beta virt. eigenvalues --   -0.00099   0.00126   0.00274   0.00705   0.00799

 Mulliken charges and spin densities:
               1          2
     1  Na  -0.206027   0.089305
     2  Na  -0.436319   0.659041
     3  Na   0.047780  -0.122042
     4  Na   0.189158   0.300447
     5  Na   0.435995  -0.059854
     6  Na   0.343624   0.051523
     7  Na  -0.374211   0.081580
 Sum of Mulliken charges =  -0.00000   1.00000

 Dipole moment (field-independent basis, Debye):
    X=              0.1181    Y=              0.0627    Z=              0.1944  Tot=              0.2360
 Quadrupole moment (field-independent basis, Debye-Ang):
   XX=            -55.1740   YY=            -60.5448   ZZ=            -75.9349
   XY=              0.5626   XZ=              1.6958   YZ=             -0.1703

 Normal termination of Gaussian 16 at Thu Dec  7 22:33:27 2023.
