 Gaussian 16, Revision B.01,
 Gaussian 16:  ES64L-G16RevB.01 20-Dec-2017

 -------------------------
 #P B3LYP/6-311+g(d) force
 -------------------------

 -----
 DPGEN
 -----
 Symbolic Z-matrix:
 Charge =  0 Multiplicity = 2

                         Standard orientation:
 ---------------------------------------------------------------------
 Center     Atomic      Atomic             Coordinates (Angstroms)
 Number     Number       Type             X           Y           Z
 ---------------------------------------------------------------------
      1         11           0        0.643634   -0.037946    1.516543
      2         11           0        2.410558   -1.426754   -0.317457
      3         11           0        2.363271    1.460047   -0.283257
      4         11           0        0.110334   -0.008843   -1.377857
      5         11           0       -1.431859    1.578564    0.790743
      6         11           0       -2.624066    0.025269   -1.092557
      7         11           0       -1.471873   -1.590336    0.763843
 ---------------------------------------------------------------------

 SCF Done:  E(UB3LYP) =  -1136.06722088     A.U. after   24 cycles

 The electronic state is 2-A.
 Alpha  occ. eigenvalues --  -38.45302 -38.44221 -38.44090 -38.44025 -38.43955
 Alpha  occ. eigenvalues --  -38.43553 -38.43519  -2.21426  -2.20566  -2.20291
 Alpha  occ. eigenvalues --   -2.20125  -2.20056  -2.19686  -2.19654  -1.15269
 Alpha  occ. eigenvalues --   -1.15108  -1.15058  -1.14471  -1.14416  -1.14239
 Alpha  occ. eigenvalues --   -1.14102  -1.13929  -1.13908  -1.13871  -1.13737
 Alpha  occ. eigenvalues --   -1.13693  -1.13679  -1.13644  -1.13548  -1.13377
 Alpha  occ. eigenvalues --   -1.13344  -1.13316  -1.13305  -1.13217  -1.13153
 Alpha  occ. eigenvalues --   -0.21296  -0.15084  -0.12270  -0.11444
 Alpha virt. eigenvalues --   -0.06122  -0.04616  -0.04592  -0.03301  -0.02353
 Alpha virt. eigenvalues --   -0.02259  -0.01730  -0.00594  -0.00265   0.00312
 Alpha virt. eigenvalues --    0.00574   0.00707   0.00843   0.00951   0.01009

  Beta  occ. eigenvalues --  -38.45261 -38.44136 -38.44082 -38.44018 -38.43892
  Beta  occ. eigenvalues --  -38.43524 -38.43489  -2.21353  -2.20416  -2.20182
  Beta  occ. eigenvalues --   -2.20111  -2.20046  -2.19640  -2.19607  -1.15224
  Beta  occ. eigenvalues --   -1.15032  -1.15010  -1.14372  -1.14330  -1.14137
  Beta  occ. eigenvalues --   -1.14023  -1.13858  -1.13853  -1.13838  -1.13703
  Beta  occ. eigenvalues --   -1.13657  -1.13652  -1.13609  -1.13541  -1.13350
  Beta  occ. eigenvalues --   -1.13282  -1.13268  -1.13239  -1.13176  -1.13111
  Beta  occ. eigenvalues --   -0.20528  -0.14767  -0.11181
  Beta virt. eigenvalues --   -0.07977  -0.06066  -0.04598  -0.03699  -0.02851
  Beta virt. eigenvalues --   -0.01648  -0.01638  -0.01428  -0.00583  -0.00031
  Beta virt. eigenvalues --    0.00342   0.00636   0.00691   0.00946   0.00959

 Mulliken charges and spin densities:
               1          2
     1  Na  -0.027011   0.275798
     2  Na   0.411315   0.057724
     3  Na   0.366423   0.056701
     4  Na  -0.974788   0.267670
     5  Na  -0.637026   0.026235
     6  Na   1.489086   0.278685
     7  Na  -0.628000   0.037186
 Sum of Mulliken charges =  -0.00000   1.00000

 Dipole moment (field-independent basis, Debye):
    X=              0.2751    Y=              0.0062    Z=             -0.2595  Tot=              0.3782
 Quadrupole moment (field-independent basis, Debye-Ang):
   XX=            -52.2366   YY=            -74.7769   ZZ=            -68.4502
   XY=             -0.0119   XZ=              0.0480   YZ=             -0.0169

 Normal termination of Gaussian 16 at Fri Dec  8 18:37:58 2023.
