 Gaussian 16, Revision B.01,
 Gaussian 16:  ES64L-G16RevB.01 20-Dec-2017

 -------------------------
 #P B3LYP/6-311+g(d) force
 -------------------------

 -----
 DPGEN
 -----
 Symbolic Z-matrix:
 Charge =  0 Multiplicity = 2

                         Standard orientation:
 ---------------------------------------------------------------------
 Center     Atomic      Atomic             Coordinates (Angstroms)
 Number     Number       Type             X           Y           Z
 ---------------------------------------------------------------------
      1         11           0       -1.659409    2.572123   -0.130180
      2         11           0       -3.112342   -1.129798   -0.034916
      3         11           0       -0.062689   -0.160678    2.149272
      4         11           0        2.997010   -1.119407   -0.195941
      5         11           0        0.104343   -2.729986   -0.236006
      6         11           0        1.904050    2.323134    0.075436
      7         11           0       -0.170963    0.244612   -1.627664
 ---------------------------------------------------------------------

 SCF Done:  E(UB3LYP) =  -1136.13830649     A.U. after   19 cycles

 The electronic state is 2-A.
 Alpha  occ. eigenvalues --  -38.44067 -38.43786 -38.43721 -38.43716 -38.43693
 Alpha  occ. eigenvalues --  -38.43288 -38.43197  -2.19860  -2.19622  -2.19584
 Alpha  occ. eigenvalues --   -2.19541  -2.19524  -2.19173  -2.19171  -1.13534
 Alpha  occ. eigenvalues --   -1.13513  -1.13509  -1.13343  -1.13282  -1.13249
 Alpha  occ. eigenvalues --   -1.13245  -1.13218  -1.13215  -1.13213  -1.13207
 Alpha  occ. eigenvalues --   -1.13198  -1.13188  -1.13179  -1.13143  -1.12907
 Alpha  occ. eigenvalues --   -1.12847  -1.12835  -1.12791  -1.12790  -1.12775
 Alpha  occ. eigenvalues --   -0.18491  -0.12706  -0.12630  -0.10730
 Alpha virt. eigenvalues --   -0.05610  -0.05298  -0.04708  -0.03020  -0.02979
 Alpha virt. eigenvalues --   -0.02648  -0.01558  -0.01231  -0.00451  -0.00300
 Alpha virt. eigenvalues --   -0.00030   0.00347   0.00780   0.00846   0.00903

  Beta  occ. eigenvalues --  -38.44067 -38.43781 -38.43713 -38.43689 -38.43619
  Beta  occ. eigenvalues --  -38.43279 -38.43137  -2.19862  -2.19617  -2.19539
  Beta  occ. eigenvalues --   -2.19520  -2.19395  -2.19159  -2.19063  -1.13521
  Beta  occ. eigenvalues --   -1.13513  -1.13511  -1.13331  -1.13261  -1.13245
  Beta  occ. eigenvalues --   -1.13216  -1.13214  -1.13186  -1.13183  -1.13170
  Beta  occ. eigenvalues --   -1.13144  -1.13121  -1.13080  -1.13062  -1.12878
  Beta  occ. eigenvalues --   -1.12806  -1.12781  -1.12770  -1.12721  -1.12703
  Beta  occ. eigenvalues --   -0.17760  -0.12491  -0.12415
  Beta virt. eigenvalues --   -0.06786  -0.05603  -0.05270  -0.04659  -0.02247
  Beta virt. eigenvalues --   -0.02217  -0.01563  -0.01468  -0.01165  -0.00509
  Beta virt. eigenvalues --   -0.00344   0.00122   0.00371   0.00828   0.00846

 Mulliken charges and spin densities:
               1          2
     1  Na   0.190776  -0.088843
     2  Na   0.139651  -0.077394
     3  Na  -0.582251   0.805326
     4  Na   0.059686  -0.032501
     5  Na   0.249730  -0.007422
     6  Na   0.143863  -0.022884
     7  Na  -0.201454   0.423718
 Sum of Mulliken charges =  -0.00000   1.00000

 Dipole moment (field-independent basis, Debye):
    X=             -0.2048    Y=              0.1608    Z=              0.1601  Tot=              0.3056
 Quadrupole moment (field-independent basis, Debye-Ang):
   XX=            -56.0814   YY=            -62.5333   ZZ=            -74.6322
   XY=              0.2376   XZ=             -0.2755   YZ=              0.8740

 Normal termination of Gaussian 16 at Thu Dec  7 17:26:34 2023.
