 Gaussian 16, Revision B.01,
 Gaussian 16:  ES64L-G16RevB.01 20-Dec-2017

 -------------------------
 #P B3LYP/6-311+g(d) force
 -------------------------

 -----
 DPGEN
 -----
 Symbolic Z-matrix:
 Charge =  0 Multiplicity = 2

                         Standard orientation:
 ---------------------------------------------------------------------
 Center     Atomic      Atomic             Coordinates (Angstroms)
 Number     Number       Type             X           Y           Z
 ---------------------------------------------------------------------
      1         11           0        2.122024    2.628327    0.103519
      2         11           0       -0.978398    3.309167   -0.333084
      3         11           0       -0.604056    0.545262    2.062340
      4         11           0       -2.132036   -0.227932   -1.539780
      5         11           0       -3.146087   -2.578603    0.569580
      6         11           0        1.119928   -1.078191   -0.932736
      7         11           0        3.618625   -2.598029    0.070162
 ---------------------------------------------------------------------

 SCF Done:  E(UB3LYP) =  -1136.11505683     A.U. after   21 cycles

 The electronic state is 2-A.
 Alpha  occ. eigenvalues --  -38.45464 -38.44995 -38.44526 -38.44384 -38.43790
 Alpha  occ. eigenvalues --  -38.43424 -38.43111  -2.21242  -2.20750  -2.20331
 Alpha  occ. eigenvalues --   -2.20204  -2.19571  -2.19281  -2.18970  -1.14921
 Alpha  occ. eigenvalues --   -1.14894  -1.14888  -1.14422  -1.14413  -1.14385
 Alpha  occ. eigenvalues --   -1.14005  -1.13991  -1.13922  -1.13878  -1.13850
 Alpha  occ. eigenvalues --   -1.13843  -1.13262  -1.13224  -1.13218  -1.12973
 Alpha  occ. eigenvalues --   -1.12929  -1.12896  -1.12645  -1.12628  -1.12603
 Alpha  occ. eigenvalues --   -0.17356  -0.12958  -0.12146  -0.10367
 Alpha virt. eigenvalues --   -0.06855  -0.06292  -0.04051  -0.03399  -0.02579
 Alpha virt. eigenvalues --   -0.02512  -0.02285  -0.01862  -0.00687  -0.00508
 Alpha virt. eigenvalues --   -0.00257   0.00125   0.00272   0.00451   0.00645

  Beta  occ. eigenvalues --  -38.45465 -38.44991 -38.44439 -38.44368 -38.43799
  Beta  occ. eigenvalues --  -38.43373 -38.43093  -2.21245  -2.20745  -2.20176
  Beta  occ. eigenvalues --   -2.20169  -2.19588  -2.19189  -2.18939  -1.14916
  Beta  occ. eigenvalues --   -1.14895  -1.14886  -1.14418  -1.14403  -1.14379
  Beta  occ. eigenvalues --   -1.13894  -1.13883  -1.13858  -1.13833  -1.13809
  Beta  occ. eigenvalues --   -1.13796  -1.13273  -1.13235  -1.13229  -1.12909
  Beta  occ. eigenvalues --   -1.12866  -1.12821  -1.12618  -1.12604  -1.12578
  Beta  occ. eigenvalues --   -0.16654  -0.12858  -0.12102
  Beta virt. eigenvalues --   -0.06732  -0.06434  -0.06081  -0.03808  -0.02981
  Beta virt. eigenvalues --   -0.02280  -0.02090  -0.01841  -0.01385  -0.00700
  Beta virt. eigenvalues --   -0.00335  -0.00057   0.00202   0.00415   0.00496

 Mulliken charges and spin densities:
               1          2
     1  Na   0.156723  -0.009109
     2  Na   0.113748   0.148427
     3  Na  -0.216962   0.614435
     4  Na   0.623519   0.173155
     5  Na  -0.000088   0.059918
     6  Na  -0.727945   0.129926
     7  Na   0.051005  -0.116752
 Sum of Mulliken charges =  -0.00000   1.00000

 Dipole moment (field-independent basis, Debye):
    X=             -0.0965    Y=              0.5491    Z=              0.6296  Tot=              0.8409
 Quadrupole moment (field-independent basis, Debye-Ang):
   XX=            -58.4111   YY=            -57.7505   ZZ=            -76.4058
   XY=              5.0722   XZ=              1.0975   YZ=             -3.5008

 Normal termination of Gaussian 16 at Mon Dec  4 02:36:34 2023.
