 Gaussian 16, Revision B.01,
 Gaussian 16:  ES64L-G16RevB.01 20-Dec-2017

 -------------------------
 #P B3LYP/6-311+g(d) force
 -------------------------

 -----
 DPGEN
 -----
 Symbolic Z-matrix:
 Charge =  0 Multiplicity = 2

                         Standard orientation:
 ---------------------------------------------------------------------
 Center     Atomic      Atomic             Coordinates (Angstroms)
 Number     Number       Type             X           Y           Z
 ---------------------------------------------------------------------
      1         11           0        0.068263    3.881035    0.430563
      2         11           0       -3.895399   -1.154884   -0.692231
      3         11           0       -3.000453    2.154698   -0.259555
      4         11           0        1.763070   -1.603811    1.471867
      5         11           0        2.899123    1.601637   -0.006497
      6         11           0        3.745607   -1.469003   -1.421906
      7         11           0       -1.580211   -3.409672    0.477757
 ---------------------------------------------------------------------

 SCF Done:  E(UB3LYP) =  -1136.11376554     A.U. after   22 cycles

 The electronic state is 2-A.
 Alpha  occ. eigenvalues --  -38.45459 -38.45141 -38.44655 -38.44394 -38.44015
 Alpha  occ. eigenvalues --  -38.43987 -38.43447  -2.21227  -2.20931  -2.20472
 Alpha  occ. eigenvalues --   -2.20163  -2.19805  -2.19759  -2.19226  -1.14919
 Alpha  occ. eigenvalues --   -1.14904  -1.14834  -1.14632  -1.14612  -1.14536
 Alpha  occ. eigenvalues --   -1.14129  -1.14119  -1.14077  -1.13847  -1.13837
 Alpha  occ. eigenvalues --   -1.13788  -1.13479  -1.13474  -1.13456  -1.13432
 Alpha  occ. eigenvalues --   -1.13411  -1.13375  -1.12897  -1.12884  -1.12865
 Alpha  occ. eigenvalues --   -0.16049  -0.13876  -0.12795  -0.10574
 Alpha virt. eigenvalues --   -0.07086  -0.06227  -0.03886  -0.03549  -0.03005
 Alpha virt. eigenvalues --   -0.02612  -0.01840  -0.01784  -0.01403  -0.01258
 Alpha virt. eigenvalues --   -0.00173  -0.00094  -0.00057   0.00474   0.00534

  Beta  occ. eigenvalues --  -38.45439 -38.45118 -38.44590 -38.44372 -38.43998
  Beta  occ. eigenvalues --  -38.43961 -38.43427  -2.21191  -2.20894  -2.20351
  Beta  occ. eigenvalues --   -2.20126  -2.19777  -2.19711  -2.19190  -1.14894
  Beta  occ. eigenvalues --   -1.14883  -1.14789  -1.14609  -1.14592  -1.14475
  Beta  occ. eigenvalues --   -1.14044  -1.14034  -1.14001  -1.13823  -1.13814
  Beta  occ. eigenvalues --   -1.13747  -1.13462  -1.13458  -1.13423  -1.13399
  Beta  occ. eigenvalues --   -1.13376  -1.13342  -1.12873  -1.12861  -1.12837
  Beta  occ. eigenvalues --   -0.15537  -0.13412  -0.12375
  Beta virt. eigenvalues --   -0.07246  -0.06996  -0.05694  -0.03681  -0.03183
  Beta virt. eigenvalues --   -0.02697  -0.02268  -0.01652  -0.01546  -0.01242
  Beta virt. eigenvalues --   -0.00992  -0.00050   0.00177   0.00238   0.00524

 Mulliken charges and spin densities:
               1          2
     1  Na   0.143726   0.125426
     2  Na   0.096740  -0.002033
     3  Na  -0.204593   0.145805
     4  Na  -0.006910   0.068158
     5  Na  -0.302557   0.182851
     6  Na   0.434119   0.344929
     7  Na  -0.160524   0.134863
 Sum of Mulliken charges =  -0.00000   1.00000

 Dipole moment (field-independent basis, Debye):
    X=              1.4762    Y=             -0.6852    Z=             -0.2607  Tot=              1.6482
 Quadrupole moment (field-independent basis, Debye-Ang):
   XX=            -64.6218   YY=            -67.3132   ZZ=            -69.0900
   XY=             -0.3939   XZ=              0.1319   YZ=              2.1965

 Normal termination of Gaussian 16 at Sun Dec  3 20:24:20 2023.
